<event>
 7    1  0.2878477E-009  0.9748630E+02  0.7561462E-02  0.1285673E+00
         -2   -1    0    0    0  501 -0.00000000000E+00  0.00000000000E+00  0.73963804823E+02  0.73963804823E+02  0.00000000000E+00 0. -1.
          2   -1    0    0  501    0  0.00000000000E+00 -0.00000000000E+00 -0.29275058247E+03  0.29275058247E+03  0.00000000000E+00 0.  1.
         25    2    1    2    0    0  0.96297201752E+02 -0.81194123838E+01 -0.13429240162E+03  0.20741526652E+03  0.12509023834E+03 0.  0.
          5    1    3    3  502    0  0.32577637494E+02  0.47698941484E+01  0.20819535370E+02  0.39178818358E+02  0.41800000000E+01 0. -1.
         -5    1    3    3    0  502  0.63719564257E+02 -0.12889306532E+02 -0.15511193699E+03  0.16823644816E+03  0.41800000000E+01 0. -1.
        -11    1    1    2    0    0 -0.37128443959E+02  0.30749858881E+01  0.17589842800E+02  0.41199265270E+02  0.00000000000E+00 0. -1.
         11    1    1    2    0    0 -0.59168757792E+02  0.50444264957E+01 -0.10208421883E+03  0.11809985551E+03  0.00000000000E+00 0.  1.
</event>
<event>
 7    1  0.2878477E-009  0.9884517E+02  0.7561462E-02  0.1282743E+00
          2   -1    0    0  501    0  0.00000000000E+00  0.00000000000E+00  0.15878381842E+03  0.15878381842E+03  0.00000000000E+00 0. -1.
         -2   -1    0    0    0  501 -0.00000000000E+00 -0.00000000000E+00 -0.97714396704E+02  0.97714396704E+02  0.00000000000E+00 0.  1.
         25    2    1    2    0    0 -0.58320270224E+02  0.13202573169E+02 -0.98113620844E+01  0.13899181883E+03  0.12508757339E+03 0.  0.
          5    1    3    3  502    0 -0.79194537025E+02  0.47223142247E+02 -0.25727668580E+02  0.95818501287E+02  0.41800000000E+01 0.  1.
         -5    1    3    3    0  502  0.20874266800E+02 -0.34020569078E+02  0.15916306496E+02  0.43173317539E+02  0.41800000000E+01 0.  1.
        -11    1    1    2    0    0  0.31635180026E+02  0.62356165897E+01 -0.69311797387E+01  0.32980430290E+02  0.00000000000E+00 0.  1.
         11    1    1    2    0    0  0.26685090198E+02 -0.19438189759E+02  0.77811963537E+02  0.84525966007E+02  0.00000000000E+00 0. -1.
</event>
<event>
 7    1  0.2878477E-009  0.2722185E+03  0.7561462E-02  0.1100017E+00
          1   -1    0    0  501    0  0.00000000000E+00  0.00000000000E+00  0.30886343478E+03  0.30886343478E+03  0.00000000000E+00 0. -1.
         -1   -1    0    0    0  501 -0.00000000000E+00 -0.00000000000E+00 -0.29387593526E+03  0.29387593526E+03  0.00000000000E+00 0.  1.
         25    2    1    2    0    0  0.86664013427E+02 -0.23574247500E+03  0.13324378051E+03  0.31062542381E+03  0.12509629544E+03 0.  0.
          5    1    3    3  502    0  0.11632869998E+03 -0.18554340306E+03  0.85436718078E+02  0.23510769034E+03  0.41800000000E+01 0. -1.
         -5    1    3    3    0  502 -0.29664686550E+02 -0.50199071934E+02  0.47807062432E+02  0.75517733477E+02  0.41800000000E+01 0. -1.
        -11    1    1    2    0    0 -0.73561358153E+01  0.14987367515E+03 -0.61402897970E+02  0.16213126508E+03  0.00000000000E+00 0.  1.
         11    1    1    2    0    0 -0.79307877612E+02  0.85868799845E+02 -0.56853383020E+02  0.12998268115E+03  0.00000000000E+00 0. -1.
</event>
<event>
 7    1  0.2878477E-009  0.1398080E+03  0.7561462E-02  0.1213588E+00
          1   -1    0    0  501    0  0.00000000000E+00  0.00000000000E+00  0.96414098415E+03  0.96414098415E+03  0.00000000000E+00 0.  1.
         -1   -1    0    0    0  501 -0.00000000000E+00 -0.00000000000E+00 -0.23443142264E+02  0.23443142264E+02  0.00000000000E+00 0. -1.
         25    2    1    2    0    0 -0.63405297093E+02 -0.63595685025E+02  0.68026494878E+03  0.69747715387E+03  0.12509730922E+03 0.  0.
          5    1    3    3  502    0 -0.78007805574E+02  0.89744901060E+01  0.30623035482E+03  0.31616492819E+03  0.41800000000E+01 0. -1.
         -5    1    3    3    0  502  0.14602508481E+02 -0.72570175131E+02  0.37403459396E+03  0.38131222568E+03  0.41800000000E+01 0. -1.
        -11    1    1    2    0    0  0.22039937453E+02  0.79518021223E+02  0.15175933648E+03  0.17274191950E+03  0.00000000000E+00 0. -1.
         11    1    1    2    0    0  0.41365359640E+02 -0.15922336198E+02  0.10867355662E+03  0.11736505305E+03  0.00000000000E+00 0.  1.
</event>
<event>
 7    1  0.2878477E-009  0.1073429E+03  0.7561462E-02  0.1265571E+00
         -2   -1    0    0    0  501 -0.00000000000E+00  0.00000000000E+00  0.33695491912E+02  0.33695491912E+02  0.00000000000E+00 0.  1.
          2   -1    0    0  501    0  0.00000000000E+00 -0.00000000000E+00 -0.50649474376E+03  0.50649474376E+03  0.00000000000E+00 0. -1.
         25    2    1    2    0    0  0.18837806079E+01 -0.32096422860E+02 -0.40126608017E+03  0.42153796331E+03  0.12508420532E+03 0.  0.
          5    1    3    3  502    0 -0.54997105223E+02 -0.44297100025E+02 -0.22747168261E+03  0.23821786970E+03  0.41800000000E+01 0. -1.
         -5    1    3    3    0  502  0.56880885831E+02  0.12200677165E+02 -0.17379439756E+03  0.18332009361E+03  0.41800000000E+01 0. -1.
        -11    1    1    2    0    0  0.32449194747E+02 -0.74045079100E+01 -0.54044967391E+02  0.63471532811E+02  0.00000000000E+00 0. -1.
         11    1    1    2    0    0 -0.34332975355E+02  0.39500930770E+02 -0.17488204280E+02  0.55180739551E+02  0.00000000000E+00 0.  1.
</event>
<event>
 7    1  0.2878477E-009  0.1232291E+03  0.7561462E-02  0.1237863E+00
          2   -1    0    0  501    0  0.00000000000E+00  0.00000000000E+00  0.31825531840E+03  0.31825531840E+03  0.00000000000E+00 0.  1.
         -2   -1    0    0    0  501 -0.00000000000E+00 -0.00000000000E+00 -0.55773148513E+02  0.55773148513E+02  0.00000000000E+00 0. -1.
         25    2    1    2    0    0 -0.71315506620E+02  0.21102970971E+01  0.18544545245E+03  0.23479631858E+03  0.12509572552E+03 0.  0.
          5    1    3    3  502    0 -0.76119725423E+02  0.51677615831E+02  0.10112663360E+03  0.13678032387E+03  0.41800000000E+01 0.  1.
         -5    1    3    3    0  502  0.48042188027E+01 -0.49567318734E+02  0.84318818853E+02  0.98015994703E+02  0.41800000000E+01 0.  1.
        -11    1    1    2    0    0 -0.13802760993E+02 -0.12515921907E+02 -0.62877994057E+01  0.19664712903E+02  0.00000000000E+00 0. -1.
         11    1    1    2    0    0  0.85118267613E+02  0.10405624810E+02  0.83324516846E+02  0.11956743544E+03  0.00000000000E+00 0.  1.
</event>
<event>
 7    1  0.2878477E-009  0.1292076E+03  0.7561462E-02  0.1228636E+00
         -2   -1    0    0    0  501 -0.00000000000E+00  0.00000000000E+00  0.32142412015E+03  0.32142412015E+03  0.00000000000E+00 0.  1.
          2   -1    0    0  501    0  0.00000000000E+00 -0.00000000000E+00 -0.77188587193E+02  0.77188587193E+02  0.00000000000E+00 0. -1.
         25    2    1    2    0    0 -0.36699139703E+02  0.64049252549E+02  0.24435263621E+02  0.14729018200E+03  0.12509269362E+03 0.  0.
          5    1    3    3  502    0  0.40932323340E+02  0.38018588391E+02  0.32736978607E+02  0.64884900597E+02  0.41800000000E+01 0. -1.
         -5    1    3    3    0  502 -0.77631463043E+02  0.26030664158E+02 -0.83017149853E+01  0.82405281399E+02  0.41800000000E+01 0. -1.
        -11    1    1    2    0    0  0.53094365025E+02 -0.80984204320E+02  0.19065860552E+03  0.21384142912E+03  0.00000000000E+00 0. -1.
         11    1    1    2    0    0 -0.16395225322E+02  0.16934951770E+02  0.29141663809E+02  0.37481096227E+02  0.00000000000E+00 0.  1.
</event>
<event>
 7    1  0.2878477E-009  0.1032206E+03  0.7561462E-02  0.1273666E+00
         -1   -1    0    0    0  501 -0.00000000000E+00  0.00000000000E+00  0.13147255774E+03  0.13147255774E+03  0.00000000000E+00 0.  1.
          1   -1    0    0  501    0  0.00000000000E+00 -0.00000000000E+00 -0.14699283135E+03  0.14699283135E+03  0.00000000000E+00 0. -1.
         25    2    1    2    0    0  0.12471219433E+02  0.89341551211E+01 -0.95644209349E+02  0.15821202831E+03  0.12509148923E+03 0.  0.
          5    1    3    3  502    0  0.43231068416E+02  0.51183279756E+02 -0.77970139007E+02  0.10288570542E+03  0.41800000000E+01 0.  1.
         -5    1    3    3    0  502 -0.30759848983E+02 -0.42249124635E+02 -0.17674070343E+02  0.55326322888E+02  0.41800000000E+01 0.  1.
        -11    1    1    2    0    0 -0.64524580699E+01 -0.47458202639E+02  0.58712647045E+02  0.75769981760E+02  0.00000000000E+00 0.  1.
         11    1    1    2    0    0 -0.60187613632E+01  0.38524047518E+02  0.21411288699E+02  0.44483379022E+02  0.00000000000E+00 0. -1.
</event>
<event>
 7    1  0.2878477E-009  0.1537709E+03  0.7561462E-02  0.1195914E+00
         -3   -1    0    0    0  501 -0.00000000000E+00  0.00000000000E+00  0.14478487205E+04  0.14478487205E+04  0.00000000000E+00 0.  1.
          3   -1    0    0  501    0  0.00000000000E+00 -0.00000000000E+00 -0.23234833434E+02  0.23234833434E+02  0.00000000000E+00 0. -1.
         25    2    1    2    0    0  0.10627657142E+03 -0.52244642497E+02  0.11041177175E+04  0.11174736677E+04  0.12508897393E+03 0.  0.
          5    1    3    3  502    0  0.55422684979E+02 -0.82013807279E+02  0.45435550805E+03  0.46503154590E+03  0.41800000000E+01 0.  1.
         -5    1    3    3    0  502  0.50853886440E+02  0.29769164782E+02  0.64976220950E+03  0.65244212175E+03  0.41800000000E+01 0.  1.
        -11    1    1    2    0    0 -0.10983676533E+03  0.13702283547E+02  0.23553186304E+03  0.26024435844E+03  0.00000000000E+00 0.  1.
         11    1    1    2    0    0  0.35601939111E+01  0.38542358951E+02  0.84964306520E+02  0.93365527881E+02  0.00000000000E+00 0. -1.
</event>
<event>
 7    1  0.2878477E-009  0.1683148E+03  0.7561462E-02  0.1179617E+00
          1   -1    0    0  501    0  0.00000000000E+00  0.00000000000E+00  0.11339576181E+04  0.11339576181E+04  0.00000000000E+00 0. -1.
         -1   -1    0    0    0  501 -0.00000000000E+00 -0.00000000000E+00 -0.31821662730E+02  0.31821662730E+02  0.00000000000E+00 0.  1.
         25    2    1    2    0    0 -0.84963791087E+02  0.10276967722E+03  0.82219015287E+03  0.84227314332E+03  0.12508776167E+03 0.  0.
          5    1    3    3  502    0 -0.66260141111E+02 -0.36716011544E+01  0.44293971580E+03  0.44790283677E+03  0.41800000000E+01 0.  1.
         -5    1    3    3    0  502 -0.18703649977E+02  0.10644127838E+03  0.37925043708E+03  0.39437030655E+03  0.41800000000E+01 0.  1.
        -11    1    1    2    0    0  0.10501376219E+03 -0.83360370231E+02  0.22632897909E+03  0.26306206179E+03  0.00000000000E+00 0. -1.
         11    1    1    2    0    0 -0.20049971102E+02 -0.19409306990E+02  0.53616823442E+02  0.60444075764E+02  0.00000000000E+00 0.  1.
</event>
<event>
 7    1  0.2878477E-009  0.2566327E+03  0.7561462E-02  0.1109183E+00
         -1   -1    0    0    0  501 -0.00000000000E+00  0.00000000000E+00  0.13699309719E+03  0.13699309719E+03  0.00000000000E+00 0.  1.
          1   -1    0    0  501    0  0.00000000000E+00 -0.00000000000E+00 -0.50863248549E+03  0.50863248549E+03  0.00000000000E+00 0. -1.
         25    2    1    2    0    0  0.22173779445E+03 -0.89054778288E+02 -0.22021025157E+03  0.34819326645E+03  0.12509033888E+03 0.  0.
          5    1    3    3  502    0  0.16644940197E+03 -0.17739276664E+02 -0.18927246738E+03  0.25270857655E+03  0.41800000000E+01 0.  1.
         -5    1    3    3    0  502  0.55288392483E+02 -0.71315501625E+02 -0.30937784183E+02  0.95484689901E+02  0.41800000000E+01 0.  1.
        -11    1    1    2    0    0 -0.90341979540E+02 -0.10061476945E+02 -0.62957566596E+02  0.11057378431E+03  0.00000000000E+00 0.  1.
         11    1    1    2    0    0 -0.13139581491E+03  0.99116255233E+02 -0.88471570145E+02  0.18685853192E+03  0.00000000000E+00 0. -1.
</event>
<event>
 7    1  0.2878477E-009  0.1211845E+03  0.7561462E-02  0.1241156E+00
          1   -1    0    0  501    0  0.00000000000E+00  0.00000000000E+00  0.15005669664E+04  0.15005669664E+04  0.00000000000E+00 0. -1.
         -1   -1    0    0    0  501 -0.00000000000E+00 -0.00000000000E+00 -0.16390780844E+02  0.16390780844E+02  0.00000000000E+00 0.  1.
         25    2    1    2    0    0  0.86600989942E+02  0.15354503829E+02  0.11633826994E+04  0.11733900158E+04  0.12509728819E+03 0.  0.
          5    1    3    3  502    0  0.51900033789E+02  0.70171767622E+02  0.61822101240E+03  0.62436558445E+03  0.41800000000E+01 0. -1.
         -5    1    3    3    0  502  0.34700956154E+02 -0.54817263792E+02  0.54516168702E+03  0.54902443130E+03  0.41800000000E+01 0. -1.
        -11    1    1    2    0    0 -0.33319892551E+02 -0.15375581221E+02  0.28516095316E+02  0.46473556240E+02  0.00000000000E+00 0.  1.
         11    1    1    2    0    0 -0.53281097391E+02  0.21077391562E-01  0.29227739080E+03  0.29709417523E+03  0.00000000000E+00 0. -1.
</event>
<event>
 7    1  0.2878477E-009  0.9960932E+02  0.7561462E-02  0.1281120E+00
          2   -1    0    0  501    0  0.00000000000E+00  0.00000000000E+00  0.42272700209E+02  0.42272700209E+02  0.00000000000E+00 0. -1.
         -2   -1    0    0    0  501 -0.00000000000E+00 -0.00000000000E+00 -0.32824104020E+03  0.32824104020E+03  0.00000000000E+00 0.  1.
         25    2    1    2    0    0  0.19775242771E+02  0.17442689500E+02 -0.22003683332E+03  0.25447914770E+03  0.12509244962E+03 0.  0.
          5    1    3    3  502    0 -0.86008296231E+01  0.55410352093E+02 -0.41974362434E+02  0.70168375291E+02  0.41800000000E+01 0.  1.
         -5    1    3    3    0  502  0.28376072394E+02 -0.37967662593E+02 -0.17806247089E+03  0.18431077241E+03  0.41800000000E+01 0.  1.
        -11    1    1    2    0    0  0.14717401332E+02 -0.47454255969E+02 -0.31991193488E+02  0.59092679516E+02  0.00000000000E+00 0.  1.
         11    1    1    2    0    0 -0.34492644103E+02  0.30011566469E+02 -0.33940313177E+02  0.56941913190E+02  0.00000000000E+00 0. -1.
</event>
<event>
 7    1  0.2878477E-009  0.1094657E+03  0.7561462E-02  0.1261563E+00
          2   -1    0    0  501    0  0.00000000000E+00  0.00000000000E+00  0.88830090380E+03  0.88830090380E+03  0.00000000000E+00 0. -1.
         -2   -1    0    0    0  501 -0.00000000000E+00 -0.00000000000E+00 -0.20928707887E+02  0.20928707887E+02  0.00000000000E+00 0.  1.
         25    2    1    2    0    0 -0.77813289210E+02  0.24932601374E+02  0.48012376320E+03  0.50283534250E+03  0.12509201048E+03 0.  0.
          5    1    3    3  502    0  0.21396201389E+02 -0.18734472316E+02  0.38279610573E+02  0.47870438399E+02  0.41800000000E+01 0. -1.
         -5    1    3    3    0  502 -0.99209490600E+02  0.43667073690E+02  0.44184415263E+03  0.45496490410E+03  0.41800000000E+01 0. -1.
        -11    1    1    2    0    0  0.97427340307E+01 -0.33055048059E+01 -0.21409835864E+01  0.10508617375E+02  0.00000000000E+00 0.  1.
         11    1    1    2    0    0  0.68070555180E+02 -0.21627096568E+02  0.38938941629E+03  0.39588565181E+03  0.00000000000E+00 0. -1.
</event>
<event>
 7    1  0.2878477E-009  0.1646808E+03  0.7561462E-02  0.1183511E+00
          1   -1    0    0  501    0  0.00000000000E+00  0.00000000000E+00  0.37489986793E+03  0.37489986793E+03  0.00000000000E+00 0. -1.
         -1   -1    0    0    0  501 -0.00000000000E+00 -0.00000000000E+00 -0.16173370868E+03  0.16173370868E+03  0.00000000000E+00 0.  1.
         25    2    1    2    0    0  0.59996996660E+02  0.14250838900E+03 -0.60951432437E+02  0.20801700475E+03  0.12509083342E+03 0.  0.
          5    1    3    3  502    0  0.49099627822E+02  0.14766215053E+03 -0.10548666594E+02  0.15602445615E+03  0.41800000000E+01 0. -1.
         -5    1    3    3    0  502  0.10897368838E+02 -0.51537615265E+01 -0.50402765843E+02  0.51992548601E+02  0.41800000000E+01 0. -1.
        -11    1    1    2    0    0 -0.51955066869E+02 -0.65954346635E+02  0.66237210918E+02  0.10694238133E+03  0.00000000000E+00 0.  1.
         11    1    1    2    0    0 -0.80419297906E+01 -0.76554042366E+02  0.20788038077E+03  0.22167419053E+03  0.00000000000E+00 0. -1.
</event>
<event>
 7    1  0.2878477E-009  0.1083293E+03  0.7561462E-02  0.1263695E+00
         -2   -1    0    0    0  501 -0.00000000000E+00  0.00000000000E+00  0.12655022374E+03  0.12655022374E+03  0.00000000000E+00 0.  1.
          2   -1    0    0  501    0  0.00000000000E+00 -0.00000000000E+00 -0.15702352511E+03  0.15702352511E+03  0.00000000000E+00 0. -1.
         25    2    1    2    0    0 -0.11784756305E+02 -0.43966299691E+02 -0.92354050965E+02  0.16201454086E+03  0.12509006647E+03 0.  0.
          5    1    3    3  502    0  0.41853416345E+02  0.65758494772E+01  0.15125390095E+01  0.42599418193E+02  0.41800000000E+01 0. -1.
         -5    1    3    3    0  502 -0.53638172650E+02 -0.50542149168E+02 -0.93866589975E+02  0.11941512267E+03  0.41800000000E+01 0. -1.
        -11    1    1    2    0    0 -0.19626923074E+02 -0.20608417953E+02  0.34460220650E+02  0.44692614683E+02  0.00000000000E+00 0.  1.
         11    1    1    2    0    0  0.31411679380E+02  0.64574717644E+02  0.27420528942E+02  0.76866593315E+02  0.00000000000E+00 0. -1.
</event>
<event>
 7    1  0.2878477E-009  0.9730273E+02  0.7561462E-02  0.1286072E+00
         -1   -1    0    0    0  501 -0.00000000000E+00  0.00000000000E+00  0.27799088933E+02  0.27799088933E+02  0.00000000000E+00 0.  1.
          1   -1    0    0  501    0  0.00000000000E+00 -0.00000000000E+00 -0.51223937327E+03  0.51223937327E+03  0.00000000000E+00 0. -1.
         25    2    1    2    0    0 -0.17182686016E+02  0.16655007079E+02 -0.36962881495E+03  0.39095493577E+03  0.12509063514E+03 0.  0.
          5    1    3    3  502    0  0.16384655251E+02 -0.35624613821E+02 -0.27410964025E+03  0.27693164737E+03  0.41800000000E+01 0. -1.
         -5    1    3    3    0  502 -0.33567341267E+02  0.52279620900E+02 -0.95519174695E+02  0.11402328839E+03  0.41800000000E+01 0. -1.
        -11    1    1    2    0    0  0.14019782116E+02 -0.53813518082E+02 -0.52569962603E+02  0.76524832486E+02  0.00000000000E+00 0.  1.
         11    1    1    2    0    0  0.31629039007E+01  0.37158511004E+02 -0.62241506786E+02  0.72558693952E+02  0.00000000000E+00 0. -1.
</event>
<event>
 7    1  0.2878477E-009  0.1257816E+03  0.7561462E-02  0.1233853E+00
          1   -1    0    0  501    0  0.00000000000E+00  0.00000000000E+00  0.22477420296E+03  0.22477420296E+03  0.00000000000E+00 0. -1.
         -1   -1    0    0    0  501 -0.00000000000E+00 -0.00000000000E+00 -0.97682787134E+02  0.97682787134E+02  0.00000000000E+00 0.  1.
         25    2    1    2    0    0 -0.76120309811E+02 -0.65744286478E+02  0.61564285291E+02  0.17191558086E+03  0.12509273739E+03 0.  0.
          5    1    3    3  502    0 -0.73688962889E+02 -0.29451610772E+02  0.93938346929E+02  0.12304204994E+03  0.41800000000E+01 0.  1.
         -5    1    3    3    0  502 -0.24313469215E+01 -0.36292675706E+02 -0.32374061638E+02  0.48873530921E+02  0.41800000000E+01 0.  1.
        -11    1    1    2    0    0 -0.21089886733E+02  0.14496609788E+02  0.10811771008E+02  0.27781817977E+02  0.00000000000E+00 0. -1.
         11    1    1    2    0    0  0.97210196544E+02  0.51247676691E+02  0.54715359529E+02  0.12275959126E+03  0.00000000000E+00 0.  1.
</event>
<event>
 7    1  0.2878477E-009  0.2333504E+03  0.7561462E-02  0.1124304E+00
         -4   -1    0    0    0  501 -0.00000000000E+00  0.00000000000E+00  0.68654398041E+03  0.68654398041E+03  0.00000000000E+00 0.  1.
          4   -1    0    0  501    0  0.00000000000E+00 -0.00000000000E+00 -0.97088460065E+02  0.97088460065E+02  0.00000000000E+00 0. -1.
         25    2    1    2    0    0 -0.14071574854E+03 -0.18550612117E+03  0.30971787878E+03  0.40716867765E+03  0.12509086594E+03 0.  0.
          5    1    3    3  502    0 -0.30649583254E+02 -0.30280433935E+02  0.15783159162E+03  0.16365996867E+03  0.41800000000E+01 0.  1.
         -5    1    3    3    0  502 -0.11006616529E+03 -0.15522568724E+03  0.15188628716E+03  0.24350870898E+03  0.41800000000E+01 0.  1.
        -11    1    1    2    0    0  0.12120459244E+03  0.15332831390E+03  0.16523188748E+03  0.25593300239E+03  0.00000000000E+00 0. -1.
         11    1    1    2    0    0  0.19511156101E+02  0.32177807278E+02  0.11450575409E+03  0.12053076044E+03  0.00000000000E+00 0.  1.
</event>
<event>
 7    1  0.2878477E-009  0.1041644E+03  0.7561462E-02  0.1271775E+00
          1   -1    0    0  501    0  0.00000000000E+00  0.00000000000E+00  0.35494302661E+03  0.35494302661E+03  0.00000000000E+00 0. -1.
         -1   -1    0    0    0  501 -0.00000000000E+00 -0.00000000000E+00 -0.39862029443E+02  0.39862029443E+02  0.00000000000E+00 0.  1.
         25    2    1    2    0    0 -0.99245788418E+00 -0.29524216284E+02  0.24427322593E+03  0.27601964251E+03  0.12507905430E+03 0.  0.
          5    1    3    3  502    0 -0.42108459627E+02 -0.51864363512E+02  0.20206818486E+03  0.21286629209E+03  0.41800000000E+01 0. -1.
         -5    1    3    3    0  502  0.41116001743E+02  0.22340147227E+02  0.42205041070E+02  0.63153350419E+02  0.41800000000E+01 0. -1.
        -11    1    1    2    0    0 -0.72312059433E+01 -0.31763230309E+02  0.32658016586E+02  0.46127423366E+02  0.00000000000E+00 0. -1.
         11    1    1    2    0    0  0.82236638274E+01  0.61287446593E+02  0.38149754645E+02  0.72657990174E+02  0.00000000000E+00 0.  1.
</event>
<event>
 7    1  0.2878477E-009  0.2560973E+03  0.7561462E-02  0.1109511E+00
         -2   -1    0    0    0  501 -0.00000000000E+00  0.00000000000E+00  0.31442426046E+03  0.31442426046E+03  0.00000000000E+00 0.  1.
          2   -1    0    0  501    0  0.00000000000E+00 -0.00000000000E+00 -0.21568216452E+03  0.21568216452E+03  0.00000000000E+00 0. -1.
         25    2    1    2    0    0 -0.23170416739E+03  0.16303388913E+02  0.94450383961E+02  0.28021530123E+03  0.12508844208E+03 0.  0.
          5    1    3    3  502    0 -0.13876798866E+03  0.70444849876E+02  0.64278357624E+02  0.16842865317E+03  0.41800000000E+01 0.  1.
         -5    1    3    3    0  502 -0.92936178730E+02 -0.54141460963E+02  0.30172026337E+02  0.11178664806E+03  0.41800000000E+01 0.  1.
        -11    1    1    2    0    0  0.96481999612E+02 -0.51197184422E+02 -0.90782141749E+01  0.10960082990E+03  0.00000000000E+00 0. -1.
         11    1    1    2    0    0  0.13522216777E+03  0.34893795508E+02  0.13369926148E+02  0.14029029385E+03  0.00000000000E+00 0.  1.
</event>
<event>
 7    1  0.2878477E-009  0.1076651E+03  0.7561462E-02  0.1264956E+00
          2   -1    0    0  501    0  0.00000000000E+00  0.00000000000E+00  0.28342030914E+03  0.28342030914E+03  0.00000000000E+00 0. -1.
         -2   -1    0    0    0  501 -0.00000000000E+00 -0.00000000000E+00 -0.51593528698E+02  0.51593528698E+02  0.00000000000E+00 0.  1.
         25    2    1    2    0    0 -0.19501178446E+02 -0.44529105577E+02  0.10377067454E+03  0.16964442481E+03  0.12509093001E+03 0.  0.
          5    1    3    3  502    0 -0.60510281044E+02 -0.42022998242E+02  0.20323293782E+02  0.76537148911E+02  0.41800000000E+01 0.  1.
         -5    1    3    3    0  502  0.41009102598E+02 -0.25061073348E+01  0.83447380756E+02  0.93107275897E+02  0.41800000000E+01 0.  1.
        -11    1    1    2    0    0 -0.34553652359E+02  0.25470057177E+02  0.32110564935E+02  0.53607528243E+02  0.00000000000E+00 0.  1.
         11    1    1    2    0    0  0.54054830805E+02  0.19059048400E+02  0.95945540971E+02  0.11176188479E+03  0.00000000000E+00 0. -1.
</event>
<event>
 7    1  0.2878477E-009  0.9325846E+02  0.7561462E-02  0.1295147E+00
         -1   -1    0    0    0  501 -0.00000000000E+00  0.00000000000E+00  0.63051751389E+02  0.63051751389E+02  0.00000000000E+00 0.  1.
          1   -1    0    0  501    0  0.00000000000E+00 -0.00000000000E+00 -0.25160479023E+03  0.25160479023E+03  0.00000000000E+00 0. -1.
         25    2    1    2    0    0 -0.30386170611E+02 -0.55236233355E+02 -0.92633015836E+02  0.16793704786E+03  0.12509042962E+03 0.  0.
          5    1    3    3  502    0 -0.91452164814E+01  0.80437825217E+01  0.27542892619E+02  0.30404288441E+02  0.41800000000E+01 0. -1.
         -5    1    3    3    0  502 -0.21240954130E+02 -0.63280015877E+02 -0.12017590846E+03  0.13753275942E+03  0.41800000000E+01 0. -1.
        -11    1    1    2    0    0  0.10498670691E+02 -0.23400152073E+02 -0.74797285488E+01  0.26715829436E+02  0.00000000000E+00 0. -1.
         11    1    1    2    0    0  0.19887499920E+02  0.78636385428E+02 -0.88440294459E+02  0.12000366432E+03  0.00000000000E+00 0.  1.
</event>
<event>
 7    1  0.2878477E-009  0.1119185E+03  0.7561462E-02  0.1257058E+00
          1   -1    0    0  501    0  0.00000000000E+00  0.00000000000E+00  0.28715757864E+02  0.28715757864E+02  0.00000000000E+00 0. -1.
         -1   -1    0    0    0  501 -0.00000000000E+00 -0.00000000000E+00 -0.53181169802E+03  0.53181169802E+03  0.00000000000E+00 0.  1.
         25    2    1    2    0    0  0.15423832588E+01 -0.23853980135E+02 -0.17399678252E+03  0.21562273953E+03  0.12508754600E+03 0.  0.
          5    1    3    3  502    0 -0.58627381563E+02 -0.57114292515E+01 -0.11522762772E+03  0.12947844949E+03  0.41800000000E+01 0. -1.
         -5    1    3    3    0  502  0.60169764822E+02 -0.18142550884E+02 -0.58769154798E+02  0.86144290043E+02  0.41800000000E+01 0. -1.
        -11    1    1    2    0    0 -0.10661299077E+02  0.61830911374E+02 -0.17411012777E+03  0.18507042306E+03  0.00000000000E+00 0.  1.
         11    1    1    2    0    0  0.91189158181E+01 -0.37976931239E+02 -0.15498902987E+03  0.15983429329E+03  0.00000000000E+00 0. -1.
</event>
<event>
 7    1  0.2878477E-009  0.1379873E+03  0.7561462E-02  0.1216063E+00
         -1   -1    0    0    0  501 -0.00000000000E+00  0.00000000000E+00  0.43380769312E+03  0.43380769312E+03  0.00000000000E+00 0.  1.
          1   -1    0    0  501    0  0.00000000000E+00 -0.00000000000E+00 -0.55270351198E+02  0.55270351198E+02  0.00000000000E+00 0. -1.
         25    2    1    2    0    0 -0.82741385598E+02  0.68213103674E+02  0.27835576902E+03  0.32346205301E+03  0.12508637489E+03 0.  0.
          5    1    3    3  502    0 -0.10329022222E+03  0.37905285527E+02  0.12887489447E+03  0.16950484212E+03  0.41800000000E+01 0.  1.
         -5    1    3    3    0  502  0.20548836621E+02  0.30307818146E+02  0.14948087456E+03  0.15395721089E+03  0.41800000000E+01 0.  1.
        -11    1    1    2    0    0  0.77699932063E+02 -0.19591034660E+02  0.45022648821E+02  0.91913693150E+02  0.00000000000E+00 0. -1.
         11    1    1    2    0    0  0.50414535343E+01 -0.48622069014E+02  0.55158924082E+02  0.73702298165E+02  0.00000000000E+00 0.  1.
</event>
<event>
 7    1  0.2878477E-009  0.1821706E+03  0.7561462E-02  0.1165719E+00
          1   -1    0    0  501    0  0.00000000000E+00  0.00000000000E+00  0.79670211950E+02  0.79670211950E+02  0.00000000000E+00 0. -1.
         -1   -1    0    0    0  501 -0.00000000000E+00 -0.00000000000E+00 -0.47332793121E+03  0.47332793121E+03  0.00000000000E+00 0.  1.
         25    2    1    2    0    0 -0.51614901912E+02 -0.15211616821E+03 -0.18858974039E+03  0.27751872480E+03  0.12508847150E+03 0.  0.
          5    1    3    3  502    0 -0.77495595911E+02 -0.12574775888E+03 -0.92119778128E+02  0.17413096270E+03  0.41800000000E+01 0. -1.
         -5    1    3    3    0  502  0.25880693999E+02 -0.26368409328E+02 -0.96469962261E+02  0.10338776210E+03  0.41800000000E+01 0. -1.
        -11    1    1    2    0    0 -0.20195025557E+02  0.17089082975E+02 -0.55900087676E+02  0.61844123540E+02  0.00000000000E+00 0.  1.
         11    1    1    2    0    0  0.71809927469E+02  0.13502708524E+03 -0.14916789119E+03  0.21363529482E+03  0.00000000000E+00 0. -1.
</event>
<event>
 7    1  0.2878477E-009  0.9793085E+02  0.7561462E-02  0.1284708E+00
         -1   -1    0    0    0  501 -0.00000000000E+00  0.00000000000E+00  0.67114478969E+02  0.67114478969E+02  0.00000000000E+00 0.  1.
          1   -1    0    0  501    0  0.00000000000E+00 -0.00000000000E+00 -0.35346962193E+03  0.35346962193E+03  0.00000000000E+00 0. -1.
         25    2    1    2    0    0 -0.54513518233E+02  0.54703096198E+02 -0.25839317720E+03  0.29728510129E+03  0.12508894844E+03 0.  0.
          5    1    3    3  502    0 -0.58542419797E+02  0.54952208796E+02 -0.27138945942E+03  0.28304888492E+03  0.41800000000E+01 0. -1.
         -5    1    3    3    0  502  0.40289015636E+01 -0.24911259795E+00  0.12996282224E+02  0.14236216371E+02  0.41800000000E+01 0. -1.
        -11    1    1    2    0    0  0.72938213347E+02 -0.54789376561E+02 -0.17271411749E+01  0.91240570838E+02  0.00000000000E+00 0.  1.
         11    1    1    2    0    0 -0.18424695114E+02  0.86280362423E-01 -0.26234824590E+02  0.32058428776E+02  0.00000000000E+00 0. -1.
</event>
<event>
 7    1  0.2878477E-009  0.2191363E+03  0.7561462E-02  0.1134529E+00
         -1   -1    0    0    0  501 -0.00000000000E+00  0.00000000000E+00  0.48630808409E+03  0.48630808409E+03  0.00000000000E+00 0.  1.
          1   -1    0    0  501    0  0.00000000000E+00 -0.00000000000E+00 -0.11612326782E+03  0.11612326782E+03  0.00000000000E+00 0. -1.
         25    2    1    2    0    0  0.19871890719E+03  0.59833369503E+02  0.23422492563E+03  0.33702760392E+03  0.12512814965E+03 0.  0.
          5    1    3    3  502    0  0.97077287893E+02  0.46955369927E+02  0.35846921847E+02  0.11371578956E+03  0.41800000000E+01 0.  1.
         -5    1    3    3    0  502  0.10164161929E+03  0.12877999575E+02  0.19837800378E+03  0.22331181436E+03  0.41800000000E+01 0.  1.
        -11    1    1    2    0    0 -0.20111948182E+03 -0.36556353144E+02  0.11933200586E+03  0.23669714942E+03  0.00000000000E+00 0.  1.
         11    1    1    2    0    0  0.24005746299E+01 -0.23277016358E+02  0.16627884778E+02  0.28706598567E+02  0.00000000000E+00 0. -1.
</event>
<event>
 7    1  0.2878477E-009  0.1170828E+03  0.7561462E-02  0.1247989E+00
         -1   -1    0    0    0  501 -0.00000000000E+00  0.00000000000E+00  0.22909954881E+03  0.22909954881E+03  0.00000000000E+00 0.  1.
          1   -1    0    0  501    0  0.00000000000E+00 -0.00000000000E+00 -0.70530484568E+02  0.70530484568E+02  0.00000000000E+00 0. -1.
         25    2    1    2    0    0  0.30651952001E+02  0.55802056184E+02  0.11618255738E+03  0.18220755980E+03  0.12509115305E+03 0.  0.
          5    1    3    3  502    0 -0.53192827181E+01  0.86828181406E+02  0.98166846734E+02  0.13123120838E+03  0.41800000000E+01 0. -1.
         -5    1    3    3    0  502  0.35971234719E+02 -0.31026125221E+02  0.18015710650E+02  0.50976351416E+02  0.41800000000E+01 0. -1.
        -11    1    1    2    0    0 -0.12005951941E+02  0.18901476437E+02  0.32967576020E+02  0.39853102290E+02  0.00000000000E+00 0.  1.
         11    1    1    2    0    0 -0.18646000060E+02 -0.74703532622E+02  0.94189308370E+01  0.77569371291E+02  0.00000000000E+00 0. -1.
</event>
<event>
 7    1  0.2878477E-009  0.1916950E+03  0.7561462E-02  0.1156941E+00
         -2   -1    0    0    0  501 -0.00000000000E+00  0.00000000000E+00  0.26953113509E+03  0.26953113509E+03  0.00000000000E+00 0. -1.
          2   -1    0    0  501    0  0.00000000000E+00 -0.00000000000E+00 -0.24582730423E+03  0.24582730423E+03  0.00000000000E+00 0.  1.
         25    2    1    2    0    0 -0.16908175468E+03 -0.40752979583E+02  0.16731338750E+03  0.27182782387E+03  0.12508857295E+03 0.  0.
          5    1    3    3  502    0 -0.14570167786E+03  0.78000776798E+01  0.73196026950E+02  0.16329406268E+03  0.41800000000E+01 0.  1.
         -5    1    3    3    0  502 -0.23380076813E+02 -0.48553057263E+02  0.94117360549E+02  0.10853376119E+03  0.41800000000E+01 0.  1.
        -11    1    1    2    0    0  0.22703642415E+02  0.28558910825E+02  0.22166657193E+01  0.36551065283E+02  0.00000000000E+00 0.  1.
         11    1    1    2    0    0  0.14637811226E+03  0.12194068758E+02 -0.14582622236E+03  0.20697955017E+03  0.00000000000E+00 0. -1.
</event>
<event>
 7    1  0.2878477E-009  0.1212594E+03  0.7561462E-02  0.1241034E+00
         -2   -1    0    0    0  501 -0.00000000000E+00  0.00000000000E+00  0.27254935613E+02  0.27254935613E+02  0.00000000000E+00 0.  1.
          2   -1    0    0  501    0  0.00000000000E+00 -0.00000000000E+00 -0.75947266641E+03  0.75947266641E+03  0.00000000000E+00 0. -1.
         25    2    1    2    0    0  0.82213212723E+02 -0.43368995108E+02 -0.37787338492E+03  0.40875158467E+03  0.12509868446E+03 0.  0.
          5    1    3    3  502    0  0.48903513090E+02 -0.60411653902E+02 -0.35763536836E+03  0.36600771934E+03  0.41800000000E+01 0. -1.
         -5    1    3    3    0  502  0.33309699633E+02  0.17042658794E+02 -0.20238016563E+02  0.42743865324E+02  0.41800000000E+01 0. -1.
        -11    1    1    2    0    0 -0.53586370007E+02 -0.20237959350E+02 -0.11206302751E+03  0.12585386837E+03  0.00000000000E+00 0.  1.
         11    1    1    2    0    0 -0.28626842716E+02  0.63606954458E+02 -0.24228131837E+03  0.25212214899E+03  0.00000000000E+00 0. -1.
</event>
<event>
 6    1  0.2878477E-009  0.1482827E+03  0.7561462E-02  0.1202599E+00
          1   -1    0    0  501    0  0.00000000000E+00  0.00000000000E+00  0.15288762754E+03  0.15288762754E+03  0.00000000000E+00 0. -1.
         -1   -1    0    0    0  501 -0.00000000000E+00 -0.00000000000E+00 -0.18199449415E+03  0.18199449415E+03  0.00000000000E+00 0.  1.
          5    1    1    2  502    0  0.10393888078E+03  0.76132440511E+02 -0.53410110548E+02  0.13953333561E+03  0.41800000000E+01 0.  1.
         -5    1    1    2    0  502 -0.32186342911E+02  0.23687184227E+01 -0.31805310557E+02  0.45504084175E+02  0.41800000000E+01 0.  1.
        -11    1    1    2    0    0  0.19033775552E+02 -0.10985520891E+02 -0.30252350592E+01  0.22183740175E+02  0.00000000000E+00 0. -1.
         11    1    1    2    0    0 -0.90786313424E+02 -0.67515638043E+02  0.59133789556E+02  0.12766096174E+03  0.00000000000E+00 0.  1.
</event>
<event>
 7    1  0.2878477E-009  0.1249172E+03  0.7561462E-02  0.1235199E+00
         -1   -1    0    0    0  501 -0.00000000000E+00  0.00000000000E+00  0.55694053647E+03  0.55694053647E+03  0.00000000000E+00 0.  1.
          1   -1    0    0  501    0  0.00000000000E+00 -0.00000000000E+00 -0.54273705755E+02  0.54273705755E+02  0.00000000000E+00 0. -1.
         25    2    1    2    0    0 -0.80540545862E+02  0.38253618094E+02  0.44627669394E+03  0.47197623432E+03  0.12509420205E+03 0.  0.
          5    1    3    3  502    0 -0.68323959755E+01 -0.43009085681E+02  0.13410802420E+03  0.14106345254E+03  0.41800000000E+01 0. -1.
         -5    1    3    3    0  502 -0.73708149887E+02  0.81262703774E+02  0.31216866974E+03  0.33091278179E+03  0.41800000000E+01 0. -1.
        -11    1    1    2    0    0  0.34653853756E+02  0.27428254315E+01 -0.20810256571E+02  0.40515175552E+02  0.00000000000E+00 0. -1.
         11    1    1    2    0    0  0.45886692106E+02 -0.40996443525E+02  0.77200393343E+02  0.98722832346E+02  0.00000000000E+00 0.  1.
</event>
<event>
 7    1  0.2878477E-009  0.9457440E+02  0.7561462E-02  0.1292138E+00
          2   -1    0    0  501    0  0.00000000000E+00  0.00000000000E+00  0.13507607637E+03  0.13507607637E+03  0.00000000000E+00 0. -1.
         -2   -1    0    0    0  501 -0.00000000000E+00 -0.00000000000E+00 -0.18066520602E+03  0.18066520602E+03  0.00000000000E+00 0.  1.
         25    2    1    2    0    0  0.87661048707E+01 -0.89557619368E+02  0.42206481423E+02  0.15978193938E+03  0.12510583238E+03 0.  0.
          5    1    3    3  502    0  0.79524832169E+01 -0.18227261198E+02 -0.43608710659E+02  0.48110987159E+02  0.41800000000E+01 0.  1.
         -5    1    3    3    0  502  0.81362165382E+00 -0.71330358171E+02  0.85815192082E+02  0.11167095222E+03  0.41800000000E+01 0.  1.
        -11    1    1    2    0    0  0.49293830750E+01  0.81150958238E+02 -0.10475061239E+03  0.13259889757E+03  0.00000000000E+00 0.  1.
         11    1    1    2    0    0 -0.13695487946E+02  0.84066611303E+01  0.16955001319E+02  0.23360445440E+02  0.00000000000E+00 0. -1.
</event>
<event>
 7    1  0.2878477E-009  0.1324096E+03  0.7561462E-02  0.1223923E+00
         -2   -1    0    0    0  501 -0.00000000000E+00  0.00000000000E+00  0.51467427348E+02  0.51467427348E+02  0.00000000000E+00 0.  1.
          2   -1    0    0  501    0  0.00000000000E+00 -0.00000000000E+00 -0.39695567805E+03  0.39695567805E+03  0.00000000000E+00 0. -1.
         25    2    1    2    0    0  0.43552307113E+02 -0.81122686381E+02 -0.19671963995E+03  0.25064540075E+03  0.12508719548E+03 0.  0.
          5    1    3    3  502    0  0.34072909256E+02  0.21483854653E+02 -0.10534281433E+03  0.11285876167E+03  0.41800000000E+01 0. -1.
         -5    1    3    3    0  502  0.94793978566E+01 -0.10260654103E+03 -0.91376825618E+02  0.13778663907E+03  0.41800000000E+01 0. -1.
        -11    1    1    2    0    0 -0.66795018410E+02  0.59829471011E+02 -0.72712115403E+02  0.11544778825E+03  0.00000000000E+00 0.  1.
         11    1    1    2    0    0  0.23242711297E+02  0.21293215371E+02 -0.76056495358E+02  0.82329916405E+02  0.00000000000E+00 0. -1.
</event>
<event>
 7    1  0.2878477E-009  0.7429627E+02  0.7561462E-02  0.1346064E+00
         -2   -1    0    0    0  501 -0.00000000000E+00  0.00000000000E+00  0.35367938641E+03  0.35367938641E+03  0.00000000000E+00 0.  1.
          2   -1    0    0  501    0  0.00000000000E+00 -0.00000000000E+00 -0.35306997894E+02  0.35306997894E+02  0.00000000000E+00 0. -1.
         25    2    1    2    0    0  0.66858392392E+01 -0.15076027045E+02  0.15136604155E+03  0.19705459199E+03  0.12508735608E+03 0.  0.
          5    1    3    3  502    0 -0.84893580677E+01 -0.42807975685E+02  0.15353323360E+01  0.43868230282E+02  0.41800000000E+01 0. -1.
         -5    1    3    3    0  502  0.15175197307E+02  0.27731948640E+02  0.14983070921E+03  0.15318636170E+03  0.41800000000E+01 0. -1.
        -11    1    1    2    0    0  0.31280567552E+02 -0.17635012376E+01  0.13739907121E+03  0.14092582664E+03  0.00000000000E+00 0.  1.
         11    1    1    2    0    0 -0.37966406791E+02  0.16839528282E+02  0.29607275747E+02  0.51005965676E+02  0.00000000000E+00 0. -1.
</event>
<event>
 7    1  0.2878477E-009  0.1218940E+03  0.7561462E-02  0.1240005E+00
         -1   -1    0    0    0  501 -0.00000000000E+00  0.00000000000E+00  0.14042717525E+03  0.14042717525E+03  0.00000000000E+00 0.  1.
          1   -1    0    0  501    0  0.00000000000E+00 -0.00000000000E+00 -0.11941618577E+03  0.11941618577E+03  0.00000000000E+00 0. -1.
         25    2    1    2    0    0 -0.66505296847E+02 -0.13265852475E+02  0.24163152898E+02  0.14432574703E+03  0.12508847247E+03 0.  0.
          5    1    3    3  502    0  0.25899036611E+02 -0.25734594377E+02 -0.19139362315E+02  0.41434490886E+02  0.41800000000E+01 0. -1.
         -5    1    3    3    0  502 -0.92404333458E+02  0.12468741903E+02  0.43302515213E+02  0.10289125614E+03  0.41800000000E+01 0. -1.
        -11    1    1    2    0    0  0.50734802762E+02  0.51531485430E+02 -0.11701075153E+02  0.73255916906E+02  0.00000000000E+00 0.  1.
         11    1    1    2    0    0  0.15770494085E+02 -0.38265632955E+02  0.85489117410E+01  0.42261697092E+02  0.00000000000E+00 0. -1.
</event>
<event>
 7    1  0.2878477E-009  0.9818906E+02  0.7561462E-02  0.1284151E+00
          2   -1    0    0  501    0  0.00000000000E+00  0.00000000000E+00  0.15981557137E+03  0.15981557137E+03  0.00000000000E+00 0. -1.
         -2   -1    0    0    0  501 -0.00000000000E+00 -0.00000000000E+00 -0.82832336202E+02  0.82832336202E+02  0.00000000000E+00 0.  1.
         25    2    1    2    0    0 -0.16722058702E+02  0.19965844296E+02  0.87042474072E+02  0.15460352689E+03  0.12509035153E+03 0.  0.
          5    1    3    3  502    0  0.17726309414E+02  0.58215700328E+02  0.82719540707E+02  0.10277784112E+03  0.41800000000E+01 0. -1.
         -5    1    3    3    0  502 -0.34448368116E+02 -0.38249856033E+02  0.43229333655E+01  0.51825685767E+02  0.41800000000E+01 0. -1.
        -11    1    1    2    0    0  0.16500201280E+02 -0.50537305819E+02 -0.18564799034E+02  0.56310990800E+02  0.00000000000E+00 0.  1.
         11    1    1    2    0    0  0.22185742222E+00  0.30571461523E+02  0.85055601281E+01  0.31733389883E+02  0.00000000000E+00 0. -1.
</event>
<event>
 7    1  0.2878477E-009  0.1839433E+03  0.7561462E-02  0.1164040E+00
         -2   -1    0    0    0  501 -0.00000000000E+00  0.00000000000E+00  0.30113566505E+03  0.30113566505E+03  0.00000000000E+00 0.  1.
          2   -1    0    0  501    0  0.00000000000E+00 -0.00000000000E+00 -0.11421048271E+03  0.11421048271E+03  0.00000000000E+00 0. -1.
         25    2    1    2    0    0  0.14133292149E+03  0.55332769405E+02  0.98450146038E+02  0.21994745688E+03  0.12509093679E+03 0.  0.
          5    1    3    3  502    0  0.74530601677E+02  0.91672964573E+02  0.43244574996E+02  0.12588212219E+03  0.41800000000E+01 0. -1.
         -5    1    3    3    0  502  0.66802319815E+02 -0.36340195168E+02  0.55205571041E+02  0.94065334697E+02  0.41800000000E+01 0. -1.
        -11    1    1    2    0    0 -0.26190209599E+02 -0.52103692113E+02  0.38225118612E+02  0.69727193429E+02  0.00000000000E+00 0.  1.
         11    1    1    2    0    0 -0.11514271189E+03 -0.32290772916E+01  0.50249917694E+02  0.12567149745E+03  0.00000000000E+00 0. -1.
</event>
<event>
 7    1  0.2878477E-009  0.1233080E+03  0.7561462E-02  0.1237738E+00
          1   -1    0    0  501    0  0.00000000000E+00  0.00000000000E+00  0.57421214595E+03  0.57421214595E+03  0.00000000000E+00 0. -1.
         -1   -1    0    0    0  501 -0.00000000000E+00 -0.00000000000E+00 -0.27562343118E+02  0.27562343118E+02  0.00000000000E+00 0.  1.
         25    2    1    2    0    0  0.59985524489E+02 -0.58076018743E+01  0.34100440296E+03  0.36818927242E+03  0.12508935246E+03 0.  0.
          5    1    3    3  502    0  0.91978514426E+02  0.21946648728E+02  0.20758571494E+03  0.22814689118E+03  0.41800000000E+01 0.  1.
         -5    1    3    3    0  502 -0.31992989937E+02 -0.27754250602E+02  0.13341868801E+03  0.14004238124E+03  0.41800000000E+01 0.  1.
        -11    1    1    2    0    0  0.23549912638E+02 -0.77132499742E+01  0.32527433289E+02  0.40891643728E+02  0.00000000000E+00 0.  1.
         11    1    1    2    0    0 -0.83535437127E+02  0.13520851849E+02  0.17311796658E+03  0.19269357292E+03  0.00000000000E+00 0. -1.
</event>
<event>
 7    1  0.2878477E-009  0.9089784E+02  0.7561462E-02  0.1300692E+00
          2   -1    0    0  501    0  0.00000000000E+00  0.00000000000E+00  0.75985154285E+03  0.75985154285E+03  0.00000000000E+00 0. -1.
         -2   -1    0    0    0  501 -0.00000000000E+00 -0.00000000000E+00 -0.19382638442E+02  0.19382638442E+02  0.00000000000E+00 0.  1.
         25    2    1    2    0    0 -0.26605407522E+00  0.19861043523E+02  0.59550931258E+03  0.60882866167E+03  0.12508583480E+03 0.  0.
          5    1    3    3  502    0 -0.41596619414E+02 -0.17468182833E+02  0.95424252177E+02  0.10563463666E+03  0.41800000000E+01 0.  1.
         -5    1    3    3    0  502  0.41330565338E+02  0.37329226356E+02  0.50008506040E+03  0.50319402501E+03  0.41800000000E+01 0.  1.
        -11    1    1    2    0    0 -0.35921459028E+02 -0.25446633724E+02  0.40889773383E+02  0.60082076811E+02  0.00000000000E+00 0.  1.
         11    1    1    2    0    0  0.36187513103E+02  0.55855902005E+01  0.10406981844E+03  0.11032344281E+03  0.00000000000E+00 0. -1.
</event>
<event>
 7    1  0.2878477E-009  0.1122951E+03  0.7561462E-02  0.1256378E+00
         -3   -1    0    0    0  501 -0.00000000000E+00  0.00000000000E+00  0.10239518321E+04  0.10239518321E+04  0.00000000000E+00 0. -1.
          3   -1    0    0  501    0  0.00000000000E+00 -0.00000000000E+00 -0.14533415522E+02  0.14533415522E+02  0.00000000000E+00 0.  1.
         25    2    1    2    0    0 -0.76394325821E+01  0.52587214338E+02  0.63446866811E+03  0.64886157864E+03  0.12508829435E+03 0.  0.
          5    1    3    3  502    0  0.54652238394E+02  0.17585733796E+02  0.18558265603E+03  0.19430522333E+03  0.41800000000E+01 0. -1.
         -5    1    3    3    0  502 -0.62291670976E+02  0.35001480542E+02  0.44888601208E+03  0.45455635531E+03  0.41800000000E+01 0. -1.
        -11    1    1    2    0    0 -0.35847748375E+02 -0.28070429604E+02  0.96096016234E+02  0.10633651498E+03  0.00000000000E+00 0. -1.
         11    1    1    2    0    0  0.43487180957E+02 -0.24516784734E+02  0.27885373222E+03  0.28328715399E+03  0.00000000000E+00 0.  1.
</event>
<event>
 7    1  0.2878477E-009  0.9447300E+02  0.7561462E-02  0.1292367E+00
          1   -1    0    0  501    0  0.00000000000E+00  0.00000000000E+00  0.58634862431E+02  0.58634862431E+02  0.00000000000E+00 0. -1.
         -1   -1    0    0    0  501 -0.00000000000E+00 -0.00000000000E+00 -0.21688066613E+03  0.21688066613E+03  0.00000000000E+00 0.  1.
         25    2    1    2    0    0  0.23676871316E+02  0.10457694442E+02 -0.71547411062E+02  0.14641792461E+03  0.12509683852E+03 0.  0.
          5    1    3    3  502    0  0.73414603053E+02  0.15954563123E+02 -0.29133267514E+02  0.80687494086E+02  0.41800000000E+01 0. -1.
         -5    1    3    3    0  502 -0.49737731737E+02 -0.54968686813E+01 -0.42414143549E+02  0.65730430522E+02  0.41800000000E+01 0. -1.
        -11    1    1    2    0    0 -0.30514385734E+02 -0.29994589753E+02 -0.30168487985E+01  0.42894108311E+02  0.00000000000E+00 0. -1.
         11    1    1    2    0    0  0.68375144176E+01  0.19536895311E+02 -0.83681543835E+02  0.86203495639E+02  0.00000000000E+00 0.  1.
</event>
<event>
 7    1  0.2878477E-009  0.1031569E+03  0.7561462E-02  0.1273794E+00
          1   -1    0    0  501    0  0.00000000000E+00  0.00000000000E+00  0.29201007953E+02  0.29201007953E+02  0.00000000000E+00 0. -1.
         -1   -1    0    0    0  501 -0.00000000000E+00 -0.00000000000E+00 -0.85998876002E+03  0.85998876002E+03  0.00000000000E+00 0.  1.
         25    2    1    2    0    0  0.90673522964E+02 -0.17606546546E+02 -0.64184928331E+03  0.66041668121E+03  0.12509201451E+03 0.  0.
          5    1    3    3  502    0  0.33898914729E+02 -0.24922556050E+02 -0.48686666876E+02  0.64483595987E+02  0.41800000000E+01 0. -1.
         -5    1    3    3    0  502  0.56774608234E+02  0.73160095035E+01 -0.59316261643E+03  0.59593308522E+03  0.41800000000E+01 0. -1.
        -11    1    1    2    0    0 -0.26747965951E+02 -0.19149620610E+02 -0.13079391805E+03  0.13486738171E+03  0.00000000000E+00 0.  1.
         11    1    1    2    0    0 -0.63925557013E+02  0.36756167157E+02 -0.58144550719E+02  0.93905705054E+02  0.00000000000E+00 0. -1.
</event>
<event>
 7    1  0.2878477E-009  0.1346763E+03  0.7561462E-02  0.1220677E+00
          1   -1    0    0  501    0  0.00000000000E+00  0.00000000000E+00  0.44591495930E+03  0.44591495930E+03  0.00000000000E+00 0. -1.
         -1   -1    0    0    0  501 -0.00000000000E+00 -0.00000000000E+00 -0.55765105536E+02  0.55765105536E+02  0.00000000000E+00 0.  1.
         25    2    1    2    0    0 -0.10835450793E+03  0.36144256701E+02  0.19704086255E+03  0.25984145781E+03  0.12508147345E+03 0.  0.
          5    1    3    3  502    0  0.12610103732E+02 -0.10872555571E+02  0.89822562968E+02  0.91448304517E+02  0.41800000000E+01 0.  1.
         -5    1    3    3    0  502 -0.12096461166E+03  0.47016812272E+02  0.10721829959E+03  0.16839315330E+03  0.41800000000E+01 0.  1.
        -11    1    1    2    0    0  0.92076857466E+02 -0.46391296408E+02  0.89717141915E+02  0.13667284155E+03  0.00000000000E+00 0.  1.
         11    1    1    2    0    0  0.16277650466E+02  0.10247039707E+02  0.10339184929E+03  0.10516576547E+03  0.00000000000E+00 0. -1.
</event>
<event>
 7    1  0.2878477E-009  0.1234465E+03  0.7561462E-02  0.1237517E+00
          2   -1    0    0  501    0  0.00000000000E+00  0.00000000000E+00  0.10136605437E+04  0.10136605437E+04  0.00000000000E+00 0. -1.
         -2   -1    0    0    0  501 -0.00000000000E+00 -0.00000000000E+00 -0.23615216652E+02  0.23615216652E+02  0.00000000000E+00 0.  1.
         25    2    1    2    0    0  0.80387749303E+02  0.75318481013E+02  0.54367775494E+03  0.56865453166E+03  0.12508961321E+03 0.  0.
          5    1    3    3  502    0  0.45834236658E+02  0.68238807701E+02  0.51880425412E+03  0.52529290745E+03  0.41800000000E+01 0.  1.
         -5    1    3    3    0  502  0.34553512645E+02  0.70796733112E+01  0.24873500823E+02  0.43361624203E+02  0.41800000000E+01 0.  1.
        -11    1    1    2    0    0 -0.36062009084E+02 -0.76661234630E+02  0.37614961881E+03  0.38557223594E+03  0.00000000000E+00 0.  1.
         11    1    1    2    0    0 -0.44325740219E+02  0.13427536171E+01  0.70217953284E+02  0.83048992749E+02  0.00000000000E+00 0. -1.
</event>
<event>
 7    1  0.2878477E-009  0.3967823E+03  0.7561462E-02  0.1044900E+00
         -1   -1    0    0    0  501 -0.00000000000E+00  0.00000000000E+00  0.90104220554E+02  0.90104220554E+02  0.00000000000E+00 0.  1.
          1   -1    0    0  501    0  0.00000000000E+00 -0.00000000000E+00 -0.24254664478E+04  0.24254664478E+04  0.00000000000E+00 0. -1.
         25    2    1    2    0    0  0.32893970340E+03 -0.21410403962E+03 -0.56153290853E+03  0.69642584424E+03  0.12509149017E+03 0.  0.
          5    1    3    3  502    0  0.22489633584E+03 -0.16367233292E+03 -0.48035491285E+03  0.55509036124E+03  0.41800000000E+01 0. -1.
         -5    1    3    3    0  502  0.10404336756E+03 -0.50431706702E+02 -0.81177995674E+02  0.14133548300E+03  0.41800000000E+01 0. -1.
        -11    1    1    2    0    0 -0.24189574294E+03  0.11517493566E+03 -0.13008646439E+04  0.13281670218E+04  0.00000000000E+00 0. -1.
         11    1    1    2    0    0 -0.87043960455E+02  0.98929103963E+02 -0.47296467487E+03  0.49097780228E+03  0.00000000000E+00 0.  1.
</event>
<event>
 7    1  0.2878477E-009  0.1070818E+03  0.7561462E-02  0.1266071E+00
         -2   -1    0    0    0  501 -0.00000000000E+00  0.00000000000E+00  0.46492346179E+02  0.46492346179E+02  0.00000000000E+00 0. -1.
          2   -1    0    0  501    0  0.00000000000E+00 -0.00000000000E+00 -0.46677565926E+03  0.46677565926E+03  0.00000000000E+00 0.  1.
         25    2    1    2    0    0 -0.63686606321E+02 -0.37194764522E+02 -0.31027736157E+03  0.34257654399E+03  0.12508882068E+03 0.  0.
          5    1    3    3  502    0 -0.43227718102E+02  0.65928110178E+01 -0.28405470179E+03  0.28743111658E+03  0.41800000000E+01 0. -1.
         -5    1    3    3    0  502 -0.20458888218E+02 -0.43787575539E+02 -0.26222659785E+02  0.55145427417E+02  0.41800000000E+01 0. -1.
        -11    1    1    2    0    0  0.40232957540E+02  0.70392054869E+02 -0.10017138326E+03  0.12887217809E+03  0.00000000000E+00 0.  1.
         11    1    1    2    0    0  0.23453648781E+02 -0.33197290348E+02 -0.98345682458E+01  0.41819283353E+02  0.00000000000E+00 0. -1.
</event>
<event>
 7    1  0.2878477E-009  0.5414933E+02  0.7561462E-02  0.1424165E+00
          1   -1    0    0  501    0  0.00000000000E+00  0.00000000000E+00  0.12856019413E+03  0.12856019413E+03  0.00000000000E+00 0. -1.
         -1   -1    0    0    0  501 -0.00000000000E+00 -0.00000000000E+00 -0.13352327778E+03  0.13352327778E+03  0.00000000000E+00 0.  1.
         25    2    1    2    0    0  0.25195464653E+02 -0.54148095365E+01 -0.86826632198E+02  0.15443308321E+03  0.12508629633E+03 0.  0.
          5    1    3    3  502    0 -0.13839840938E+02  0.15712158003E+02 -0.10436384101E+03  0.10652556884E+03  0.41800000000E+01 0. -1.
         -5    1    3    3    0  502  0.39035305591E+02 -0.21126967540E+02  0.17537208816E+02  0.47907514370E+02  0.41800000000E+01 0. -1.
        -11    1    1    2    0    0 -0.67350919214E+01 -0.14023882605E+02  0.79196903691E+02  0.80710472063E+02  0.00000000000E+00 0. -1.
         11    1    1    2    0    0 -0.18460372732E+02  0.19438692142E+02  0.26666448595E+01  0.26939916637E+02  0.00000000000E+00 0.  1.
</event>
<event>
 7    1  0.2878477E-009  0.7145982E+02  0.7561462E-02  0.1355198E+00
         -2   -1    0    0    0  501 -0.00000000000E+00  0.00000000000E+00  0.33201834528E+02  0.33201834528E+02  0.00000000000E+00 0.  1.
          2   -1    0    0  501    0  0.00000000000E+00 -0.00000000000E+00 -0.42310815409E+03  0.42310815409E+03  0.00000000000E+00 0. -1.
         25    2    1    2    0    0 -0.49189389753E+02 -0.36719179716E+02 -0.24640945052E+03  0.28307683539E+03  0.12508790192E+03 0.  0.
          5    1    3    3  502    0 -0.40967736867E+01 -0.20100316755E+02  0.92634287230E+01  0.22893007666E+02  0.41800000000E+01 0. -1.
         -5    1    3    3    0  502 -0.45092616066E+02 -0.16618862961E+02 -0.25567287924E+03  0.26018382772E+03  0.41800000000E+01 0. -1.
        -11    1    1    2    0    0  0.12826482709E+01  0.24194696063E+02 -0.31811921641E+01  0.24436621856E+02  0.00000000000E+00 0.  1.
         11    1    1    2    0    0  0.47906741482E+02  0.12524483653E+02 -0.14031567688E+03  0.14879653138E+03  0.00000000000E+00 0. -1.
</event>
<event>
 7    1  0.2878477E-009  0.1141256E+03  0.7561462E-02  0.1253115E+00
          1   -1    0    0  501    0  0.00000000000E+00  0.00000000000E+00  0.18513950665E+02  0.18513950665E+02  0.00000000000E+00 0. -1.
         -1   -1    0    0    0  501 -0.00000000000E+00 -0.00000000000E+00 -0.10936383025E+04  0.10936383025E+04  0.00000000000E+00 0.  1.
         25    2    1    2    0    0  0.50691585458E+02  0.65627408081E+02 -0.74744958990E+03  0.76236814777E+03  0.12509080608E+03 0.  0.
          5    1    3    3  502    0  0.65209803415E+02  0.40976646379E+02 -0.20311310199E+03  0.21726437493E+03  0.41800000000E+01 0.  1.
         -5    1    3    3    0  502 -0.14518217957E+02  0.24650761703E+02 -0.54433648791E+03  0.54510377285E+03  0.41800000000E+01 0.  1.
        -11    1    1    2    0    0 -0.76200505022E+02 -0.57422463696E+02 -0.26331106755E+03  0.28006530417E+03  0.00000000000E+00 0.  1.
         11    1    1    2    0    0  0.25508919564E+02 -0.82049443857E+01 -0.64363694346E+02  0.69718801191E+02  0.00000000000E+00 0. -1.
</event>
<event>
 7    1  0.2878477E-009  0.1195863E+03  0.7561462E-02  0.1243781E+00
         -2   -1    0    0    0  501 -0.00000000000E+00  0.00000000000E+00  0.14334782832E+02  0.14334782832E+02  0.00000000000E+00 0.  1.
          2   -1    0    0  501    0  0.00000000000E+00 -0.00000000000E+00 -0.10139818897E+04  0.10139818897E+04  0.00000000000E+00 0. -1.
         25    2    1    2    0    0  0.21677342742E+02 -0.46982132319E+02 -0.51322793885E+03  0.53078113371E+03  0.12509383173E+03 0.  0.
          5    1    3    3  502    0 -0.16842872182E+01  0.42200100265E+02 -0.18665975766E+03  0.19142367360E+03  0.41800000000E+01 0.  1.
         -5    1    3    3    0  502  0.23361629960E+02 -0.89182232584E+02 -0.32656818119E+03  0.33935746010E+03  0.41800000000E+01 0.  1.
        -11    1    1    2    0    0 -0.42545071355E+02 -0.10050512660E+02 -0.19107171363E+03  0.19600891728E+03  0.00000000000E+00 0.  1.
         11    1    1    2    0    0  0.20867728612E+02  0.57032644979E+02 -0.29534745439E+03  0.30152662155E+03  0.00000000000E+00 0. -1.
</event>
<event>
 7    1  0.2878477E-009  0.1091401E+03  0.7561462E-02  0.1262171E+00
         -2   -1    0    0    0  501 -0.00000000000E+00  0.00000000000E+00  0.63003367765E+02  0.63003367765E+02  0.00000000000E+00 0.  1.
          2   -1    0    0  501    0  0.00000000000E+00 -0.00000000000E+00 -0.31332209223E+03  0.31332209223E+03  0.00000000000E+00 0. -1.
         25    2    1    2    0    0  0.81405321991E+02  0.22369246859E+02 -0.14176619396E+03  0.20705417835E+03  0.12508624773E+03 0.  0.
          5    1    3    3  502    0  0.77379985936E+01  0.40927985891E+02 -0.12121993455E+03  0.12824477215E+03  0.41800000000E+01 0.  1.
         -5    1    3    3    0  502  0.73667323397E+02 -0.18558739032E+02 -0.20546259412E+02  0.78809406207E+02  0.41800000000E+01 0.  1.
        -11    1    1    2    0    0  0.14477862021E+01 -0.17263109504E+02  0.13293217081E+02  0.21836223460E+02  0.00000000000E+00 0.  1.
         11    1    1    2    0    0 -0.82853108193E+02 -0.51061373543E+01 -0.12184574759E+03  0.14743505818E+03  0.00000000000E+00 0. -1.
</event>
<event>
 7    1  0.2878477E-009  0.1020508E+03  0.7561462E-02  0.1276042E+00
          2   -1    0    0  501    0  0.00000000000E+00  0.00000000000E+00  0.54664795473E+02  0.54664795473E+02  0.00000000000E+00 0. -1.
         -2   -1    0    0    0  501 -0.00000000000E+00 -0.00000000000E+00 -0.22538699120E+03  0.22538699120E+03  0.00000000000E+00 0.  1.
         25    2    1    2    0    0  0.12760523409E+02 -0.88009224848E+01 -0.68563878692E+02  0.14347277447E+03  0.12507255638E+03 0.  0.
          5    1    3    3  502    0  0.13726810347E+02  0.51657126625E+02 -0.22885377044E+01  0.53661847324E+02  0.41800000000E+01 0. -1.
         -5    1    3    3    0  502 -0.96628693736E+00 -0.60458049110E+02 -0.66275340987E+02  0.89810927150E+02  0.41800000000E+01 0. -1.
        -11    1    1    2    0    0  0.16191615173E+02 -0.34315372353E+02 -0.52048895597E+02  0.64411184700E+02  0.00000000000E+00 0. -1.
         11    1    1    2    0    0 -0.28952138582E+02  0.43116294837E+02 -0.50109421440E+02  0.72167827500E+02  0.00000000000E+00 0.  1.
</event>
<event>
 7    1  0.2878477E-009  0.1377625E+03  0.7561462E-02  0.1216372E+00
         -2   -1    0    0    0  501 -0.00000000000E+00  0.00000000000E+00  0.17941161463E+02  0.17941161463E+02  0.00000000000E+00 0. -1.
          2   -1    0    0  501    0  0.00000000000E+00 -0.00000000000E+00 -0.12947755362E+04  0.12947755362E+04  0.00000000000E+00 0.  1.
         25    2    1    2    0    0 -0.96337476009E+02  0.61031228008E+01 -0.88766161010E+03  0.90161526242E+03  0.12509512380E+03 0.  0.
          5    1    3    3  502    0  0.16558775899E+02 -0.23439962752E+02 -0.36101692766E+03  0.36217995440E+03  0.41800000000E+01 0.  1.
         -5    1    3    3    0  502 -0.11289625191E+03  0.29543085552E+02 -0.52664468244E+03  0.53943530802E+03  0.41800000000E+01 0.  1.
        -11    1    1    2    0    0  0.71938720304E+01  0.32004826072E+02 -0.66033359308E+02  0.73732389274E+02  0.00000000000E+00 0. -1.
         11    1    1    2    0    0  0.89143603979E+02 -0.38107948872E+02 -0.32313940530E+03  0.33736904593E+03  0.00000000000E+00 0.  1.
</event>
<event>
 7    1  0.2878477E-009  0.1066981E+03  0.7561462E-02  0.1266810E+00
          1   -1    0    0  501    0  0.00000000000E+00  0.00000000000E+00  0.35444078728E+03  0.35444078728E+03  0.00000000000E+00 0. -1.
         -1   -1    0    0    0  501 -0.00000000000E+00 -0.00000000000E+00 -0.37047176914E+02  0.37047176914E+02  0.00000000000E+00 0.  1.
         25    2    1    2    0    0 -0.18086593746E+02 -0.18783656648E+02  0.13702878806E+03  0.18735913310E+03  0.12508639162E+03 0.  0.
          5    1    3    3  502    0 -0.68818043941E+02 -0.26845888293E+02  0.97571947050E+02  0.12245155018E+03  0.41800000000E+01 0. -1.
         -5    1    3    3    0  502  0.50731450195E+02  0.80622316454E+01  0.39456841006E+02  0.64907582918E+02  0.41800000000E+01 0. -1.
        -11    1    1    2    0    0  0.51899329301E+02  0.90227971491E+01  0.65848261700E+02  0.84326418275E+02  0.00000000000E+00 0.  1.
         11    1    1    2    0    0 -0.33812735555E+02  0.97608594988E+01  0.11451656061E+03  0.11980241282E+03  0.00000000000E+00 0. -1.
</event>
<event>
 7    1  0.2878477E-009  0.9655211E+02  0.7561462E-02  0.1287718E+00
         -1   -1    0    0    0  501 -0.00000000000E+00  0.00000000000E+00  0.20804487418E+03  0.20804487418E+03  0.00000000000E+00 0.  1.
          1   -1    0    0  501    0  0.00000000000E+00 -0.00000000000E+00 -0.68292899032E+02  0.68292899032E+02  0.00000000000E+00 0. -1.
         25    2    1    2    0    0  0.43706195585E+02 -0.19062603610E+02  0.59663621561E+02  0.14656475855E+03  0.12509143185E+03 0.  0.
          5    1    3    3  502    0  0.56831837144E+02  0.13071104276E+02  0.85157099945E+02  0.10329528330E+03  0.41800000000E+01 0.  1.
         -5    1    3    3    0  502 -0.13125641558E+02 -0.32133707887E+02 -0.25493478385E+02  0.43269475257E+02  0.41800000000E+01 0.  1.
        -11    1    1    2    0    0 -0.38964328357E+02  0.52793071966E+02  0.65519136260E+02  0.92725856955E+02  0.00000000000E+00 0.  1.
         11    1    1    2    0    0 -0.47418672287E+01 -0.33730468355E+02  0.14569217325E+02  0.37047157701E+02  0.00000000000E+00 0. -1.
</event>
<event>
 7    1  0.2878477E-009  0.1117146E+03  0.7561462E-02  0.1257427E+00
         -2   -1    0    0    0  501 -0.00000000000E+00  0.00000000000E+00  0.37630541675E+02  0.37630541675E+02  0.00000000000E+00 0.  1.
          2   -1    0    0  501    0  0.00000000000E+00 -0.00000000000E+00 -0.55647161617E+03  0.55647161617E+03  0.00000000000E+00 0. -1.
         25    2    1    2    0    0 -0.17051650912E+02  0.68565027156E+02 -0.32688483161E+03  0.35706677556E+03  0.12510422584E+03 0.  0.
          5    1    3    3  502    0 -0.55578709345E+02  0.76486156096E+02 -0.16305756529E+03  0.18853213786E+03  0.41800000000E+01 0. -1.
         -5    1    3    3    0  502  0.38527058434E+02 -0.79211289397E+01 -0.16382726632E+03  0.16853463771E+03  0.41800000000E+01 0. -1.
        -11    1    1    2    0    0  0.33729996851E+02 -0.23298619135E+02 -0.18354385967E+03  0.18806617656E+03  0.00000000000E+00 0. -1.
         11    1    1    2    0    0 -0.16678345940E+02 -0.45266408021E+02 -0.84123832116E+01  0.48969205729E+02  0.00000000000E+00 0.  1.
</event>
<event>
 7    1  0.2878477E-009  0.9081852E+02  0.7561462E-02  0.1300882E+00
          1   -1    0    0  501    0  0.00000000000E+00  0.00000000000E+00  0.29431422760E+03  0.29431422760E+03  0.00000000000E+00 0. -1.
         -1   -1    0    0    0  501 -0.00000000000E+00 -0.00000000000E+00 -0.48543754352E+02  0.48543754352E+02  0.00000000000E+00 0.  1.
         25    2    1    2    0    0  0.26703749902E+02  0.36807428145E+02  0.16578881669E+03  0.21261764288E+03  0.12510976500E+03 0.  0.
          5    1    3    3  502    0  0.35096016370E+02 -0.13700768590E+02 -0.11798564165E+01  0.37925003443E+02  0.41800000000E+01 0. -1.
         -5    1    3    3    0  502 -0.83922664679E+01  0.50508196735E+02  0.16696867311E+03  0.17469263943E+03  0.41800000000E+01 0. -1.
        -11    1    1    2    0    0  0.24238497078E+01 -0.56914263499E+02  0.19587722604E+02  0.60239416613E+02  0.00000000000E+00 0.  1.
         11    1    1    2    0    0 -0.29127599609E+02  0.20106835354E+02  0.60393933957E+02  0.70000922463E+02  0.00000000000E+00 0. -1.
</event>
<event>
 7    1  0.2878477E-009  0.1721857E+03  0.7561462E-02  0.1175587E+00
         -2   -1    0    0    0  501 -0.00000000000E+00  0.00000000000E+00  0.51379212599E+02  0.51379212599E+02  0.00000000000E+00 0.  1.
          2   -1    0    0  501    0  0.00000000000E+00 -0.00000000000E+00 -0.73415662000E+03  0.73415662000E+03  0.00000000000E+00 0. -1.
         25    2    1    2    0    0 -0.13720034611E+03  0.69816265304E+02 -0.27006544381E+03  0.33508070618E+03  0.12508193252E+03 0.  0.
          5    1    3    3  502    0 -0.62978619054E+02  0.88478765224E+02 -0.96490596559E+02  0.14533652665E+03  0.41800000000E+01 0.  1.
         -5    1    3    3    0  502 -0.74221727051E+02 -0.18662499920E+02 -0.17357484725E+03  0.18974417953E+03  0.41800000000E+01 0.  1.
        -11    1    1    2    0    0  0.35848736608E+02 -0.39301826831E+02 -0.51447184357E+02  0.74003907241E+02  0.00000000000E+00 0.  1.
         11    1    1    2    0    0  0.10135160950E+03 -0.30514438473E+02 -0.36126477924E+03  0.37645121918E+03  0.00000000000E+00 0. -1.
</event>
<event>
 7    1  0.2878477E-009  0.1551529E+03  0.7561462E-02  0.1194280E+00
         -2   -1    0    0    0  501 -0.00000000000E+00  0.00000000000E+00  0.17728851697E+03  0.17728851697E+03  0.00000000000E+00 0.  1.
          2   -1    0    0  501    0  0.00000000000E+00 -0.00000000000E+00 -0.15461484249E+03  0.15461484249E+03  0.00000000000E+00 0. -1.
         25    2    1    2    0    0 -0.11263538831E+03  0.49301006565E+02 -0.10268442602E+02  0.17570069645E+03  0.12509186173E+03 0.  0.
          5    1    3    3  502    0 -0.15471076326E+02  0.73461892825E+02 -0.45825222500E+01  0.75329116617E+02  0.41800000000E+01 0.  1.
         -5    1    3    3    0  502 -0.97164311986E+02 -0.24160886260E+02 -0.56859203518E+01  0.10037157984E+03  0.41800000000E+01 0.  1.
        -11    1    1    2    0    0  0.10362501256E+03 -0.60917580766E+02  0.52970184805E+02  0.13135804259E+03  0.00000000000E+00 0.  1.
         11    1    1    2    0    0  0.90103757509E+01  0.11616574202E+02 -0.20028067717E+02  0.24844620420E+02  0.00000000000E+00 0. -1.
</event>
<event>
 7    1  0.2878477E-009  0.6565476E+02  0.7561462E-02  0.1375525E+00
          4   -1    0    0  501    0  0.00000000000E+00  0.00000000000E+00  0.47008215402E+03  0.47008215402E+03  0.00000000000E+00 0. -1.
         -4   -1    0    0    0  501 -0.00000000000E+00 -0.00000000000E+00 -0.27414847127E+02  0.27414847127E+02  0.00000000000E+00 0.  1.
         25    2    1    2    0    0  0.24210217030E+02 -0.15225729388E+02  0.28047914119E+03  0.30843663935E+03  0.12508658765E+03 0.  0.
          5    1    3    3  502    0  0.25961229195E+02 -0.14562901709E+02  0.29329274867E+03  0.29482905615E+03  0.41800000000E+01 0.  1.
         -5    1    3    3    0  502 -0.17510121646E+01 -0.66282767891E+00 -0.12813607478E+02  0.13607583207E+02  0.41800000000E+01 0.  1.
        -11    1    1    2    0    0  0.34466009402E+02  0.15977868532E+02  0.73107896396E+02  0.82389092739E+02  0.00000000000E+00 0. -1.
         11    1    1    2    0    0 -0.58676226432E+02 -0.75213914366E+00  0.89080269309E+02  0.10667126905E+03  0.00000000000E+00 0.  1.
</event>
<event>
 7    1  0.2878477E-009  0.9435971E+02  0.7561462E-02  0.1292625E+00
          1   -1    0    0  501    0  0.00000000000E+00  0.00000000000E+00  0.28086472361E+02  0.28086472361E+02  0.00000000000E+00 0. -1.
         -1   -1    0    0    0  501 -0.00000000000E+00 -0.00000000000E+00 -0.53116962282E+03  0.53116962282E+03  0.00000000000E+00 0.  1.
         25    2    1    2    0    0  0.41844126909E+02  0.34502207698E+02 -0.24882239354E+03  0.28370976359E+03  0.12504924284E+03 0.  0.
          5    1    3    3  502    0  0.55893476364E+02  0.52017567962E+02 -0.70746201550E+02  0.10417487946E+03  0.41800000000E+01 0. -1.
         -5    1    3    3    0  502 -0.14049349455E+02 -0.17515360263E+02 -0.17807619199E+03  0.17953488413E+03  0.41800000000E+01 0. -1.
        -11    1    1    2    0    0 -0.53691214260E+02 -0.47598415904E+02 -0.24562048239E+03  0.25588625804E+03  0.00000000000E+00 0.  1.
         11    1    1    2    0    0  0.11847087351E+02  0.13096208206E+02 -0.86402745292E+01  0.19660073551E+02  0.00000000000E+00 0. -1.
</event>
<event>
 7    1  0.2878477E-009  0.1134821E+03  0.7561462E-02  0.1254254E+00
         -4   -1    0    0    0  501 -0.00000000000E+00  0.00000000000E+00  0.30613286906E+03  0.30613286906E+03  0.00000000000E+00 0. -1.
          4   -1    0    0  501    0  0.00000000000E+00 -0.00000000000E+00 -0.59581109044E+02  0.59581109044E+02  0.00000000000E+00 0.  1.
         25    2    1    2    0    0  0.72785154634E+02 -0.10923524597E+02  0.92711901435E+02  0.17221266709E+03  0.12507879082E+03 0.  0.
          5    1    3    3  502    0 -0.23240423163E+02 -0.13972865927E+02 -0.12084047056E+02  0.29980907996E+02  0.41800000000E+01 0.  1.
         -5    1    3    3    0  502  0.96025577797E+02  0.30493413301E+01  0.10479594849E+03  0.14223175909E+03  0.41800000000E+01 0.  1.
        -11    1    1    2    0    0 -0.60701732455E+02  0.39440893077E+02  0.14371432056E+03  0.16091640782E+03  0.00000000000E+00 0. -1.
         11    1    1    2    0    0 -0.12083422179E+02 -0.28517368480E+02  0.10125538019E+02  0.32584903203E+02  0.00000000000E+00 0.  1.
</event>
<event>
 7    1  0.2878477E-009  0.7760251E+02  0.7561462E-02  0.1335996E+00
         -1   -1    0    0    0  501 -0.00000000000E+00  0.00000000000E+00  0.21222795582E+02  0.21222795582E+02  0.00000000000E+00 0.  1.
          1   -1    0    0  501    0  0.00000000000E+00 -0.00000000000E+00 -0.76993626661E+03  0.76993626661E+03  0.00000000000E+00 0. -1.
         25    2    1    2    0    0 -0.49398558806E+02 -0.42335567034E+02 -0.47781393358E+03  0.49817817438E+03  0.12507126150E+03 0.  0.
          5    1    3    3  502    0 -0.10717363306E+02 -0.18007089221E+01  0.45881961621E+01  0.12515125763E+02  0.41800000000E+01 0.  1.
         -5    1    3    3    0  502 -0.38681195500E+02 -0.40534858112E+02 -0.48240212975E+03  0.48566304862E+03  0.41800000000E+01 0.  1.
        -11    1    1    2    0    0  0.62831964265E+02  0.37035961425E+02 -0.26863924034E+03  0.27836407746E+03  0.00000000000E+00 0. -1.
         11    1    1    2    0    0 -0.13433405459E+02  0.52996056091E+01 -0.22602971071E+01  0.14616810351E+02  0.00000000000E+00 0.  1.
</event>
<event>
 6    1  0.2878477E-009  0.6280372E+02  0.7561462E-02  0.1386429E+00
         -2   -1    0    0    0  501 -0.00000000000E+00  0.00000000000E+00  0.75255717812E+02  0.75255717812E+02  0.00000000000E+00 0.  1.
          2   -1    0    0  501    0  0.00000000000E+00 -0.00000000000E+00 -0.15982549224E+03  0.15982549224E+03  0.00000000000E+00 0. -1.
          5    1    1    2  502    0  0.42673203504E+01 -0.20596514843E+02  0.43302003039E+02  0.48321447762E+02  0.41800000000E+01 0.  1.
         -5    1    1    2    0  502 -0.13117038193E+02  0.15423228708E+02 -0.80835485731E+02  0.83437286797E+02  0.41800000000E+01 0.  1.
        -11    1    1    2    0    0  0.15963619396E+02  0.42547248029E+02 -0.46861426447E+02  0.65277092059E+02  0.00000000000E+00 0. -1.
         11    1    1    2    0    0 -0.71139015537E+01 -0.37373961894E+02 -0.17486529307E+00  0.38045383437E+02  0.00000000000E+00 0.  1.
</event>
<event>
 7    1  0.2878477E-009  0.1084835E+03  0.7561462E-02  0.1263404E+00
          1   -1    0    0  501    0  0.00000000000E+00  0.00000000000E+00  0.46094113079E+02  0.46094113079E+02  0.00000000000E+00 0. -1.
         -1   -1    0    0    0  501 -0.00000000000E+00 -0.00000000000E+00 -0.25589355048E+03  0.25589355048E+03  0.00000000000E+00 0.  1.
         25    2    1    2    0    0  0.28315809154E+01  0.14105575629E+02 -0.12512901065E+03  0.17751577219E+03  0.12509034717E+03 0.  0.
          5    1    3    3  502    0 -0.60810291066E+02  0.21531476650E+01 -0.58570793897E+02  0.84560852894E+02  0.41800000000E+01 0.  1.
         -5    1    3    3    0  502  0.63641871982E+02  0.11952427964E+02 -0.66558216750E+02  0.92954919292E+02  0.41800000000E+01 0.  1.
        -11    1    1    2    0    0 -0.36260194172E+02  0.21574224356E+02 -0.35662588900E+02  0.55245534526E+02  0.00000000000E+00 0. -1.
         11    1    1    2    0    0  0.33428613257E+02 -0.35679799984E+02 -0.49007837850E+02  0.69226356845E+02  0.00000000000E+00 0.  1.
</event>
<event>
 7    1  0.2878477E-009  0.2123233E+03  0.7561462E-02  0.1139739E+00
         -1   -1    0    0    0  501 -0.00000000000E+00  0.00000000000E+00  0.72977071187E+02  0.72977071187E+02  0.00000000000E+00 0.  1.
          1   -1    0    0  501    0  0.00000000000E+00 -0.00000000000E+00 -0.75867347455E+03  0.75867347455E+03  0.00000000000E+00 0. -1.
         25    2    1    2    0    0 -0.18463064608E+03 -0.87026547383E+02 -0.42740321901E+03  0.48987942801E+03  0.12508495891E+03 0.  0.
          5    1    3    3  502    0 -0.25968844020E+02 -0.36211922202E+02 -0.18702340289E+02  0.48507052081E+02  0.41800000000E+01 0.  1.
         -5    1    3    3    0  502 -0.15866180207E+03 -0.50814625181E+02 -0.40870087872E+03  0.44137237593E+03  0.41800000000E+01 0.  1.
        -11    1    1    2    0    0  0.43835620688E+02 -0.63484943765E+01 -0.10373038584E+03  0.11279121405E+03  0.00000000000E+00 0. -1.
         11    1    1    2    0    0  0.14079502540E+03  0.93375041760E+02 -0.15456279852E+03  0.22897990367E+03  0.00000000000E+00 0.  1.
</event>
<event>
 7    1  0.2878477E-009  0.1288259E+03  0.7561462E-02  0.1229208E+00
          2   -1    0    0  501    0  0.00000000000E+00  0.00000000000E+00  0.96172924485E+03  0.96172924485E+03  0.00000000000E+00 0. -1.
         -2   -1    0    0    0  501 -0.00000000000E+00 -0.00000000000E+00 -0.23641966371E+02  0.23641966371E+02  0.00000000000E+00 0.  1.
         25    2    1    2    0    0 -0.98358361518E+02 -0.28989194665E+02  0.44300359025E+03  0.47160914137E+03  0.12509300765E+03 0.  0.
          5    1    3    3  502    0 -0.12504334415E+03 -0.23187471507E+02  0.29851207067E+03  0.32450027040E+03  0.41800000000E+01 0. -1.
         -5    1    3    3    0  502  0.26684982630E+02 -0.58017231575E+01  0.14449151957E+03  0.14710887097E+03  0.41800000000E+01 0. -1.
        -11    1    1    2    0    0  0.16659720842E+02  0.77099658996E+01  0.90799989742E+01  0.20480142922E+02  0.00000000000E+00 0.  1.
         11    1    1    2    0    0  0.81698640676E+02  0.21279228765E+02  0.48600368926E+03  0.49328192694E+03  0.00000000000E+00 0. -1.
</event>
<event>
 7    1  0.2878477E-009  0.7841164E+02  0.7561462E-02  0.1333620E+00
         -3   -1    0    0    0  501 -0.00000000000E+00  0.00000000000E+00  0.19952279603E+03  0.19952279603E+03  0.00000000000E+00 0.  1.
          3   -1    0    0  501    0  0.00000000000E+00 -0.00000000000E+00 -0.75158580916E+02  0.75158580916E+02  0.00000000000E+00 0. -1.
         25    2    1    2    0    0  0.53595147093E+02  0.15861855533E+02  0.50066104004E+02  0.14587062399E+03  0.12509031106E+03 0.  0.
          5    1    3    3  502    0  0.31636586442E+02  0.35667835888E+02  0.86441235543E+02  0.98806010551E+02  0.41800000000E+01 0.  1.
         -5    1    3    3    0  502  0.21958560651E+02 -0.19805980356E+02 -0.36375131540E+02  0.47064613440E+02  0.41800000000E+01 0.  1.
        -11    1    1    2    0    0 -0.56494382122E+02  0.62121975722E+01  0.62076466689E+01  0.57172908682E+02  0.00000000000E+00 0. -1.
         11    1    1    2    0    0  0.28992350290E+01 -0.22074053105E+02  0.68090464438E+02  0.71637844270E+02  0.00000000000E+00 0.  1.
</event>
<event>
 7    1  0.2878477E-009  0.1331221E+03  0.7561462E-02  0.1222895E+00
          1   -1    0    0  501    0  0.00000000000E+00  0.00000000000E+00  0.31356157722E+03  0.31356157722E+03  0.00000000000E+00 0. -1.
         -1   -1    0    0    0  501 -0.00000000000E+00 -0.00000000000E+00 -0.79128815535E+02  0.79128815535E+02  0.00000000000E+00 0.  1.
         25    2    1    2    0    0 -0.90113538831E+02  0.50587220203E+02  0.69421595920E+02  0.17648729440E+03  0.12509552500E+03 0.  0.
          5    1    3    3  502    0  0.27471339613E+02  0.75917731442E+01  0.37368846510E+02  0.47182757540E+02  0.41800000000E+01 0.  1.
         -5    1    3    3    0  502 -0.11758487844E+03  0.42995447058E+02  0.32052749410E+02  0.12930453685E+03  0.41800000000E+01 0.  1.
        -11    1    1    2    0    0  0.71102962221E+02 -0.58006268172E+02  0.60950724539E+02  0.11016056103E+03  0.00000000000E+00 0.  1.
         11    1    1    2    0    0  0.19010576610E+02  0.74190479691E+01  0.10406044123E+03  0.10604253733E+03  0.00000000000E+00 0. -1.
</event>
<event>
 7    1  0.2878477E-009  0.1762494E+03  0.7561462E-02  0.1171483E+00
         -2   -1    0    0    0  501 -0.00000000000E+00  0.00000000000E+00  0.40234370454E+02  0.40234370454E+02  0.00000000000E+00 0. -1.
          2   -1    0    0  501    0  0.00000000000E+00 -0.00000000000E+00 -0.11100828828E+04  0.11100828828E+04  0.00000000000E+00 0.  1.
         25    2    1    2    0    0 -0.13786219507E+03  0.52577869342E+02 -0.27159357561E+03  0.33343429765E+03  0.12507974801E+03 0.  0.
          5    1    3    3  502    0 -0.25242862442E+02 -0.37407931737E+02 -0.39161956918E+02  0.59897301532E+02  0.41800000000E+01 0.  1.
         -5    1    3    3    0  502 -0.11261933263E+03  0.89985801080E+02 -0.23243161869E+03  0.27353699612E+03  0.41800000000E+01 0.  1.
        -11    1    1    2    0    0  0.99009797954E+02 -0.69104419844E+02 -0.69362490524E+03  0.70405530330E+03  0.00000000000E+00 0.  1.
         11    1    1    2    0    0  0.38852397121E+02  0.16526550502E+02 -0.10463003147E+03  0.11282765228E+03  0.00000000000E+00 0. -1.
</event>
<event>
 7    1  0.2878477E-009  0.1155593E+03  0.7561462E-02  0.1250608E+00
          2   -1    0    0  501    0  0.00000000000E+00  0.00000000000E+00  0.23993577109E+03  0.23993577109E+03  0.00000000000E+00 0. -1.
         -2   -1    0    0    0  501 -0.00000000000E+00 -0.00000000000E+00 -0.80662369793E+02  0.80662369793E+02  0.00000000000E+00 0.  1.
         25    2    1    2    0    0 -0.14420043209E+02 -0.62991219217E+02  0.15481591842E+03  0.20925783318E+03  0.12508013754E+03 0.  0.
          5    1    3    3  502    0  0.40132186015E+02 -0.54293328126E+02  0.13394618743E+03  0.15005802664E+03  0.41800000000E+01 0.  1.
         -5    1    3    3    0  502 -0.54552229224E+02 -0.86978910909E+01  0.20869730993E+02  0.59199806540E+02  0.41800000000E+01 0.  1.
        -11    1    1    2    0    0  0.47895604052E+02  0.56335285389E+02  0.15337071756E+02  0.75517408837E+02  0.00000000000E+00 0. -1.
         11    1    1    2    0    0 -0.33475560843E+02  0.66559338278E+01 -0.10879588878E+02  0.35822898865E+02  0.00000000000E+00 0.  1.
</event>
<event>
 7    1  0.2878477E-009  0.1542351E+03  0.7561462E-02  0.1195363E+00
          1   -1    0    0  501    0  0.00000000000E+00  0.00000000000E+00  0.91847260569E+02  0.91847260569E+02  0.00000000000E+00 0. -1.
         -1   -1    0    0    0  501 -0.00000000000E+00 -0.00000000000E+00 -0.32195675621E+03  0.32195675621E+03  0.00000000000E+00 0.  1.
         25    2    1    2    0    0  0.11784731105E+03  0.16082563159E+02 -0.19457966430E+03  0.26010756751E+03  0.12509221943E+03 0.  0.
          5    1    3    3  502    0  0.67863834941E+02 -0.51487009908E+02 -0.73097314368E+02  0.11232587436E+03  0.41800000000E+01 0. -1.
         -5    1    3    3    0  502  0.49983476112E+02  0.67569573067E+02 -0.12148234993E+03  0.14778169316E+03  0.41800000000E+01 0. -1.
        -11    1    1    2    0    0 -0.57625010921E+02 -0.44146283104E+02 -0.46711278993E+02  0.86321954222E+02  0.00000000000E+00 0. -1.
         11    1    1    2    0    0 -0.60222300131E+02  0.28063719945E+02  0.11181447650E+02  0.67374495039E+02  0.00000000000E+00 0.  1.
</event>
<event>
 7    1  0.2878477E-009  0.9498752E+02  0.7561462E-02  0.1291204E+00
         -2   -1    0    0    0  501 -0.00000000000E+00  0.00000000000E+00  0.99116814260E+02  0.99116814260E+02  0.00000000000E+00 0.  1.
          2   -1    0    0  501    0  0.00000000000E+00 -0.00000000000E+00 -0.33033790453E+03  0.33033790453E+03  0.00000000000E+00 0. -1.
         25    2    1    2    0    0 -0.92408306475E+02  0.12263075164E+02 -0.25199386408E+03  0.29637290842E+03  0.12508523172E+03 0.  0.
          5    1    3    3  502    0 -0.51105285898E+02 -0.16848311575E+01 -0.24702635823E+03  0.25229760792E+03  0.41800000000E+01 0.  1.
         -5    1    3    3    0  502 -0.41303020577E+02  0.13947906322E+02 -0.49675058470E+01  0.44075300497E+02  0.41800000000E+01 0.  1.
        -11    1    1    2    0    0  0.69233263384E+02 -0.16845567923E+02  0.56028318790E+02  0.90643203959E+02  0.00000000000E+00 0.  1.
         11    1    1    2    0    0  0.23175043091E+02  0.45824927585E+01 -0.35255544983E+02  0.42438606412E+02  0.00000000000E+00 0. -1.
</event>
<event>
 7    1  0.2878477E-009  0.1538783E+03  0.7561462E-02  0.1195787E+00
          1   -1    0    0  501    0  0.00000000000E+00  0.00000000000E+00  0.45027121477E+03  0.45027121477E+03  0.00000000000E+00 0. -1.
         -1   -1    0    0    0  501 -0.00000000000E+00 -0.00000000000E+00 -0.64786639448E+02  0.64786639448E+02  0.00000000000E+00 0.  1.
         25    2    1    2    0    0 -0.12770062770E+03 -0.14793943469E+02  0.16618555685E+03  0.24452266367E+03  0.12508949861E+03 0.  0.
          5    1    3    3  502    0 -0.56582174696E+02 -0.69218924563E+02  0.89057919704E+02  0.12625999950E+03  0.41800000000E+01 0. -1.
         -5    1    3    3    0  502 -0.71118453008E+02  0.54424981095E+02  0.77127637146E+02  0.11826266417E+03  0.41800000000E+01 0. -1.
        -11    1    1    2    0    0  0.42479883135E+02  0.66286851823E+01  0.16178135984E+03  0.16739679905E+03  0.00000000000E+00 0.  1.
         11    1    1    2    0    0  0.85220744568E+02  0.81652582862E+01  0.57517658632E+02  0.10313839150E+03  0.00000000000E+00 0. -1.
</event>
<event>
 7    1  0.2878477E-009  0.1553779E+03  0.7561462E-02  0.1194016E+00
         -2   -1    0    0    0  501 -0.00000000000E+00  0.00000000000E+00  0.21164896493E+02  0.21164896493E+02  0.00000000000E+00 0.  1.
          2   -1    0    0  501    0  0.00000000000E+00 -0.00000000000E+00 -0.15505398979E+04  0.15505398979E+04  0.00000000000E+00 0. -1.
         25    2    1    2    0    0  0.57534416151E+01  0.12388694326E+03 -0.11218688287E+04  0.11356147010E+04  0.12509997410E+03 0.  0.
          5    1    3    3  502    0  0.36298895805E+02  0.13645411509E+03 -0.84124544870E+03  0.85302327795E+03  0.41800000000E+01 0.  1.
         -5    1    3    3    0  502 -0.30545454190E+02 -0.12567171838E+02 -0.28062338005E+03  0.28259142310E+03  0.41800000000E+01 0.  1.
        -11    1    1    2    0    0 -0.27517721682E+02 -0.34120978495E+02 -0.24737801692E+03  0.25123166487E+03  0.00000000000E+00 0. -1.
         11    1    1    2    0    0  0.21764280067E+02 -0.89765964761E+02 -0.16012815573E+03  0.18485842846E+03  0.00000000000E+00 0.  1.
</event>
<event>
 7    1  0.2878477E-009  0.1033044E+03  0.7561462E-02  0.1273497E+00
          2   -1    0    0  501    0  0.00000000000E+00  0.00000000000E+00  0.13280831806E+04  0.13280831806E+04  0.00000000000E+00 0. -1.
         -2   -1    0    0    0  501 -0.00000000000E+00 -0.00000000000E+00 -0.24175863749E+02  0.24175863749E+02  0.00000000000E+00 0.  1.
         25    2    1    2    0    0  0.72830443279E+01 -0.81921404538E+02  0.11300028063E+04  0.11398767787E+04  0.12509424108E+03 0.  0.
          5    1    3    3  502    0  0.49441646950E+02 -0.55264527361E+02  0.95423146176E+03  0.95711744287E+03  0.41800000000E+01 0.  1.
         -5    1    3    3    0  502 -0.42158602622E+02 -0.26656877177E+02  0.17577134450E+03  0.18275933580E+03  0.41800000000E+01 0.  1.
        -11    1    1    2    0    0 -0.10868870897E+01  0.25567000813E+02 -0.37840559006E+01  0.25868357760E+02  0.00000000000E+00 0.  1.
         11    1    1    2    0    0 -0.61961572382E+01  0.56354403725E+02  0.17768856649E+03  0.18651390792E+03  0.00000000000E+00 0. -1.
</event>
<event>
 7    1  0.2878477E-009  0.1246671E+03  0.7561462E-02  0.1235591E+00
          1   -1    0    0  501    0  0.00000000000E+00  0.00000000000E+00  0.45347113236E+03  0.45347113236E+03  0.00000000000E+00 0. -1.
         -1   -1    0    0    0  501 -0.00000000000E+00 -0.00000000000E+00 -0.39512678677E+02  0.39512678677E+02  0.00000000000E+00 0.  1.
         25    2    1    2    0    0  0.29171223234E+02  0.66969991641E+02  0.28209302337E+03  0.31711146752E+03  0.12508904408E+03 0.  0.
          5    1    3    3  502    0  0.65157406439E+02 -0.71604331286E+00  0.16095326253E+03  0.17369348132E+03  0.41800000000E+01 0.  1.
         -5    1    3    3    0  502 -0.35986183205E+02  0.67686034954E+02  0.12113976084E+03  0.14341798620E+03  0.41800000000E+01 0.  1.
        -11    1    1    2    0    0 -0.84182663917E+00  0.17835390470E+02  0.55453965493E+02  0.58257635673E+02  0.00000000000E+00 0. -1.
         11    1    1    2    0    0 -0.28329396594E+02 -0.84805382111E+02  0.76411464816E+02  0.11761470785E+03  0.00000000000E+00 0.  1.
</event>
<event>
 7    1  0.2878477E-009  0.9680928E+02  0.7561462E-02  0.1287152E+00
          1   -1    0    0  501    0  0.00000000000E+00  0.00000000000E+00  0.21475901756E+03  0.21475901756E+03  0.00000000000E+00 0. -1.
         -1   -1    0    0    0  501 -0.00000000000E+00 -0.00000000000E+00 -0.85836098556E+02  0.85836098556E+02  0.00000000000E+00 0.  1.
         25    2    1    2    0    0  0.37150432134E+02 -0.46109611494E+02  0.78436370499E+01  0.13861494741E+03  0.12508529140E+03 0.  0.
          5    1    3    3  502    0 -0.38195903668E+02 -0.37735931257E+02 -0.20424096194E+02  0.57598122107E+02  0.41800000000E+01 0. -1.
         -5    1    3    3    0  502  0.75346335802E+02 -0.83736802365E+01  0.28267733244E+02  0.81016825303E+02  0.41800000000E+01 0. -1.
        -11    1    1    2    0    0 -0.31872739812E+02  0.20975318715E+02 -0.52771556306E-01  0.38155449456E+02  0.00000000000E+00 0.  1.
         11    1    1    2    0    0 -0.52776923220E+01  0.25134292778E+02  0.12113205351E+03  0.12382471925E+03  0.00000000000E+00 0. -1.
</event>
<event>
 7    1  0.2878477E-009  0.6774140E+02  0.7561462E-02  0.1367946E+00
          1   -1    0    0  501    0  0.00000000000E+00  0.00000000000E+00  0.22700758793E+02  0.22700758793E+02  0.00000000000E+00 0. -1.
         -1   -1    0    0    0  501 -0.00000000000E+00 -0.00000000000E+00 -0.60304032055E+03  0.60304032055E+03  0.00000000000E+00 0.  1.
         25    2    1    2    0    0  0.26292960397E+02 -0.35591356884E+02 -0.31067302861E+03  0.33782104396E+03  0.12508901864E+03 0.  0.
          5    1    3    3  502    0  0.31594589114E+02 -0.17693206719E+02 -0.31589562281E+03  0.31799179948E+03  0.41800000000E+01 0. -1.
         -5    1    3    3    0  502 -0.53016287169E+01 -0.17898150165E+02  0.52225942031E+01  0.19829244478E+02  0.41800000000E+01 0. -1.
        -11    1    1    2    0    0 -0.48863724538E+02  0.26315814238E+02 -0.25136025744E+03  0.25741438319E+03  0.00000000000E+00 0.  1.
         11    1    1    2    0    0  0.22570764142E+02  0.92755426459E+01 -0.18306275712E+02  0.30505652193E+02  0.00000000000E+00 0. -1.
</event>
<event>
 7    1  0.2878477E-009  0.1336531E+03  0.7561462E-02  0.1222134E+00
         -2   -1    0    0    0  501 -0.00000000000E+00  0.00000000000E+00  0.25009143337E+02  0.25009143337E+02  0.00000000000E+00 0.  1.
          2   -1    0    0  501    0  0.00000000000E+00 -0.00000000000E+00 -0.92965169048E+03  0.92965169048E+03  0.00000000000E+00 0. -1.
         25    2    1    2    0    0  0.51835549568E+02  0.64417368906E+02 -0.69383818368E+03  0.70985558602E+03  0.12508799405E+03 0.  0.
          5    1    3    3  502    0  0.50469075718E+02 -0.25471727758E+02 -0.19974339385E+03  0.20763148198E+03  0.41800000000E+01 0.  1.
         -5    1    3    3    0  502  0.13664738501E+01  0.89889096664E+02 -0.49409478982E+03  0.50222410404E+03  0.41800000000E+01 0.  1.
        -11    1    1    2    0    0 -0.24762457700E+02  0.20088407380E+02 -0.31902600381E+02  0.45105424657E+02  0.00000000000E+00 0.  1.
         11    1    1    2    0    0 -0.27073091868E+02 -0.84505776285E+02 -0.17890176309E+03  0.19969982314E+03  0.00000000000E+00 0. -1.
</event>
<event>
 7    1  0.2878477E-009  0.1318515E+03  0.7561462E-02  0.1224734E+00
          2   -1    0    0  501    0  0.00000000000E+00  0.00000000000E+00  0.32139776512E+03  0.32139776512E+03  0.00000000000E+00 0. -1.
         -2   -1    0    0    0  501 -0.00000000000E+00 -0.00000000000E+00 -0.69168543533E+02  0.69168543533E+02  0.00000000000E+00 0.  1.
         25    2    1    2    0    0 -0.53389596609E+02  0.78543220347E+02  0.99281969256E+02  0.18580970863E+03  0.12509537127E+03 0.  0.
          5    1    3    3  502    0 -0.26128501285E+02 -0.24358816401E+02  0.64307749932E+02  0.73681813340E+02  0.41800000000E+01 0.  1.
         -5    1    3    3    0  502 -0.27261095324E+02  0.10290203675E+03  0.34974219324E+02  0.11212789529E+03  0.41800000000E+01 0.  1.
        -11    1    1    2    0    0  0.51093932265E+02 -0.93243733229E+02  0.15674184578E+03  0.18940166292E+03  0.00000000000E+00 0. -1.
         11    1    1    2    0    0  0.22956643440E+01  0.14700512882E+02 -0.37945934488E+01  0.15354937096E+02  0.00000000000E+00 0.  1.
</event>
<event>
 7    1  0.2878477E-009  0.1538024E+03  0.7561462E-02  0.1195877E+00
         -3   -1    0    0    0  501 -0.00000000000E+00  0.00000000000E+00  0.17265470104E+03  0.17265470104E+03  0.00000000000E+00 0.  1.
          3   -1    0    0  501    0  0.00000000000E+00 -0.00000000000E+00 -0.17638980398E+03  0.17638980398E+03  0.00000000000E+00 0. -1.
         25    2    1    2    0    0  0.10712620729E+03  0.52130613669E+02  0.61619234893E+02  0.18340569452E+03  0.12508834280E+03 0.  0.
          5    1    3    3  502    0  0.82942581982E+02  0.92852705989E+02  0.37520681120E+02  0.13010138672E+03  0.41800000000E+01 0. -1.
         -5    1    3    3    0  502  0.24183625305E+02 -0.40722092320E+02  0.24098553773E+02  0.53304307797E+02  0.41800000000E+01 0. -1.
        -11    1    1    2    0    0 -0.13911841708E+02  0.15118101813E+02 -0.44236302886E+02  0.48774448589E+02  0.00000000000E+00 0. -1.
         11    1    1    2    0    0 -0.93214365579E+02 -0.67248715482E+02 -0.21118034956E+02  0.11686436191E+03  0.00000000000E+00 0.  1.
</event>
<event>
 7    1  0.2878477E-009  0.1270053E+03  0.7561462E-02  0.1231968E+00
         -2   -1    0    0    0  501 -0.00000000000E+00  0.00000000000E+00  0.25268671639E+02  0.25268671639E+02  0.00000000000E+00 0.  1.
          2   -1    0    0  501    0  0.00000000000E+00 -0.00000000000E+00 -0.80003209230E+03  0.80003209230E+03  0.00000000000E+00 0. -1.
         25    2    1    2    0    0  0.78699088379E+02 -0.25536252630E+02 -0.32600969838E+03  0.35885344742E+03  0.12509127297E+03 0.  0.
          5    1    3    3  502    0  0.10654162327E+03 -0.14016782500E+02 -0.17975104703E+03  0.20946479177E+03  0.41800000000E+01 0. -1.
         -5    1    3    3    0  502 -0.27842534894E+02 -0.11519470129E+02 -0.14625865136E+03  0.14938865565E+03  0.41800000000E+01 0. -1.
        -11    1    1    2    0    0 -0.63037458091E+02  0.54364393146E+02 -0.39332466581E+03  0.40203669124E+03  0.00000000000E+00 0. -1.
         11    1    1    2    0    0 -0.15661630289E+02 -0.28828140517E+02 -0.55429056464E+02  0.64410625284E+02  0.00000000000E+00 0.  1.
</event>
<event>
 7    1  0.2878477E-009  0.1076544E+03  0.7561462E-02  0.1264976E+00
          2   -1    0    0  501    0  0.00000000000E+00  0.00000000000E+00  0.91211480791E+03  0.91211480791E+03  0.00000000000E+00 0. -1.
         -2   -1    0    0    0  501 -0.00000000000E+00 -0.00000000000E+00 -0.14468851574E+02  0.14468851574E+02  0.00000000000E+00 0.  1.
         25    2    1    2    0    0 -0.57017175054E+02  0.26493274859E+02  0.58701637413E+03  0.60348045935E+03  0.12509032516E+03 0.  0.
          5    1    3    3  502    0  0.22465883341E+02 -0.26042567870E+02  0.27613491481E+03  0.27830000869E+03  0.41800000000E+01 0. -1.
         -5    1    3    3    0  502 -0.79483058396E+02  0.52535842729E+02  0.31088145932E+03  0.32518045066E+03  0.41800000000E+01 0. -1.
        -11    1    1    2    0    0 -0.69636653823E+00 -0.27561826191E+02  0.61883837149E+02  0.67747682540E+02  0.00000000000E+00 0.  1.
         11    1    1    2    0    0  0.57713541593E+02  0.10685513318E+01  0.24874574506E+03  0.25535551760E+03  0.00000000000E+00 0. -1.
</event>
<event>
 7    1  0.2878477E-009  0.1104977E+03  0.7561462E-02  0.1259651E+00
          2   -1    0    0  501    0  0.00000000000E+00  0.00000000000E+00  0.34322893987E+03  0.34322893987E+03  0.00000000000E+00 0. -1.
         -2   -1    0    0    0  501 -0.00000000000E+00 -0.00000000000E+00 -0.61194856116E+02  0.61194856116E+02  0.00000000000E+00 0.  1.
         25    2    1    2    0    0 -0.16084755803E+02  0.72022652747E+02  0.66638658150E+02  0.15979363669E+03  0.12508922292E+03 0.  0.
          5    1    3    3  502    0 -0.57959787084E+02  0.67457634842E+02  0.75274657688E+02  0.11659166311E+03  0.41800000000E+01 0. -1.
         -5    1    3    3    0  502  0.41875031281E+02  0.45650179047E+01 -0.86359995380E+01  0.43201973581E+02  0.41800000000E+01 0. -1.
        -11    1    1    2    0    0 -0.17126491216E+02 -0.39922093006E+02  0.28131373781E+02  0.51753882967E+02  0.00000000000E+00 0.  1.
         11    1    1    2    0    0  0.33211247019E+02 -0.32100559741E+02  0.18726405183E+03  0.19287627633E+03  0.00000000000E+00 0. -1.
</event>
<event>
 7    1  0.2878477E-009  0.1463123E+03  0.7561462E-02  0.1205079E+00
          2   -1    0    0  501    0  0.00000000000E+00  0.00000000000E+00  0.78687180271E+03  0.78687180271E+03  0.00000000000E+00 0. -1.
         -2   -1    0    0    0  501 -0.00000000000E+00 -0.00000000000E+00 -0.31715905458E+02  0.31715905458E+02  0.00000000000E+00 0.  1.
         25    2    1    2    0    0 -0.10186021886E+03 -0.57621059044E+01  0.27301077495E+03  0.31716217162E+03  0.12509298068E+03 0.  0.
          5    1    3    3  502    0  0.15495385967E+02 -0.32433408196E+02  0.10018795634E+03  0.10652291748E+03  0.41800000000E+01 0.  1.
         -5    1    3    3    0  502 -0.11735560483E+03  0.26671302292E+02  0.17282281861E+03  0.21063925414E+03  0.41800000000E+01 0.  1.
        -11    1    1    2    0    0  0.96772052374E+02 -0.28890563434E+02  0.38952830527E+03  0.40240749916E+03  0.00000000000E+00 0. -1.
         11    1    1    2    0    0  0.50881664879E+01  0.34652669339E+02  0.92616817034E+02  0.99018037387E+02  0.00000000000E+00 0.  1.
</event>
<event>
 7    1  0.2878477E-009  0.1277370E+03  0.7561462E-02  0.1230853E+00
          2   -1    0    0  501    0  0.00000000000E+00  0.00000000000E+00  0.23752010408E+04  0.23752010408E+04  0.00000000000E+00 0. -1.
         -2   -1    0    0    0  501 -0.00000000000E+00 -0.00000000000E+00 -0.10513159499E+02  0.10513159499E+02  0.00000000000E+00 0.  1.
         25    2    1    2    0    0 -0.27523376501E+02  0.73170426951E+02  0.19442808505E+04  0.19498684680E+04  0.12509024490E+03 0.  0.
          5    1    3    3  502    0  0.21872169013E+02  0.87245337219E+02  0.95144439618E+03  0.95569558546E+03  0.41800000000E+01 0.  1.
         -5    1    3    3    0  502 -0.49395545514E+02 -0.14074910268E+02  0.99283645433E+03  0.99417288258E+03  0.41800000000E+01 0.  1.
        -11    1    1    2    0    0  0.20856510875E+01  0.18575966578E+02  0.49427762120E+02  0.52844300950E+02  0.00000000000E+00 0.  1.
         11    1    1    2    0    0  0.25437725414E+02 -0.91746393530E+02  0.37097926868E+03  0.38300143131E+03  0.00000000000E+00 0. -1.
</event>
<event>
 7    1  0.2878477E-009  0.8036538E+02  0.7561462E-02  0.1328018E+00
          4   -1    0    0  501    0  0.00000000000E+00  0.00000000000E+00  0.88221000218E+02  0.88221000218E+02  0.00000000000E+00 0. -1.
         -4   -1    0    0    0  501 -0.00000000000E+00 -0.00000000000E+00 -0.17127076469E+03  0.17127076469E+03  0.00000000000E+00 0.  1.
         25    2    1    2    0    0 -0.26359410104E+01 -0.40631560972E+02 -0.89396274388E+02  0.15904909670E+03  0.12508816633E+03 0.  0.
          5    1    3    3  502    0 -0.32050101671E+02  0.20912806635E+02  0.87257168861E+01  0.39473599198E+02  0.41800000000E+01 0.  1.
         -5    1    3    3    0  502  0.29414160661E+02 -0.61544367607E+02 -0.98121991275E+02  0.11957549750E+03  0.41800000000E+01 0.  1.
        -11    1    1    2    0    0  0.10694207504E+02 -0.16765549644E+01  0.42719567618E+02  0.44069698980E+02  0.00000000000E+00 0. -1.
         11    1    1    2    0    0 -0.80582664940E+01  0.42308115936E+02 -0.36373057705E+02  0.56372969230E+02  0.00000000000E+00 0.  1.
</event>
<event>
 7    1  0.3510912E-009  0.7084947E+02  0.7561462E-02  0.1357228E+00
         -2   -1    0    0    0  501 -0.00000000000E+00  0.00000000000E+00  0.63590915194E+02  0.63590915194E+02  0.00000000000E+00 0. -1.
          2   -1    0    0  501    0  0.00000000000E+00 -0.00000000000E+00 -0.20743588506E+03  0.20743588506E+03  0.00000000000E+00 0.  1.
         25    2    1    2    0    0 -0.83815154481E+01 -0.32807958487E+02 -0.10438809177E+03  0.16640421894E+03  0.12508748314E+03 0.  0.
          5    1    3    3  502    0  0.21177399764E+02 -0.55681117780E+02 -0.47531442032E+01  0.59907711673E+02  0.41800000000E+01 0. -1.
         -5    1    3    3    0  502 -0.29558915212E+02  0.22873159293E+02 -0.99634947563E+02  0.10649650727E+03  0.41800000000E+01 0. -1.
        -11    1    1    2    0    0 -0.81127706969E+01  0.24688664400E+02  0.25923505365E+02  0.36706611512E+02  0.00000000000E+00 0. -1.
         11    1    1    2    0    0  0.16494286145E+02  0.81192940870E+01 -0.65380383461E+02  0.67915969796E+02  0.00000000000E+00 0.  1.
</event>
<event>
 7    1  0.2878477E-009  0.1141445E+03  0.7561462E-02  0.1253082E+00
         -1   -1    0    0    0  501 -0.00000000000E+00  0.00000000000E+00  0.82122438944E+02  0.82122438944E+02  0.00000000000E+00 0.  1.
          1   -1    0    0  501    0  0.00000000000E+00 -0.00000000000E+00 -0.22703626831E+03  0.22703626831E+03  0.00000000000E+00 0. -1.
         25    2    1    2    0    0  0.20582678449E+01  0.82232689042E+02 -0.70714960092E+02  0.16557926764E+03  0.12509770853E+03 0.  0.
          5    1    3    3  502    0 -0.15435420716E+02  0.87401708866E+02  0.36185157675E+01  0.88926244617E+02  0.41800000000E+01 0.  1.
         -5    1    3    3    0  502  0.17493688561E+02 -0.51690198243E+01 -0.74333475859E+02  0.76653023024E+02  0.41800000000E+01 0.  1.
        -11    1    1    2    0    0 -0.16081982710E+02  0.15293615021E+02 -0.25067055231E+02  0.33479577151E+02  0.00000000000E+00 0. -1.
         11    1    1    2    0    0  0.14023714865E+02 -0.97526304062E+02 -0.49131814044E+02  0.11009986246E+03  0.00000000000E+00 0.  1.
</event>
<event>
 7    1  0.2878477E-009  0.3016768E+03  0.7561462E-02  0.1084405E+00
          2   -1    0    0  501    0  0.00000000000E+00  0.00000000000E+00  0.10176090263E+03  0.10176090263E+03  0.00000000000E+00 0. -1.
         -2   -1    0    0    0  501 -0.00000000000E+00 -0.00000000000E+00 -0.10029621755E+04  0.10029621755E+04  0.00000000000E+00 0.  1.
         25    2    1    2    0    0  0.11520953474E+03 -0.26521739001E+03 -0.31841514265E+03  0.44793850526E+03  0.12508877075E+03 0.  0.
          5    1    3    3  502    0  0.53030593519E+02 -0.23968314349E+02 -0.10385092155E+03  0.11911847148E+03  0.41800000000E+01 0.  1.
         -5    1    3    3    0  502  0.62178941223E+02 -0.24124907566E+03 -0.21456422110E+03  0.32882003378E+03  0.41800000000E+01 0.  1.
        -11    1    1    2    0    0 -0.67007189941E+02  0.79515466902E+02 -0.27609794086E+03  0.29503007631E+03  0.00000000000E+00 0.  1.
         11    1    1    2    0    0 -0.48202344802E+02  0.18570192311E+03 -0.30668818937E+03  0.36175449657E+03  0.00000000000E+00 0. -1.
</event>
<event>
 7    1  0.2878477E-009  0.1077003E+03  0.7561462E-02  0.1264889E+00
          2   -1    0    0  501    0  0.00000000000E+00  0.00000000000E+00  0.10835593925E+04  0.10835593925E+04  0.00000000000E+00 0. -1.
         -2   -1    0    0    0  501 -0.00000000000E+00 -0.00000000000E+00 -0.16688548401E+02  0.16688548401E+02  0.00000000000E+00 0.  1.
         25    2    1    2    0    0  0.46341681309E+02 -0.95012323725E+01  0.83712430913E+03  0.84774051652E+03  0.12509616129E+03 0.  0.
          5    1    3    3  502    0 -0.36504323322E+02  0.65857331866E+01  0.44775809759E+03  0.44931138853E+03  0.41800000000E+01 0. -1.
         -5    1    3    3    0  502  0.82846004631E+02 -0.16086965559E+02  0.38936621154E+03  0.39842912800E+03  0.41800000000E+01 0. -1.
        -11    1    1    2    0    0 -0.48717138157E+02  0.39969150805E+02  0.92667862101E+02  0.11206348751E+03  0.00000000000E+00 0.  1.
         11    1    1    2    0    0  0.23754568479E+01 -0.30467918432E+02  0.13707867283E+03  0.14044393683E+03  0.00000000000E+00 0. -1.
</event>
<event>
 7    1  0.2878477E-009  0.2578137E+03  0.7561462E-02  0.1108464E+00
          2   -1    0    0  501    0  0.00000000000E+00  0.00000000000E+00  0.12275048405E+04  0.12275048405E+04  0.00000000000E+00 0. -1.
         -2   -1    0    0    0  501 -0.00000000000E+00 -0.00000000000E+00 -0.64033031859E+02  0.64033031859E+02  0.00000000000E+00 0.  1.
         25    2    1    2    0    0  0.18818032989E+03 -0.14725667270E+03  0.81898704280E+03  0.86225407615E+03  0.12508377733E+03 0.  0.
          5    1    3    3  502    0  0.69245856741E+02 -0.11837148629E+03  0.54741674785E+03  0.56434862069E+03  0.41800000000E+01 0. -1.
         -5    1    3    3    0  502  0.11893447315E+03 -0.28885186415E+02  0.27157029495E+03  0.29790545546E+03  0.41800000000E+01 0. -1.
        -11    1    1    2    0    0 -0.14257332294E+03  0.54564281629E+02  0.19726519354E+03  0.24943530189E+03  0.00000000000E+00 0. -1.
         11    1    1    2    0    0 -0.45607006947E+02  0.92692391074E+02  0.14721957235E+03  0.17984849437E+03  0.00000000000E+00 0.  1.
</event>
<event>
 7    1  0.2878477E-009  0.2712715E+03  0.7561462E-02  0.1100554E+00
          2   -1    0    0  501    0  0.00000000000E+00  0.00000000000E+00  0.27887492926E+03  0.27887492926E+03  0.00000000000E+00 0. -1.
         -2   -1    0    0    0  501 -0.00000000000E+00 -0.00000000000E+00 -0.28324541660E+03  0.28324541660E+03  0.00000000000E+00 0.  1.
         25    2    1    2    0    0 -0.25765420063E+03  0.15360233331E+02  0.23537799189E+02  0.28779233929E+03  0.12509507860E+03 0.  0.
          5    1    3    3  502    0 -0.17827944083E+03 -0.29543805962E+02 -0.28066013904E+02  0.18292503664E+03  0.41800000000E+01 0. -1.
         -5    1    3    3    0  502 -0.79374759803E+02  0.44904039293E+02  0.51603813093E+02  0.10486730265E+03  0.41800000000E+01 0. -1.
        -11    1    1    2    0    0  0.17243569226E+03  0.28296201070E+02 -0.35377069107E+02  0.17828707183E+03  0.00000000000E+00 0.  1.
         11    1    1    2    0    0  0.85218508368E+02 -0.43656434401E+02  0.74687825809E+01  0.96040934743E+02  0.00000000000E+00 0. -1.
</event>
<event>
 6    1  0.2878477E-009  0.1351650E+03  0.7561462E-02  0.1219987E+00
          2   -1    0    0  501    0  0.00000000000E+00  0.00000000000E+00  0.17371741362E+04  0.17371741362E+04  0.00000000000E+00 0. -1.
         -2   -1    0    0    0  501 -0.00000000000E+00 -0.00000000000E+00 -0.11517366237E+02  0.11517366237E+02  0.00000000000E+00 0.  1.
          5    1    1    2  502    0  0.99956746676E+02 -0.25841117645E+01  0.88019892165E+03  0.88586999211E+03  0.41800000000E+01 0.  1.
         -5    1    1    2    0  502 -0.20786921415E+02 -0.38652068917E+02  0.17650501692E+03  0.18192738092E+03  0.41800000000E+01 0.  1.
        -11    1    1    2    0    0 -0.30010662433E+00  0.47079975774E+02  0.21391067930E+03  0.21903057526E+03  0.00000000000E+00 0.  1.
         11    1    1    2    0    0 -0.78869718637E+02 -0.58437950922E+01  0.45504215214E+03  0.46186355419E+03  0.00000000000E+00 0. -1.
</event>
<event>
 7    1  0.2878477E-009  0.1386311E+03  0.7561462E-02  0.1215183E+00
         -2   -1    0    0    0  501 -0.00000000000E+00  0.00000000000E+00  0.35661751910E+02  0.35661751910E+02  0.00000000000E+00 0.  1.
          2   -1    0    0  501    0  0.00000000000E+00 -0.00000000000E+00 -0.84064722625E+03  0.84064722625E+03  0.00000000000E+00 0. -1.
         25    2    1    2    0    0  0.27347817798E+02 -0.81756320222E+02 -0.16606948786E+03  0.22507343954E+03  0.12508788652E+03 0.  0.
          5    1    3    3  502    0  0.10500441451E+02 -0.11405239576E+03 -0.13432503816E+03  0.17657546977E+03  0.41800000000E+01 0.  1.
         -5    1    3    3    0  502  0.16847376347E+02  0.32296075536E+02 -0.31744449703E+02  0.48497969770E+02  0.41800000000E+01 0.  1.
        -11    1    1    2    0    0  0.33451301571E+02  0.18406910029E+02 -0.18276049764E+03  0.18670619543E+03  0.00000000000E+00 0.  1.
         11    1    1    2    0    0 -0.60799119369E+02  0.63349410193E+02 -0.45615548884E+03  0.46452934319E+03  0.00000000000E+00 0. -1.
</event>
<event>
 7    1  0.2878477E-009  0.9397459E+02  0.7561462E-02  0.1293502E+00
          1   -1    0    0  501    0  0.00000000000E+00  0.00000000000E+00  0.49610996304E+03  0.49610996304E+03  0.00000000000E+00 0. -1.
         -1   -1    0    0    0  501 -0.00000000000E+00 -0.00000000000E+00 -0.32070111503E+02  0.32070111503E+02  0.00000000000E+00 0.  1.
         25    2    1    2    0    0 -0.96258424639E+00  0.64768585251E+02  0.25717015572E+03  0.29322533221E+03  0.12509480508E+03 0.  0.
          5    1    3    3  502    0 -0.19527485439E+02  0.44378935324E+02  0.17162605345E+02  0.51602713207E+02  0.41800000000E+01 0. -1.
         -5    1    3    3    0  502  0.18564901193E+02  0.20389649927E+02  0.24000755037E+03  0.24162261901E+03  0.41800000000E+01 0. -1.
        -11    1    1    2    0    0 -0.41764468456E+02 -0.52210432323E+02  0.12391578985E+03  0.14080242556E+03  0.00000000000E+00 0.  1.
         11    1    1    2    0    0  0.42727052702E+02 -0.12558152929E+02  0.82953905970E+02  0.94152316770E+02  0.00000000000E+00 0. -1.
</event>
<event>
 7    1  0.2878477E-009  0.1761020E+03  0.7561462E-02  0.1171630E+00
         -2   -1    0    0    0  501 -0.00000000000E+00  0.00000000000E+00  0.29258316809E+03  0.29258316809E+03  0.00000000000E+00 0.  1.
          2   -1    0    0  501    0  0.00000000000E+00 -0.00000000000E+00 -0.14766714206E+03  0.14766714206E+03  0.00000000000E+00 0. -1.
         25    2    1    2    0    0 -0.46824545292E+02 -0.15488471749E+03  0.93826845791E+01  0.20473749686E+03  0.12509034374E+03 0.  0.
          5    1    3    3  502    0 -0.23074038251E+02 -0.30543865010E+02  0.57537652676E+02  0.69234332570E+02  0.41800000000E+01 0.  1.
         -5    1    3    3    0  502 -0.23750507042E+02 -0.12434085248E+03 -0.48154968097E+02  0.13550316429E+03  0.41800000000E+01 0.  1.
        -11    1    1    2    0    0 -0.27411048948E+02  0.64453074609E+02  0.78980529015E+02  0.10556272256E+03  0.00000000000E+00 0. -1.
         11    1    1    2    0    0  0.74235594240E+02  0.90431642881E+02  0.56552812429E+02  0.12995009073E+03  0.00000000000E+00 0.  1.
</event>
<event>
 7    1  0.2878477E-009  0.1529188E+03  0.7561462E-02  0.1196932E+00
          2   -1    0    0  501    0  0.00000000000E+00  0.00000000000E+00  0.22918176620E+03  0.22918176620E+03  0.00000000000E+00 0. -1.
         -2   -1    0    0    0  501 -0.00000000000E+00 -0.00000000000E+00 -0.13939260950E+03  0.13939260950E+03  0.00000000000E+00 0.  1.
         25    2    1    2    0    0  0.11636095410E+03  0.60784409598E+02 -0.94625269209E+01  0.18158213076E+03  0.12509162525E+03 0.  0.
          5    1    3    3  502    0  0.93489550025E+02  0.75341333175E+02  0.38644188529E+02  0.12620403383E+03  0.41800000000E+01 0.  1.
         -5    1    3    3    0  502  0.22871404073E+02 -0.14556923578E+02 -0.48106715449E+02  0.55378096930E+02  0.41800000000E+01 0.  1.
        -11    1    1    2    0    0 -0.69420065557E+02  0.13181713315E+02  0.39504282665E+02  0.80953637452E+02  0.00000000000E+00 0.  1.
         11    1    1    2    0    0 -0.46940888541E+02 -0.73966122913E+02  0.59747400962E+02  0.10603860749E+03  0.00000000000E+00 0. -1.
</event>
<event>
 7    1  0.2878477E-009  0.9341762E+02  0.7561462E-02  0.1294780E+00
          1   -1    0    0  501    0  0.00000000000E+00  0.00000000000E+00  0.86858453481E+02  0.86858453481E+02  0.00000000000E+00 0. -1.
         -1   -1    0    0    0  501 -0.00000000000E+00 -0.00000000000E+00 -0.21721165920E+03  0.21721165920E+03  0.00000000000E+00 0.  1.
         25    2    1    2    0    0  0.59196965244E+02 -0.32122961344E+01 -0.38874322822E+01  0.13848519575E+03  0.12509371596E+03 0.  0.
          5    1    3    3  502    0  0.91697748561E+02  0.90981796861E+01  0.22142563871E+02  0.94863161973E+02  0.41800000000E+01 0. -1.
         -5    1    3    3    0  502 -0.32500783317E+02 -0.12310475821E+02 -0.26029996153E+02  0.43622033777E+02  0.41800000000E+01 0. -1.
        -11    1    1    2    0    0 -0.32518630645E+02  0.47577150079E+01 -0.13387804373E+03  0.13785292084E+03  0.00000000000E+00 0.  1.
         11    1    1    2    0    0 -0.26678334599E+02 -0.15454188735E+01  0.74122702904E+01  0.27731996094E+02  0.00000000000E+00 0. -1.
</event>
<event>
 7    1  0.2878477E-009  0.8925997E+02  0.7561462E-02  0.1304654E+00
          1   -1    0    0  501    0  0.00000000000E+00  0.00000000000E+00  0.10250970328E+03  0.10250970328E+03  0.00000000000E+00 0. -1.
         -1   -1    0    0    0  501 -0.00000000000E+00 -0.00000000000E+00 -0.12781839822E+03  0.12781839822E+03  0.00000000000E+00 0.  1.
         25    2    1    2    0    0  0.35233848013E+02  0.64050252779E+01 -0.25416956408E+02  0.13257072199E+03  0.12508607541E+03 0.  0.
          5    1    3    3  502    0  0.35324106734E+02  0.49260602000E+02  0.25493899392E+02  0.65892417865E+02  0.41800000000E+01 0.  1.
         -5    1    3    3    0  502 -0.90258720632E-01 -0.42855576722E+02 -0.50910855799E+02  0.66678304125E+02  0.41800000000E+01 0.  1.
        -11    1    1    2    0    0  0.18835849157E+02 -0.83313376508E+01 -0.29579338742E+02  0.36043552557E+02  0.00000000000E+00 0.  1.
         11    1    1    2    0    0 -0.54069697171E+02  0.19263123729E+01  0.29687600212E+02  0.61713826959E+02  0.00000000000E+00 0. -1.
</event>
<event>
 7    1  0.5367828E-009  0.1632882E+03  0.7561462E-02  0.1185034E+00
         -3   -1    0    0    0  501 -0.00000000000E+00  0.00000000000E+00  0.93243781384E+02  0.93243781384E+02  0.00000000000E+00 0.  1.
          3   -1    0    0  501    0  0.00000000000E+00 -0.00000000000E+00 -0.38011619895E+03  0.38011619895E+03  0.00000000000E+00 0. -1.
         25    2    1    2    0    0 -0.95234342638E+02  0.11983291319E+03 -0.16190727769E+03  0.25552970775E+03  0.12510778501E+03 0.  0.
          5    1    3    3  502    0 -0.92578581489E+02  0.54838239600E+02 -0.35634541507E+02  0.11342539055E+03  0.41800000000E+01 0.  1.
         -5    1    3    3    0  502 -0.26557611493E+01  0.64994673590E+02 -0.12627273619E+03  0.14210431720E+03  0.41800000000E+01 0.  1.
        -11    1    1    2    0    0  0.48463647955E+02 -0.72177660881E+02 -0.13620721862E+02  0.87999227084E+02  0.00000000000E+00 0.  1.
         11    1    1    2    0    0  0.46770694683E+02 -0.47655252309E+02 -0.11134441801E+03  0.12983104550E+03  0.00000000000E+00 0. -1.
</event>
<event>
 7    1  0.2878477E-009  0.1513186E+03  0.7561462E-02  0.1198862E+00
         -2   -1    0    0    0  501 -0.00000000000E+00  0.00000000000E+00  0.17993826660E+03  0.17993826660E+03  0.00000000000E+00 0. -1.
          2   -1    0    0  501    0  0.00000000000E+00 -0.00000000000E+00 -0.16971476692E+03  0.16971476692E+03  0.00000000000E+00 0.  1.
         25    2    1    2    0    0  0.93971838009E+02 -0.84185955434E+02  0.57873816094E+02  0.18685469429E+03  0.12508923518E+03 0.  0.
          5    1    3    3  502    0  0.17740115567E+02 -0.85758042003E+02 -0.51772462645E+01  0.87826133624E+02  0.41800000000E+01 0.  1.
         -5    1    3    3    0  502  0.76231722442E+02  0.15720865689E+01  0.63051062358E+02  0.99028560664E+02  0.41800000000E+01 0.  1.
        -11    1    1    2    0    0 -0.40658827845E+02  0.73839574592E+02 -0.64274728032E+02  0.10600313071E+03  0.00000000000E+00 0.  1.
         11    1    1    2    0    0 -0.53313010164E+02  0.10346380842E+02  0.16624411611E+02  0.56795208519E+02  0.00000000000E+00 0. -1.
</event>
<event>
 7    1  0.2878477E-009  0.1033261E+03  0.7561462E-02  0.1273453E+00
         -1   -1    0    0    0  501 -0.00000000000E+00  0.00000000000E+00  0.19627047796E+03  0.19627047796E+03  0.00000000000E+00 0.  1.
          1   -1    0    0  501    0  0.00000000000E+00 -0.00000000000E+00 -0.73947253926E+02  0.73947253926E+02  0.00000000000E+00 0. -1.
         25    2    1    2    0    0  0.20327788791E+02  0.27522908975E+02  0.22925225355E+02  0.13169404810E+03  0.12508807630E+03 0.  0.
          5    1    3    3  502    0  0.53240562397E+02  0.59784639950E+02  0.25845857491E+00  0.80164205598E+02  0.41800000000E+01 0. -1.
         -5    1    3    3    0  502 -0.32912773606E+02 -0.32261730975E+02  0.22666766780E+02  0.51529842501E+02  0.41800000000E+01 0. -1.
        -11    1    1    2    0    0 -0.35460001026E+02 -0.44871092806E+02  0.28336050381E+02  0.63826000921E+02  0.00000000000E+00 0. -1.
         11    1    1    2    0    0  0.15132212235E+02  0.17348183832E+02  0.71061948296E+02  0.74697682863E+02  0.00000000000E+00 0.  1.
</event>
<event>
 7    1  0.2878477E-009  0.1282354E+03  0.7561462E-02  0.1230098E+00
         -1   -1    0    0    0  501 -0.00000000000E+00  0.00000000000E+00  0.98553188859E+02  0.98553188859E+02  0.00000000000E+00 0.  1.
          1   -1    0    0  501    0  0.00000000000E+00 -0.00000000000E+00 -0.22076732796E+03  0.22076732796E+03  0.00000000000E+00 0. -1.
         25    2    1    2    0    0  0.74610467769E+02 -0.53668940886E+02 -0.10907372852E+03  0.18971866775E+03  0.12509603320E+03 0.  0.
          5    1    3    3  502    0  0.36066244018E+02  0.36770447148E+02 -0.15547921806E+02  0.53963413657E+02  0.41800000000E+01 0.  1.
         -5    1    3    3    0  502  0.38544223750E+02 -0.90439388033E+02 -0.93525806712E+02  0.13575525409E+03  0.41800000000E+01 0.  1.
        -11    1    1    2    0    0 -0.24758466218E+02 -0.89768965065E+01  0.28962137174E+02  0.39145519668E+02  0.00000000000E+00 0.  1.
         11    1    1    2    0    0 -0.49852001550E+02  0.62645837392E+02 -0.42102547755E+02  0.90456329400E+02  0.00000000000E+00 0. -1.
</event>
<event>
 7    1  0.2878477E-009  0.1246894E+03  0.7561462E-02  0.1235556E+00
         -1   -1    0    0    0  501 -0.00000000000E+00  0.00000000000E+00  0.14619641228E+02  0.14619641228E+02  0.00000000000E+00 0.  1.
          1   -1    0    0  501    0  0.00000000000E+00 -0.00000000000E+00 -0.11780535733E+04  0.11780535733E+04  0.00000000000E+00 0. -1.
         25    2    1    2    0    0 -0.21734934986E+02 -0.70445801468E+02 -0.75060171131E+03  0.76451636052E+03  0.12508924068E+03 0.  0.
          5    1    3    3  502    0 -0.68116722284E+02 -0.54070600888E+02 -0.59318089260E+03  0.59953695589E+03  0.41800000000E+01 0.  1.
         -5    1    3    3    0  502  0.46381787298E+02 -0.16375200580E+02 -0.15742081871E+03  0.16497940462E+03  0.41800000000E+01 0.  1.
        -11    1    1    2    0    0 -0.15342770687E+02 -0.13967066452E+02 -0.93957386412E+02  0.96220943765E+02  0.00000000000E+00 0.  1.
         11    1    1    2    0    0  0.37077705672E+02  0.84412867920E+02 -0.31887483435E+03  0.33193591024E+03  0.00000000000E+00 0. -1.
</event>
<event>
 7    1  0.2878477E-009  0.9024906E+02  0.7561462E-02  0.1302250E+00
          4   -1    0    0  501    0  0.00000000000E+00  0.00000000000E+00  0.99095775936E+02  0.99095775936E+02  0.00000000000E+00 0. -1.
         -4   -1    0    0    0  501 -0.00000000000E+00 -0.00000000000E+00 -0.13383560025E+03  0.13383560025E+03  0.00000000000E+00 0.  1.
         25    2    1    2    0    0 -0.27420545689E+02 -0.23891468350E+02 -0.31687517770E+02  0.13407222165E+03  0.12509425747E+03 0.  0.
          5    1    3    3  502    0  0.34458414677E+02 -0.46942546008E+02  0.46831665893E+01  0.58569526352E+02  0.41800000000E+01 0. -1.
         -5    1    3    3    0  502 -0.61878960366E+02  0.23051077658E+02 -0.36370684359E+02  0.75502695302E+02  0.41800000000E+01 0. -1.
        -11    1    1    2    0    0 -0.86492237076E+01  0.17218987345E+02 -0.41478281744E+02  0.45735658434E+02  0.00000000000E+00 0.  1.
         11    1    1    2    0    0  0.36069769397E+02  0.66724810051E+01  0.38425975203E+02  0.53123496095E+02  0.00000000000E+00 0. -1.
</event>
<event>
 7    1  0.2878477E-009  0.1657956E+03  0.7561462E-02  0.1182305E+00
          1   -1    0    0  501    0  0.00000000000E+00  0.00000000000E+00  0.40888728466E+03  0.40888728466E+03  0.00000000000E+00 0. -1.
         -1   -1    0    0    0  501 -0.00000000000E+00 -0.00000000000E+00 -0.68721390056E+02  0.68721390056E+02  0.00000000000E+00 0.  1.
         25    2    1    2    0    0  0.10095540393E+03 -0.77880597087E+02  0.16939639394E+03  0.24616903156E+03  0.12508666129E+03 0.  0.
          5    1    3    3  502    0  0.11093194699E+03 -0.10186664104E+03  0.15506629181E+03  0.21620762400E+03  0.41800000000E+01 0. -1.
         -5    1    3    3    0  502 -0.99765430544E+01  0.23986043957E+02  0.14330102132E+02  0.29961407562E+02  0.41800000000E+01 0. -1.
        -11    1    1    2    0    0 -0.11019742242E+03  0.42604682460E+02  0.14364929953E+03  0.18599395724E+03  0.00000000000E+00 0. -1.
         11    1    1    2    0    0  0.92420184911E+01  0.35275914627E+02  0.27120201136E+02  0.45445685914E+02  0.00000000000E+00 0.  1.
</event>
<event>
 7    1  0.2878477E-009  0.2186228E+03  0.7561462E-02  0.1134914E+00
          1   -1    0    0  501    0  0.00000000000E+00  0.00000000000E+00  0.48654264787E+03  0.48654264787E+03  0.00000000000E+00 0. -1.
         -1   -1    0    0    0  501 -0.00000000000E+00 -0.00000000000E+00 -0.16552860453E+03  0.16552860453E+03  0.00000000000E+00 0.  1.
         25    2    1    2    0    0  0.15569009307E+03 -0.11462218726E+03  0.36721452276E+03  0.43344201744E+03  0.12509127014E+03 0.  0.
          5    1    3    3  502    0  0.10874409431E+03 -0.95255826206E+01  0.22751835349E+03  0.25238480213E+03  0.41800000000E+01 0.  1.
         -5    1    3    3    0  502  0.46945998754E+02 -0.10509660464E+03  0.13969616927E+03  0.18105721531E+03  0.41800000000E+01 0.  1.
        -11    1    1    2    0    0 -0.59015810818E+02 -0.47599502113E+01 -0.41055847086E+01  0.59349632504E+02  0.00000000000E+00 0.  1.
         11    1    1    2    0    0 -0.96674282249E+02  0.11938213748E+03 -0.42094894710E+02  0.15927960245E+03  0.00000000000E+00 0. -1.
</event>
<event>
 7    1  0.2878477E-009  0.6831296E+02  0.7561462E-02  0.1365926E+00
          1   -1    0    0  501    0  0.00000000000E+00  0.00000000000E+00  0.36590832341E+03  0.36590832341E+03  0.00000000000E+00 0. -1.
         -1   -1    0    0    0  501 -0.00000000000E+00 -0.00000000000E+00 -0.60137241228E+02  0.60137241228E+02  0.00000000000E+00 0.  1.
         25    2    1    2    0    0  0.64795819840E+02  0.11514044167E+02  0.57220051161E+02  0.15248722493E+03  0.12508856075E+03 0.  0.
          5    1    3    3  502    0  0.70814035386E+01  0.99703806487E+01  0.86608960810E+02  0.87567912267E+02  0.41800000000E+01 0. -1.
         -5    1    3    3    0  502  0.57714416301E+02  0.15436635186E+01 -0.29388909648E+02  0.64919312661E+02  0.41800000000E+01 0. -1.
        -11    1    1    2    0    0 -0.15153241826E+02 -0.23454076876E+01 -0.41329809253E+01  0.15880906976E+02  0.00000000000E+00 0.  1.
         11    1    1    2    0    0 -0.49642578014E+02 -0.91686364797E+01  0.25268401195E+03  0.25767743273E+03  0.00000000000E+00 0. -1.
</event>
<event>
 7    1  0.2878477E-009  0.1102468E+03  0.7561462E-02  0.1260113E+00
          1   -1    0    0  501    0  0.00000000000E+00  0.00000000000E+00  0.64304768637E+02  0.64304768637E+02  0.00000000000E+00 0. -1.
         -1   -1    0    0    0  501 -0.00000000000E+00 -0.00000000000E+00 -0.21290641168E+03  0.21290641168E+03  0.00000000000E+00 0.  1.
         25    2    1    2    0    0  0.39498094884E+02 -0.10020296648E+02 -0.72841177068E+02  0.15037761585E+03  0.12508830652E+03 0.  0.
          5    1    3    3  502    0  0.33146362314E+02 -0.63319039764E+02 -0.18634337166E+02  0.73977652389E+02  0.41800000000E+01 0. -1.
         -5    1    3    3    0  502  0.63517325692E+01  0.53298743116E+02 -0.54206839902E+02  0.76399963459E+02  0.41800000000E+01 0. -1.
        -11    1    1    2    0    0 -0.50335892628E+02 -0.26558317879E+02 -0.22231217782E+02  0.61100518650E+02  0.00000000000E+00 0. -1.
         11    1    1    2    0    0  0.10837797744E+02  0.36578614527E+02 -0.53529248195E+02  0.65733045821E+02  0.00000000000E+00 0.  1.
</event>
<event>
 7    1  0.2878477E-009  0.1369295E+03  0.7561462E-02  0.1217521E+00
          2   -1    0    0  501    0  0.00000000000E+00  0.00000000000E+00  0.19625647010E+03  0.19625647010E+03  0.00000000000E+00 0. -1.
         -2   -1    0    0    0  501 -0.00000000000E+00 -0.00000000000E+00 -0.16274625520E+03  0.16274625520E+03  0.00000000000E+00 0.  1.
         25    2    1    2    0    0 -0.10003635917E+03 -0.59848261805E+01 -0.83075179185E+02  0.18053270484E+03  0.12508989095E+03 0.  0.
          5    1    3    3  502    0 -0.11707405886E+03 -0.17525741632E+02 -0.28179910515E+02  0.12175823025E+03  0.41800000000E+01 0. -1.
         -5    1    3    3    0  502  0.17037699691E+02  0.11540915452E+02 -0.54895268670E+02  0.58774474584E+02  0.41800000000E+01 0. -1.
        -11    1    1    2    0    0  0.11650164404E+03  0.11441061919E+02  0.94874254972E+02  0.15068063983E+03  0.00000000000E+00 0.  1.
         11    1    1    2    0    0 -0.16465284871E+02 -0.54562357383E+01  0.21711139111E+02  0.27789380630E+02  0.00000000000E+00 0. -1.
</event>
<event>
 7    1  0.2878477E-009  0.9584415E+02  0.7561462E-02  0.1289286E+00
          2   -1    0    0  501    0  0.00000000000E+00  0.00000000000E+00  0.64972401794E+03  0.64972401794E+03  0.00000000000E+00 0. -1.
         -2   -1    0    0    0  501 -0.00000000000E+00 -0.00000000000E+00 -0.20137850270E+02  0.20137850270E+02  0.00000000000E+00 0.  1.
         25    2    1    2    0    0  0.58172445954E+02 -0.71178005109E+01  0.38884191055E+03  0.41264994487E+03  0.12508896455E+03 0.  0.
          5    1    3    3  502    0 -0.12086597887E+02  0.34124714160E+02  0.38810268219E+02  0.53238062363E+02  0.41800000000E+01 0. -1.
         -5    1    3    3    0  502  0.70259043840E+02 -0.41242514670E+02  0.35003164233E+03  0.35941188251E+03  0.41800000000E+01 0. -1.
        -11    1    1    2    0    0 -0.29892295668E+02 -0.18796942698E+02  0.42332372926E+02  0.55126256835E+02  0.00000000000E+00 0.  1.
         11    1    1    2    0    0 -0.28280150286E+02  0.25914743209E+02  0.19841188420E+03  0.20208566651E+03  0.00000000000E+00 0. -1.
</event>
<event>
 7    1  0.2878477E-009  0.1152919E+03  0.7561462E-02  0.1251072E+00
          1   -1    0    0  501    0  0.00000000000E+00  0.00000000000E+00  0.42557084514E+03  0.42557084514E+03  0.00000000000E+00 0. -1.
         -1   -1    0    0    0  501 -0.00000000000E+00 -0.00000000000E+00 -0.34755298697E+02  0.34755298697E+02  0.00000000000E+00 0.  1.
         25    2    1    2    0    0 -0.52987230665E+02  0.14092661510E+02  0.20217479795E+03  0.24398485385E+03  0.12509080805E+03 0.  0.
          5    1    3    3  502    0  0.14480339920E+02  0.47742467510E+02  0.13090886925E+03  0.14015572731E+03  0.41800000000E+01 0.  1.
         -5    1    3    3    0  502 -0.67467570585E+02 -0.33649806000E+02  0.71265928697E+02  0.10382912654E+03  0.41800000000E+01 0.  1.
        -11    1    1    2    0    0  0.76135060535E+02  0.30641882238E+01  0.12352496819E+03  0.14513564159E+03  0.00000000000E+00 0.  1.
         11    1    1    2    0    0 -0.23147829870E+02 -0.17156849733E+02  0.65115780297E+02  0.71205648401E+02  0.00000000000E+00 0. -1.
</event>
<event>
 7    1  0.2878477E-009  0.1379107E+03  0.7561462E-02  0.1216168E+00
          1   -1    0    0  501    0  0.00000000000E+00  0.00000000000E+00  0.12328362856E+04  0.12328362856E+04  0.00000000000E+00 0. -1.
         -1   -1    0    0    0  501 -0.00000000000E+00 -0.00000000000E+00 -0.20883205888E+02  0.20883205888E+02  0.00000000000E+00 0.  1.
         25    2    1    2    0    0  0.43147528420E+02 -0.99522884972E+02  0.84468511006E+03  0.86075977645E+03  0.12509174135E+03 0.  0.
          5    1    3    3  502    0 -0.16773455125E+02 -0.10164150316E+03  0.46040837663E+03  0.47181107409E+03  0.41800000000E+01 0. -1.
         -5    1    3    3    0  502  0.59920983545E+02  0.21186181890E+01  0.38427673344E+03  0.38894870237E+03  0.41800000000E+01 0. -1.
        -11    1    1    2    0    0 -0.47333963542E+02  0.82772513385E+02  0.36280633818E+03  0.37512695465E+03  0.00000000000E+00 0. -1.
         11    1    1    2    0    0  0.41864351220E+01  0.16750371587E+02  0.44616314488E+01  0.17832760373E+02  0.00000000000E+00 0.  1.
</event>
<event>
 7    1  0.2878477E-009  0.1214091E+03  0.7561462E-02  0.1240790E+00
         -2   -1    0    0    0  501 -0.00000000000E+00  0.00000000000E+00  0.14898735278E+02  0.14898735278E+02  0.00000000000E+00 0.  1.
          2   -1    0    0  501    0  0.00000000000E+00 -0.00000000000E+00 -0.12491496374E+04  0.12491496374E+04  0.00000000000E+00 0. -1.
         25    2    1    2    0    0  0.55640884527E+02  0.23709871135E+02 -0.94905715808E+03  0.95917426500E+03  0.12509082832E+03 0.  0.
          5    1    3    3  502    0 -0.26473884169E+02  0.44135105420E+02 -0.45315032968E+03  0.45608274223E+03  0.41800000000E+01 0.  1.
         -5    1    3    3    0  502  0.82114768696E+02 -0.20425234286E+02 -0.49590682840E+03  0.50309152278E+03  0.41800000000E+01 0.  1.
        -11    1    1    2    0    0  0.23956454622E+02 -0.24923322175E+01 -0.46538928803E+02  0.52402245487E+02  0.00000000000E+00 0. -1.
         11    1    1    2    0    0 -0.79597339148E+02 -0.21217538917E+02 -0.23865481522E+03  0.25247186217E+03  0.00000000000E+00 0.  1.
</event>
<event>
 6    1  0.2878477E-009  0.2092795E+03  0.7561462E-02  0.1142138E+00
          1   -1    0    0  501    0  0.00000000000E+00  0.00000000000E+00  0.14559649235E+04  0.14559649235E+04  0.00000000000E+00 0. -1.
         -1   -1    0    0    0  501 -0.00000000000E+00 -0.00000000000E+00 -0.35192274562E+02  0.35192274562E+02  0.00000000000E+00 0.  1.
          5    1    1    2  502    0 -0.99323465789E+01 -0.47668171285E+02  0.10197642430E+03  0.11308213641E+03  0.41800000000E+01 0. -1.
         -5    1    1    2    0  502  0.14963279134E+03 -0.89047414668E+02  0.73953046485E+03  0.75976456561E+03  0.41800000000E+01 0. -1.
        -11    1    1    2    0    0 -0.10813808582E+02  0.90480764484E+01  0.33424225087E+01  0.14490615297E+02  0.00000000000E+00 0.  1.
         11    1    1    2    0    0 -0.12888663618E+03  0.12766750950E+03  0.57592333730E+03  0.60381988077E+03  0.00000000000E+00 0. -1.
</event>
<event>
 7    1  0.2878477E-009  0.1049419E+03  0.7561462E-02  0.1270234E+00
         -1   -1    0    0    0  501 -0.00000000000E+00  0.00000000000E+00  0.92729644374E+02  0.92729644374E+02  0.00000000000E+00 0.  1.
          1   -1    0    0  501    0  0.00000000000E+00 -0.00000000000E+00 -0.16364524477E+03  0.16364524477E+03  0.00000000000E+00 0. -1.
         25    2    1    2    0    0 -0.15649251514E+01  0.15661620597E+02  0.17467422599E+02  0.12728527662E+03  0.12509474586E+03 0.  0.
          5    1    3    3  502    0  0.12609603351E+02 -0.52229191669E+02  0.20696704645E+02  0.57729685104E+02  0.41800000000E+01 0.  1.
         -5    1    3    3    0  502 -0.14174528502E+02  0.67890812266E+02 -0.32292820464E+01  0.69555591515E+02  0.41800000000E+01 0.  1.
        -11    1    1    2    0    0  0.42292284517E-01 -0.51069940478E+02 -0.25916799323E+02  0.57269722334E+02  0.00000000000E+00 0.  1.
         11    1    1    2    0    0  0.15226328669E+01  0.35408319880E+02 -0.62466223676E+02  0.71819890197E+02  0.00000000000E+00 0. -1.
</event>
<event>
 7    1  0.2878477E-009  0.1970942E+03  0.7561462E-02  0.1152214E+00
          2   -1    0    0  501    0  0.00000000000E+00  0.00000000000E+00  0.13105523523E+04  0.13105523523E+04  0.00000000000E+00 0.  1.
         -2   -1    0    0    0  501 -0.00000000000E+00 -0.00000000000E+00 -0.37445737936E+02  0.37445737936E+02  0.00000000000E+00 0. -1.
         25    2    1    2    0    0 -0.15818317079E+03  0.11031265052E+03  0.62330375191E+03  0.66433828513E+03  0.12508794331E+03 0.  0.
          5    1    3    3  502    0 -0.10263768373E+03  0.54394973671E+02  0.52776807194E+03  0.54041642965E+03  0.41800000000E+01 0.  1.
         -5    1    3    3    0  502 -0.55545487068E+02  0.55917676850E+02  0.95535679968E+02  0.12392185548E+03  0.41800000000E+01 0.  1.
        -11    1    1    2    0    0  0.12224901167E+03 -0.57375416910E+02  0.53949056662E+03  0.55613562266E+03  0.00000000000E+00 0.  1.
         11    1    1    2    0    0  0.35934159121E+02 -0.52937233611E+02  0.11031229581E+03  0.12752418242E+03  0.00000000000E+00 0. -1.
</event>
<event>
 7    1  0.2878477E-009  0.1111408E+03  0.7561462E-02  0.1258472E+00
          2   -1    0    0  501    0  0.00000000000E+00  0.00000000000E+00  0.87326815848E+02  0.87326815848E+02  0.00000000000E+00 0. -1.
         -2   -1    0    0    0  501 -0.00000000000E+00 -0.00000000000E+00 -0.15050859037E+03  0.15050859037E+03  0.00000000000E+00 0.  1.
         25    2    1    2    0    0  0.14518177088E+02  0.33927608834E+02 -0.39575575426E+02  0.13629269936E+03  0.12509042178E+03 0.  0.
          5    1    3    3  502    0 -0.44627833169E+02 -0.19095350790E+02 -0.27178338747E+02  0.55788981100E+02  0.41800000000E+01 0. -1.
         -5    1    3    3    0  502  0.59146010257E+02  0.53022959624E+02 -0.12397236679E+02  0.80503718261E+02  0.41800000000E+01 0. -1.
        -11    1    1    2    0    0  0.31732550772E+02  0.67276733578E+01  0.63662898844E+01  0.33056709065E+02  0.00000000000E+00 0. -1.
         11    1    1    2    0    0 -0.46250727860E+02 -0.40655282191E+02 -0.29972488979E+02  0.68485997790E+02  0.00000000000E+00 0.  1.
</event>
<event>
 7    1  0.2878477E-009  0.1088366E+03  0.7561462E-02  0.1262740E+00
         -1   -1    0    0    0  501 -0.00000000000E+00  0.00000000000E+00  0.41650904051E+02  0.41650904051E+02  0.00000000000E+00 0.  1.
          1   -1    0    0  501    0  0.00000000000E+00 -0.00000000000E+00 -0.32988555294E+03  0.32988555294E+03  0.00000000000E+00 0. -1.
         25    2    1    2    0    0 -0.19041046249E+02  0.25207501374E+02 -0.11108043436E+03  0.17023944385E+03  0.12507847847E+03 0.  0.
          5    1    3    3  502    0 -0.65029716328E+02 -0.88637671997E+01 -0.33683860548E+02  0.73888464837E+02  0.41800000000E+01 0.  1.
         -5    1    3    3    0  502  0.45988670079E+02  0.34071268574E+02 -0.77396573813E+02  0.96350979008E+02  0.41800000000E+01 0.  1.
        -11    1    1    2    0    0  0.54658093593E+02 -0.90132348498E+01 -0.88723048580E+02  0.10459696433E+03  0.00000000000E+00 0.  1.
         11    1    1    2    0    0 -0.35617047345E+02 -0.16194266525E+02 -0.88431165948E+02  0.96700048814E+02  0.00000000000E+00 0. -1.
</event>
<event>
 7    1  0.2878477E-009  0.1619445E+03  0.7561462E-02  0.1186519E+00
         -2   -1    0    0    0  501 -0.00000000000E+00  0.00000000000E+00  0.25760310645E+02  0.25760310645E+02  0.00000000000E+00 0.  1.
          2   -1    0    0  501    0  0.00000000000E+00 -0.00000000000E+00 -0.10339161671E+04  0.10339161671E+04  0.00000000000E+00 0. -1.
         25    2    1    2    0    0 -0.61263207267E+01 -0.12009197677E+03 -0.59894672268E+03  0.62357398705E+03  0.12509087112E+03 0.  0.
          5    1    3    3  502    0 -0.38680764121E+02  0.90032335257E+01 -0.12149810776E+03  0.12789262025E+03  0.41800000000E+01 0.  1.
         -5    1    3    3    0  502  0.32554443394E+02 -0.12909521029E+03 -0.47744861492E+03  0.49568136680E+03  0.41800000000E+01 0.  1.
        -11    1    1    2    0    0  0.41193280974E+02  0.22253799326E+02 -0.12360284418E+03  0.13217329939E+03  0.00000000000E+00 0.  1.
         11    1    1    2    0    0 -0.35066960248E+02  0.97838177440E+02 -0.28560628957E+03  0.30392919127E+03  0.00000000000E+00 0. -1.
</event>
<event>
 7    1  0.2878477E-009  0.1103564E+03  0.7561462E-02  0.1259911E+00
         -1   -1    0    0    0  501 -0.00000000000E+00  0.00000000000E+00  0.13220843845E+03  0.13220843845E+03  0.00000000000E+00 0.  1.
          1   -1    0    0  501    0  0.00000000000E+00 -0.00000000000E+00 -0.10859052025E+03  0.10859052025E+03  0.00000000000E+00 0. -1.
         25    2    1    2    0    0  0.21981571433E+02 -0.47741864259E+02  0.49289957287E+01  0.13576953039E+03  0.12508635136E+03 0.  0.
          5    1    3    3  502    0  0.61599708504E+02  0.62344454705E+01  0.23183332754E+02  0.66244484417E+02  0.41800000000E+01 0. -1.
         -5    1    3    3    0  502 -0.39618137071E+02 -0.53976309729E+02 -0.18254337025E+02  0.69525045971E+02  0.41800000000E+01 0. -1.
        -11    1    1    2    0    0  0.17473069472E+02 -0.11118823879E+02 -0.15964005390E+02  0.26149299595E+02  0.00000000000E+00 0. -1.
         11    1    1    2    0    0 -0.39454640905E+02  0.58860688138E+02  0.34652927860E+02  0.78880128716E+02  0.00000000000E+00 0.  1.
</event>
<event>
 7    1  0.2878477E-009  0.9806915E+02  0.7561462E-02  0.1284409E+00
         -2   -1    0    0    0  501 -0.00000000000E+00  0.00000000000E+00  0.21433971174E+03  0.21433971174E+03  0.00000000000E+00 0.  1.
          2   -1    0    0  501    0  0.00000000000E+00 -0.00000000000E+00 -0.78683391123E+02  0.78683391123E+02  0.00000000000E+00 0. -1.
         25    2    1    2    0    0  0.26607063133E+02 -0.33570148248E+02  0.13763021477E+03  0.19086022002E+03  0.12510258553E+03 0.  0.
          5    1    3    3  502    0 -0.41756163407E+02  0.12560035950E+02  0.76370428041E+02  0.88041162900E+02  0.41800000000E+01 0. -1.
         -5    1    3    3    0  502  0.68363226540E+02 -0.46130184198E+02  0.61259786730E+02  0.10281905712E+03  0.41800000000E+01 0. -1.
        -11    1    1    2    0    0 -0.24028191409E+02  0.48755110997E+02  0.33250509725E+02  0.63718217393E+02  0.00000000000E+00 0.  1.
         11    1    1    2    0    0 -0.25788717245E+01 -0.15184962749E+02 -0.35224403878E+02  0.38444665451E+02  0.00000000000E+00 0. -1.
</event>
<event>
 7    1  0.2878477E-009  0.1296089E+03  0.7561462E-02  0.1228037E+00
          2   -1    0    0  501    0  0.00000000000E+00  0.00000000000E+00  0.36063648134E+03  0.36063648134E+03  0.00000000000E+00 0. -1.
         -2   -1    0    0    0  501 -0.00000000000E+00 -0.00000000000E+00 -0.84384965688E+02  0.84384965688E+02  0.00000000000E+00 0.  1.
         25    2    1    2    0    0  0.99428635801E+02 -0.67535656797E+01  0.26652783938E+03  0.31083140167E+03  0.12508959523E+03 0.  0.
          5    1    3    3  502    0  0.11991599978E+03  0.23477129366E+02  0.19008919287E+03  0.22601415056E+03  0.41800000000E+01 0.  1.
         -5    1    3    3    0  502 -0.20487363984E+02 -0.30230695046E+02  0.76438646516E+02  0.84817251118E+02  0.41800000000E+01 0.  1.
        -11    1    1    2    0    0 -0.78517586693E+02  0.10625938320E+01 -0.33861302418E+02  0.85514491913E+02  0.00000000000E+00 0.  1.
         11    1    1    2    0    0 -0.20911049109E+02  0.56909718476E+01  0.43584978686E+02  0.48675553437E+02  0.00000000000E+00 0. -1.
</event>
<event>
 7    1  0.2878477E-009  0.1513416E+03  0.7561462E-02  0.1198834E+00
         -1   -1    0    0    0  501 -0.00000000000E+00  0.00000000000E+00  0.11277842238E+03  0.11277842238E+03  0.00000000000E+00 0.  1.
          1   -1    0    0  501    0  0.00000000000E+00 -0.00000000000E+00 -0.26293264355E+03  0.26293264355E+03  0.00000000000E+00 0. -1.
         25    2    1    2    0    0 -0.13329274359E+03  0.16091796166E+01 -0.79552815939E+02  0.19936326008E+03  0.12509002356E+03 0.  0.
          5    1    3    3  502    0 -0.93517431919E+02 -0.42290507210E+02 -0.92896507515E+02  0.13849631974E+03  0.41800000000E+01 0. -1.
         -5    1    3    3    0  502 -0.39775311672E+02  0.43899686826E+02  0.13343691575E+02  0.60866940344E+02  0.41800000000E+01 0. -1.
        -11    1    1    2    0    0  0.48566663507E+02  0.20959203350E+02 -0.71158960175E+02  0.88665701500E+02  0.00000000000E+00 0. -1.
         11    1    1    2    0    0  0.84726080084E+02 -0.22568382967E+02  0.55755494829E+00  0.87682104353E+02  0.00000000000E+00 0.  1.
</event>
<event>
 7    1  0.2878477E-009  0.1963135E+03  0.7561462E-02  0.1152887E+00
         -2   -1    0    0    0  501 -0.00000000000E+00  0.00000000000E+00  0.10705797249E+03  0.10705797249E+03  0.00000000000E+00 0.  1.
          2   -1    0    0  501    0  0.00000000000E+00 -0.00000000000E+00 -0.38129289922E+03  0.38129289922E+03  0.00000000000E+00 0. -1.
         25    2    1    2    0    0 -0.13845543151E+03  0.90204102122E+02 -0.19150662606E+03  0.28218462139E+03  0.12508671461E+03 0.  0.
          5    1    3    3  502    0 -0.15860945045E+03  0.63945776688E+02 -0.14116468277E+03  0.22179035189E+03  0.41800000000E+01 0.  1.
         -5    1    3    3    0  502  0.20154018948E+02  0.26258325434E+02 -0.50341943289E+02  0.60394269501E+02  0.41800000000E+01 0.  1.
        -11    1    1    2    0    0  0.55761452024E+02 -0.89560408901E+02 -0.54778136871E+02  0.11887409580E+03  0.00000000000E+00 0.  1.
         11    1    1    2    0    0  0.82693979481E+02 -0.64369322125E+00 -0.27950163796E+02  0.87292154514E+02  0.00000000000E+00 0. -1.
</event>
<event>
 7    1  0.2878477E-009  0.8220836E+02  0.7561462E-02  0.1322899E+00
         -1   -1    0    0    0  501 -0.00000000000E+00  0.00000000000E+00  0.70322152508E+02  0.70322152508E+02  0.00000000000E+00 0.  1.
          1   -1    0    0  501    0  0.00000000000E+00 -0.00000000000E+00 -0.19954915851E+03  0.19954915851E+03  0.00000000000E+00 0. -1.
         25    2    1    2    0    0 -0.20135440971E+02 -0.56432744055E+01 -0.18623124586E+02  0.12818774462E+03  0.12509194447E+03 0.  0.
          5    1    3    3  502    0  0.28209533660E+02  0.44670583294E+02 -0.23797818698E+02  0.58095157939E+02  0.41800000000E+01 0. -1.
         -5    1    3    3    0  502 -0.48344974631E+02 -0.50313857699E+02  0.51746941117E+01  0.70092586682E+02  0.41800000000E+01 0. -1.
        -11    1    1    2    0    0  0.23411065775E+02  0.17492552459E+02 -0.12167751120E+03  0.12513786047E+03  0.00000000000E+00 0. -1.
         11    1    1    2    0    0 -0.32756248042E+01 -0.11849278054E+02  0.11073629778E+02  0.16545705930E+02  0.00000000000E+00 0.  1.
</event>
<event>
 7    1  0.2878477E-009  0.1010078E+03  0.7561462E-02  0.1278191E+00
          2   -1    0    0  501    0  0.00000000000E+00  0.00000000000E+00  0.32695937443E+03  0.32695937443E+03  0.00000000000E+00 0.  1.
         -2   -1    0    0    0  501 -0.00000000000E+00 -0.00000000000E+00 -0.46551289548E+02  0.46551289548E+02  0.00000000000E+00 0. -1.
         25    2    1    2    0    0  0.67752483000E+01  0.11079387213E+02  0.74246593093E+02  0.14604336625E+03  0.12508977348E+03 0.  0.
          5    1    3    3  502    0  0.56417878644E+02  0.38248327611E+02  0.32698825079E+02  0.75713916537E+02  0.41800000000E+01 0.  1.
         -5    1    3    3    0  502 -0.49642630344E+02 -0.27168940399E+02  0.41547768015E+02  0.70329449713E+02  0.41800000000E+01 0.  1.
        -11    1    1    2    0    0  0.72942735588E+01 -0.42201308349E+02  0.17835546109E+03  0.18342526367E+03  0.00000000000E+00 0.  1.
         11    1    1    2    0    0 -0.14069521859E+02  0.31121921136E+02  0.27806030701E+02  0.44042034057E+02  0.00000000000E+00 0. -1.
</event>
<event>
 7    1  0.2878477E-009  0.1038591E+03  0.7561462E-02  0.1272384E+00
          1   -1    0    0  501    0  0.00000000000E+00  0.00000000000E+00  0.78037406072E+03  0.78037406072E+03  0.00000000000E+00 0. -1.
         -1   -1    0    0    0  501 -0.00000000000E+00 -0.00000000000E+00 -0.27439780069E+02  0.27439780069E+02  0.00000000000E+00 0.  1.
         25    2    1    2    0    0 -0.53383112408E+02  0.52835628088E+02  0.23635754009E+03  0.27776891733E+03  0.12509725973E+03 0.  0.
          5    1    3    3  502    0  0.33453143108E+01  0.25996840084E+02  0.20640570952E+03  0.20810530061E+03  0.41800000000E+01 0.  1.
         -5    1    3    3    0  502 -0.56728426719E+02  0.26838788005E+02  0.29951830574E+02  0.69663616718E+02  0.41800000000E+01 0.  1.
        -11    1    1    2    0    0 -0.13329744701E+01 -0.62672421285E+02  0.25072474053E+03  0.25844245921E+03  0.00000000000E+00 0.  1.
         11    1    1    2    0    0  0.54716086878E+02  0.98367931968E+01  0.26585200004E+03  0.27160246425E+03  0.00000000000E+00 0. -1.
</event>
<event>
 7    1  0.2878477E-009  0.1241334E+03  0.7561462E-02  0.1236430E+00
          2   -1    0    0  501    0  0.00000000000E+00  0.00000000000E+00  0.18365453863E+03  0.18365453863E+03  0.00000000000E+00 0. -1.
         -2   -1    0    0    0  501 -0.00000000000E+00 -0.00000000000E+00 -0.10828614545E+03  0.10828614545E+03  0.00000000000E+00 0.  1.
         25    2    1    2    0    0  0.54061133425E+02 -0.43408407846E+02  0.98079323542E+02  0.17343115764E+03  0.12510762053E+03 0.  0.
          5    1    3    3  502    0  0.53836073720E+02 -0.79396763518E+02  0.98001127287E+02  0.13720008105E+03  0.41800000000E+01 0.  1.
         -5    1    3    3    0  502  0.22505970520E+00  0.35988355672E+02  0.78196254738E-01  0.36231076585E+02  0.41800000000E+01 0.  1.
        -11    1    1    2    0    0 -0.12785157887E+02 -0.29546946908E+02 -0.10115014339E+02  0.33746049381E+02  0.00000000000E+00 0.  1.
         11    1    1    2    0    0 -0.41275975538E+02  0.72955354754E+02 -0.12595916025E+02  0.84763477066E+02  0.00000000000E+00 0. -1.
</event>
<event>
 7    1  0.2878477E-009  0.1835735E+03  0.7561462E-02  0.1164389E+00
         -1   -1    0    0    0  501 -0.00000000000E+00  0.00000000000E+00  0.13300995997E+03  0.13300995997E+03  0.00000000000E+00 0.  1.
          1   -1    0    0  501    0  0.00000000000E+00 -0.00000000000E+00 -0.49729271590E+03  0.49729271590E+03  0.00000000000E+00 0. -1.
         25    2    1    2    0    0 -0.97839951430E+02 -0.12593676860E+03  0.20371404700E+02  0.20370430178E+03  0.12509085760E+03 0.  0.
          5    1    3    3  502    0 -0.44331083405E+02 -0.12399841931E+03 -0.24146740747E+02  0.13394547561E+03  0.41800000000E+01 0. -1.
         -5    1    3    3    0  502 -0.53508868025E+02 -0.19383492892E+01  0.44518145447E+02  0.69758826175E+02  0.41800000000E+01 0. -1.
        -11    1    1    2    0    0  0.15335886565E+02  0.90679867096E+02 -0.23149514374E+03  0.24909441842E+03  0.00000000000E+00 0.  1.
         11    1    1    2    0    0  0.82504064865E+02  0.35256901504E+02 -0.15315901689E+03  0.17750395567E+03  0.00000000000E+00 0. -1.
</event>
<event>
 7    1  0.2878477E-009  0.1481347E+03  0.7561462E-02  0.1202784E+00
          2   -1    0    0  501    0  0.00000000000E+00  0.00000000000E+00  0.15307995194E+04  0.15307995194E+04  0.00000000000E+00 0. -1.
         -2   -1    0    0    0  501 -0.00000000000E+00 -0.00000000000E+00 -0.15086784456E+02  0.15086784456E+02  0.00000000000E+00 0.  1.
         25    2    1    2    0    0 -0.10330537803E+03 -0.39837806012E+02  0.86142389840E+03  0.87747243305E+03  0.12509071153E+03 0.  0.
          5    1    3    3  502    0 -0.13058288248E+03 -0.27771407850E+02  0.76086484903E+03  0.77249979365E+03  0.41800000000E+01 0.  1.
         -5    1    3    3    0  502  0.27277504451E+02 -0.12066398162E+02  0.10055904936E+03  0.10497263940E+03  0.41800000000E+01 0.  1.
        -11    1    1    2    0    0  0.41400091009E+02 -0.20446022826E+02  0.15605416735E+03  0.16274185243E+03  0.00000000000E+00 0.  1.
         11    1    1    2    0    0  0.61905287022E+02  0.60283828838E+02  0.49823466919E+03  0.50567201837E+03  0.00000000000E+00 0. -1.
</event>
<event>
 7    1  0.2878477E-009  0.1285736E+03  0.7561462E-02  0.1229588E+00
          2   -1    0    0  501    0  0.00000000000E+00  0.00000000000E+00  0.17133451619E+03  0.17133451619E+03  0.00000000000E+00 0. -1.
         -2   -1    0    0    0  501 -0.00000000000E+00 -0.00000000000E+00 -0.16641279904E+03  0.16641279904E+03  0.00000000000E+00 0.  1.
         25    2    1    2    0    0  0.86098489871E+02  0.84170421422E+02 -0.44462993777E+02  0.17923325384E+03  0.12509992673E+03 0.  0.
          5    1    3    3  502    0  0.81188913509E+02  0.39656853191E+02  0.27349933130E+02  0.94497602742E+02  0.41800000000E+01 0.  1.
         -5    1    3    3    0  502  0.49095763625E+01  0.44513568231E+02 -0.71812926907E+02  0.84735651101E+02  0.41800000000E+01 0.  1.
        -11    1    1    2    0    0 -0.46425583465E+02 -0.57540809908E+02 -0.17823026007E+02  0.76052217989E+02  0.00000000000E+00 0.  1.
         11    1    1    2    0    0 -0.39672906406E+02 -0.26629611514E+02  0.67207736936E+02  0.82461843395E+02  0.00000000000E+00 0. -1.
</event>
<event>
 7    1  0.2878477E-009  0.1014824E+03  0.7561462E-02  0.1277209E+00
          1   -1    0    0  501    0  0.00000000000E+00  0.00000000000E+00  0.43092356050E+02  0.43092356050E+02  0.00000000000E+00 0. -1.
         -1   -1    0    0    0  501 -0.00000000000E+00 -0.00000000000E+00 -0.35926203787E+03  0.35926203787E+03  0.00000000000E+00 0.  1.
         25    2    1    2    0    0  0.24433857873E+02 -0.51990476801E+02 -0.15134193001E+03  0.20457971557E+03  0.12509379344E+03 0.  0.
          5    1    3    3  502    0  0.14305255519E+02  0.34212223170E+02 -0.92202849603E+02  0.99468358911E+02  0.41800000000E+01 0. -1.
         -5    1    3    3    0  502  0.10128602354E+02 -0.86202699971E+02 -0.59139080409E+02  0.10511135666E+03  0.41800000000E+01 0. -1.
        -11    1    1    2    0    0  0.17337502219E+02  0.16600956884E+02  0.93448553916E-01  0.24003947285E+02  0.00000000000E+00 0. -1.
         11    1    1    2    0    0 -0.41771360092E+02  0.35389519918E+02 -0.16492120037E+03  0.17377073106E+03  0.00000000000E+00 0.  1.
</event>
<event>
 7    1  0.2878477E-009  0.1120136E+03  0.7561462E-02  0.1256886E+00
         -1   -1    0    0    0  501 -0.00000000000E+00  0.00000000000E+00  0.47439451599E+02  0.47439451599E+02  0.00000000000E+00 0.  1.
          1   -1    0    0  501    0  0.00000000000E+00 -0.00000000000E+00 -0.32032887337E+03  0.32032887337E+03  0.00000000000E+00 0. -1.
         25    2    1    2    0    0  0.42331731051E+02  0.65272238992E+01 -0.92876319454E+02  0.16153945031E+03  0.12503760708E+03 0.  0.
          5    1    3    3  502    0 -0.40063039811E+02  0.20848823282E+02 -0.49854765705E+02  0.67399485566E+02  0.41800000000E+01 0.  1.
         -5    1    3    3    0  502  0.82394770862E+02 -0.14321599383E+02 -0.43021553750E+02  0.94139964740E+02  0.41800000000E+01 0.  1.
        -11    1    1    2    0    0  0.19834255681E+02 -0.23249683840E+02 -0.93664572892E+02  0.98524097114E+02  0.00000000000E+00 0. -1.
         11    1    1    2    0    0 -0.62165986731E+02  0.16722459941E+02 -0.86348529424E+02  0.10770477755E+03  0.00000000000E+00 0.  1.
</event>
<event>
 7    1  0.2878477E-009  0.3154815E+03  0.7561462E-02  0.1077748E+00
         -2   -1    0    0    0  501 -0.00000000000E+00  0.00000000000E+00  0.79919950282E+02  0.79919950282E+02  0.00000000000E+00 0.  1.
          2   -1    0    0  501    0  0.00000000000E+00 -0.00000000000E+00 -0.13774624720E+04  0.13774624720E+04  0.00000000000E+00 0. -1.
         25    2    1    2    0    0 -0.17366162912E+03 -0.25831722850E+03 -0.58176117319E+03  0.67155001144E+03  0.12508878156E+03 0.  0.
          5    1    3    3  502    0 -0.11134888557E+03 -0.17997277117E+03 -0.26408056534E+03  0.33844466323E+03  0.41800000000E+01 0.  1.
         -5    1    3    3    0  502 -0.62312743552E+02 -0.78344457324E+02 -0.31768060785E+03  0.33310534821E+03  0.41800000000E+01 0.  1.
        -11    1    1    2    0    0  0.15675409591E+02  0.77122415165E+02 -0.24327074889E+03  0.25568387249E+03  0.00000000000E+00 0. -1.
         11    1    1    2    0    0  0.15798621953E+03  0.18119481333E+03 -0.47251059964E+03  0.53014853835E+03  0.00000000000E+00 0.  1.
</event>
<event>
 7    1  0.2878477E-009  0.7761686E+02  0.7561462E-02  0.1335954E+00
          1   -1    0    0  501    0  0.00000000000E+00  0.00000000000E+00  0.37288168822E+03  0.37288168822E+03  0.00000000000E+00 0. -1.
         -1   -1    0    0    0  501 -0.00000000000E+00 -0.00000000000E+00 -0.39678504727E+02  0.39678504727E+02  0.00000000000E+00 0.  1.
         25    2    1    2    0    0  0.29397113310E+02 -0.43732376504E+02  0.19848113748E+03  0.24045642253E+03  0.12509123940E+03 0.  0.
          5    1    3    3  502    0  0.41235501894E+02 -0.35762601534E+01  0.19369507949E+03  0.19811212096E+03  0.41800000000E+01 0.  1.
         -5    1    3    3    0  502 -0.11838388584E+02 -0.40156116350E+02  0.47860579936E+01  0.42344301573E+02  0.41800000000E+01 0.  1.
        -11    1    1    2    0    0 -0.24326204842E+02 -0.30382634988E+01 -0.46972535814E+01  0.24961159394E+02  0.00000000000E+00 0.  1.
         11    1    1    2    0    0 -0.50709084685E+01  0.46770640002E+02  0.13941929959E+03  0.14714261102E+03  0.00000000000E+00 0. -1.
</event>
<event>
 7    1  0.2878477E-009  0.1014461E+03  0.7561462E-02  0.1277284E+00
          2   -1    0    0  501    0  0.00000000000E+00  0.00000000000E+00  0.57044914305E+03  0.57044914305E+03  0.00000000000E+00 0. -1.
         -2   -1    0    0    0  501 -0.00000000000E+00 -0.00000000000E+00 -0.31028299643E+02  0.31028299643E+02  0.00000000000E+00 0.  1.
         25    2    1    2    0    0  0.70134623457E+02  0.26398881563E+02  0.32702284330E+03  0.35806028997E+03  0.12508982718E+03 0.  0.
          5    1    3    3  502    0 -0.39631566472E+01 -0.10218021664E+02 -0.71871586312E+01  0.13756533958E+02  0.41800000000E+01 0. -1.
         -5    1    3    3    0  502  0.74097780104E+02  0.36616903227E+02  0.33421000193E+03  0.34430375602E+03  0.41800000000E+01 0. -1.
        -11    1    1    2    0    0 -0.48910323780E+02  0.23438673429E+02  0.15626526014E+03  0.16540986280E+03  0.00000000000E+00 0.  1.
         11    1    1    2    0    0 -0.21224299677E+02 -0.49837554991E+02  0.56132739971E+02  0.78007289922E+02  0.00000000000E+00 0. -1.
</event>
<event>
 7    1  0.2878477E-009  0.1209214E+03  0.7561462E-02  0.1241585E+00
          1   -1    0    0  501    0  0.00000000000E+00  0.00000000000E+00  0.35932592874E+03  0.35932592874E+03  0.00000000000E+00 0. -1.
         -1   -1    0    0    0  501 -0.00000000000E+00 -0.00000000000E+00 -0.49952257761E+02  0.49952257761E+02  0.00000000000E+00 0.  1.
         25    2    1    2    0    0  0.40710845686E+02  0.54612804257E+02  0.22655800435E+03  0.26761109194E+03  0.12508891178E+03 0.  0.
          5    1    3    3  502    0 -0.35723690184E+02  0.40180453451E+02  0.14558466991E+03  0.15525147146E+03  0.41800000000E+01 0.  1.
         -5    1    3    3    0  502  0.76434535869E+02  0.14432350806E+02  0.80973334445E+02  0.11235962048E+03  0.41800000000E+01 0.  1.
        -11    1    1    2    0    0  0.20541782773E+02 -0.43027865482E+02  0.56690665238E+02  0.74075593636E+02  0.00000000000E+00 0. -1.
         11    1    1    2    0    0 -0.61252628459E+02 -0.11584938775E+02  0.26125001393E+02  0.67591500925E+02  0.00000000000E+00 0.  1.
</event>
<event>
 6    1  0.2878477E-009  0.9428403E+02  0.7561462E-02  0.1292797E+00
         -2   -1    0    0    0  501 -0.00000000000E+00  0.00000000000E+00  0.14795257803E+02  0.14795257803E+02  0.00000000000E+00 0.  1.
          2   -1    0    0  501    0  0.00000000000E+00 -0.00000000000E+00 -0.10319483509E+04  0.10319483509E+04  0.00000000000E+00 0. -1.
          5    1    1    2  502    0 -0.20339469211E+02 -0.62274395680E+02 -0.12404521714E+03  0.14034415792E+03  0.41800000000E+01 0.  1.
         -5    1    1    2    0  502  0.19982224903E+02 -0.10592348129E+01 -0.45335844338E+03  0.45381908496E+03  0.41800000000E+01 0.  1.
        -11    1    1    2    0    0 -0.34084509710E+02  0.58494906103E+02 -0.34659103112E+03  0.35314126167E+03  0.00000000000E+00 0. -1.
         11    1    1    2    0    0  0.34441754019E+02  0.48387243894E+01 -0.93158401455E+02  0.99439104155E+02  0.00000000000E+00 0.  1.
</event>
<event>
 7    1  0.2878477E-009  0.1033846E+03  0.7561462E-02  0.1273335E+00
         -1   -1    0    0    0  501 -0.00000000000E+00  0.00000000000E+00  0.45424172079E+02  0.45424172079E+02  0.00000000000E+00 0.  1.
          1   -1    0    0  501    0  0.00000000000E+00 -0.00000000000E+00 -0.36945663489E+03  0.36945663489E+03  0.00000000000E+00 0. -1.
         25    2    1    2    0    0  0.35978574794E+02 -0.61119274683E+02 -0.17368551176E+03  0.22548611640E+03  0.12508920061E+03 0.  0.
          5    1    3    3  502    0 -0.40824336203E+02 -0.15390384284E+02 -0.21207403006E+02  0.48690006131E+02  0.41800000000E+01 0.  1.
         -5    1    3    3    0  502  0.76802910997E+02 -0.45728890398E+02 -0.15247810876E+03  0.17679611027E+03  0.41800000000E+01 0.  1.
        -11    1    1    2    0    0  0.84960856652E+00  0.12174586982E+02  0.11237631738E+02  0.16589959915E+02  0.00000000000E+00 0.  1.
         11    1    1    2    0    0 -0.36828183360E+02  0.48944687701E+02 -0.16158458279E+03  0.17280473066E+03  0.00000000000E+00 0. -1.
</event>
<event>
 7    1  0.2878477E-009  0.2372874E+03  0.7561462E-02  0.1121613E+00
         -2   -1    0    0    0  501 -0.00000000000E+00  0.00000000000E+00  0.62507320128E+02  0.62507320128E+02  0.00000000000E+00 0.  1.
          2   -1    0    0  501    0  0.00000000000E+00 -0.00000000000E+00 -0.95550216482E+03  0.95550216482E+03  0.00000000000E+00 0. -1.
         25    2    1    2    0    0  0.18399998519E+03 -0.11598902523E+03 -0.44636837689E+03  0.51205592361E+03  0.12508833875E+03 0.  0.
          5    1    3    3  502    0  0.18434941821E+03 -0.80620220249E+02 -0.42570679497E+03  0.47088010745E+03  0.41800000000E+01 0.  1.
         -5    1    3    3    0  502 -0.34943302120E+00 -0.35368804981E+02 -0.20661581927E+02  0.41175816166E+02  0.41800000000E+01 0.  1.
        -11    1    1    2    0    0 -0.79120671930E+02 -0.28946401260E+01 -0.14576967308E+03  0.16588326395E+03  0.00000000000E+00 0.  1.
         11    1    1    2    0    0 -0.10487931326E+03  0.11888366536E+03 -0.30085679471E+03  0.34007029739E+03  0.00000000000E+00 0. -1.
</event>
<event>
 7    1  0.2878477E-009  0.1753376E+03  0.7561462E-02  0.1172393E+00
         -2   -1    0    0    0  501 -0.00000000000E+00  0.00000000000E+00  0.35721923821E+02  0.35721923821E+02  0.00000000000E+00 0.  1.
          2   -1    0    0  501    0  0.00000000000E+00 -0.00000000000E+00 -0.11230401584E+04  0.11230401584E+04  0.00000000000E+00 0. -1.
         25    2    1    2    0    0 -0.12729606145E+02 -0.14596966290E+03 -0.32818217287E+03  0.38055226655E+03  0.12508918267E+03 0.  0.
          5    1    3    3  502    0 -0.56471248604E+02 -0.56751236887E+02 -0.21723247654E+03  0.23155372178E+03  0.41800000000E+01 0.  1.
         -5    1    3    3    0  502  0.43741642459E+02 -0.89218426014E+02 -0.11094969633E+03  0.14899854476E+03  0.41800000000E+01 0.  1.
        -11    1    1    2    0    0 -0.27119252917E+02  0.12105823875E+03 -0.56639350361E+03  0.57982079299E+03  0.00000000000E+00 0.  1.
         11    1    1    2    0    0  0.39848859061E+02  0.24911424148E+02 -0.19274255808E+03  0.19838902267E+03  0.00000000000E+00 0. -1.
</event>
<event>
 7    1  0.2878477E-009  0.1172011E+03  0.7561462E-02  0.1247787E+00
          1   -1    0    0  501    0  0.00000000000E+00  0.00000000000E+00  0.69843154615E+02  0.69843154615E+02  0.00000000000E+00 0. -1.
         -1   -1    0    0    0  501 -0.00000000000E+00 -0.00000000000E+00 -0.27945842545E+03  0.27945842545E+03  0.00000000000E+00 0.  1.
         25    2    1    2    0    0  0.33530167102E+02  0.26632438907E+02 -0.60069952860E+02  0.14521215785E+03  0.12507842596E+03 0.  0.
          5    1    3    3  502    0 -0.31406398131E+02  0.51135407999E+02 -0.13877225102E+02  0.61735253877E+02  0.41800000000E+01 0.  1.
         -5    1    3    3    0  502  0.64936565233E+02 -0.24502969092E+02 -0.46192727758E+02  0.83476903969E+02  0.41800000000E+01 0.  1.
        -11    1    1    2    0    0 -0.94063768888E+01  0.36204727112E+02  0.28263509386E+01  0.37513336976E+02  0.00000000000E+00 0. -1.
         11    1    1    2    0    0 -0.24123790213E+02 -0.62837166019E+02 -0.15237166891E+03  0.16657608524E+03  0.00000000000E+00 0.  1.
</event>
<event>
 7    1  0.2878477E-009  0.9467029E+02  0.7561462E-02  0.1291920E+00
          2   -1    0    0  501    0  0.00000000000E+00  0.00000000000E+00  0.41675938029E+03  0.41675938029E+03  0.00000000000E+00 0. -1.
         -2   -1    0    0    0  501 -0.00000000000E+00 -0.00000000000E+00 -0.31484291882E+02  0.31484291882E+02  0.00000000000E+00 0.  1.
         25    2    1    2    0    0  0.35635398243E+02 -0.46743947973E+01  0.23886395025E+03  0.27202166056E+03  0.12509222802E+03 0.  0.
          5    1    3    3  502    0  0.32468083103E+02  0.52079558798E+02  0.67010794845E+02  0.90963596514E+02  0.41800000000E+01 0. -1.
         -5    1    3    3    0  502  0.31673151403E+01 -0.56753953595E+02  0.17185315540E+03  0.18105806404E+03  0.41800000000E+01 0. -1.
        -11    1    1    2    0    0 -0.44416179230E+02 -0.16912198417E+02  0.27211572019E+02  0.54765765625E+02  0.00000000000E+00 0.  1.
         11    1    1    2    0    0  0.87807809868E+01  0.21586593215E+02  0.11919956614E+03  0.12145624599E+03  0.00000000000E+00 0. -1.
</event>
<event>
 7    1  0.2878477E-009  0.1166446E+03  0.7561462E-02  0.1248737E+00
          2   -1    0    0  501    0  0.00000000000E+00  0.00000000000E+00  0.20211011230E+03  0.20211011230E+03  0.00000000000E+00 0.  1.
         -2   -1    0    0    0  501 -0.00000000000E+00 -0.00000000000E+00 -0.13818707516E+03  0.13818707516E+03  0.00000000000E+00 0. -1.
         25    2    1    2    0    0  0.17786478758E+01 -0.73151418789E+02  0.14068526496E+03  0.20197500628E+03  0.12508903119E+03 0.  0.
          5    1    3    3  502    0 -0.37549041320E+02 -0.91996569596E+02  0.11110379996E+03  0.14911346716E+03  0.41800000000E+01 0. -1.
         -5    1    3    3    0  502  0.39327689196E+02  0.18845150807E+02  0.29581465004E+02  0.52861539121E+02  0.41800000000E+01 0. -1.
        -11    1    1    2    0    0  0.21578612115E+02  0.58748725740E+02 -0.88567848542E+02  0.10844958770E+03  0.00000000000E+00 0. -1.
         11    1    1    2    0    0 -0.23357259990E+02  0.14402693049E+02  0.11805620713E+02  0.29872593489E+02  0.00000000000E+00 0.  1.
</event>
<event>
 7    1  0.2878477E-009  0.1432054E+03  0.7561462E-02  0.1209080E+00
          1   -1    0    0  501    0  0.00000000000E+00  0.00000000000E+00  0.54739827810E+03  0.54739827810E+03  0.00000000000E+00 0. -1.
         -1   -1    0    0    0  501 -0.00000000000E+00 -0.00000000000E+00 -0.61069855964E+02  0.61069855964E+02  0.00000000000E+00 0.  1.
         25    2    1    2    0    0 -0.99111704496E+02  0.62885616167E+02  0.11155349158E+03  0.20461788791E+03  0.12508624176E+03 0.  0.
          5    1    3    3  502    0 -0.90918683137E+02  0.78409628447E+02  0.13123494114E+03  0.17791671915E+03  0.41800000000E+01 0.  1.
         -5    1    3    3    0  502 -0.81930213594E+01 -0.15524012280E+02 -0.19681449558E+02  0.26701168757E+02  0.41800000000E+01 0.  1.
        -11    1    1    2    0    0  0.90474527582E+02 -0.59743966184E+01  0.19424351407E+03  0.21436388762E+03  0.00000000000E+00 0.  1.
         11    1    1    2    0    0  0.86371769137E+01 -0.56911219549E+02  0.18053141648E+03  0.18948635853E+03  0.00000000000E+00 0. -1.
</event>
<event>
 7    1  0.2878477E-009  0.1772782E+03  0.7561462E-02  0.1170464E+00
          1   -1    0    0  501    0  0.00000000000E+00  0.00000000000E+00  0.10052198421E+04  0.10052198421E+04  0.00000000000E+00 0. -1.
         -1   -1    0    0    0  501 -0.00000000000E+00 -0.00000000000E+00 -0.39173271308E+02  0.39173271308E+02  0.00000000000E+00 0.  1.
         25    2    1    2    0    0 -0.13238153777E+03  0.97485156760E+02  0.59674906935E+03  0.63149450678E+03  0.12509049922E+03 0.  0.
          5    1    3    3  502    0 -0.64393339603E+02  0.21854795726E+02  0.81206457608E+02  0.10600045018E+03  0.41800000000E+01 0.  1.
         -5    1    3    3    0  502 -0.67988198164E+02  0.75630361033E+02  0.51554261174E+03  0.52549405660E+03  0.41800000000E+01 0.  1.
        -11    1    1    2    0    0  0.14332486792E+03 -0.80346635533E+02  0.32622868846E+03  0.36527079925E+03  0.00000000000E+00 0.  1.
         11    1    1    2    0    0 -0.10943330148E+02 -0.17138521226E+02  0.43068812964E+02  0.47627807368E+02  0.00000000000E+00 0. -1.
</event>
<event>
 7    1  0.2878477E-009  0.1971751E+03  0.7561462E-02  0.1152144E+00
         -2   -1    0    0    0  501 -0.00000000000E+00  0.00000000000E+00  0.27213563142E+02  0.27213563142E+02  0.00000000000E+00 0.  1.
          2   -1    0    0  501    0  0.00000000000E+00 -0.00000000000E+00 -0.18988423100E+04  0.18988423100E+04  0.00000000000E+00 0. -1.
         25    2    1    2    0    0  0.18109514655E+03 -0.61914683682E+02 -0.12166827542E+04  0.12379797258E+04  0.12509195407E+03 0.  0.
          5    1    3    3  502    0  0.54154781849E+02 -0.50748942837E+02 -0.76632676362E+03  0.76992361741E+03  0.41800000000E+01 0.  1.
         -5    1    3    3    0  502  0.12694036471E+03 -0.11165740845E+02 -0.45035599061E+03  0.46805610843E+03  0.41800000000E+01 0.  1.
        -11    1    1    2    0    0 -0.10506589475E+03  0.24999934353E+02 -0.22101213895E+03  0.24598822029E+03  0.00000000000E+00 0.  1.
         11    1    1    2    0    0 -0.76029251806E+02  0.36914749329E+02 -0.43393385363E+03  0.44208792697E+03  0.00000000000E+00 0. -1.
</event>
<event>
 7    1  0.2878477E-009  0.1026674E+03  0.7561462E-02  0.1274785E+00
          3   -1    0    0  501    0  0.00000000000E+00  0.00000000000E+00  0.53479958313E+02  0.53479958313E+02  0.00000000000E+00 0. -1.
         -3   -1    0    0    0  501 -0.00000000000E+00 -0.00000000000E+00 -0.27367521366E+03  0.27367521366E+03  0.00000000000E+00 0.  1.
         25    2    1    2    0    0 -0.10624398692E+02 -0.14635412813E+02 -0.54295855612E+02  0.13755801336E+03  0.12508834457E+03 0.  0.
          5    1    3    3  502    0 -0.53503251494E+02 -0.43538168187E+02 -0.10979231061E+02  0.69972751298E+02  0.41800000000E+01 0.  1.
         -5    1    3    3    0  502  0.42878852802E+02  0.28902755373E+02 -0.43316624552E+02  0.67585262065E+02  0.41800000000E+01 0.  1.
        -11    1    1    2    0    0 -0.36219250131E+02  0.69402137306E+01 -0.37024772766E+02  0.52257386512E+02  0.00000000000E+00 0. -1.
         11    1    1    2    0    0  0.46843648822E+02  0.76951990827E+01 -0.12887462697E+03  0.13733977210E+03  0.00000000000E+00 0.  1.
</event>
<event>
 7    1  0.2878477E-009  0.1934250E+03  0.7561462E-02  0.1155408E+00
          2   -1    0    0  501    0  0.00000000000E+00  0.00000000000E+00  0.12934579643E+04  0.12934579643E+04  0.00000000000E+00 0. -1.
         -2   -1    0    0    0  501 -0.00000000000E+00 -0.00000000000E+00 -0.35089907147E+02  0.35089907147E+02  0.00000000000E+00 0.  1.
         25    2    1    2    0    0 -0.15457688421E+03 -0.74362953505E+02  0.45622539095E+03  0.50320017039E+03  0.12507974315E+03 0.  0.
          5    1    3    3  502    0  0.12211654799E+02 -0.36534121807E+02  0.57647114015E+02  0.69458827541E+02  0.41800000000E+01 0.  1.
         -5    1    3    3    0  502 -0.16678853901E+03 -0.37828831698E+02  0.39857827693E+03  0.43374134285E+03  0.41800000000E+01 0.  1.
        -11    1    1    2    0    0  0.29719970692E+02 -0.34316690341E+01  0.44942876900E+02  0.53989954569E+02  0.00000000000E+00 0.  1.
         11    1    1    2    0    0  0.12485691352E+03  0.77794622539E+02  0.75719978935E+03  0.77135774653E+03  0.00000000000E+00 0. -1.
</event>
<event>
 7    1  0.2878477E-009  0.1535413E+03  0.7561462E-02  0.1196188E+00
         -2   -1    0    0    0  501 -0.00000000000E+00  0.00000000000E+00  0.34886122548E+03  0.34886122548E+03  0.00000000000E+00 0.  1.
          2   -1    0    0  501    0  0.00000000000E+00 -0.00000000000E+00 -0.10745859919E+03  0.10745859919E+03  0.00000000000E+00 0. -1.
         25    2    1    2    0    0 -0.45038885357E+02  0.13080641911E+03  0.22268664652E+03  0.29047936498E+03  0.12510035359E+03 0.  0.
          5    1    3    3  502    0 -0.25268825852E+02  0.12310149639E+03  0.23431871036E+03  0.26592333933E+03  0.41800000000E+01 0. -1.
         -5    1    3    3    0  502 -0.19770059505E+02  0.77049227151E+01 -0.11632063839E+02  0.24556025656E+02  0.41800000000E+01 0. -1.
        -11    1    1    2    0    0 -0.17191522037E+02 -0.28419339506E+01  0.15792585078E+02  0.23516606090E+02  0.00000000000E+00 0.  1.
         11    1    1    2    0    0  0.62230407394E+02 -0.12796448515E+03  0.29233946872E+01  0.14232385359E+03  0.00000000000E+00 0. -1.
</event>
<event>
 7    1  0.2878477E-009  0.1883767E+03  0.7561462E-02  0.1159934E+00
         -2   -1    0    0    0  501 -0.00000000000E+00  0.00000000000E+00  0.53620571020E+02  0.53620571020E+02  0.00000000000E+00 0.  1.
          2   -1    0    0  501    0  0.00000000000E+00 -0.00000000000E+00 -0.77844804964E+03  0.77844804964E+03  0.00000000000E+00 0. -1.
         25    2    1    2    0    0  0.50575595245E+02  0.15931129379E+03 -0.28402477536E+03  0.35249967850E+03  0.12509185091E+03 0.  0.
          5    1    3    3  502    0  0.88300499881E+02  0.14079235212E+03 -0.21869699313E+03  0.27470950457E+03  0.41800000000E+01 0.  1.
         -5    1    3    3    0  502 -0.37724904636E+02  0.18518941667E+02 -0.65327782225E+02  0.77790173934E+02  0.41800000000E+01 0.  1.
        -11    1    1    2    0    0 -0.45580117234E+02 -0.11528574082E+03 -0.40197016087E+03  0.42065230221E+03  0.00000000000E+00 0. -1.
         11    1    1    2    0    0 -0.49954780112E+01 -0.44025552962E+02 -0.38832542390E+02  0.58916639947E+02  0.00000000000E+00 0.  1.
</event>
<event>
 7    1  0.2878477E-009  0.1012082E+03  0.7561462E-02  0.1277776E+00
          2   -1    0    0  501    0  0.00000000000E+00  0.00000000000E+00  0.41835402935E+03  0.41835402935E+03  0.00000000000E+00 0. -1.
         -2   -1    0    0    0  501 -0.00000000000E+00 -0.00000000000E+00 -0.33459812932E+02  0.33459812932E+02  0.00000000000E+00 0.  1.
         25    2    1    2    0    0 -0.40711000982E+02  0.16329391937E+02  0.18070247544E+03  0.22411112106E+03  0.12509346630E+03 0.  0.
          5    1    3    3  502    0 -0.54956352311E+02  0.59539935166E+02  0.82040818930E+02  0.11538359030E+03  0.41800000000E+01 0.  1.
         -5    1    3    3    0  502  0.14245351329E+02 -0.43210543230E+02  0.98661656511E+02  0.10872753076E+03  0.41800000000E+01 0.  1.
        -11    1    1    2    0    0  0.39736319932E+02  0.16299611498E+02  0.35039394251E+02  0.55429338858E+02  0.00000000000E+00 0.  1.
         11    1    1    2    0    0  0.97468105006E+00 -0.32629003434E+02  0.16915234673E+03  0.17227338237E+03  0.00000000000E+00 0. -1.
</event>
<event>
 7    1  0.2878477E-009  0.1109300E+03  0.7561462E-02  0.1258857E+00
         -2   -1    0    0    0  501 -0.00000000000E+00  0.00000000000E+00  0.48488853923E+02  0.48488853923E+02  0.00000000000E+00 0.  1.
          2   -1    0    0  501    0  0.00000000000E+00 -0.00000000000E+00 -0.33956979425E+03  0.33956979425E+03  0.00000000000E+00 0. -1.
         25    2    1    2    0    0  0.62928811747E+02  0.11137990980E+02 -0.19555084059E+03  0.24077393987E+03  0.12509144125E+03 0.  0.
          5    1    3    3  502    0 -0.10283176797E+02 -0.44122804267E+02 -0.90192420351E+02  0.10101836798E+03  0.41800000000E+01 0. -1.
         -5    1    3    3    0  502  0.73211988544E+02  0.55260795247E+02 -0.10535842023E+03  0.13975557188E+03  0.41800000000E+01 0. -1.
        -11    1    1    2    0    0 -0.16969248665E+02  0.22069691454E+02 -0.85222284169E+02  0.89654137663E+02  0.00000000000E+00 0. -1.
         11    1    1    2    0    0 -0.45959563082E+02 -0.33207682434E+02 -0.10307815577E+02  0.57630570649E+02  0.00000000000E+00 0.  1.
</event>
<event>
 7    1  0.2878477E-009  0.2245079E+03  0.7561462E-02  0.1130566E+00
         -1   -1    0    0    0  501 -0.00000000000E+00  0.00000000000E+00  0.45298329123E+02  0.45298329123E+02  0.00000000000E+00 0.  1.
          1   -1    0    0  501    0  0.00000000000E+00 -0.00000000000E+00 -0.12335310690E+04  0.12335310690E+04  0.00000000000E+00 0. -1.
         25    2    1    2    0    0  0.20881651968E+03 -0.16981888938E+02 -0.61437239656E+03  0.66106168941E+03  0.12512550539E+03 0.  0.
          5    1    3    3  502    0  0.16762260372E+03  0.35012486348E+02 -0.36853091742E+03  0.40639355430E+03  0.41800000000E+01 0.  1.
         -5    1    3    3    0  502  0.41193915953E+02 -0.51994375286E+02 -0.24584147914E+03  0.25466813511E+03  0.41800000000E+01 0.  1.
        -11    1    1    2    0    0 -0.18797077975E+02 -0.62835174750E+01 -0.98077500537E+01  0.22113450508E+02  0.00000000000E+00 0.  1.
         11    1    1    2    0    0 -0.19001944170E+03  0.23265406413E+02 -0.56405259329E+03  0.59565425824E+03  0.00000000000E+00 0. -1.
</event>
<event>
 7    1  0.2878477E-009  0.1131903E+03  0.7561462E-02  0.1254773E+00
          1   -1    0    0  501    0  0.00000000000E+00  0.00000000000E+00  0.26970315572E+02  0.26970315572E+02  0.00000000000E+00 0. -1.
         -1   -1    0    0    0  501 -0.00000000000E+00 -0.00000000000E+00 -0.58137823073E+03  0.58137823073E+03  0.00000000000E+00 0.  1.
         25    2    1    2    0    0  0.58861040445E+02 -0.10157559474E+02 -0.32137473578E+03  0.34999706891E+03  0.12509368230E+03 0.  0.
          5    1    3    3  502    0  0.58776038774E+02  0.50065153102E+02 -0.20032944939E+03  0.21473356277E+03  0.41800000000E+01 0. -1.
         -5    1    3    3    0  502  0.85001670707E-01 -0.60222712576E+02 -0.12104528640E+03  0.13526350614E+03  0.41800000000E+01 0. -1.
        -11    1    1    2    0    0 -0.37145766987E+02 -0.26815151563E+02 -0.19725992105E+03  0.20251009064E+03  0.00000000000E+00 0.  1.
         11    1    1    2    0    0 -0.21715273458E+02  0.36972711037E+02 -0.35773258328E+02  0.55841386750E+02  0.00000000000E+00 0. -1.
</event>
<event>
 7    1  0.2878477E-009  0.1111092E+03  0.7561462E-02  0.1258530E+00
         -1   -1    0    0    0  501 -0.00000000000E+00  0.00000000000E+00  0.24338596553E+03  0.24338596553E+03  0.00000000000E+00 0.  1.
          1   -1    0    0  501    0  0.00000000000E+00 -0.00000000000E+00 -0.68280862102E+02  0.68280862102E+02  0.00000000000E+00 0. -1.
         25    2    1    2    0    0  0.58853471465E+02  0.16282261547E+02  0.13468810700E+03  0.19369297758E+03  0.12508892937E+03 0.  0.
          5    1    3    3  502    0 -0.39063905645E+02  0.23580290585E+01  0.48323564575E+02  0.62323256643E+02  0.41800000000E+01 0. -1.
         -5    1    3    3    0  502  0.97917377110E+02  0.13924232488E+02  0.86364542424E+02  0.13136972094E+03  0.41800000000E+01 0. -1.
        -11    1    1    2    0    0 -0.11340948556E+02 -0.31900356678E+02 -0.20171328794E+02  0.39409800503E+02  0.00000000000E+00 0. -1.
         11    1    1    2    0    0 -0.47512522909E+02  0.15618095131E+02  0.60588325221E+02  0.78564049551E+02  0.00000000000E+00 0.  1.
</event>
<event>
 7    1  0.2878477E-009  0.1851415E+03  0.7561462E-02  0.1162918E+00
          2   -1    0    0  501    0  0.00000000000E+00  0.00000000000E+00  0.61369446129E+03  0.61369446129E+03  0.00000000000E+00 0. -1.
         -2   -1    0    0    0  501 -0.00000000000E+00 -0.00000000000E+00 -0.10604317420E+03  0.10604317420E+03  0.00000000000E+00 0.  1.
         25    2    1    2    0    0  0.76187254071E+02  0.14540273910E+03  0.32687743166E+02  0.20895471149E+03  0.12508848340E+03 0.  0.
          5    1    3    3  502    0  0.70799775477E+02  0.34335577120E+02 -0.26223434448E+02  0.83046258061E+02  0.41800000000E+01 0.  1.
         -5    1    3    3    0  502  0.53874785940E+01  0.11106716198E+03  0.58911177614E+02  0.12590845343E+03  0.41800000000E+01 0.  1.
        -11    1    1    2    0    0  0.82773069934E+01 -0.58278228084E+02  0.22997765463E+03  0.23739121152E+03  0.00000000000E+00 0.  1.
         11    1    1    2    0    0 -0.84464561064E+02 -0.87124511019E+02  0.24498588930E+03  0.27339171248E+03  0.00000000000E+00 0. -1.
</event>
<event>
 7    1  0.2878477E-009  0.1522545E+03  0.7561462E-02  0.1197730E+00
         -2   -1    0    0    0  501 -0.00000000000E+00  0.00000000000E+00  0.14179208314E+03  0.14179208314E+03  0.00000000000E+00 0.  1.
          2   -1    0    0  501    0  0.00000000000E+00 -0.00000000000E+00 -0.20596576834E+03  0.20596576834E+03  0.00000000000E+00 0. -1.
         25    2    1    2    0    0  0.23233463838E+02 -0.11964463502E+03  0.36094143974E+02  0.17833805399E+03  0.12508813589E+03 0.  0.
          5    1    3    3  502    0  0.20179790040E+02  0.23055826498E+02 -0.50624010360E+00  0.30927717999E+02  0.41800000000E+01 0.  1.
         -5    1    3    3    0  502  0.30536737980E+01 -0.14270046152E+03  0.36600384078E+02  0.14741033599E+03  0.41800000000E+01 0.  1.
        -11    1    1    2    0    0 -0.14626045597E+02  0.44680532627E+01  0.16527590122E+01  0.15382337993E+02  0.00000000000E+00 0.  1.
         11    1    1    2    0    0 -0.86074182404E+01  0.11517658176E+03 -0.10192058819E+03  0.15403745950E+03  0.00000000000E+00 0. -1.
</event>
<event>
 7    1  0.2878477E-009  0.1181313E+03  0.7561462E-02  0.1246212E+00
         -2   -1    0    0    0  501 -0.00000000000E+00  0.00000000000E+00  0.15657362703E+02  0.15657362703E+02  0.00000000000E+00 0.  1.
          2   -1    0    0  501    0  0.00000000000E+00 -0.00000000000E+00 -0.13067122077E+04  0.13067122077E+04  0.00000000000E+00 0. -1.
         25    2    1    2    0    0 -0.61861372989E+02  0.25559359851E+02 -0.98698536175E+03  0.99713275847E+03  0.12511404147E+03 0.  0.
          5    1    3    3  502    0 -0.54534181148E+02 -0.40045603026E+02 -0.66352054609E+03  0.66697422343E+03  0.41800000000E+01 0. -1.
         -5    1    3    3    0  502 -0.73271918412E+01  0.65604962877E+02 -0.32346481566E+03  0.33015853505E+03  0.41800000000E+01 0. -1.
        -11    1    1    2    0    0  0.58494819572E+02  0.15993161675E+02 -0.99983103257E+02  0.11693607687E+03  0.00000000000E+00 0.  1.
         11    1    1    2    0    0  0.33665534176E+01 -0.41552521526E+02 -0.20408637995E+03  0.20830073502E+03  0.00000000000E+00 0. -1.
</event>
<event>
 7    1  0.2878477E-009  0.1287394E+03  0.7561462E-02  0.1229338E+00
         -2   -1    0    0    0  501 -0.00000000000E+00  0.00000000000E+00  0.25599355638E+02  0.25599355638E+02  0.00000000000E+00 0.  1.
          2   -1    0    0  501    0  0.00000000000E+00 -0.00000000000E+00 -0.78313785734E+03  0.78313785734E+03  0.00000000000E+00 0. -1.
         25    2    1    2    0    0 -0.28115832370E+02  0.56450673901E+02 -0.37410729482E+03  0.39947390256E+03  0.12508378065E+03 0.  0.
          5    1    3    3  502    0 -0.73214516514E+02  0.50025962683E+02 -0.29527084851E+03  0.30832662673E+03  0.41800000000E+01 0.  1.
         -5    1    3    3    0  502  0.45098684143E+02  0.64247112183E+01 -0.78836446307E+02  0.91147275834E+02  0.41800000000E+01 0.  1.
        -11    1    1    2    0    0 -0.25723181457E+02 -0.63642490566E+02 -0.10406645742E+03  0.12466706153E+03  0.00000000000E+00 0.  1.
         11    1    1    2    0    0  0.53839013827E+02  0.71918166654E+01 -0.27936474947E+03  0.28459624889E+03  0.00000000000E+00 0. -1.
</event>
<event>
 7    1  0.2878477E-009  0.8124901E+02  0.7561462E-02  0.1325544E+00
          2   -1    0    0  501    0  0.00000000000E+00  0.00000000000E+00  0.10282094575E+03  0.10282094575E+03  0.00000000000E+00 0. -1.
         -2   -1    0    0    0  501 -0.00000000000E+00 -0.00000000000E+00 -0.14625507669E+03  0.14625507669E+03  0.00000000000E+00 0.  1.
         25    2    1    2    0    0  0.12668516035E+02 -0.28619933175E+02 -0.72482292651E+02  0.14792213259E+03  0.12509069785E+03 0.  0.
          5    1    3    3  502    0 -0.22688617268E+02  0.18823554740E+02  0.21541963124E+02  0.36750893075E+02  0.41800000000E+01 0.  1.
         -5    1    3    3    0  502  0.35357133303E+02 -0.47443487916E+02 -0.94024255776E+02  0.11117123951E+03  0.41800000000E+01 0.  1.
        -11    1    1    2    0    0 -0.18009469576E+02  0.49069654502E+02 -0.13202345956E+02  0.53911723457E+02  0.00000000000E+00 0.  1.
         11    1    1    2    0    0  0.53409535410E+01 -0.20449721327E+02  0.42250507673E+02  0.47242166395E+02  0.00000000000E+00 0. -1.
</event>
<event>
 7    1  0.2878477E-009  0.1498563E+03  0.7561462E-02  0.1200650E+00
         -2   -1    0    0    0  501 -0.00000000000E+00  0.00000000000E+00  0.85146375532E+02  0.85146375532E+02  0.00000000000E+00 0.  1.
          2   -1    0    0  501    0  0.00000000000E+00 -0.00000000000E+00 -0.30404675361E+03  0.30404675361E+03  0.00000000000E+00 0. -1.
         25    2    1    2    0    0 -0.11915200276E+03 -0.82872493811E+01 -0.10204546338E+03  0.20081529758E+03  0.12509048277E+03 0.  0.
          5    1    3    3  502    0 -0.18617053213E+02  0.49141324886E+02 -0.53778224657E+02  0.75306270185E+02  0.41800000000E+01 0.  1.
         -5    1    3    3    0  502 -0.10053494955E+03 -0.57428574268E+02 -0.48267238722E+02  0.12550902740E+03  0.41800000000E+01 0.  1.
        -11    1    1    2    0    0  0.63745217617E+02  0.31456547307E+02 -0.10556907035E+03  0.12727056122E+03  0.00000000000E+00 0. -1.
         11    1    1    2    0    0  0.55406785147E+02 -0.23169297926E+02 -0.11285844351E+02  0.61107270349E+02  0.00000000000E+00 0.  1.
</event>
<event>
 7    1  0.2878477E-009  0.1348417E+03  0.7561462E-02  0.1220443E+00
          2   -1    0    0  501    0  0.00000000000E+00  0.00000000000E+00  0.12094162143E+04  0.12094162143E+04  0.00000000000E+00 0. -1.
         -2   -1    0    0    0  501 -0.00000000000E+00 -0.00000000000E+00 -0.25747469786E+02  0.25747469786E+02  0.00000000000E+00 0.  1.
         25    2    1    2    0    0  0.99814133298E+02  0.28746801237E+02  0.94755758797E+03  0.96140729832E+03  0.12509744583E+03 0.  0.
          5    1    3    3  502    0 -0.17146749539E+02  0.89791923271E+01  0.42827189851E+03  0.42872943492E+03  0.41800000000E+01 0. -1.
         -5    1    3    3    0  502  0.11696088284E+03  0.19767608909E+02  0.51928568947E+03  0.53267786341E+03  0.41800000000E+01 0. -1.
        -11    1    1    2    0    0 -0.40934660888E+02  0.27856413241E+02  0.49303952028E+02  0.69874930456E+02  0.00000000000E+00 0.  1.
         11    1    1    2    0    0 -0.58879472411E+02 -0.56603214478E+02  0.18680720451E+03  0.20388145531E+03  0.00000000000E+00 0. -1.
</event>
<event>
 7    1  0.2878477E-009  0.1069298E+03  0.7561462E-02  0.1266363E+00
         -2   -1    0    0    0  501 -0.00000000000E+00  0.00000000000E+00  0.10714774925E+02  0.10714774925E+02  0.00000000000E+00 0.  1.
          2   -1    0    0  501    0  0.00000000000E+00 -0.00000000000E+00 -0.19224772258E+04  0.19224772258E+04  0.00000000000E+00 0. -1.
         25    2    1    2    0    0 -0.27724472181E+02  0.11819420369E+01 -0.16259302961E+04  0.16309709891E+04  0.12508795382E+03 0.  0.
          5    1    3    3  502    0  0.13942890619E+02 -0.49780527581E+02 -0.41227179962E+03  0.41552137645E+03  0.41800000000E+01 0.  1.
         -5    1    3    3    0  502 -0.41667362799E+02  0.50962469618E+02 -0.12136584965E+04  0.12154496127E+04  0.41800000000E+01 0.  1.
        -11    1    1    2    0    0 -0.33068070503E+02  0.92848561011E+01 -0.73863784624E+02  0.81458974451E+02  0.00000000000E+00 0. -1.
         11    1    1    2    0    0  0.60792542684E+02 -0.10466798138E+02 -0.21196837018E+03  0.22076203719E+03  0.00000000000E+00 0.  1.
</event>
<event>
 7    1  0.2878477E-009  0.9496255E+02  0.7561462E-02  0.1291260E+00
          2   -1    0    0  501    0  0.00000000000E+00  0.00000000000E+00  0.78589433048E+02  0.78589433048E+02  0.00000000000E+00 0.  1.
         -2   -1    0    0    0  501 -0.00000000000E+00 -0.00000000000E+00 -0.42413735982E+03  0.42413735982E+03  0.00000000000E+00 0. -1.
         25    2    1    2    0    0 -0.87256019672E+01 -0.61161959234E+02 -0.36729169218E+03  0.39289557654E+03  0.12508727169E+03 0.  0.
          5    1    3    3  502    0 -0.31019889577E+02 -0.44278057153E+02 -0.35949807468E+03  0.36356446195E+03  0.41800000000E+01 0. -1.
         -5    1    3    3    0  502  0.22294287610E+02 -0.16883902081E+02 -0.77936174935E+01  0.29331114591E+02  0.41800000000E+01 0. -1.
        -11    1    1    2    0    0 -0.34353821338E+02  0.53632659035E+02  0.93340458110E+01  0.64372133465E+02  0.00000000000E+00 0. -1.
         11    1    1    2    0    0  0.43079423305E+02  0.75293001994E+01  0.12409719595E+02  0.45459082857E+02  0.00000000000E+00 0.  1.
</event>
<event>
 7    1  0.2878477E-009  0.1462718E+03  0.7561462E-02  0.1205131E+00
          2   -1    0    0  501    0  0.00000000000E+00  0.00000000000E+00  0.86579246652E+03  0.86579246652E+03  0.00000000000E+00 0. -1.
         -2   -1    0    0    0  501 -0.00000000000E+00 -0.00000000000E+00 -0.33045897557E+02  0.33045897557E+02  0.00000000000E+00 0.  1.
         25    2    1    2    0    0  0.38053031425E+02 -0.93596080742E+02  0.66099577299E+03  0.68027334247E+03  0.12509256182E+03 0.  0.
          5    1    3    3  502    0 -0.41842723738E+02 -0.58846942409E+02  0.25802965955E+03  0.26797491257E+03  0.41800000000E+01 0.  1.
         -5    1    3    3    0  502  0.79895755163E+02 -0.34749138333E+02  0.40296611345E+03  0.41229842990E+03  0.41800000000E+01 0.  1.
        -11    1    1    2    0    0  0.27258298832E+02  0.16156295258E+02  0.25589726828E+02  0.40729287384E+02  0.00000000000E+00 0.  1.
         11    1    1    2    0    0 -0.65311330257E+02  0.77439785484E+02  0.14616106915E+03  0.17783573423E+03  0.00000000000E+00 0. -1.
</event>
<event>
 7    1  0.2878477E-009  0.1104882E+03  0.7561462E-02  0.1259668E+00
          1   -1    0    0  501    0  0.00000000000E+00  0.00000000000E+00  0.89649869177E+02  0.89649869177E+02  0.00000000000E+00 0. -1.
         -1   -1    0    0    0  501 -0.00000000000E+00 -0.00000000000E+00 -0.17568182387E+03  0.17568182387E+03  0.00000000000E+00 0.  1.
         25    2    1    2    0    0  0.38418427661E+02 -0.52155397056E+02 -0.36007990354E+02  0.14539526682E+03  0.12508815778E+03 0.  0.
          5    1    3    3  502    0  0.79927378041E+02 -0.23969896399E+02 -0.90269788463E-01  0.83548921253E+02  0.41800000000E+01 0. -1.
         -5    1    3    3    0  502 -0.41508950380E+02 -0.28185500657E+02 -0.35917720566E+02  0.61846345563E+02  0.41800000000E+01 0. -1.
        -11    1    1    2    0    0  0.15643665191E+02  0.10697772551E+02 -0.48191050991E+02  0.51783626696E+02  0.00000000000E+00 0.  1.
         11    1    1    2    0    0 -0.54062092852E+02  0.41457624505E+02 -0.18329133493E+01  0.68152799535E+02  0.00000000000E+00 0. -1.
</event>
<event>
 7    1  0.2878477E-009  0.1518476E+03  0.7561462E-02  0.1198221E+00
          2   -1    0    0  501    0  0.00000000000E+00  0.00000000000E+00  0.65752648731E+03  0.65752648731E+03  0.00000000000E+00 0. -1.
         -2   -1    0    0    0  501 -0.00000000000E+00 -0.00000000000E+00 -0.41271843887E+02  0.41271843887E+02  0.00000000000E+00 0.  1.
         25    2    1    2    0    0  0.39596713443E+02 -0.10904929822E+03  0.23167859197E+03  0.28770181141E+03  0.12505084227E+03 0.  0.
          5    1    3    3  502    0  0.52770227323E+02 -0.13146964692E+03  0.21116900805E+03  0.25432024559E+03  0.41800000000E+01 0.  1.
         -5    1    3    3    0  502 -0.13173513880E+02  0.22420348707E+02  0.20509583917E+02  0.33381565819E+02  0.41800000000E+01 0.  1.
        -11    1    1    2    0    0  0.18189711288E+02  0.49117603117E+02  0.82203410872E+02  0.97472074419E+02  0.00000000000E+00 0.  1.
         11    1    1    2    0    0 -0.57786424731E+02  0.59931695100E+02  0.30237264058E+03  0.31362444537E+03  0.00000000000E+00 0. -1.
</event>
<event>
 7    1  0.2878477E-009  0.2004651E+03  0.7561462E-02  0.1149347E+00
         -2   -1    0    0    0  501 -0.00000000000E+00  0.00000000000E+00  0.75562658141E+03  0.75562658141E+03  0.00000000000E+00 0. -1.
          2   -1    0    0  501    0  0.00000000000E+00 -0.00000000000E+00 -0.57246474011E+02  0.57246474011E+02  0.00000000000E+00 0.  1.
         25    2    1    2    0    0 -0.31784255522E+02  0.17014227466E+03  0.29136316821E+03  0.36124569415E+03  0.12508926104E+03 0.  0.
          5    1    3    3  502    0 -0.66019790106E+02  0.16173162027E+03  0.21514365751E+03  0.27716420304E+03  0.41800000000E+01 0.  1.
         -5    1    3    3    0  502  0.34235534585E+02  0.84106543876E+01  0.76219510705E+02  0.84081491113E+02  0.41800000000E+01 0.  1.
        -11    1    1    2    0    0 -0.27055939807E+02 -0.47491245533E+02  0.16729194386E+03  0.17599442253E+03  0.00000000000E+00 0. -1.
         11    1    1    2    0    0  0.58840195328E+02 -0.12265102913E+03  0.23972499533E+03  0.27563293874E+03  0.00000000000E+00 0.  1.
</event>
<event>
 7    1  0.2878477E-009  0.1011815E+03  0.7561462E-02  0.1277831E+00
         -2   -1    0    0    0  501 -0.00000000000E+00  0.00000000000E+00  0.40094089261E+02  0.40094089261E+02  0.00000000000E+00 0. -1.
          2   -1    0    0  501    0  0.00000000000E+00 -0.00000000000E+00 -0.41196144902E+03  0.41196144902E+03  0.00000000000E+00 0.  1.
         25    2    1    2    0    0 -0.20662344193E+01 -0.53873022238E+02 -0.12922891918E+03  0.18776129109E+03  0.12509043542E+03 0.  0.
          5    1    3    3  502    0  0.33785931965E+02 -0.81786679384E+02 -0.69500794731E+02  0.11259832588E+03  0.41800000000E+01 0.  1.
         -5    1    3    3    0  502 -0.35852166385E+02  0.27913657146E+02 -0.59728124445E+02  0.75162965212E+02  0.41800000000E+01 0.  1.
        -11    1    1    2    0    0 -0.17404125055E+02  0.41689716879E+02 -0.23614286408E+03  0.24042543193E+03  0.00000000000E+00 0.  1.
         11    1    1    2    0    0  0.19470359474E+02  0.12183305359E+02 -0.64955764993E+01  0.23868815253E+02  0.00000000000E+00 0. -1.
</event>
<event>
 7    1  0.2878477E-009  0.1305519E+03  0.7561462E-02  0.1226639E+00
         -3   -1    0    0    0  501 -0.00000000000E+00  0.00000000000E+00  0.31280557549E+03  0.31280557549E+03  0.00000000000E+00 0.  1.
          3   -1    0    0  501    0  0.00000000000E+00 -0.00000000000E+00 -0.59363867990E+02  0.59363867990E+02  0.00000000000E+00 0. -1.
         25    2    1    2    0    0 -0.73903035538E+02 -0.24320184254E+02  0.17696155586E+03  0.23025137552E+03  0.12508866316E+03 0.  0.
          5    1    3    3  502    0 -0.63946238461E+01 -0.66059501322E+02  0.65375592574E+02  0.93253361513E+02  0.41800000000E+01 0.  1.
         -5    1    3    3    0  502 -0.67508411692E+02  0.41739317068E+02  0.11158596328E+03  0.13699801400E+03  0.41800000000E+01 0.  1.
        -11    1    1    2    0    0  0.53230973868E+02 -0.27079833480E+02  0.20461302007E+02  0.63130965778E+02  0.00000000000E+00 0.  1.
         11    1    1    2    0    0  0.20672061670E+02  0.51400017735E+02  0.56018849638E+02  0.78787102191E+02  0.00000000000E+00 0. -1.
</event>
<event>
 7    1  0.2878477E-009  0.9677965E+02  0.7561462E-02  0.1287217E+00
          2   -1    0    0  501    0  0.00000000000E+00  0.00000000000E+00  0.22173593221E+03  0.22173593221E+03  0.00000000000E+00 0. -1.
         -2   -1    0    0    0  501 -0.00000000000E+00 -0.00000000000E+00 -0.64623876601E+02  0.64623876601E+02  0.00000000000E+00 0.  1.
         25    2    1    2    0    0  0.48252952419E+02  0.65989200972E+01  0.99962852504E+02  0.16736515447E+03  0.12508648962E+03 0.  0.
          5    1    3    3  502    0  0.49431244648E+02 -0.33501808451E+02  0.31284442844E+00  0.59861418197E+02  0.41800000000E+01 0.  1.
         -5    1    3    3    0  502 -0.11782922290E+01  0.40100728549E+02  0.99650008075E+02  0.10750373627E+03  0.41800000000E+01 0.  1.
        -11    1    1    2    0    0 -0.45180307072E+02  0.31540502644E+02  0.58946799517E+02  0.80689457970E+02  0.00000000000E+00 0. -1.
         11    1    1    2    0    0 -0.30726453465E+01 -0.38139422741E+02 -0.17975964099E+01  0.38305196375E+02  0.00000000000E+00 0.  1.
</event>
<event>
 7    1  0.2878477E-009  0.1293923E+03  0.7561462E-02  0.1228360E+00
         -1   -1    0    0    0  501 -0.00000000000E+00  0.00000000000E+00  0.84619418378E+02  0.84619418378E+02  0.00000000000E+00 0.  1.
          1   -1    0    0  501    0  0.00000000000E+00 -0.00000000000E+00 -0.39490392862E+03  0.39490392862E+03  0.00000000000E+00 0. -1.
         25    2    1    2    0    0 -0.79184838630E+02 -0.36239229412E+02 -0.80334238258E+01  0.15263033524E+03  0.12509181796E+03 0.  0.
          5    1    3    3  502    0 -0.12646637840E+02 -0.70388810864E+02  0.17043774881E+02  0.73637523082E+02  0.41800000000E+01 0. -1.
         -5    1    3    3    0  502 -0.66538200790E+02  0.34149581452E+02 -0.25077198707E+02  0.78992812158E+02  0.41800000000E+01 0. -1.
        -11    1    1    2    0    0  0.16772854100E+02 -0.21464169339E+02 -0.15061453576E+03  0.15305808565E+03  0.00000000000E+00 0. -1.
         11    1    1    2    0    0  0.62411984530E+02  0.57703398751E+02 -0.15163655066E+03  0.17383492611E+03  0.00000000000E+00 0.  1.
</event>
<event>
 7    1  0.2878477E-009  0.2551569E+03  0.7561462E-02  0.1110088E+00
          2   -1    0    0  501    0  0.00000000000E+00  0.00000000000E+00  0.15406562630E+04  0.15406562630E+04  0.00000000000E+00 0.  1.
         -2   -1    0    0    0  501 -0.00000000000E+00 -0.00000000000E+00 -0.46724609912E+02  0.46724609912E+02  0.00000000000E+00 0. -1.
         25    2    1    2    0    0  0.10714773811E+03  0.21760864828E+03  0.85928544689E+03  0.90158334647E+03  0.12508752856E+03 0.  0.
          5    1    3    3  502    0  0.27876064053E+02  0.14468676088E+03  0.64602803789E+03  0.66263189771E+03  0.41800000000E+01 0.  1.
         -5    1    3    3    0  502  0.79271674062E+02  0.72921887406E+02  0.21325740900E+03  0.23895144876E+03  0.41800000000E+01 0.  1.
        -11    1    1    2    0    0 -0.11047601189E+03 -0.14431749407E+03  0.50668824450E+03  0.53829867678E+03  0.00000000000E+00 0.  1.
         11    1    1    2    0    0  0.33282737796E+01 -0.73291154214E+02  0.12795796168E+03  0.14749884966E+03  0.00000000000E+00 0. -1.
</event>
<event>
 7    1  0.2878477E-009  0.1122661E+03  0.7561462E-02  0.1256430E+00
         -1   -1    0    0    0  501 -0.00000000000E+00  0.00000000000E+00  0.63903005781E+03  0.63903005781E+03  0.00000000000E+00 0.  1.
          1   -1    0    0  501    0  0.00000000000E+00 -0.00000000000E+00 -0.32052871361E+02  0.32052871361E+02  0.00000000000E+00 0. -1.
         25    2    1    2    0    0  0.68282946294E+02 -0.15026579347E+02  0.47403022652E+03  0.49521647263E+03  0.12508533198E+03 0.  0.
          5    1    3    3  502    0  0.44852803784E+02 -0.69734360152E+02  0.29818113983E+03  0.30952240556E+03  0.41800000000E+01 0. -1.
         -5    1    3    3    0  502  0.23430142510E+02  0.54707780805E+02  0.17584908669E+03  0.18569406708E+03  0.41800000000E+01 0. -1.
        -11    1    1    2    0    0 -0.49851731020E+02  0.29933225536E+02  0.13961638093E+03  0.15124128702E+03  0.00000000000E+00 0.  1.
         11    1    1    2    0    0 -0.18431215274E+02 -0.14906646189E+02 -0.66694209967E+01  0.24625169512E+02  0.00000000000E+00 0. -1.
</event>
<event>
 7    1  0.2878477E-009  0.1032625E+03  0.7561462E-02  0.1273581E+00
          3   -1    0    0  501    0  0.00000000000E+00  0.00000000000E+00  0.47975559410E+02  0.47975559410E+02  0.00000000000E+00 0. -1.
         -3   -1    0    0    0  501 -0.00000000000E+00 -0.00000000000E+00 -0.89403806180E+03  0.89403806180E+03  0.00000000000E+00 0.  1.
         25    2    1    2    0    0 -0.52291978129E+02 -0.82139860624E+02 -0.77312407213E+03  0.78920935703E+03  0.12509664523E+03 0.  0.
          5    1    3    3  502    0 -0.51057492203E+02 -0.80241405515E+02 -0.77716249232E+03  0.78297162307E+03  0.41800000000E+01 0.  1.
         -5    1    3    3    0  502 -0.12344859257E+01 -0.18984551082E+01  0.40384201936E+01  0.62377339603E+01  0.41800000000E+01 0.  1.
        -11    1    1    2    0    0  0.60027381135E+02  0.70472906286E+02 -0.91095693765E+02  0.12987741308E+03  0.00000000000E+00 0.  1.
         11    1    1    2    0    0 -0.77354030062E+01  0.11666954338E+02  0.18157263502E+02  0.22926851094E+02  0.00000000000E+00 0. -1.
</event>
<event>
 7    1  0.2878477E-009  0.1230243E+03  0.7561462E-02  0.1238190E+00
         -1   -1    0    0    0  501 -0.00000000000E+00  0.00000000000E+00  0.52272819384E+02  0.52272819384E+02  0.00000000000E+00 0.  1.
          1   -1    0    0  501    0  0.00000000000E+00 -0.00000000000E+00 -0.34616810152E+03  0.34616810152E+03  0.00000000000E+00 0. -1.
         25    2    1    2    0    0  0.13937761920E+02  0.74241288074E+02 -0.12459678064E+03  0.19203598368E+03  0.12508969271E+03 0.  0.
          5    1    3    3  502    0  0.67975079941E+02  0.42463781424E+02 -0.50220140493E+02  0.94674807298E+02  0.41800000000E+01 0.  1.
         -5    1    3    3    0  502 -0.54037318021E+02  0.31777506651E+02 -0.74376640143E+02  0.97361176383E+02  0.41800000000E+01 0.  1.
        -11    1    1    2    0    0 -0.18743733228E+02 -0.87174190025E+02 -0.92888265486E+02  0.12875906495E+03  0.00000000000E+00 0.  1.
         11    1    1    2    0    0  0.48059713075E+01  0.12932901951E+02 -0.76410236016E+02  0.77645872274E+02  0.00000000000E+00 0. -1.
</event>
<event>
 7    1  0.2878477E-009  0.9932458E+02  0.7561462E-02  0.1281723E+00
          2   -1    0    0  501    0  0.00000000000E+00  0.00000000000E+00  0.13606551670E+03  0.13606551670E+03  0.00000000000E+00 0. -1.
         -2   -1    0    0    0  501 -0.00000000000E+00 -0.00000000000E+00 -0.10706608146E+03  0.10706608146E+03  0.00000000000E+00 0.  1.
         25    2    1    2    0    0  0.43173226858E+02  0.81036574766E+01  0.21805415423E+02  0.13435932162E+03  0.12508938557E+03 0.  0.
          5    1    3    3  502    0  0.70797364827E+01  0.59441905405E+02  0.35868989599E+02  0.69910797461E+02  0.41800000000E+01 0. -1.
         -5    1    3    3    0  502  0.36093490375E+02 -0.51338247928E+02 -0.14063574176E+02  0.64448524160E+02  0.41800000000E+01 0. -1.
        -11    1    1    2    0    0 -0.59189396844E+02 -0.80149085810E+01  0.40260218910E+02  0.72031303508E+02  0.00000000000E+00 0. -1.
         11    1    1    2    0    0  0.16016169986E+02 -0.88748895676E-01 -0.33066199085E+02  0.36740973031E+02  0.00000000000E+00 0.  1.
</event>
<event>
 7    1  0.2878477E-009  0.1082058E+03  0.7561462E-02  0.1263929E+00
          3   -1    0    0  501    0  0.00000000000E+00  0.00000000000E+00  0.19273548635E+03  0.19273548635E+03  0.00000000000E+00 0. -1.
         -3   -1    0    0    0  501 -0.00000000000E+00 -0.00000000000E+00 -0.74505334668E+02  0.74505334668E+02  0.00000000000E+00 0.  1.
         25    2    1    2    0    0 -0.30881676517E+02 -0.43629319835E+02  0.36882132720E+02  0.14093809447E+03  0.12508420870E+03 0.  0.
          5    1    3    3  502    0 -0.38163533738E+02 -0.83805559511E+02  0.38415692228E+02  0.99865233799E+02  0.41800000000E+01 0.  1.
         -5    1    3    3    0  502  0.72818572204E+01  0.40176239676E+02 -0.15335595073E+01  0.41072860673E+02  0.41800000000E+01 0.  1.
        -11    1    1    2    0    0 -0.16261923198E+02  0.29980761007E+02  0.35152147799E+01  0.34287795374E+02  0.00000000000E+00 0.  1.
         11    1    1    2    0    0  0.47143599715E+02  0.13648558828E+02  0.77832804185E+02  0.92014931177E+02  0.00000000000E+00 0. -1.
</event>
<event>
 7    1  0.5834306E-009  0.1157996E+03  0.7561462E-02  0.1250192E+00
         -2   -1    0    0    0  501 -0.00000000000E+00  0.00000000000E+00  0.62481938798E+02  0.62481938798E+02  0.00000000000E+00 0.  1.
          2   -1    0    0  501    0  0.00000000000E+00 -0.00000000000E+00 -0.33521378158E+03  0.33521378158E+03  0.00000000000E+00 0. -1.
         25    2    1    2    0    0  0.54754278966E+02  0.66009249415E+02 -0.89965141161E+02  0.17634197896E+03  0.12509002697E+03 0.  0.
          5    1    3    3  502    0  0.46154447683E+02  0.93276988893E+02 -0.27818584212E+02  0.10780619521E+03  0.41800000000E+01 0.  1.
         -5    1    3    3    0  502  0.85998312829E+01 -0.27267739478E+02 -0.62146556950E+02  0.68535783756E+02  0.41800000000E+01 0.  1.
        -11    1    1    2    0    0 -0.71906042779E+01 -0.46641544758E+02 -0.15691559262E+03  0.16385860275E+03  0.00000000000E+00 0. -1.
         11    1    1    2    0    0 -0.47563674688E+02 -0.19367704657E+02 -0.25851109001E+02  0.57495138665E+02  0.00000000000E+00 0.  1.
</event>
<event>
 7    1  0.2878477E-009  0.1472426E+03  0.7561462E-02  0.1203903E+00
         -2   -1    0    0    0  501 -0.00000000000E+00  0.00000000000E+00  0.22118594406E+02  0.22118594406E+02  0.00000000000E+00 0.  1.
          2   -1    0    0  501    0  0.00000000000E+00 -0.00000000000E+00 -0.10170810567E+04  0.10170810567E+04  0.00000000000E+00 0. -1.
         25    2    1    2    0    0 -0.45609040191E+02  0.92397456202E+02 -0.52612077546E+03  0.55051773695E+03  0.12509689790E+03 0.  0.
          5    1    3    3  502    0  0.42672216280E+02  0.20975324578E+02 -0.13311227648E+03  0.14141157249E+03  0.41800000000E+01 0. -1.
         -5    1    3    3    0  502 -0.88281256471E+02  0.71422131624E+02 -0.39300849898E+03  0.40910616446E+03  0.41800000000E+01 0. -1.
        -11    1    1    2    0    0 -0.21496927698E+02 -0.35640410902E+01 -0.39190197994E+02  0.44840739380E+02  0.00000000000E+00 0.  1.
         11    1    1    2    0    0  0.67105967889E+02 -0.88833415112E+02 -0.42965148889E+03  0.44384117483E+03  0.00000000000E+00 0. -1.
</event>
<event>
 7    1  0.2878477E-009  0.1275108E+03  0.7561462E-02  0.1231197E+00
          3   -1    0    0  501    0  0.00000000000E+00  0.00000000000E+00  0.17497397157E+03  0.17497397157E+03  0.00000000000E+00 0. -1.
         -3   -1    0    0    0  501 -0.00000000000E+00 -0.00000000000E+00 -0.11330421786E+03  0.11330421786E+03  0.00000000000E+00 0.  1.
         25    2    1    2    0    0  0.78556466621E+02 -0.37991774635E+02  0.60301184868E+02  0.16400668993E+03  0.12508983995E+03 0.  0.
          5    1    3    3  502    0  0.93083467943E+02 -0.70052460169E+02  0.51752226760E+02  0.12754467670E+03  0.41800000000E+01 0. -1.
         -5    1    3    3    0  502 -0.14527001322E+02  0.32060685534E+02  0.85489581089E+01  0.36462013234E+02  0.41800000000E+01 0. -1.
        -11    1    1    2    0    0 -0.47395345485E+01 -0.12633755661E+02  0.27833571414E+02  0.30931903716E+02  0.00000000000E+00 0. -1.
         11    1    1    2    0    0 -0.73816932072E+02  0.50625530295E+02 -0.26465002579E+02  0.93339595776E+02  0.00000000000E+00 0.  1.
</event>
<event>
 7    1  0.2878477E-009  0.7268226E+02  0.7561462E-02  0.1351202E+00
         -1   -1    0    0    0  501 -0.00000000000E+00  0.00000000000E+00  0.70646755001E+02  0.70646755001E+02  0.00000000000E+00 0.  1.
          1   -1    0    0  501    0  0.00000000000E+00 -0.00000000000E+00 -0.28374161848E+03  0.28374161848E+03  0.00000000000E+00 0. -1.
         25    2    1    2    0    0  0.54400062598E+02 -0.13734302944E+02 -0.21165402464E+03  0.25217683562E+03  0.12509089651E+03 0.  0.
          5    1    3    3  502    0  0.27009902565E+02 -0.18724076387E+02  0.51715123328E+01  0.33531221464E+02  0.41800000000E+01 0.  1.
         -5    1    3    3    0  502  0.27390160033E+02  0.49897734424E+01 -0.21682553697E+03  0.21864561415E+03  0.41800000000E+01 0.  1.
        -11    1    1    2    0    0 -0.44601461658E+02 -0.20052969537E+02 -0.29589013891E+02  0.57156991807E+02  0.00000000000E+00 0. -1.
         11    1    1    2    0    0 -0.97986009395E+01  0.33787272481E+02  0.28148175048E+02  0.45054546059E+02  0.00000000000E+00 0.  1.
</event>
<event>
 7    1  0.2878477E-009  0.1354553E+03  0.7561462E-02  0.1219578E+00
         -1   -1    0    0    0  501 -0.00000000000E+00  0.00000000000E+00  0.27406910169E+02  0.27406910169E+02  0.00000000000E+00 0.  1.
          1   -1    0    0  501    0  0.00000000000E+00 -0.00000000000E+00 -0.91501119244E+03  0.91501119244E+03  0.00000000000E+00 0. -1.
         25    2    1    2    0    0  0.50194074099E+02 -0.98710543938E+02 -0.37566160574E+03  0.41113479078E+03  0.12508779957E+03 0.  0.
          5    1    3    3  502    0  0.75468529231E+02 -0.77623220473E+02 -0.35697475631E+03  0.37305403403E+03  0.41800000000E+01 0.  1.
         -5    1    3    3    0  502 -0.25274455132E+02 -0.21087323465E+02 -0.18686849427E+02  0.38080756750E+02  0.41800000000E+01 0.  1.
        -11    1    1    2    0    0  0.86664226613E+01  0.55990396373E+02 -0.12067477152E+03  0.13331328459E+03  0.00000000000E+00 0.  1.
         11    1    1    2    0    0 -0.58860496761E+02  0.42720147566E+02 -0.39126790501E+03  0.39797002724E+03  0.00000000000E+00 0. -1.
</event>
<event>
 7    1  0.2878477E-009  0.8213457E+02  0.7561462E-02  0.1323101E+00
         -2   -1    0    0    0  501 -0.00000000000E+00  0.00000000000E+00  0.16602692560E+02  0.16602692560E+02  0.00000000000E+00 0.  1.
          2   -1    0    0  501    0  0.00000000000E+00 -0.00000000000E+00 -0.15831483949E+04  0.15831483949E+04  0.00000000000E+00 0. -1.
         25    2    1    2    0    0  0.60633953924E+02  0.60920870608E+01 -0.13616250222E+04  0.13687158503E+04  0.12508712099E+03 0.  0.
          5    1    3    3  502    0  0.50643770987E+01  0.32779700662E+02 -0.10744088671E+04  0.10749288547E+04  0.41800000000E+01 0. -1.
         -5    1    3    3    0  502  0.55569576825E+02 -0.26687613601E+02 -0.28721615513E+03  0.29378699555E+03  0.41800000000E+01 0. -1.
        -11    1    1    2    0    0 -0.32065675682E+02 -0.19461011694E+02 -0.19409711399E+03  0.19768820955E+03  0.00000000000E+00 0. -1.
         11    1    1    2    0    0 -0.28568278242E+02  0.13368924633E+02 -0.10823566141E+02  0.33347027627E+02  0.00000000000E+00 0.  1.
</event>
<event>
 7    1  0.2878477E-009  0.1305385E+03  0.7561462E-02  0.1226659E+00
         -4   -1    0    0    0  501 -0.00000000000E+00  0.00000000000E+00  0.20562315001E+02  0.20562315001E+02  0.00000000000E+00 0.  1.
          4   -1    0    0  501    0  0.00000000000E+00 -0.00000000000E+00 -0.96714005094E+03  0.96714005094E+03  0.00000000000E+00 0. -1.
         25    2    1    2    0    0  0.60482289065E+01 -0.78580252563E+02 -0.66153893532E+03  0.67785904436E+03  0.12509070270E+03 0.  0.
          5    1    3    3  502    0 -0.59074438520E+02 -0.31816803387E+02 -0.32445267673E+03  0.33134439803E+03  0.41800000000E+01 0.  1.
         -5    1    3    3    0  502  0.65122667426E+02 -0.46763449176E+02 -0.33708625859E+03  0.34651464633E+03  0.41800000000E+01 0.  1.
        -11    1    1    2    0    0  0.32925425468E+02  0.63967301865E+02 -0.12253945169E+03  0.14209791192E+03  0.00000000000E+00 0.  1.
         11    1    1    2    0    0 -0.38973654375E+02  0.14612950697E+02 -0.16249934892E+03  0.16774540966E+03  0.00000000000E+00 0. -1.
</event>
<event>
 7    1  0.2878477E-009  0.1051316E+03  0.7561462E-02  0.1269861E+00
          2   -1    0    0  501    0  0.00000000000E+00  0.00000000000E+00  0.12120681319E+04  0.12120681319E+04  0.00000000000E+00 0.  1.
         -2   -1    0    0    0  501 -0.00000000000E+00 -0.00000000000E+00 -0.17976971985E+02  0.17976971985E+02  0.00000000000E+00 0. -1.
         25    2    1    2    0    0  0.49231542874E+02  0.49030936788E+02  0.93096979029E+03  0.94190223065E+03  0.12508910469E+03 0.  0.
          5    1    3    3  502    0 -0.15980178836E+02  0.31330529577E+00  0.62630813740E+03  0.62652599279E+03  0.41800000000E+01 0.  1.
         -5    1    3    3    0  502  0.65211721710E+02  0.48717631492E+02  0.30466165289E+03  0.31537623786E+03  0.41800000000E+01 0.  1.
        -11    1    1    2    0    0 -0.44045256753E+02 -0.74335447071E+02  0.16004735677E+03  0.18188155416E+03  0.00000000000E+00 0. -1.
         11    1    1    2    0    0 -0.51862861210E+01  0.25304510283E+02  0.10307401289E+03  0.10626131910E+03  0.00000000000E+00 0.  1.
</event>
<event>
 7    1  0.2878477E-009  0.2013189E+03  0.7561462E-02  0.1148631E+00
          2   -1    0    0  501    0  0.00000000000E+00  0.00000000000E+00  0.26487621868E+04  0.26487621868E+04  0.00000000000E+00 0. -1.
         -2   -1    0    0    0  501 -0.00000000000E+00 -0.00000000000E+00 -0.20405911874E+02  0.20405911874E+02  0.00000000000E+00 0.  1.
         25    2    1    2    0    0 -0.16970272929E+03 -0.55949127733E+02  0.19408963320E+04  0.19531142907E+04  0.12509012562E+03 0.  0.
          5    1    3    3  502    0 -0.11522369886E+03 -0.84404751246E+02  0.99425996041E+03  0.10044754871E+04  0.41800000000E+01 0.  1.
         -5    1    3    3    0  502 -0.54479030432E+02  0.28455623513E+02  0.94663637163E+03  0.94863880364E+03  0.41800000000E+01 0.  1.
        -11    1    1    2    0    0  0.11326196190E+03  0.78025253547E+02  0.42555760281E+03  0.44723090849E+03  0.00000000000E+00 0.  1.
         11    1    1    2    0    0  0.56440767395E+02 -0.22076125814E+02  0.26190234005E+03  0.26882289946E+03  0.00000000000E+00 0. -1.
</event>
<event>
 7    1  0.2878477E-009  0.1144745E+03  0.7561462E-02  0.1252501E+00
          1   -1    0    0  501    0  0.00000000000E+00  0.00000000000E+00  0.28171077964E+03  0.28171077964E+03  0.00000000000E+00 0. -1.
         -1   -1    0    0    0  501 -0.00000000000E+00 -0.00000000000E+00 -0.88368749257E+02  0.88368749257E+02  0.00000000000E+00 0.  1.
         25    2    1    2    0    0  0.38514860264E+02  0.10093511078E+03  0.14909770024E+03  0.22259455713E+03  0.12508765566E+03 0.  0.
          5    1    3    3  502    0 -0.14895206648E+01  0.55337150439E+02 -0.61598928221E+01  0.55855488272E+02  0.41800000000E+01 0. -1.
         -5    1    3    3    0  502  0.40004380929E+02  0.45597960346E+02  0.15525759306E+03  0.16673906886E+03  0.41800000000E+01 0. -1.
        -11    1    1    2    0    0 -0.26722316461E+02 -0.27833866588E+02  0.60422791961E+02  0.71691841339E+02  0.00000000000E+00 0. -1.
         11    1    1    2    0    0 -0.11792543804E+02 -0.73101244197E+02 -0.16178461819E+02  0.75793130423E+02  0.00000000000E+00 0.  1.
</event>
<event>
 7    1  0.2878477E-009  0.1119031E+03  0.7561462E-02  0.1257086E+00
         -2   -1    0    0    0  501 -0.00000000000E+00  0.00000000000E+00  0.30192406590E+02  0.30192406590E+02  0.00000000000E+00 0. -1.
          2   -1    0    0  501    0  0.00000000000E+00 -0.00000000000E+00 -0.49527598147E+03  0.49527598147E+03  0.00000000000E+00 0.  1.
         25    2    1    2    0    0 -0.43823573588E+02 -0.34805666617E+02 -0.26772809295E+03  0.30076289569E+03  0.12509215658E+03 0.  0.
          5    1    3    3  502    0 -0.64059119156E+02 -0.60077720681E+02 -0.24678240571E+03  0.26197696738E+03  0.41800000000E+01 0. -1.
         -5    1    3    3    0  502  0.20235545568E+02  0.25272054064E+02 -0.20945687240E+02  0.38785928312E+02  0.41800000000E+01 0. -1.
        -11    1    1    2    0    0  0.31861446297E+02  0.64108414427E+02 -0.10504666566E+03  0.12712136928E+03  0.00000000000E+00 0. -1.
         11    1    1    2    0    0  0.11962127291E+02 -0.29302747810E+02 -0.92308816267E+02  0.97584123089E+02  0.00000000000E+00 0.  1.
</event>
<event>
 7    1  0.2878477E-009  0.1205576E+03  0.7561462E-02  0.1242180E+00
         -1   -1    0    0    0  501 -0.00000000000E+00  0.00000000000E+00  0.24806562792E+03  0.24806562792E+03  0.00000000000E+00 0.  1.
          1   -1    0    0  501    0  0.00000000000E+00 -0.00000000000E+00 -0.11305009723E+03  0.11305009723E+03  0.00000000000E+00 0. -1.
         25    2    1    2    0    0  0.84948493656E+02 -0.29468899648E+02  0.16800495635E+03  0.22793686953E+03  0.12507952874E+03 0.  0.
          5    1    3    3  502    0  0.83057822357E+02  0.19273276347E+02  0.47105771292E+02  0.97501216018E+02  0.41800000000E+01 0. -1.
         -5    1    3    3    0  502  0.18906712982E+01 -0.48742175996E+02  0.12089918506E+03  0.13043565351E+03  0.41800000000E+01 0. -1.
        -11    1    1    2    0    0 -0.92273194904E+02  0.19319345930E+02  0.37675652928E+01  0.94349213951E+02  0.00000000000E+00 0.  1.
         11    1    1    2    0    0  0.73247012486E+01  0.10149553718E+02 -0.36756990948E+02  0.38829641675E+02  0.00000000000E+00 0. -1.
</event>
<event>
 7    1  0.2878477E-009  0.1007945E+03  0.7561462E-02  0.1278634E+00
          4   -1    0    0  501    0  0.00000000000E+00  0.00000000000E+00  0.78931464803E+02  0.78931464803E+02  0.00000000000E+00 0. -1.
         -4   -1    0    0    0  501 -0.00000000000E+00 -0.00000000000E+00 -0.18529635531E+03  0.18529635531E+03  0.00000000000E+00 0.  1.
         25    2    1    2    0    0  0.35057011716E+02  0.11792562479E+02 -0.10301915680E+03  0.16621809187E+03  0.12508976296E+03 0.  0.
          5    1    3    3  502    0 -0.33225979057E+02 -0.26463842607E+02 -0.68191235841E+02  0.80447608388E+02  0.41800000000E+01 0. -1.
         -5    1    3    3    0  502  0.68282990774E+02  0.38256405086E+02 -0.34827920956E+02  0.85770483485E+02  0.41800000000E+01 0. -1.
        -11    1    1    2    0    0 -0.43202390769E+02  0.20071233699E+02 -0.29463310787E+02  0.56012388566E+02  0.00000000000E+00 0.  1.
         11    1    1    2    0    0  0.81453790522E+01 -0.31863796178E+02  0.26117577081E+02  0.41997339670E+02  0.00000000000E+00 0. -1.
</event>
<event>
 7    1  0.2878477E-009  0.2653820E+03  0.7561462E-02  0.1103952E+00
         -1   -1    0    0    0  501 -0.00000000000E+00  0.00000000000E+00  0.39867880419E+02  0.39867880419E+02  0.00000000000E+00 0.  1.
          1   -1    0    0  501    0  0.00000000000E+00 -0.00000000000E+00 -0.27373869659E+04  0.27373869659E+04  0.00000000000E+00 0. -1.
         25    2    1    2    0    0 -0.37437180320E+02 -0.24797798180E+03 -0.21479938136E+04  0.21661993492E+04  0.12509026966E+03 0.  0.
          5    1    3    3  502    0 -0.61555518307E+02 -0.92352842143E+02 -0.59855262587E+03  0.60876994638E+03  0.41800000000E+01 0.  1.
         -5    1    3    3    0  502  0.24118337987E+02 -0.15562513966E+03 -0.15494411877E+04  0.15574294029E+04  0.41800000000E+01 0.  1.
        -11    1    1    2    0    0  0.54440762950E+02  0.10595812719E+03 -0.19166181592E+03  0.22566606539E+03  0.00000000000E+00 0.  1.
         11    1    1    2    0    0 -0.17003582630E+02  0.14201985461E+03 -0.35786345603E+03  0.38538943173E+03  0.00000000000E+00 0. -1.
</event>
<event>
 7    1  0.2878477E-009  0.1058581E+03  0.7561462E-02  0.1268438E+00
         -4   -1    0    0    0  501 -0.00000000000E+00  0.00000000000E+00  0.25016100999E+02  0.25016100999E+02  0.00000000000E+00 0.  1.
          4   -1    0    0  501    0  0.00000000000E+00 -0.00000000000E+00 -0.49036327857E+03  0.49036327857E+03  0.00000000000E+00 0. -1.
         25    2    1    2    0    0 -0.26199611457E+02  0.56137244163E+01 -0.26878190361E+03  0.29767294062E+03  0.12509010484E+03 0.  0.
          5    1    3    3  502    0 -0.13482244209E+02 -0.57960550780E+02 -0.95371001639E+02  0.11249131837E+03  0.41800000000E+01 0. -1.
         -5    1    3    3    0  502 -0.12717367248E+02  0.63574275196E+02 -0.17341090197E+03  0.18518162225E+03  0.41800000000E+01 0. -1.
        -11    1    1    2    0    0  0.25961922699E+02 -0.42717868337E+02 -0.15033071279E+03  0.15842399096E+03  0.00000000000E+00 0. -1.
         11    1    1    2    0    0  0.23768875816E+00  0.37104143921E+02 -0.46234561170E+02  0.59282447981E+02  0.00000000000E+00 0.  1.
</event>
<event>
 7    1  0.2878477E-009  0.1129347E+03  0.7561462E-02  0.1255230E+00
         -2   -1    0    0    0  501 -0.00000000000E+00  0.00000000000E+00  0.60901998375E+02  0.60901998375E+02  0.00000000000E+00 0.  1.
          2   -1    0    0  501    0  0.00000000000E+00 -0.00000000000E+00 -0.34026076103E+03  0.34026076103E+03  0.00000000000E+00 0. -1.
         25    2    1    2    0    0  0.53228578423E+02  0.70529230246E+02 -0.11196413623E+03  0.18970896067E+03  0.12508344445E+03 0.  0.
          5    1    3    3  502    0 -0.50998776592E+01  0.53157288919E+02  0.89217851940E+01  0.54302640529E+02  0.41800000000E+01 0.  1.
         -5    1    3    3    0  502  0.58328456083E+02  0.17371941327E+02 -0.12088592143E+03  0.13540632014E+03  0.41800000000E+01 0.  1.
        -11    1    1    2    0    0 -0.16255850370E+02  0.12437999372E+02  0.59802879582E+00  0.20477161377E+02  0.00000000000E+00 0.  1.
         11    1    1    2    0    0 -0.36972728053E+02 -0.82967229617E+02 -0.16799265521E+03  0.19097663736E+03  0.00000000000E+00 0. -1.
</event>
<event>
 7    1  0.2878477E-009  0.9728040E+02  0.7561462E-02  0.1286121E+00
         -1   -1    0    0    0  501 -0.00000000000E+00  0.00000000000E+00  0.37931510785E+02  0.37931510785E+02  0.00000000000E+00 0.  1.
          1   -1    0    0  501    0  0.00000000000E+00 -0.00000000000E+00 -0.36378516682E+03  0.36378516682E+03  0.00000000000E+00 0. -1.
         25    2    1    2    0    0 -0.58902059226E+00  0.20657285088E+02 -0.11551028116E+03  0.17151567603E+03  0.12509169316E+03 0.  0.
          5    1    3    3  502    0  0.62657429979E+01  0.60433207224E+02 -0.11591040254E+03  0.13093557915E+03  0.41800000000E+01 0.  1.
         -5    1    3    3    0  502 -0.68547635901E+01 -0.39775922136E+02  0.40012137749E+00  0.40580096879E+02  0.41800000000E+01 0.  1.
        -11    1    1    2    0    0  0.31770331225E+02  0.23150425897E+02 -0.77850626119E+02  0.87212477046E+02  0.00000000000E+00 0.  1.
         11    1    1    2    0    0 -0.31181310633E+02 -0.43807710985E+02 -0.13249274875E+03  0.14298852452E+03  0.00000000000E+00 0. -1.
</event>
<event>
 7    1  0.2878477E-009  0.7227493E+02  0.7561462E-02  0.1352524E+00
          2   -1    0    0  501    0  0.00000000000E+00  0.00000000000E+00  0.21913900154E+03  0.21913900154E+03  0.00000000000E+00 0. -1.
         -2   -1    0    0    0  501 -0.00000000000E+00 -0.00000000000E+00 -0.60983255864E+02  0.60983255864E+02  0.00000000000E+00 0.  1.
         25    2    1    2    0    0  0.21205366919E+01  0.40728739446E+02  0.95433116845E+02  0.16254057769E+03  0.12509449514E+03 0.  0.
          5    1    3    3  502    0  0.24020233926E+02  0.65626505163E+02  0.98947184283E+01  0.70704933849E+02  0.41800000000E+01 0. -1.
         -5    1    3    3    0  502 -0.21899697234E+02 -0.24897765717E+02  0.85538398417E+02  0.91835643845E+02  0.41800000000E+01 0. -1.
        -11    1    1    2    0    0 -0.37019874809E+01 -0.20689656936E+02 -0.22047538271E+02  0.30460803654E+02  0.00000000000E+00 0.  1.
         11    1    1    2    0    0  0.15814507890E+01 -0.20039082510E+02  0.84770167099E+02  0.87120876054E+02  0.00000000000E+00 0. -1.
</event>
<event>
 7    1  0.2878477E-009  0.1295250E+03  0.7561462E-02  0.1228162E+00
          1   -1    0    0  501    0  0.00000000000E+00  0.00000000000E+00  0.16236280357E+04  0.16236280357E+04  0.00000000000E+00 0. -1.
         -1   -1    0    0    0  501 -0.00000000000E+00 -0.00000000000E+00 -0.11666296945E+02  0.11666296945E+02  0.00000000000E+00 0.  1.
         25    2    1    2    0    0  0.63618739251E+02  0.10938855910E+02  0.11314663986E+04  0.11401886656E+04  0.12508788623E+03 0.  0.
          5    1    3    3  502    0  0.84968321589E+02  0.48017315387E+02  0.80376385051E+03  0.80967837938E+03  0.41800000000E+01 0. -1.
         -5    1    3    3    0  502 -0.21349582338E+02 -0.37078459478E+02  0.32770254813E+03  0.33051028618E+03  0.41800000000E+01 0. -1.
        -11    1    1    2    0    0 -0.58819318169E+02  0.37461583415E+02  0.31405977949E+03  0.32170891737E+03  0.00000000000E+00 0. -1.
         11    1    1    2    0    0 -0.47994210819E+01 -0.48400439325E+02  0.16643556064E+03  0.17339674973E+03  0.00000000000E+00 0.  1.
</event>
<event>
 7    1  0.2878477E-009  0.8112786E+02  0.7561462E-02  0.1325881E+00
         -2   -1    0    0    0  501 -0.00000000000E+00  0.00000000000E+00  0.16255085275E+02  0.16255085275E+02  0.00000000000E+00 0.  1.
          2   -1    0    0  501    0  0.00000000000E+00 -0.00000000000E+00 -0.91460039889E+03  0.91460039889E+03  0.00000000000E+00 0. -1.
         25    2    1    2    0    0 -0.38848113345E+02  0.35969164887E+02 -0.50984008235E+03  0.52762432454E+03  0.12509021358E+03 0.  0.
          5    1    3    3  502    0 -0.14921961936E+02  0.68866072597E+01 -0.59145091447E+00  0.16967985200E+02  0.41800000000E+01 0. -1.
         -5    1    3    3    0  502 -0.23926151409E+02  0.29082557628E+02 -0.50924863144E+03  0.51065633934E+03  0.41800000000E+01 0. -1.
        -11    1    1    2    0    0  0.58551580132E+02  0.81233013421E+01 -0.23419705345E+03  0.24154199512E+03  0.00000000000E+00 0.  1.
         11    1    1    2    0    0 -0.19703466787E+02 -0.44092466229E+02 -0.15430817781E+03  0.16168916451E+03  0.00000000000E+00 0. -1.
</event>
<event>
 7    1  0.2878477E-009  0.1482810E+03  0.7561462E-02  0.1202601E+00
         -1   -1    0    0    0  501 -0.00000000000E+00  0.00000000000E+00  0.58806755230E+02  0.58806755230E+02  0.00000000000E+00 0.  1.
          1   -1    0    0  501    0  0.00000000000E+00 -0.00000000000E+00 -0.50198190369E+03  0.50198190369E+03  0.00000000000E+00 0. -1.
         25    2    1    2    0    0  0.11225772953E+03  0.63412693632E+02 -0.22216410742E+03  0.28570456686E+03  0.12508893374E+03 0.  0.
          5    1    3    3  502    0  0.12317711402E+03  0.43653759605E+02 -0.10897226432E+03  0.17020775228E+03  0.41800000000E+01 0.  1.
         -5    1    3    3    0  502 -0.10919384495E+02  0.19758934027E+02 -0.11319184310E+03  0.11549681457E+03  0.41800000000E+01 0.  1.
        -11    1    1    2    0    0 -0.19433885410E+02  0.12357363368E+02  0.72778835121E+00  0.23041484489E+02  0.00000000000E+00 0.  1.
         11    1    1    2    0    0 -0.92823844116E+02 -0.75770057000E+02 -0.22173882939E+03  0.25204260757E+03  0.00000000000E+00 0. -1.
</event>
<event>
 6    1  0.2878477E-009  0.1322180E+03  0.7561462E-02  0.1224201E+00
         -2   -1    0    0    0  501 -0.00000000000E+00  0.00000000000E+00  0.22319677808E+02  0.22319677808E+02  0.00000000000E+00 0.  1.
          2   -1    0    0  501    0  0.00000000000E+00 -0.00000000000E+00 -0.93661530506E+03  0.93661530506E+03  0.00000000000E+00 0. -1.
          5    1    1    2  502    0  0.26711576165E+02  0.53037410419E+02 -0.10848168513E+03  0.12374256993E+03  0.41800000000E+01 0.  1.
         -5    1    1    2    0  502 -0.89914697614E+02  0.12771475927E+02 -0.28389574038E+03  0.29809734526E+03  0.41800000000E+01 0.  1.
        -11    1    1    2    0    0  0.55539730876E+02 -0.80278340718E+02 -0.50155056225E+03  0.51096207314E+03  0.00000000000E+00 0. -1.
         11    1    1    2    0    0  0.76633905724E+01  0.14469454372E+02 -0.20367639494E+02  0.26132994537E+02  0.00000000000E+00 0.  1.
</event>
<event>
 7    1  0.2878477E-009  0.1080431E+03  0.7561462E-02  0.1264237E+00
          4   -1    0    0  501    0  0.00000000000E+00  0.00000000000E+00  0.53307407287E+03  0.53307407287E+03  0.00000000000E+00 0. -1.
         -4   -1    0    0    0  501 -0.00000000000E+00 -0.00000000000E+00 -0.27715438830E+02  0.27715438830E+02  0.00000000000E+00 0.  1.
         25    2    1    2    0    0  0.10409763893E+02  0.51892512372E+02  0.32656665939E+03  0.35368675552E+03  0.12508933599E+03 0.  0.
          5    1    3    3  502    0 -0.21926176919E+02  0.72740728876E+02  0.11038427421E+03  0.13406763690E+03  0.41800000000E+01 0.  1.
         -5    1    3    3    0  502  0.32335940813E+02 -0.20848216504E+02  0.21618238518E+03  0.21961911862E+03  0.41800000000E+01 0.  1.
        -11    1    1    2    0    0  0.35727865186E+02 -0.60117045463E+01  0.40958158457E+02  0.54682645204E+02  0.00000000000E+00 0.  1.
         11    1    1    2    0    0 -0.46137629080E+02 -0.45880807825E+02  0.13783381620E+03  0.15242011098E+03  0.00000000000E+00 0. -1.
</event>
<event>
 7    1  0.2878477E-009  0.1462267E+03  0.7561462E-02  0.1205188E+00
          2   -1    0    0  501    0  0.00000000000E+00  0.00000000000E+00  0.51993756106E+03  0.51993756106E+03  0.00000000000E+00 0.  1.
         -2   -1    0    0    0  501 -0.00000000000E+00 -0.00000000000E+00 -0.56535901843E+02  0.56535901843E+02  0.00000000000E+00 0. -1.
         25    2    1    2    0    0 -0.12098575951E+03  0.32616443834E+02  0.17669909647E+03  0.25014282933E+03  0.12508987952E+03 0.  0.
          5    1    3    3  502    0 -0.11767561988E+03 -0.15216686366E+02  0.83185161366E+02  0.14497014358E+03  0.41800000000E+01 0.  1.
         -5    1    3    3    0  502 -0.33101396277E+01  0.47833130200E+02  0.93513935100E+02  0.10517268575E+03  0.41800000000E+01 0.  1.
        -11    1    1    2    0    0  0.22574638405E+02 -0.26906203364E+01  0.10900615427E+01  0.22760535386E+02  0.00000000000E+00 0. -1.
         11    1    1    2    0    0  0.98411121104E+02 -0.29925823498E+02  0.28561250121E+03  0.30357009819E+03  0.00000000000E+00 0.  1.
</event>
<event>
 7    1  0.2878477E-009  0.1534140E+03  0.7561462E-02  0.1196340E+00
          1   -1    0    0  501    0  0.00000000000E+00  0.00000000000E+00  0.10227177201E+03  0.10227177201E+03  0.00000000000E+00 0. -1.
         -1   -1    0    0    0  501 -0.00000000000E+00 -0.00000000000E+00 -0.29586403085E+03  0.29586403085E+03  0.00000000000E+00 0.  1.
         25    2    1    2    0    0 -0.12495115883E+03 -0.91804309879E+01 -0.16122705893E+03  0.23945682783E+03  0.12509330699E+03 0.  0.
          5    1    3    3  502    0 -0.17116349332E+02 -0.36201056855E+02  0.37940436931E+01  0.40439499248E+02  0.41800000000E+01 0. -1.
         -5    1    3    3    0  502 -0.10783480950E+03  0.27020625867E+02 -0.16502110263E+03  0.19901732858E+03  0.41800000000E+01 0. -1.
        -11    1    1    2    0    0  0.66407753279E+02 -0.41143162285E+02 -0.17655569015E+02  0.80090377797E+02  0.00000000000E+00 0. -1.
         11    1    1    2    0    0  0.58543405553E+02  0.50323593273E+02 -0.14709630893E+02  0.78588597231E+02  0.00000000000E+00 0.  1.
</event>
<event>
 7    1  0.2878477E-009  0.1207498E+03  0.7561462E-02  0.1241865E+00
         -2   -1    0    0    0  501 -0.00000000000E+00  0.00000000000E+00  0.26401643712E+03  0.26401643712E+03  0.00000000000E+00 0.  1.
          2   -1    0    0  501    0  0.00000000000E+00 -0.00000000000E+00 -0.74381032436E+02  0.74381032436E+02  0.00000000000E+00 0. -1.
         25    2    1    2    0    0 -0.57925158861E+02 -0.36424194281E+02  0.17163521462E+03  0.22313338033E+03  0.12509121696E+03 0.  0.
          5    1    3    3  502    0  0.18465277071E+02  0.24896982939E+02  0.78566185012E+01  0.32249419701E+02  0.41800000000E+01 0. -1.
         -5    1    3    3    0  502 -0.76390435932E+02 -0.61321177220E+02  0.16377859612E+03  0.19088396062E+03  0.41800000000E+01 0. -1.
        -11    1    1    2    0    0  0.22284550988E+00  0.52321950151E+02  0.18242205907E+02  0.55411318375E+02  0.00000000000E+00 0.  1.
         11    1    1    2    0    0  0.57702313351E+02 -0.15897755870E+02 -0.24201583831E+00  0.59852770859E+02  0.00000000000E+00 0. -1.
</event>
<event>
 7    1  0.2878477E-009  0.3306424E+03  0.7561462E-02  0.1070853E+00
         -4   -1    0    0    0  501 -0.00000000000E+00  0.00000000000E+00  0.12844553269E+04  0.12844553269E+04  0.00000000000E+00 0. -1.
          4   -1    0    0  501    0  0.00000000000E+00 -0.00000000000E+00 -0.91697609310E+02  0.91697609310E+02  0.00000000000E+00 0.  1.
         25    2    1    2    0    0 -0.35846616349E+02 -0.31735275349E+03  0.48268944285E+03  0.59214357585E+03  0.12508863312E+03 0.  0.
          5    1    3    3  502    0  0.16799505310E+02 -0.21239666759E+03  0.23042636759E+03  0.31386040060E+03  0.41800000000E+01 0.  1.
         -5    1    3    3    0  502 -0.52646121659E+02 -0.10495608590E+03  0.25226307526E+03  0.27828317526E+03  0.41800000000E+01 0.  1.
        -11    1    1    2    0    0 -0.28349301823E+02  0.11229070392E+03  0.28739984504E+03  0.30985731560E+03  0.00000000000E+00 0.  1.
         11    1    1    2    0    0  0.64195918172E+02  0.20506204957E+03  0.42266842973E+03  0.47415204479E+03  0.00000000000E+00 0. -1.
</event>
<event>
 7    1  0.2878477E-009  0.8821143E+02  0.7561462E-02  0.1307242E+00
          3   -1    0    0  501    0  0.00000000000E+00  0.00000000000E+00  0.92972285293E+02  0.92972285293E+02  0.00000000000E+00 0. -1.
         -3   -1    0    0    0  501 -0.00000000000E+00 -0.00000000000E+00 -0.12661259767E+03  0.12661259767E+03  0.00000000000E+00 0.  1.
         25    2    1    2    0    0 -0.92782070597E+01 -0.23983428055E+02 -0.21196661344E+02  0.12945179589E+03  0.12508868478E+03 0.  0.
          5    1    3    3  502    0 -0.14587553562E+02  0.48822599408E+02  0.59168092717E+01  0.51467698257E+02  0.41800000000E+01 0.  1.
         -5    1    3    3    0  502  0.53093465028E+01 -0.72806027462E+02 -0.27113470615E+02  0.77984097635E+02  0.41800000000E+01 0.  1.
        -11    1    1    2    0    0  0.19279234605E+02 -0.63022826690E+01 -0.42005209067E+02  0.46645956337E+02  0.00000000000E+00 0.  1.
         11    1    1    2    0    0 -0.10001027545E+02  0.30285710724E+02  0.29561558034E+02  0.43487130733E+02  0.00000000000E+00 0. -1.
</event>
<event>
 7    1  0.2878477E-009  0.1091561E+03  0.7561462E-02  0.1262141E+00
          1   -1    0    0  501    0  0.00000000000E+00  0.00000000000E+00  0.26652832598E+03  0.26652832598E+03  0.00000000000E+00 0.  1.
         -1   -1    0    0    0  501 -0.00000000000E+00 -0.00000000000E+00 -0.61708327756E+02  0.61708327756E+02  0.00000000000E+00 0. -1.
         25    2    1    2    0    0 -0.55329156060E+02  0.35365133171E+02  0.91627409120E+02  0.16839545250E+03  0.12509771448E+03 0.  0.
          5    1    3    3  502    0 -0.80445631616E+02  0.37537491415E+02  0.18290157943E+02  0.90733484367E+02  0.41800000000E+01 0. -1.
         -5    1    3    3    0  502  0.25116475556E+02 -0.21723582432E+01  0.73337251177E+02  0.77661968137E+02  0.41800000000E+01 0. -1.
        -11    1    1    2    0    0  0.20733844760E+02  0.26112976566E+02  0.99440587924E+01  0.34794599710E+02  0.00000000000E+00 0. -1.
         11    1    1    2    0    0  0.34595311300E+02 -0.61478109737E+02  0.10324853031E+03  0.12504660152E+03  0.00000000000E+00 0.  1.
</event>
<event>
 7    1  0.2878477E-009  0.1603182E+03  0.7561462E-02  0.1188338E+00
         -1   -1    0    0    0  501 -0.00000000000E+00  0.00000000000E+00  0.56185860279E+02  0.56185860279E+02  0.00000000000E+00 0.  1.
          1   -1    0    0  501    0  0.00000000000E+00 -0.00000000000E+00 -0.48831628581E+03  0.48831628581E+03  0.00000000000E+00 0. -1.
         25    2    1    2    0    0 -0.34635583302E+02 -0.11645777950E+03 -0.19690612462E+03  0.26304805661E+03  0.12514080125E+03 0.  0.
          5    1    3    3  502    0 -0.61986846878E+02 -0.12381165583E+03 -0.18707156378E+03  0.23277658319E+03  0.41800000000E+01 0. -1.
         -5    1    3    3    0  502  0.27351263576E+02  0.73538763317E+01 -0.98345608424E+01  0.30271473424E+02  0.41800000000E+01 0. -1.
        -11    1    1    2    0    0 -0.18111744110E+02  0.94711542410E+02 -0.13139139864E+03  0.16297856048E+03  0.00000000000E+00 0.  1.
         11    1    1    2    0    0  0.52747327412E+02  0.21746237090E+02 -0.10383290227E+03  0.11847552899E+03  0.00000000000E+00 0. -1.
</event>
<event>
 7    1  0.4191907E-009  0.1062167E+03  0.7561462E-02  0.1267741E+00
         -2   -1    0    0    0  501 -0.00000000000E+00  0.00000000000E+00  0.11549002699E+03  0.11549002699E+03  0.00000000000E+00 0.  1.
          2   -1    0    0  501    0  0.00000000000E+00 -0.00000000000E+00 -0.13664944367E+03  0.13664944367E+03  0.00000000000E+00 0. -1.
         25    2    1    2    0    0  0.51893702806E+02 -0.17456182738E+02  0.20822516032E+02  0.13812130444E+03  0.12508494258E+03 0.  0.
          5    1    3    3  502    0  0.92182656076E+02 -0.94935393982E-01  0.17544449571E+02  0.93930459408E+02  0.41800000000E+01 0. -1.
         -5    1    3    3    0  502 -0.40288953270E+02 -0.17361247344E+02  0.32780664604E+01  0.44190845032E+02  0.41800000000E+01 0. -1.
        -11    1    1    2    0    0 -0.32978018488E+02  0.36537020592E+02  0.14635712369E+02  0.51348881718E+02  0.00000000000E+00 0.  1.
         11    1    1    2    0    0 -0.18915684319E+02 -0.19080837854E+02 -0.56617645080E+02  0.62669284509E+02  0.00000000000E+00 0. -1.
</event>
<event>
 7    1  0.2878477E-009  0.1145643E+03  0.7561462E-02  0.1252344E+00
          1   -1    0    0  501    0  0.00000000000E+00  0.00000000000E+00  0.24455939275E+02  0.24455939275E+02  0.00000000000E+00 0. -1.
         -1   -1    0    0    0  501 -0.00000000000E+00 -0.00000000000E+00 -0.57527585819E+03  0.57527585819E+03  0.00000000000E+00 0.  1.
         25    2    1    2    0    0  0.28129831155E+02 -0.33021254054E+02 -0.35908647409E+03  0.38271659095E+03  0.12508877844E+03 0.  0.
          5    1    3    3  502    0 -0.36519394469E+02 -0.50067251899E+02 -0.21549532388E+03  0.22426792659E+03  0.41800000000E+01 0.  1.
         -5    1    3    3    0  502  0.64649225624E+02  0.17045997845E+02 -0.14359115021E+03  0.15844866435E+03  0.41800000000E+01 0.  1.
        -11    1    1    2    0    0 -0.55683736418E+02 -0.16902115513E+01 -0.12565763214E+03  0.13745317687E+03  0.00000000000E+00 0.  1.
         11    1    1    2    0    0  0.27553905264E+02  0.34711465606E+02 -0.66075812685E+02  0.79562029649E+02  0.00000000000E+00 0. -1.
</event>
<event>
 7    1  0.2878477E-009  0.7619827E+02  0.7561462E-02  0.1340200E+00
          4   -1    0    0  501    0  0.00000000000E+00  0.00000000000E+00  0.47163117754E+02  0.47163117754E+02  0.00000000000E+00 0. -1.
         -4   -1    0    0    0  501 -0.00000000000E+00 -0.00000000000E+00 -0.26248541318E+03  0.26248541318E+03  0.00000000000E+00 0.  1.
         25    2    1    2    0    0 -0.18412128733E+02 -0.19744434671E+01 -0.14477262090E+03  0.19222303619E+03  0.12509068298E+03 0.  0.
          5    1    3    3  502    0 -0.26578779745E+02  0.21018516939E+02 -0.15970419191E+03  0.16331292325E+03  0.41800000000E+01 0.  1.
         -5    1    3    3    0  502  0.81666510118E+01 -0.22992960406E+02  0.14931571014E+02  0.28910112935E+02  0.41800000000E+01 0.  1.
        -11    1    1    2    0    0 -0.14289353443E+02  0.40510956854E+02 -0.37632050344E+02  0.57109495358E+02  0.00000000000E+00 0.  1.
         11    1    1    2    0    0  0.32701482176E+02 -0.38536513387E+02 -0.32917624189E+02  0.60315999393E+02  0.00000000000E+00 0. -1.
</event>
<event>
 7    1  0.2878477E-009  0.1878282E+03  0.7561462E-02  0.1160435E+00
         -2   -1    0    0    0  501 -0.00000000000E+00  0.00000000000E+00  0.18106120165E+03  0.18106120165E+03  0.00000000000E+00 0.  1.
          2   -1    0    0  501    0  0.00000000000E+00 -0.00000000000E+00 -0.20893466121E+03  0.20893466121E+03  0.00000000000E+00 0. -1.
         25    2    1    2    0    0  0.13845332007E+03  0.71944075863E+02 -0.43278978984E+02  0.20461113982E+03  0.12508947448E+03 0.  0.
          5    1    3    3  502    0  0.11795701255E+02 -0.32111774063E+02 -0.17402564300E+02  0.38608629162E+02  0.41800000000E+01 0.  1.
         -5    1    3    3    0  502  0.12665761881E+03  0.10405584993E+03 -0.25876414684E+02  0.16600251066E+03  0.41800000000E+01 0.  1.
        -11    1    1    2    0    0 -0.79439256247E+02  0.57573294070E+01  0.33047005048E+02  0.86231356348E+02  0.00000000000E+00 0. -1.
         11    1    1    2    0    0 -0.59014063823E+02 -0.77701405270E+02 -0.17641485624E+02  0.99153366685E+02  0.00000000000E+00 0.  1.
</event>
<event>
 7    1  0.2878477E-009  0.2025647E+03  0.7561462E-02  0.1147593E+00
          1   -1    0    0  501    0  0.00000000000E+00  0.00000000000E+00  0.17371550882E+04  0.17371550882E+04  0.00000000000E+00 0. -1.
         -1   -1    0    0    0  501 -0.00000000000E+00 -0.00000000000E+00 -0.29990830750E+02  0.29990830750E+02  0.00000000000E+00 0.  1.
         25    2    1    2    0    0  0.72203132432E+02  0.18747328379E+03  0.88883955974E+03  0.91980378650E+03  0.12507485055E+03 0.  0.
          5    1    3    3  502    0  0.54427312994E+02  0.14128035381E+03  0.38810834750E+03  0.41661496921E+03  0.41800000000E+01 0.  1.
         -5    1    3    3    0  502  0.17775819438E+02  0.46192929985E+02  0.50073121224E+03  0.50318881729E+03  0.41800000000E+01 0.  1.
        -11    1    1    2    0    0 -0.14304736676E+02 -0.85898116747E+02  0.20114700308E+03  0.21918765658E+03  0.00000000000E+00 0.  1.
         11    1    1    2    0    0 -0.57898395756E+02 -0.10157516705E+03  0.61717769463E+03  0.62815447586E+03  0.00000000000E+00 0. -1.
</event>
<event>
 7    1  0.2878477E-009  0.1153163E+03  0.7561462E-02  0.1251030E+00
          2   -1    0    0  501    0  0.00000000000E+00  0.00000000000E+00  0.39006133900E+03  0.39006133900E+03  0.00000000000E+00 0. -1.
         -2   -1    0    0    0  501 -0.00000000000E+00 -0.00000000000E+00 -0.54865453668E+02  0.54865453668E+02  0.00000000000E+00 0.  1.
         25    2    1    2    0    0 -0.22371166314E+01 -0.65418161129E+02  0.29146145705E+03  0.32385500422E+03  0.12509093619E+03 0.  0.
          5    1    3    3  502    0 -0.36899134448E+02  0.19204298780E+02  0.47464621158E+02  0.63251196640E+02  0.41800000000E+01 0. -1.
         -5    1    3    3    0  502  0.34662017817E+02 -0.84622459909E+02  0.24399683589E+03  0.26060380758E+03  0.41800000000E+01 0. -1.
        -11    1    1    2    0    0  0.36681808579E+02  0.26144391577E+02 -0.99872667518E+01  0.46139243478E+02  0.00000000000E+00 0. -1.
         11    1    1    2    0    0 -0.34444691947E+02  0.39273769552E+02  0.53721695030E+02  0.74932544966E+02  0.00000000000E+00 0.  1.
</event>
<event>
 7    1  0.2878477E-009  0.1544478E+03  0.7561462E-02  0.1195112E+00
          1   -1    0    0  501    0  0.00000000000E+00  0.00000000000E+00  0.22265865908E+03  0.22265865908E+03  0.00000000000E+00 0. -1.
         -1   -1    0    0    0  501 -0.00000000000E+00 -0.00000000000E+00 -0.14532918930E+03  0.14532918930E+03  0.00000000000E+00 0.  1.
         25    2    1    2    0    0  0.98541699141E+02 -0.83838905107E+02 -0.23260886927E+02  0.18146309631E+03  0.12509339703E+03 0.  0.
          5    1    3    3  502    0  0.18999264705E+02 -0.96718851592E+02 -0.20295254606E+02  0.10072178549E+03  0.41800000000E+01 0.  1.
         -5    1    3    3    0  502  0.79542434436E+02  0.12879946485E+02 -0.29656323211E+01  0.80741310817E+02  0.41800000000E+01 0.  1.
        -11    1    1    2    0    0 -0.18788123961E+02  0.19545594639E+02 -0.15874783434E+02  0.31417075307E+02  0.00000000000E+00 0.  1.
         11    1    1    2    0    0 -0.79753575180E+02  0.64293310468E+02  0.11646514014E+03  0.15510767677E+03  0.00000000000E+00 0. -1.
</event>
<event>
 7    1  0.2878477E-009  0.1587621E+03  0.7561462E-02  0.1190101E+00
         -2   -1    0    0    0  501 -0.00000000000E+00  0.00000000000E+00  0.17596521440E+03  0.17596521440E+03  0.00000000000E+00 0. -1.
          2   -1    0    0  501    0  0.00000000000E+00 -0.00000000000E+00 -0.19506545707E+03  0.19506545707E+03  0.00000000000E+00 0.  1.
         25    2    1    2    0    0 -0.18202559404E+02  0.14464634887E+03 -0.41600667860E+02  0.19654848689E+03  0.12508714052E+03 0.  0.
          5    1    3    3  502    0 -0.54689579192E+02  0.78786396864E+02  0.21320486327E+02  0.98337591694E+02  0.41800000000E+01 0. -1.
         -5    1    3    3    0  502  0.36487019788E+02  0.65859952002E+02 -0.62921154187E+02  0.98210895194E+02  0.41800000000E+01 0. -1.
        -11    1    1    2    0    0 -0.11689621555E+01 -0.13247092984E+02 -0.29097389874E+02  0.31992343498E+02  0.00000000000E+00 0.  1.
         11    1    1    2    0    0  0.19371521560E+02 -0.13139925588E+03  0.51597815066E+02  0.14248984109E+03  0.00000000000E+00 0. -1.
</event>
<event>
 7    1  0.2878477E-009  0.9463496E+02  0.7561462E-02  0.1292000E+00
         -1   -1    0    0    0  501 -0.00000000000E+00  0.00000000000E+00  0.22818726088E+02  0.22818726088E+02  0.00000000000E+00 0.  1.
          1   -1    0    0  501    0  0.00000000000E+00 -0.00000000000E+00 -0.55355149053E+03  0.55355149053E+03  0.00000000000E+00 0. -1.
         25    2    1    2    0    0  0.19674406141E+02  0.13930741898E+02 -0.35723279043E+03  0.37926750564E+03  0.12508967363E+03 0.  0.
          5    1    3    3  502    0 -0.17589846470E+02 -0.32094593916E+02 -0.27710890681E+03  0.27954656909E+03  0.41800000000E+01 0. -1.
         -5    1    3    3    0  502  0.37264252612E+02  0.46025335814E+02 -0.80123883623E+02  0.99720936550E+02  0.41800000000E+01 0. -1.
        -11    1    1    2    0    0  0.22260703243E+02 -0.38493838042E+02 -0.92691785191E+02  0.10280603833E+03  0.00000000000E+00 0.  1.
         11    1    1    2    0    0 -0.41935109385E+02  0.24563096145E+02 -0.80808188821E+02  0.94296672645E+02  0.00000000000E+00 0. -1.
</event>
<event>
 7    1  0.2878477E-009  0.1500404E+03  0.7561462E-02  0.1200423E+00
          1   -1    0    0  501    0  0.00000000000E+00  0.00000000000E+00  0.79235270122E+03  0.79235270122E+03  0.00000000000E+00 0. -1.
         -1   -1    0    0    0  501 -0.00000000000E+00 -0.00000000000E+00 -0.35432114560E+02  0.35432114560E+02  0.00000000000E+00 0.  1.
         25    2    1    2    0    0 -0.12632143179E+03  0.18693611460E+01  0.44008881681E+03  0.47464327239E+03  0.12508985054E+03 0.  0.
          5    1    3    3  502    0 -0.12539177783E+03 -0.16216962586E+02  0.43804342085E+03  0.45594473215E+03  0.41800000000E+01 0. -1.
         -5    1    3    3    0  502 -0.92965396006E+00  0.18086323732E+02  0.20453959562E+01  0.18698540244E+02  0.41800000000E+01 0. -1.
        -11    1    1    2    0    0  0.10076327495E+03  0.37950329284E+02  0.20110531516E+03  0.22811578827E+03  0.00000000000E+00 0. -1.
         11    1    1    2    0    0  0.25558156841E+02 -0.39819690430E+02  0.11572645469E+03  0.12502575512E+03  0.00000000000E+00 0.  1.
</event>
<event>
 7    1  0.2878477E-009  0.8328150E+02  0.7561462E-02  0.1319989E+00
          3   -1    0    0  501    0  0.00000000000E+00  0.00000000000E+00  0.10410347630E+03  0.10410347630E+03  0.00000000000E+00 0. -1.
         -3   -1    0    0    0  501 -0.00000000000E+00 -0.00000000000E+00 -0.12246239798E+03  0.12246239798E+03  0.00000000000E+00 0.  1.
         25    2    1    2    0    0 -0.13974499528E+02  0.28327920362E+02 -0.20529836090E+02  0.13063638600E+03  0.12508650394E+03 0.  0.
          5    1    3    3  502    0  0.26784933620E+02  0.47401041791E+02 -0.52126815635E+02  0.75491514359E+02  0.41800000000E+01 0. -1.
         -5    1    3    3    0  502 -0.40759433148E+02 -0.19073121430E+02  0.31596979545E+02  0.55144871638E+02  0.41800000000E+01 0. -1.
        -11    1    1    2    0    0 -0.62449735597E+01 -0.41930687973E+02 -0.32593516622E+02  0.53474476289E+02  0.00000000000E+00 0.  1.
         11    1    1    2    0    0  0.20219473088E+02  0.13602767611E+02  0.34764431026E+02  0.42455011992E+02  0.00000000000E+00 0. -1.
</event>
<event>
 7    1  0.2878477E-009  0.1448298E+03  0.7561462E-02  0.1206974E+00
         -2   -1    0    0    0  501 -0.00000000000E+00  0.00000000000E+00  0.28444896081E+02  0.28444896081E+02  0.00000000000E+00 0.  1.
          2   -1    0    0  501    0  0.00000000000E+00 -0.00000000000E+00 -0.14148996004E+04  0.14148996004E+04  0.00000000000E+00 0. -1.
         25    2    1    2    0    0 -0.10001602060E+03 -0.57291438814E+02 -0.11653846498E+04  0.11777328561E+04  0.12509110681E+03 0.  0.
          5    1    3    3  502    0 -0.54989985726E+02  0.33077142012E+02 -0.32555242177E+03  0.33184310687E+03  0.41800000000E+01 0. -1.
         -5    1    3    3    0  502 -0.45026034878E+02 -0.90368580826E+02 -0.83983222803E+03  0.84588974923E+03  0.41800000000E+01 0. -1.
        -11    1    1    2    0    0  0.43695512928E+02  0.51717778424E+02 -0.18855154388E+03  0.20033899060E+03  0.00000000000E+00 0. -1.
         11    1    1    2    0    0  0.56320507676E+02  0.55736603900E+01 -0.32518510631E+02  0.65272649775E+02  0.00000000000E+00 0.  1.
</event>
<event>
 7    1  0.2878477E-009  0.8820882E+02  0.7561462E-02  0.1307248E+00
          2   -1    0    0  501    0  0.00000000000E+00  0.00000000000E+00  0.53182361979E+03  0.53182361979E+03  0.00000000000E+00 0. -1.
         -2   -1    0    0    0  501 -0.00000000000E+00 -0.00000000000E+00 -0.28663560199E+02  0.28663560199E+02  0.00000000000E+00 0.  1.
         25    2    1    2    0    0 -0.26484719859E+02 -0.52045933995E+02  0.29054045371E+03  0.32167095193E+03  0.12509287128E+03 0.  0.
          5    1    3    3  502    0 -0.12843676112E+02  0.29314903638E+00  0.25811879201E+03  0.25847210515E+03  0.41800000000E+01 0. -1.
         -5    1    3    3    0  502 -0.13641043747E+02 -0.52339083031E+02  0.32421661696E+02  0.63198846779E+02  0.41800000000E+01 0. -1.
        -11    1    1    2    0    0 -0.27617347755E+02  0.46750275772E+02  0.10142134755E+03  0.11504171383E+03  0.00000000000E+00 0.  1.
         11    1    1    2    0    0  0.54102067614E+02  0.52956582225E+01  0.11119825834E+03  0.12377451423E+03  0.00000000000E+00 0. -1.
</event>
<event>
 7    1  0.2878477E-009  0.1405502E+03  0.7561462E-02  0.1212591E+00
          1   -1    0    0  501    0  0.00000000000E+00  0.00000000000E+00  0.93777794216E+03  0.93777794216E+03  0.00000000000E+00 0. -1.
         -1   -1    0    0    0  501 -0.00000000000E+00 -0.00000000000E+00 -0.21555053025E+02  0.21555053025E+02  0.00000000000E+00 0.  1.
         25    2    1    2    0    0 -0.89633858158E+02  0.37143404038E+02  0.53684234680E+03  0.55969613974E+03  0.12508478136E+03 0.  0.
          5    1    3    3  502    0  0.28161298999E+02  0.25668032817E+02  0.16757633440E+03  0.17190464485E+03  0.41800000000E+01 0. -1.
         -5    1    3    3    0  502 -0.11779515716E+03  0.11475371221E+02  0.36926601240E+03  0.38779149489E+03  0.41800000000E+01 0. -1.
        -11    1    1    2    0    0  0.10059169098E+03 -0.17864119110E+02  0.33116500198E+03  0.34656611719E+03  0.00000000000E+00 0.  1.
         11    1    1    2    0    0 -0.10957832823E+02 -0.19279284928E+02  0.48215540354E+02  0.53070738258E+02  0.00000000000E+00 0. -1.
</event>
<event>
 7    1  0.2878477E-009  0.1309127E+03  0.7561462E-02  0.1226108E+00
          2   -1    0    0  501    0  0.00000000000E+00  0.00000000000E+00  0.30713321813E+03  0.30713321813E+03  0.00000000000E+00 0. -1.
         -2   -1    0    0    0  501 -0.00000000000E+00 -0.00000000000E+00 -0.61452163923E+02  0.61452163923E+02  0.00000000000E+00 0.  1.
         25    2    1    2    0    0 -0.64376961854E+02 -0.49572791412E+02  0.12020270901E+03  0.19156702033E+03  0.12508947661E+03 0.  0.
          5    1    3    3  502    0 -0.76986164625E+00 -0.78877239153E+02  0.64899019397E+02  0.10223290401E+03  0.41800000000E+01 0.  1.
         -5    1    3    3    0  502 -0.63607100207E+02  0.29304447740E+02  0.55303689609E+02  0.89334116319E+02  0.41800000000E+01 0.  1.
        -11    1    1    2    0    0  0.46756076129E+02  0.70951246275E+02  0.12259616843E+03  0.14916444119E+03  0.00000000000E+00 0.  1.
         11    1    1    2    0    0  0.17620885725E+02 -0.21378454862E+02  0.28821767711E+01  0.27853920531E+02  0.00000000000E+00 0. -1.
</event>
<event>
 7    1  0.2878477E-009  0.9022445E+02  0.7561462E-02  0.1302309E+00
         -2   -1    0    0    0  501 -0.00000000000E+00  0.00000000000E+00  0.90595144466E+02  0.90595144466E+02  0.00000000000E+00 0.  1.
          2   -1    0    0  501    0  0.00000000000E+00 -0.00000000000E+00 -0.15762899614E+03  0.15762899614E+03  0.00000000000E+00 0. -1.
         25    2    1    2    0    0 -0.25258417789E+02 -0.41713772460E+02 -0.21272195247E+02  0.13593263024E+03  0.12508855739E+03 0.  0.
          5    1    3    3  502    0 -0.17049375371E+02 -0.69635883081E+02 -0.55535787957E+02  0.90782892425E+02  0.41800000000E+01 0. -1.
         -5    1    3    3    0  502 -0.82090424176E+01  0.27922110621E+02  0.34263592711E+02  0.45149737810E+02  0.41800000000E+01 0. -1.
        -11    1    1    2    0    0  0.45619935129E+02  0.21119282214E+02 -0.61418888434E+02  0.79369278811E+02  0.00000000000E+00 0. -1.
         11    1    1    2    0    0 -0.20361517340E+02  0.20594490246E+02  0.15657232005E+02  0.32922231561E+02  0.00000000000E+00 0.  1.
</event>
<event>
 7    1  0.2878477E-009  0.1102631E+03  0.7561462E-02  0.1260083E+00
         -2   -1    0    0    0  501 -0.00000000000E+00  0.00000000000E+00  0.41880597563E+02  0.41880597563E+02  0.00000000000E+00 0.  1.
          2   -1    0    0  501    0  0.00000000000E+00 -0.00000000000E+00 -0.74924243752E+03  0.74924243752E+03  0.00000000000E+00 0. -1.
         25    2    1    2    0    0  0.89056292403E+02  0.13427232618E+02 -0.60497003451E+03  0.62429755082E+03  0.12508947007E+03 0.  0.
          5    1    3    3  502    0  0.60700100422E+02  0.20802343226E+02 -0.58516208632E+03  0.58868444802E+03  0.41800000000E+01 0. -1.
         -5    1    3    3    0  502  0.28356191980E+02 -0.73751106084E+01 -0.19807948192E+02  0.35613102809E+02  0.41800000000E+01 0. -1.
        -11    1    1    2    0    0 -0.26514398320E+02  0.37532825952E+02 -0.16091887627E+02  0.48689579888E+02  0.00000000000E+00 0. -1.
         11    1    1    2    0    0 -0.62541894083E+02 -0.50960058570E+02 -0.86299917820E+02  0.11813590437E+03  0.00000000000E+00 0.  1.
</event>
<event>
 7    1  0.2878477E-009  0.2079638E+03  0.7561462E-02  0.1143189E+00
         -1   -1    0    0    0  501 -0.00000000000E+00  0.00000000000E+00  0.37787298975E+03  0.37787298975E+03  0.00000000000E+00 0.  1.
          1   -1    0    0  501    0  0.00000000000E+00 -0.00000000000E+00 -0.15736588860E+03  0.15736588860E+03  0.00000000000E+00 0. -1.
         25    2    1    2    0    0  0.17924735645E+03  0.66570541715E+02 -0.15148296924E+01  0.22849793573E+03  0.12509100729E+03 0.  0.
          5    1    3    3  502    0  0.13567932491E+03 -0.10045991115E+02 -0.22085397915E+02  0.13789502654E+03  0.41800000000E+01 0. -1.
         -5    1    3    3    0  502  0.43568031541E+02  0.76616532830E+02  0.20570568223E+02  0.90602909182E+02  0.41800000000E+01 0. -1.
        -11    1    1    2    0    0 -0.12140176958E+03 -0.39134302250E+02  0.20336303782E+03  0.24005501124E+03  0.00000000000E+00 0.  1.
         11    1    1    2    0    0 -0.57845586867E+02 -0.27436239465E+02  0.18658893020E+02  0.66685931384E+02  0.00000000000E+00 0. -1.
</event>
<event>
 7    1  0.2878477E-009  0.5989273E+03  0.7561462E-02  0.9907634E-01
          1   -1    0    0  501    0  0.00000000000E+00  0.00000000000E+00  0.17217903064E+04  0.17217903064E+04  0.00000000000E+00 0. -1.
         -1   -1    0    0    0  501 -0.00000000000E+00 -0.00000000000E+00 -0.20953145720E+03  0.20953145720E+03  0.00000000000E+00 0.  1.
         25    2    1    2    0    0 -0.39937651509E+03  0.43454901163E+03  0.79765239519E+03  0.10001156177E+04  0.12508981159E+03 0.  0.
          5    1    3    3  502    0 -0.12422015666E+03  0.22131069320E+03  0.30361150879E+03  0.39573537991E+03  0.41800000000E+01 0. -1.
         -5    1    3    3    0  502 -0.27515635842E+03  0.21323831843E+03  0.49404088640E+03  0.60438023782E+03  0.41800000000E+01 0. -1.
        -11    1    1    2    0    0  0.39575327448E+03 -0.40547661429E+03  0.66552294693E+03  0.87404389586E+03  0.00000000000E+00 0.  1.
         11    1    1    2    0    0  0.36232406119E+01 -0.29072397347E+02  0.49083507071E+02  0.57162250012E+02  0.00000000000E+00 0. -1.
</event>
<event>
 7    1  0.2878477E-009  0.1600510E+03  0.7561462E-02  0.1188639E+00
          2   -1    0    0  501    0  0.00000000000E+00  0.00000000000E+00  0.11256833755E+03  0.11256833755E+03  0.00000000000E+00 0.  1.
         -2   -1    0    0    0  501 -0.00000000000E+00 -0.00000000000E+00 -0.29440772324E+03  0.29440772324E+03  0.00000000000E+00 0. -1.
         25    2    1    2    0    0 -0.10993308386E+03 -0.68595130654E+02 -0.17040029584E+03  0.24793539283E+03  0.12508046737E+03 0.  0.
          5    1    3    3  502    0 -0.33256511983E+02 -0.92708887098E+02 -0.80541274908E+02  0.12730004988E+03  0.41800000000E+01 0.  1.
         -5    1    3    3    0  502 -0.76676571877E+02  0.24113756444E+02 -0.89859020930E+02  0.12063534294E+03  0.41800000000E+01 0.  1.
        -11    1    1    2    0    0  0.56070294610E+01 -0.92827025659E+01 -0.25874189121E+02  0.28054964070E+02  0.00000000000E+00 0.  1.
         11    1    1    2    0    0  0.10432605440E+03  0.77877833220E+02  0.14435099264E+02  0.13098570389E+03  0.00000000000E+00 0. -1.
</event>
<event>
 7    1  0.2878477E-009  0.1179547E+03  0.7561462E-02  0.1246510E+00
         -4   -1    0    0    0  501 -0.00000000000E+00  0.00000000000E+00  0.15175885908E+03  0.15175885908E+03  0.00000000000E+00 0. -1.
          4   -1    0    0  501    0  0.00000000000E+00 -0.00000000000E+00 -0.13597148999E+03  0.13597148999E+03  0.00000000000E+00 0.  1.
         25    2    1    2    0    0  0.82372400364E+02  0.46229791903E+02  0.12401247684E+02  0.15723429465E+03  0.12508567651E+03 0.  0.
          5    1    3    3  502    0  0.42642659613E+01 -0.93241431747E+01  0.52203714816E+02  0.53365005863E+02  0.41800000000E+01 0. -1.
         -5    1    3    3    0  502  0.78108134403E+02  0.55553935077E+02 -0.39802467132E+02  0.10386928878E+03  0.41800000000E+01 0. -1.
        -11    1    1    2    0    0  0.52603436130E+01  0.18959596695E+02  0.78506036229E+01  0.21184180395E+02  0.00000000000E+00 0. -1.
         11    1    1    2    0    0 -0.87632743977E+02 -0.65189388598E+02 -0.44644822160E+01  0.10931187403E+03  0.00000000000E+00 0.  1.
</event>
<event>
 7    1  0.2878477E-009  0.1350142E+03  0.7561462E-02  0.1220200E+00
         -2   -1    0    0    0  501 -0.00000000000E+00  0.00000000000E+00  0.10322187824E+03  0.10322187824E+03  0.00000000000E+00 0.  1.
          2   -1    0    0  501    0  0.00000000000E+00 -0.00000000000E+00 -0.29310398068E+03  0.29310398068E+03  0.00000000000E+00 0. -1.
         25    2    1    2    0    0  0.20625253887E+02  0.92960111739E+02 -0.21186495229E+03  0.26382163071E+03  0.12509241124E+03 0.  0.
          5    1    3    3  502    0 -0.14646037585E+02 -0.26795074452E+02 -0.57583231896E+02  0.65312965232E+02  0.41800000000E+01 0.  1.
         -5    1    3    3    0  502  0.35271291472E+02  0.11975518619E+03 -0.15428172039E+03  0.19850866548E+03  0.41800000000E+01 0.  1.
        -11    1    1    2    0    0  0.22701948111E+02 -0.38601849793E+02  0.40701206367E+02  0.60515034952E+02  0.00000000000E+00 0.  1.
         11    1    1    2    0    0 -0.43327201998E+02 -0.54358261946E+02 -0.18718356519E+02  0.71989193256E+02  0.00000000000E+00 0. -1.
</event>
<event>
 7    1  0.2878477E-009  0.1406985E+03  0.7561462E-02  0.1212392E+00
          3   -1    0    0  501    0  0.00000000000E+00  0.00000000000E+00  0.68149483123E+03  0.68149483123E+03  0.00000000000E+00 0. -1.
         -3   -1    0    0    0  501 -0.00000000000E+00 -0.00000000000E+00 -0.33386635435E+02  0.33386635435E+02  0.00000000000E+00 0.  1.
         25    2    1    2    0    0  0.96062283467E+02  0.38105257484E+02  0.30736337130E+03  0.34756286316E+03  0.12509088248E+03 0.  0.
          5    1    3    3  502    0  0.78590419237E+02  0.76699908132E+02  0.26769704126E+03  0.28937606709E+03  0.41800000000E+01 0.  1.
         -5    1    3    3    0  502  0.17471864230E+02 -0.38594650649E+02  0.39666330038E+02  0.58186796072E+02  0.41800000000E+01 0.  1.
        -11    1    1    2    0    0 -0.39104292624E+02 -0.56821742381E+02  0.11834753381E+03  0.13698173188E+03  0.00000000000E+00 0.  1.
         11    1    1    2    0    0 -0.56957990843E+02  0.18716484897E+02  0.22239729068E+03  0.23033687163E+03  0.00000000000E+00 0. -1.
</event>
<event>
 6    1  0.2878477E-009  0.1107030E+03  0.7561462E-02  0.1259273E+00
         -2   -1    0    0    0  501 -0.00000000000E+00  0.00000000000E+00  0.71736089590E+02  0.71736089590E+02  0.00000000000E+00 0.  1.
          2   -1    0    0  501    0  0.00000000000E+00 -0.00000000000E+00 -0.19062355002E+03  0.19062355002E+03  0.00000000000E+00 0. -1.
          5    1    1    2  502    0  0.37663934646E+02 -0.35366587911E+02 -0.53520597536E+02  0.74507008221E+02  0.41800000000E+01 0.  1.
         -5    1    1    2    0  502 -0.37580242761E+02  0.65160992923E+02 -0.53746895612E+02  0.92544210152E+02  0.41800000000E+01 0.  1.
        -11    1    1    2    0    0  0.43176173895E+02 -0.26915519371E+02 -0.10429567971E+02  0.51936529180E+02  0.00000000000E+00 0.  1.
         11    1    1    2    0    0 -0.43259865780E+02 -0.28788856411E+01 -0.11903993073E+01  0.43371892054E+02  0.00000000000E+00 0. -1.
</event>
<event>
 7    1  0.2878477E-009  0.9746963E+02  0.7561462E-02  0.1285709E+00
          1   -1    0    0  501    0  0.00000000000E+00  0.00000000000E+00  0.80559052547E+02  0.80559052547E+02  0.00000000000E+00 0. -1.
         -1   -1    0    0    0  501 -0.00000000000E+00 -0.00000000000E+00 -0.15888221086E+03  0.15888221086E+03  0.00000000000E+00 0.  1.
         25    2    1    2    0    0 -0.13864157508E+02  0.28353035643E+02 -0.54140456239E+02  0.13990946268E+03  0.12508940503E+03 0.  0.
          5    1    3    3  502    0 -0.11613570532E+02  0.65160612787E+02 -0.72708420137E+02  0.98411215002E+02  0.41800000000E+01 0.  1.
         -5    1    3    3    0  502 -0.22505869761E+01 -0.36807577144E+02  0.18567963898E+02  0.41498247677E+02  0.41800000000E+01 0.  1.
        -11    1    1    2    0    0  0.26640612923E+02 -0.55467586220E+02 -0.30837146443E+02  0.68828082777E+02  0.00000000000E+00 0.  1.
         11    1    1    2    0    0 -0.12776455415E+02  0.27114550576E+02  0.66544443733E+01  0.30703717948E+02  0.00000000000E+00 0. -1.
</event>
<event>
 7    1  0.2878477E-009  0.2260229E+03  0.7561462E-02  0.1129471E+00
          1   -1    0    0  501    0  0.00000000000E+00  0.00000000000E+00  0.51442957362E+03  0.51442957362E+03  0.00000000000E+00 0. -1.
         -1   -1    0    0    0  501 -0.00000000000E+00 -0.00000000000E+00 -0.10217679864E+03  0.10217679864E+03  0.00000000000E+00 0.  1.
         25    2    1    2    0    0  0.19851616450E+03  0.30218363192E+01  0.16628943614E+03  0.28760515874E+03  0.12508697654E+03 0.  0.
          5    1    3    3  502    0  0.16947066904E+03 -0.47061857474E+02  0.11535182575E+03  0.21037738043E+03  0.41800000000E+01 0. -1.
         -5    1    3    3    0  502  0.29045495464E+02  0.50083693793E+02  0.50937610390E+02  0.77227778312E+02  0.41800000000E+01 0. -1.
        -11    1    1    2    0    0 -0.19781879016E+02 -0.31380262490E+02  0.50006314819E+02  0.62262951529E+02  0.00000000000E+00 0. -1.
         11    1    1    2    0    0 -0.17873428548E+03  0.28358426171E+02  0.19595702402E+03  0.26673826199E+03  0.00000000000E+00 0.  1.
</event>
<event>
 7    1  0.2878477E-009  0.9084283E+02  0.7561462E-02  0.1300823E+00
         -2   -1    0    0    0  501 -0.00000000000E+00  0.00000000000E+00  0.38818157984E+02  0.38818157984E+02  0.00000000000E+00 0. -1.
          2   -1    0    0  501    0  0.00000000000E+00 -0.00000000000E+00 -0.34840381162E+03  0.34840381162E+03  0.00000000000E+00 0.  1.
         25    2    1    2    0    0  0.66158897111E+01  0.39109197592E+02 -0.13332381061E+03  0.18707206981E+03  0.12508965383E+03 0.  0.
          5    1    3    3  502    0 -0.78346043296E+01  0.63074563043E+02 -0.14350066531E+03  0.15700221296E+03  0.41800000000E+01 0.  1.
         -5    1    3    3    0  502  0.14450494041E+02 -0.23965365451E+02  0.10176854707E+02  0.30069856849E+02  0.41800000000E+01 0.  1.
        -11    1    1    2    0    0  0.36784922987E+02 -0.23087972172E+02 -0.11809910809E+03  0.12583157135E+03  0.00000000000E+00 0.  1.
         11    1    1    2    0    0 -0.43400812698E+02 -0.16021225420E+02 -0.58162734940E+02  0.74318328442E+02  0.00000000000E+00 0. -1.
</event>
<event>
 7    1  0.2878477E-009  0.1414880E+03  0.7561462E-02  0.1211341E+00
          1   -1    0    0  501    0  0.00000000000E+00  0.00000000000E+00  0.17022869315E+03  0.17022869315E+03  0.00000000000E+00 0. -1.
         -1   -1    0    0    0  501 -0.00000000000E+00 -0.00000000000E+00 -0.13339320209E+03  0.13339320209E+03  0.00000000000E+00 0.  1.
         25    2    1    2    0    0  0.15322915435E+02  0.10145509934E+03  0.36922627184E+02  0.16595408742E+03  0.12509816071E+03 0.  0.
          5    1    3    3  502    0 -0.87141308079E+01 -0.28041439031E+02  0.25475239476E+01  0.29769458459E+02  0.41800000000E+01 0. -1.
         -5    1    3    3    0  502  0.24037046243E+02  0.12949653837E+03  0.34375103237E+02  0.13618462896E+03  0.41800000000E+01 0. -1.
        -11    1    1    2    0    0  0.18906577614E+02 -0.77471829348E+02  0.31020628106E+02  0.85566479347E+02  0.00000000000E+00 0.  1.
         11    1    1    2    0    0 -0.34229493049E+02 -0.23983269990E+02 -0.31107764226E+02  0.52101328476E+02  0.00000000000E+00 0. -1.
</event>
<event>
 7    1  0.2878477E-009  0.1239540E+03  0.7561462E-02  0.1236713E+00
         -1   -1    0    0    0  501 -0.00000000000E+00  0.00000000000E+00  0.47274649761E+02  0.47274649761E+02  0.00000000000E+00 0.  1.
          1   -1    0    0  501    0  0.00000000000E+00 -0.00000000000E+00 -0.36287421458E+03  0.36287421458E+03  0.00000000000E+00 0. -1.
         25    2    1    2    0    0  0.45096169173E+02 -0.55158870979E+02 -0.14483059694E+03  0.20420357130E+03  0.12508809375E+03 0.  0.
          5    1    3    3  502    0  0.54905012457E+02 -0.85100064531E+02 -0.70801785319E+02  0.12364039219E+03  0.41800000000E+01 0.  1.
         -5    1    3    3    0  502 -0.98088432836E+01  0.29941193552E+02 -0.74028811622E+02  0.80563179108E+02  0.41800000000E+01 0.  1.
        -11    1    1    2    0    0 -0.64460998523E+02  0.94858677224E+01 -0.10484162150E+03  0.12343811249E+03  0.00000000000E+00 0.  1.
         11    1    1    2    0    0  0.19364829350E+02  0.45673003256E+02 -0.65927346381E+02  0.82507180555E+02  0.00000000000E+00 0. -1.
</event>
<event>
 7    1  0.2878477E-009  0.6964669E+02  0.7561462E-02  0.1361299E+00
          2   -1    0    0  501    0  0.00000000000E+00  0.00000000000E+00  0.20627170061E+03  0.20627170061E+03  0.00000000000E+00 0. -1.
         -2   -1    0    0    0  501 -0.00000000000E+00 -0.00000000000E+00 -0.52695031069E+02  0.52695031069E+02  0.00000000000E+00 0.  1.
         25    2    1    2    0    0 -0.13408312189E+02 -0.42174803148E+01  0.11272079646E+03  0.16895769762E+03  0.12507260154E+03 0.  0.
          5    1    3    3  502    0 -0.16839306808E+02 -0.32680103066E+02 -0.13551880206E+02  0.39404025775E+02  0.41800000000E+01 0.  1.
         -5    1    3    3    0  502  0.34309946190E+01  0.28462622751E+02  0.12627267666E+03  0.12955367185E+03  0.41800000000E+01 0.  1.
        -11    1    1    2    0    0  0.33391844317E+02  0.27053865830E+02  0.41379767587E+02  0.59659132484E+02  0.00000000000E+00 0. -1.
         11    1    1    2    0    0 -0.19983532129E+02 -0.22836385515E+02 -0.52389450436E+00  0.30349901568E+02  0.00000000000E+00 0.  1.
</event>
<event>
 7    1  0.2878477E-009  0.1203522E+03  0.7561462E-02  0.1242517E+00
          1   -1    0    0  501    0  0.00000000000E+00  0.00000000000E+00  0.18873981653E+03  0.18873981653E+03  0.00000000000E+00 0. -1.
         -1   -1    0    0    0  501 -0.00000000000E+00 -0.00000000000E+00 -0.79814717847E+02  0.79814717847E+02  0.00000000000E+00 0.  1.
         25    2    1    2    0    0  0.43336306963E+02  0.37262147670E+02  0.41871552683E+02  0.14376127843E+03  0.12509026781E+03 0.  0.
          5    1    3    3  502    0  0.34361146406E+02  0.83352562215E+02  0.24496986541E+02  0.93519584900E+02  0.41800000000E+01 0.  1.
         -5    1    3    3    0  502  0.89751605569E+01 -0.46090414546E+02  0.17374566142E+02  0.50241693529E+02  0.41800000000E+01 0.  1.
        -11    1    1    2    0    0  0.35910461184E+01  0.25047740228E+02  0.27370379112E+02  0.37274958826E+02  0.00000000000E+00 0. -1.
         11    1    1    2    0    0 -0.46927353081E+02 -0.62309887897E+02  0.39683166887E+02  0.87518297122E+02  0.00000000000E+00 0.  1.
</event>
<event>
 7    1  0.2878477E-009  0.1470735E+03  0.7561462E-02  0.1204116E+00
         -2   -1    0    0    0  501 -0.00000000000E+00  0.00000000000E+00  0.31557947827E+03  0.31557947827E+03  0.00000000000E+00 0. -1.
          2   -1    0    0  501    0  0.00000000000E+00 -0.00000000000E+00 -0.85483625384E+02  0.85483625384E+02  0.00000000000E+00 0.  1.
         25    2    1    2    0    0 -0.10197789982E+03 -0.64215961258E+02  0.14545980184E+03  0.22654792831E+03  0.12506889356E+03 0.  0.
          5    1    3    3  502    0  0.29488111597E+02 -0.12276147833E+02  0.24858867942E+02  0.40690149256E+02  0.41800000000E+01 0.  1.
         -5    1    3    3    0  502 -0.13146601142E+03 -0.51939813425E+02  0.12060093389E+03  0.18585777905E+03  0.41800000000E+01 0.  1.
        -11    1    1    2    0    0  0.66924194260E+02  0.42752668838E+02 -0.11150056682E+01  0.79422173905E+02  0.00000000000E+00 0.  1.
         11    1    1    2    0    0  0.35053705562E+02  0.21463292421E+02  0.85751056719E+02  0.95093001444E+02  0.00000000000E+00 0. -1.
</event>
<event>
 7    1  0.2878477E-009  0.1130935E+03  0.7561462E-02  0.1254946E+00
          1   -1    0    0  501    0  0.00000000000E+00  0.00000000000E+00  0.43748017296E+02  0.43748017296E+02  0.00000000000E+00 0. -1.
         -1   -1    0    0    0  501 -0.00000000000E+00 -0.00000000000E+00 -0.44236625466E+03  0.44236625466E+03  0.00000000000E+00 0.  1.
         25    2    1    2    0    0  0.15795532429E+02  0.58401646640E+02 -0.32387574458E+03  0.35242689403E+03  0.12509582940E+03 0.  0.
          5    1    3    3  502    0  0.70353656921E+02  0.35921749792E+02 -0.16761674785E+03  0.18534523385E+03  0.41800000000E+01 0.  1.
         -5    1    3    3    0  502 -0.54558124493E+02  0.22479896848E+02 -0.15625899673E+03  0.16708166018E+03  0.41800000000E+01 0.  1.
        -11    1    1    2    0    0 -0.38631272007E+02 -0.20644938912E+02 -0.77983958309E+02  0.89443202274E+02  0.00000000000E+00 0.  1.
         11    1    1    2    0    0  0.22835739578E+02 -0.37756707728E+02  0.32414655219E+01  0.44244175653E+02  0.00000000000E+00 0. -1.
</event>
<event>
 7    1  0.3196631E-009  0.9611525E+02  0.7561462E-02  0.1288684E+00
         -3   -1    0    0    0  501 -0.00000000000E+00  0.00000000000E+00  0.16484952060E+03  0.16484952060E+03  0.00000000000E+00 0.  1.
          3   -1    0    0  501    0  0.00000000000E+00 -0.00000000000E+00 -0.91148433675E+02  0.91148433675E+02  0.00000000000E+00 0. -1.
         25    2    1    2    0    0  0.41541756818E+02  0.24000160431E+02  0.84567365350E+01  0.13423933882E+03  0.12508780290E+03 0.  0.
          5    1    3    3  502    0  0.84535553600E+02  0.22647026314E+00  0.40411913136E+01  0.84735557699E+02  0.41800000000E+01 0.  1.
         -5    1    3    3    0  502 -0.42993796782E+02  0.23773690168E+02  0.44155452215E+01  0.49503781124E+02  0.41800000000E+01 0.  1.
        -11    1    1    2    0    0 -0.18383387347E+02 -0.29242231099E+02 -0.15307110769E+02  0.37780479749E+02  0.00000000000E+00 0. -1.
         11    1    1    2    0    0 -0.23158369471E+02  0.52420706680E+01  0.80551461157E+02  0.83978135702E+02  0.00000000000E+00 0.  1.
</event>
<event>
 7    1  0.2878477E-009  0.9947538E+02  0.7561462E-02  0.1281403E+00
         -2   -1    0    0    0  501 -0.00000000000E+00  0.00000000000E+00  0.35991487501E+02  0.35991487501E+02  0.00000000000E+00 0.  1.
          2   -1    0    0  501    0  0.00000000000E+00 -0.00000000000E+00 -0.40336213876E+03  0.40336213876E+03  0.00000000000E+00 0. -1.
         25    2    1    2    0    0 -0.30852593427E+02  0.16928747426E+02 -0.27620123784E+03  0.30524211298E+03  0.12508860355E+03 0.  0.
          5    1    3    3  502    0 -0.20265163523E+02 -0.40211709857E+02 -0.35226584530E+02  0.57324018700E+02  0.41800000000E+01 0.  1.
         -5    1    3    3    0  502 -0.10587429904E+02  0.57140457283E+02 -0.24097465331E+03  0.24791809428E+03  0.41800000000E+01 0.  1.
        -11    1    1    2    0    0 -0.25367287892E+02  0.16305783559E+02 -0.44847330787E+02  0.54043139724E+02  0.00000000000E+00 0.  1.
         11    1    1    2    0    0  0.56219881319E+02 -0.33234530985E+02 -0.46322082625E+02  0.80068373556E+02  0.00000000000E+00 0. -1.
</event>
<event>
 7    1  0.2878477E-009  0.8761954E+02  0.7561462E-02  0.1308721E+00
         -2   -1    0    0    0  501 -0.00000000000E+00  0.00000000000E+00  0.14848627835E+02  0.14848627835E+02  0.00000000000E+00 0.  1.
          2   -1    0    0  501    0  0.00000000000E+00 -0.00000000000E+00 -0.11811666449E+04  0.11811666449E+04  0.00000000000E+00 0. -1.
         25    2    1    2    0    0  0.59057232291E+02  0.13042255010E+02 -0.86194783193E+03  0.87307493912E+03  0.12509167541E+03 0.  0.
          5    1    3    3  502    0  0.44214516918E+02 -0.34169194143E+02 -0.16296211215E+03  0.17232695590E+03  0.41800000000E+01 0. -1.
         -5    1    3    3    0  502  0.14842715373E+02  0.47211449153E+02 -0.69898571978E+03  0.70074798322E+03  0.41800000000E+01 0. -1.
        -11    1    1    2    0    0 -0.75189888086E+00 -0.11177716603E+02  0.17258915901E+01  0.11335140147E+02  0.00000000000E+00 0.  1.
         11    1    1    2    0    0 -0.58305333410E+02 -0.18645384069E+01 -0.30609607673E+03  0.31160519347E+03  0.00000000000E+00 0. -1.
</event>
<event>
 7    1  0.2878477E-009  0.1058731E+03  0.7561462E-02  0.1268409E+00
          1   -1    0    0  501    0  0.00000000000E+00  0.00000000000E+00  0.63695503134E+03  0.63695503134E+03  0.00000000000E+00 0. -1.
         -1   -1    0    0    0  501 -0.00000000000E+00 -0.00000000000E+00 -0.19583222977E+02  0.19583222977E+02  0.00000000000E+00 0.  1.
         25    2    1    2    0    0 -0.65302830297E+01 -0.22421910729E+02  0.38322526980E+03  0.40380019538E+03  0.12509038214E+03 0.  0.
          5    1    3    3  502    0  0.26773238665E+02  0.39648174019E+02  0.87915277836E+02  0.10017660649E+03  0.41800000000E+01 0. -1.
         -5    1    3    3    0  502 -0.33303521695E+02 -0.62070084748E+02  0.29530999196E+03  0.30362358889E+03  0.41800000000E+01 0. -1.
        -11    1    1    2    0    0  0.45920245916E+02 -0.34214319322E+01  0.90127209036E+02  0.10120913491E+03  0.00000000000E+00 0.  1.
         11    1    1    2    0    0 -0.39389962886E+02  0.25843342661E+02  0.14401932953E+03  0.15152892402E+03  0.00000000000E+00 0. -1.
</event>
<event>
 7    1  0.2878477E-009  0.9858522E+02  0.7561462E-02  0.1283299E+00
          2   -1    0    0  501    0  0.00000000000E+00  0.00000000000E+00  0.11759525767E+03  0.11759525767E+03  0.00000000000E+00 0. -1.
         -2   -1    0    0    0  501 -0.00000000000E+00 -0.00000000000E+00 -0.11798869547E+03  0.11798869547E+03  0.00000000000E+00 0.  1.
         25    2    1    2    0    0  0.32140189635E+02  0.13762555844E+02  0.29543608134E+02  0.13319895769E+03  0.12508692104E+03 0.  0.
          5    1    3    3  502    0  0.41268869250E+02 -0.43742757488E+02  0.42049047848E+02  0.73499273648E+02  0.41800000000E+01 0. -1.
         -5    1    3    3    0  502 -0.91286796154E+01  0.57505313331E+02 -0.12505439715E+02  0.59699684047E+02  0.41800000000E+01 0. -1.
        -11    1    1    2    0    0 -0.22462842008E+02  0.27855402945E+02  0.16392542327E+02  0.39360109098E+02  0.00000000000E+00 0. -1.
         11    1    1    2    0    0 -0.96773476271E+01 -0.41617958789E+02 -0.46329588265E+02  0.63024886352E+02  0.00000000000E+00 0.  1.
</event>
<event>
 7    1  0.2878477E-009  0.1332872E+03  0.7561462E-02  0.1222658E+00
          1   -1    0    0  501    0  0.00000000000E+00  0.00000000000E+00  0.12522551467E+03  0.12522551467E+03  0.00000000000E+00 0. -1.
         -1   -1    0    0    0  501 -0.00000000000E+00 -0.00000000000E+00 -0.31604319664E+03  0.31604319664E+03  0.00000000000E+00 0.  1.
         25    2    1    2    0    0 -0.83045564205E+02 -0.81258368941E+02  0.34671873267E+02  0.17421154107E+03  0.12509210203E+03 0.  0.
          5    1    3    3  502    0 -0.16467477385E+02  0.17728007740E+02  0.48186606790E+02  0.54082173992E+02  0.41800000000E+01 0. -1.
         -5    1    3    3    0  502 -0.66578086819E+02 -0.98986376681E+02 -0.13514733522E+02  0.12012936708E+03  0.41800000000E+01 0. -1.
        -11    1    1    2    0    0  0.15976214878E+02  0.42006520870E+02 -0.15755162958E+03  0.16383620851E+03  0.00000000000E+00 0.  1.
         11    1    1    2    0    0  0.67069349327E+02  0.39251848071E+02 -0.67937925660E+02  0.10322096172E+03  0.00000000000E+00 0. -1.
</event>
<event>
 7    1  0.2878477E-009  0.1540371E+03  0.7561462E-02  0.1195598E+00
          2   -1    0    0  501    0  0.00000000000E+00  0.00000000000E+00  0.12246477073E+03  0.12246477073E+03  0.00000000000E+00 0. -1.
         -2   -1    0    0    0  501 -0.00000000000E+00 -0.00000000000E+00 -0.21130576337E+03  0.21130576337E+03  0.00000000000E+00 0.  1.
         25    2    1    2    0    0  0.92705660296E+02  0.71109834725E+02 -0.67054241229E+02  0.18383145401E+03  0.12508710634E+03 0.  0.
          5    1    3    3  502    0  0.61577020791E+02  0.99803727120E+02 -0.76727491810E+02  0.14020375828E+03  0.41800000000E+01 0. -1.
         -5    1    3    3    0  502  0.31128639505E+02 -0.28693892395E+02  0.96732505813E+01  0.43627695733E+02  0.41800000000E+01 0. -1.
        -11    1    1    2    0    0 -0.10863666738E+03 -0.44973286023E+02 -0.20101264378E+02  0.11928362329E+03  0.00000000000E+00 0.  1.
         11    1    1    2    0    0  0.15931007082E+02 -0.26136548702E+02 -0.16854870334E+01  0.30655456794E+02  0.00000000000E+00 0. -1.
</event>
<event>
 7    1  0.2878477E-009  0.8613688E+02  0.7561462E-02  0.1312486E+00
          1   -1    0    0  501    0  0.00000000000E+00  0.00000000000E+00  0.11428365680E+03  0.11428365680E+03  0.00000000000E+00 0. -1.
         -1   -1    0    0    0  501 -0.00000000000E+00 -0.00000000000E+00 -0.11438693073E+03  0.11438693073E+03  0.00000000000E+00 0.  1.
         25    2    1    2    0    0  0.22717323218E+02  0.21571289606E+02  0.10956360407E+02  0.12941568959E+03  0.12508789537E+03 0.  0.
          5    1    3    3  502    0 -0.33688732680E+02  0.92455540127E+01  0.48869421546E+02  0.60217138265E+02  0.41800000000E+01 0. -1.
         -5    1    3    3    0  502  0.56406055898E+02  0.12325735594E+02 -0.37913061139E+02  0.69198551320E+02  0.41800000000E+01 0. -1.
        -11    1    1    2    0    0 -0.19789179588E+02 -0.48360774731E+02 -0.35258191122E+02  0.63035832686E+02  0.00000000000E+00 0.  1.
         11    1    1    2    0    0 -0.29281436296E+01  0.26789485124E+02  0.24198556782E+02  0.36219065265E+02  0.00000000000E+00 0. -1.
</event>
<event>
 7    1  0.2878477E-009  0.1291807E+03  0.7561462E-02  0.1228676E+00
         -1   -1    0    0    0  501 -0.00000000000E+00  0.00000000000E+00  0.22913388477E+03  0.22913388477E+03  0.00000000000E+00 0.  1.
          1   -1    0    0  501    0  0.00000000000E+00 -0.00000000000E+00 -0.12200946083E+03  0.12200946083E+03  0.00000000000E+00 0. -1.
         25    2    1    2    0    0  0.20124462257E+02 -0.12627374686E+03  0.80997868238E+02  0.19636223519E+03  0.12508964634E+03 0.  0.
          5    1    3    3  502    0  0.12217311242E+02 -0.74116141333E+02  0.11208145906E+03  0.13498959577E+03  0.41800000000E+01 0.  1.
         -5    1    3    3    0  502  0.79071510141E+01 -0.52157605532E+02 -0.31083590821E+02  0.61372639428E+02  0.41800000000E+01 0.  1.
        -11    1    1    2    0    0 -0.21637293746E+01  0.86969840923E+02 -0.22368168634E+02  0.89826332014E+02  0.00000000000E+00 0. -1.
         11    1    1    2    0    0 -0.17960732882E+02  0.39303905942E+02  0.48494724336E+02  0.64954778395E+02  0.00000000000E+00 0.  1.
</event>
<event>
 7    1  0.2878477E-009  0.4347372E+03  0.7561462E-02  0.1032374E+00
          1   -1    0    0  501    0  0.00000000000E+00  0.00000000000E+00  0.50214608418E+03  0.50214608418E+03  0.00000000000E+00 0. -1.
         -1   -1    0    0    0  501 -0.00000000000E+00 -0.00000000000E+00 -0.39792472591E+03  0.39792472591E+03  0.00000000000E+00 0.  1.
         25    2    1    2    0    0  0.43294502109E+03 -0.92074588636E+01  0.72330689716E+02  0.45651429552E+03  0.12508958691E+03 0.  0.
          5    1    3    3  502    0  0.35726942036E+03 -0.20822336302E+02  0.10566181126E+02  0.35805603612E+03  0.41800000000E+01 0.  1.
         -5    1    3    3    0  502  0.75675600727E+02  0.11614877439E+02  0.61764508589E+02  0.98458259402E+02  0.41800000000E+01 0.  1.
        -11    1    1    2    0    0 -0.31928460634E+03 -0.10912358066E+02  0.59279073092E+02  0.32492421872E+03  0.00000000000E+00 0.  1.
         11    1    1    2    0    0 -0.11366041475E+03  0.20119816929E+02 -0.27388404536E+02  0.11863229584E+03  0.00000000000E+00 0. -1.
</event>
<event>
 7    1  0.2878477E-009  0.1127926E+03  0.7561462E-02  0.1255484E+00
          3   -1    0    0  501    0  0.00000000000E+00  0.00000000000E+00  0.24246392320E+02  0.24246392320E+02  0.00000000000E+00 0. -1.
         -3   -1    0    0    0  501 -0.00000000000E+00 -0.00000000000E+00 -0.68584859959E+03  0.68584859959E+03  0.00000000000E+00 0.  1.
         25    2    1    2    0    0  0.48495470973E+02  0.33310577084E+02 -0.47018507901E+03  0.49008403869E+03  0.12508777397E+03 0.  0.
          5    1    3    3  502    0  0.66362257804E+02  0.59263018595E+02 -0.42852437263E+03  0.43768329300E+03  0.41800000000E+01 0. -1.
         -5    1    3    3    0  502 -0.17866786831E+02 -0.25952441511E+02 -0.41660706384E+02  0.52400745686E+02  0.41800000000E+01 0. -1.
        -11    1    1    2    0    0 -0.64038180378E+01 -0.56372791475E+02 -0.13167211219E+03  0.14337519183E+03  0.00000000000E+00 0.  1.
         11    1    1    2    0    0 -0.42091652935E+02  0.23062214391E+02 -0.59745016066E+02  0.76635761392E+02  0.00000000000E+00 0. -1.
</event>
<event>
 7    1  0.2878477E-009  0.5321728E+02  0.7561462E-02  0.1428723E+00
         -2   -1    0    0    0  501 -0.00000000000E+00  0.00000000000E+00  0.19466952451E+02  0.19466952451E+02  0.00000000000E+00 0.  1.
          2   -1    0    0  501    0  0.00000000000E+00 -0.00000000000E+00 -0.10008049128E+04  0.10008049128E+04  0.00000000000E+00 0. -1.
         25    2    1    2    0    0  0.34033235116E+02  0.27890313145E+01 -0.83601687903E+03  0.84601264646E+03  0.12508851329E+03 0.  0.
          5    1    3    3  502    0  0.30963841791E+02 -0.15193735020E+02 -0.56882965438E+02  0.66653981421E+02  0.41800000000E+01 0.  1.
         -5    1    3    3    0  502  0.30693933256E+01  0.17982766335E+02 -0.77913391359E+03  0.77935866503E+03  0.41800000000E+01 0.  1.
        -11    1    1    2    0    0 -0.33079378213E+02 -0.18051089098E+02 -0.15269925196E+03  0.15728047759E+03  0.00000000000E+00 0. -1.
         11    1    1    2    0    0 -0.95385690356E+00  0.15262057784E+02  0.73781706430E+01  0.16978741203E+02  0.00000000000E+00 0.  1.
</event>
<event>
 7    1  0.2878477E-009  0.1055951E+03  0.7561462E-02  0.1268951E+00
         -1   -1    0    0    0  501 -0.00000000000E+00  0.00000000000E+00  0.85152139759E+02  0.85152139759E+02  0.00000000000E+00 0.  1.
          1   -1    0    0  501    0  0.00000000000E+00 -0.00000000000E+00 -0.17155831751E+03  0.17155831751E+03  0.00000000000E+00 0. -1.
         25    2    1    2    0    0  0.38603640678E+02  0.27985649925E+02 -0.20575606632E+02  0.13544382750E+03  0.12509291405E+03 0.  0.
          5    1    3    3  502    0  0.59903206484E+02 -0.15653638595E+02  0.26688279015E+02  0.67551218975E+02  0.41800000000E+01 0. -1.
         -5    1    3    3    0  502 -0.21299565806E+02  0.43639288521E+02 -0.47263885647E+02  0.67892608527E+02  0.41800000000E+01 0. -1.
        -11    1    1    2    0    0  0.45697092229E+01 -0.51181550076E+02 -0.43855486795E+02  0.67555436736E+02  0.00000000000E+00 0. -1.
         11    1    1    2    0    0 -0.43173349901E+02  0.23195900151E+02 -0.21975084320E+02  0.53711193026E+02  0.00000000000E+00 0.  1.
</event>
<event>
 7    1  0.2878477E-009  0.1029960E+03  0.7561462E-02  0.1274119E+00
         -3   -1    0    0    0  501 -0.00000000000E+00  0.00000000000E+00  0.98449009775E+02  0.98449009775E+02  0.00000000000E+00 0.  1.
          3   -1    0    0  501    0  0.00000000000E+00 -0.00000000000E+00 -0.14608134792E+03  0.14608134792E+03  0.00000000000E+00 0. -1.
         25    2    1    2    0    0  0.23166388645E+02  0.40195560666E+02 -0.12384261034E+02  0.13399942917E+03  0.12510040941E+03 0.  0.
          5    1    3    3  502    0  0.49595455067E+02  0.71961217808E+02 -0.24267846620E+02  0.90799376712E+02  0.41800000000E+01 0.  1.
         -5    1    3    3    0  502 -0.26429066422E+02 -0.31765657142E+02  0.11883585586E+02  0.43200052453E+02  0.41800000000E+01 0.  1.
        -11    1    1    2    0    0 -0.44276598531E+02 -0.30271697713E+02  0.14520899806E+02  0.55566621196E+02  0.00000000000E+00 0.  1.
         11    1    1    2    0    0  0.21110209886E+02 -0.99238629530E+01 -0.49768976915E+02  0.54964307333E+02  0.00000000000E+00 0. -1.
</event>
<event>
 7    1  0.2878477E-009  0.9349871E+02  0.7561462E-02  0.1294594E+00
          1   -1    0    0  501    0  0.00000000000E+00  0.00000000000E+00  0.21585765208E+03  0.21585765208E+03  0.00000000000E+00 0. -1.
         -1   -1    0    0    0  501 -0.00000000000E+00 -0.00000000000E+00 -0.64825213675E+02  0.64825213675E+02  0.00000000000E+00 0.  1.
         25    2    1    2    0    0  0.12484456663E+02 -0.18219592985E+02  0.13238843239E+03  0.18347308738E+03  0.12509141272E+03 0.  0.
          5    1    3    3  502    0  0.19914535225E+02 -0.57809679356E+02  0.20729959589E+02  0.64697382985E+02  0.41800000000E+01 0. -1.
         -5    1    3    3    0  502 -0.74300785622E+01  0.39590086372E+02  0.11165847281E+03  0.11877570440E+03  0.41800000000E+01 0. -1.
        -11    1    1    2    0    0  0.35369211772E+02  0.68198163096E+01  0.29821213025E+02  0.46763188324E+02  0.00000000000E+00 0. -1.
         11    1    1    2    0    0 -0.47853668435E+02  0.11399776675E+02 -0.11177207013E+02  0.50446590049E+02  0.00000000000E+00 0.  1.
</event>
<event>
 7    1  0.2878477E-009  0.1020960E+03  0.7561462E-02  0.1275949E+00
          1   -1    0    0  501    0  0.00000000000E+00  0.00000000000E+00  0.76010426523E+02  0.76010426523E+02  0.00000000000E+00 0. -1.
         -1   -1    0    0    0  501 -0.00000000000E+00 -0.00000000000E+00 -0.16856104591E+03  0.16856104591E+03  0.00000000000E+00 0.  1.
         25    2    1    2    0    0 -0.82753679609E+01 -0.28369006974E+02 -0.66535590651E+02  0.14473449714E+03  0.12509119700E+03 0.  0.
          5    1    3    3  502    0 -0.33394012946E+02  0.33400863010E+02  0.39935651317E+01  0.47583597099E+02  0.41800000000E+01 0.  1.
         -5    1    3    3    0  502  0.25118644985E+02 -0.61769869984E+02 -0.70529155782E+02  0.97150900043E+02  0.41800000000E+01 0.  1.
        -11    1    1    2    0    0 -0.28313056112E+02  0.42225615533E+02 -0.32269396057E+02  0.60215825789E+02  0.00000000000E+00 0.  1.
         11    1    1    2    0    0  0.36588424073E+02 -0.13856608558E+02  0.62543673243E+01  0.39621149498E+02  0.00000000000E+00 0. -1.
</event>
<event>
 7    1  0.2878477E-009  0.2048018E+03  0.7561462E-02  0.1145750E+00
          1   -1    0    0  501    0  0.00000000000E+00  0.00000000000E+00  0.67095415259E+03  0.67095415259E+03  0.00000000000E+00 0. -1.
         -1   -1    0    0    0  501 -0.00000000000E+00 -0.00000000000E+00 -0.82469148279E+02  0.82469148279E+02  0.00000000000E+00 0.  1.
         25    2    1    2    0    0 -0.10089509909E+03  0.17237971192E+03  0.40336018551E+03  0.46716284508E+03  0.12508836261E+03 0.  0.
          5    1    3    3  502    0 -0.78690479152E+02  0.72479260374E+02  0.98225693678E+02  0.14529691666E+03  0.41800000000E+01 0. -1.
         -5    1    3    3    0  502 -0.22204619943E+02  0.99900451545E+02  0.30513449183E+03  0.32186592841E+03  0.41800000000E+01 0. -1.
        -11    1    1    2    0    0  0.16014524391E+02 -0.37132724097E+02  0.94195464246E+02  0.10250897363E+03  0.00000000000E+00 0. -1.
         11    1    1    2    0    0  0.84880574704E+02 -0.13524698782E+03  0.90929354553E+02  0.18375148216E+03  0.00000000000E+00 0.  1.
</event>
<event>
 7    1  0.2878477E-009  0.8665244E+02  0.7561462E-02  0.1311167E+00
          3   -1    0    0  501    0  0.00000000000E+00  0.00000000000E+00  0.48546550935E+03  0.48546550935E+03  0.00000000000E+00 0. -1.
         -3   -1    0    0    0  501 -0.00000000000E+00 -0.00000000000E+00 -0.27477168975E+02  0.27477168975E+02  0.00000000000E+00 0.  1.
         25    2    1    2    0    0 -0.19739196956E+02 -0.29660088472E+02  0.21369429471E+03  0.25016547305E+03  0.12509258800E+03 0.  0.
          5    1    3    3  502    0 -0.47399078669E+02 -0.13412242124E+02  0.21208996189E+03  0.21777553864E+03  0.41800000000E+01 0.  1.
         -5    1    3    3    0  502  0.27659881713E+02 -0.16247846348E+02  0.16043328207E+01  0.32389934410E+02  0.41800000000E+01 0.  1.
        -11    1    1    2    0    0 -0.24160587912E+02  0.39709665829E+02  0.81028189266E+02  0.93413912370E+02  0.00000000000E+00 0.  1.
         11    1    1    2    0    0  0.43899784868E+02 -0.10049577357E+02  0.16326585639E+03  0.16936329290E+03  0.00000000000E+00 0. -1.
</event>
<event>
 7    1  0.2878477E-009  0.1186726E+03  0.7561462E-02  0.1245303E+00
          2   -1    0    0  501    0  0.00000000000E+00  0.00000000000E+00  0.93796453182E+03  0.93796453182E+03  0.00000000000E+00 0. -1.
         -2   -1    0    0    0  501 -0.00000000000E+00 -0.00000000000E+00 -0.18711772970E+02  0.18711772970E+02  0.00000000000E+00 0.  1.
         25    2    1    2    0    0 -0.55071451303E+02  0.16569979090E+02  0.68611055663E+03  0.69978875894E+03  0.12509669166E+03 0.  0.
          5    1    3    3  502    0 -0.12768379487E+02 -0.52282897640E+02  0.20864985222E+03  0.21551975810E+03  0.41800000000E+01 0.  1.
         -5    1    3    3    0  502 -0.42303071816E+02  0.68852876730E+02  0.47746070441E+03  0.48426900084E+03  0.41800000000E+01 0.  1.
        -11    1    1    2    0    0  0.23971766966E+02 -0.50815517513E+02  0.86711020021E+02  0.10332310209E+03  0.00000000000E+00 0.  1.
         11    1    1    2    0    0  0.31099684337E+02  0.34245538424E+02  0.14643118220E+03  0.15356444376E+03  0.00000000000E+00 0. -1.
</event>
<event>
 7    1  0.2878477E-009  0.7979103E+02  0.7561462E-02  0.1329646E+00
          2   -1    0    0  501    0  0.00000000000E+00  0.00000000000E+00  0.10462266089E+03  0.10462266089E+03  0.00000000000E+00 0. -1.
         -2   -1    0    0    0  501 -0.00000000000E+00 -0.00000000000E+00 -0.12940427883E+03  0.12940427883E+03  0.00000000000E+00 0.  1.
         25    2    1    2    0    0  0.37131436751E+02  0.19115517697E+02 -0.16639275395E+02  0.13292340272E+03  0.12509044285E+03 0.  0.
          5    1    3    3  502    0  0.70412276850E+02  0.50975761446E+01 -0.47537900409E+02  0.85212665661E+02  0.41800000000E+01 0. -1.
         -5    1    3    3    0  502 -0.33280840099E+02  0.14017941553E+02  0.30898625015E+02  0.47710737061E+02  0.41800000000E+01 0. -1.
        -11    1    1    2    0    0 -0.24433049483E+02  0.52878182213E+01  0.39115755816E+02  0.46421732859E+02  0.00000000000E+00 0. -1.
         11    1    1    2    0    0 -0.12698387269E+02 -0.24403335919E+02 -0.47258098359E+02  0.54681804137E+02  0.00000000000E+00 0.  1.
</event>
<event>
 7    1  0.2878477E-009  0.1438340E+03  0.7561462E-02  0.1208261E+00
          1   -1    0    0  501    0  0.00000000000E+00  0.00000000000E+00  0.78254758093E+02  0.78254758093E+02  0.00000000000E+00 0.  1.
         -1   -1    0    0    0  501 -0.00000000000E+00 -0.00000000000E+00 -0.29916359028E+03  0.29916359028E+03  0.00000000000E+00 0. -1.
         25    2    1    2    0    0 -0.13352475346E+02  0.10338808245E+03 -0.85665520835E+02  0.18399269319E+03  0.12508935006E+03 0.  0.
          5    1    3    3  502    0 -0.63916514972E+02  0.86222479213E+02 -0.69923759246E+02  0.12816567916E+03  0.41800000000E+01 0. -1.
         -5    1    3    3    0  502  0.50564039626E+02  0.17165603240E+02 -0.15741761589E+02  0.55827014032E+02  0.41800000000E+01 0. -1.
        -11    1    1    2    0    0 -0.12184231754E+02 -0.10022563568E+03 -0.13384654972E+03  0.16765599430E+03  0.00000000000E+00 0.  1.
         11    1    1    2    0    0  0.25536707100E+02 -0.31624467739E+01 -0.13967616327E+01  0.25769660886E+02  0.00000000000E+00 0. -1.
</event>
<event>
 7    1  0.2878477E-009  0.1209259E+03  0.7561462E-02  0.1241577E+00
         -3   -1    0    0    0  501 -0.00000000000E+00  0.00000000000E+00  0.16286134737E+03  0.16286134737E+03  0.00000000000E+00 0.  1.
          3   -1    0    0  501    0  0.00000000000E+00 -0.00000000000E+00 -0.15374115859E+03  0.15374115859E+03  0.00000000000E+00 0. -1.
         25    2    1    2    0    0  0.35966818186E+02 -0.96431603807E+02 -0.48173088092E+02  0.16899996593E+03  0.12509067050E+03 0.  0.
          5    1    3    3  502    0 -0.11289719280E+01 -0.97332433092E+02 -0.75057265113E+02  0.12298757074E+03  0.41800000000E+01 0. -1.
         -5    1    3    3    0  502  0.37095790114E+02  0.90082928434E+00  0.26884177021E+02  0.46012395196E+02  0.41800000000E+01 0. -1.
        -11    1    1    2    0    0 -0.14405465903E+01  0.45660404645E+02  0.71250188231E+02  0.84637681028E+02  0.00000000000E+00 0.  1.
         11    1    1    2    0    0 -0.34526271596E+02  0.50771199162E+02 -0.13956911359E+02  0.62964859004E+02  0.00000000000E+00 0. -1.
</event>
<event>
 7    1  0.2878477E-009  0.1616265E+03  0.7561462E-02  0.1186873E+00
          2   -1    0    0  501    0  0.00000000000E+00  0.00000000000E+00  0.17277647956E+03  0.17277647956E+03  0.00000000000E+00 0.  1.
         -2   -1    0    0    0  501 -0.00000000000E+00 -0.00000000000E+00 -0.22133666584E+03  0.22133666584E+03  0.00000000000E+00 0. -1.
         25    2    1    2    0    0  0.31416038978E+02 -0.13335569842E+03 -0.87405747920E+02  0.20508143152E+03  0.12509164233E+03 0.  0.
          5    1    3    3  502    0 -0.75047053165E+01 -0.12921308844E+03 -0.10015008006E+03  0.16370660880E+03  0.41800000000E+01 0. -1.
         -5    1    3    3    0  502  0.38920744294E+02 -0.41426099728E+01  0.12744332143E+02  0.41374822725E+02  0.41800000000E+01 0. -1.
        -11    1    1    2    0    0 -0.48891439782E+02  0.52790773460E+02 -0.33482565401E+02  0.79361960865E+02  0.00000000000E+00 0.  1.
         11    1    1    2    0    0  0.17475400805E+02  0.80564924956E+02  0.72328127042E+02  0.10966975302E+03  0.00000000000E+00 0. -1.
</event>
<event>
 7    1  0.2878477E-009  0.1323209E+03  0.7561462E-02  0.1224052E+00
         -3   -1    0    0    0  501 -0.00000000000E+00  0.00000000000E+00  0.71302428272E+03  0.71302428272E+03  0.00000000000E+00 0.  1.
          3   -1    0    0  501    0  0.00000000000E+00 -0.00000000000E+00 -0.26849911061E+02  0.26849911061E+02  0.00000000000E+00 0. -1.
         25    2    1    2    0    0  0.74538834016E+02  0.28472909958E+02  0.29406262982E+03  0.32937439042E+03  0.12509162412E+03 0.  0.
          5    1    3    3  502    0 -0.31303714282E+02  0.18969070147E+02  0.42438021047E+02  0.56197919717E+02  0.41800000000E+01 0.  1.
         -5    1    3    3    0  502  0.10584254830E+03  0.95038398107E+01  0.25162460878E+03  0.27317647070E+03  0.41800000000E+01 0.  1.
        -11    1    1    2    0    0 -0.56644159312E+02 -0.61670994587E+02  0.26583498262E+03  0.27871151814E+03  0.00000000000E+00 0. -1.
         11    1    1    2    0    0 -0.17894674704E+02  0.33198084629E+02  0.12627675922E+03  0.13178828523E+03  0.00000000000E+00 0.  1.
</event>
<event>
 7    1  0.2878477E-009  0.8386402E+02  0.7561462E-02  0.1318430E+00
         -2   -1    0    0    0  501 -0.00000000000E+00  0.00000000000E+00  0.16138579750E+02  0.16138579750E+02  0.00000000000E+00 0.  1.
          2   -1    0    0  501    0  0.00000000000E+00 -0.00000000000E+00 -0.12016467930E+04  0.12016467930E+04  0.00000000000E+00 0. -1.
         25    2    1    2    0    0  0.18494705039E+02  0.71071652308E+02 -0.91366738450E+03  0.92510972212E+03  0.12508666831E+03 0.  0.
          5    1    3    3  502    0 -0.80064684931E+01  0.39279264957E+02 -0.72786224187E+02  0.83200186446E+02  0.41800000000E+01 0.  1.
         -5    1    3    3    0  502  0.26501173533E+02  0.31792387351E+02 -0.84088116031E+03  0.84190953568E+03  0.41800000000E+01 0.  1.
        -11    1    1    2    0    0 -0.31934498958E+02 -0.35251752495E+02 -0.56018465548E+02  0.73488548496E+02  0.00000000000E+00 0.  1.
         11    1    1    2    0    0  0.13439793919E+02 -0.35819899813E+02 -0.21582236320E+03  0.21918710213E+03  0.00000000000E+00 0. -1.
</event>
<event>
 7    1  0.2878477E-009  0.1380453E+03  0.7561462E-02  0.1215984E+00
         -2   -1    0    0    0  501 -0.00000000000E+00  0.00000000000E+00  0.47433826036E+02  0.47433826036E+02  0.00000000000E+00 0. -1.
          2   -1    0    0  501    0  0.00000000000E+00 -0.00000000000E+00 -0.63490333845E+03  0.63490333845E+03  0.00000000000E+00 0.  1.
         25    2    1    2    0    0  0.79628837747E+02  0.73943156743E+02 -0.47000324564E+03  0.49835665262E+03  0.12509180656E+03 0.  0.
          5    1    3    3  502    0  0.80586053285E+02  0.32877892866E+01 -0.14735983524E+03  0.16803962325E+03  0.41800000000E+01 0. -1.
         -5    1    3    3    0  502 -0.95721553872E+00  0.70655367456E+02 -0.32264341040E+03  0.33031702936E+03  0.41800000000E+01 0. -1.
        -11    1    1    2    0    0 -0.62135136634E+02 -0.16204740993E+02 -0.10390318858E+03  0.12214434671E+03  0.00000000000E+00 0.  1.
         11    1    1    2    0    0 -0.17493701113E+02 -0.57738415749E+02 -0.13563078197E+02  0.61836165163E+02  0.00000000000E+00 0. -1.
</event>
<event>
 7    1  0.2878477E-009  0.1111554E+03  0.7561462E-02  0.1258445E+00
         -3   -1    0    0    0  501 -0.00000000000E+00  0.00000000000E+00  0.99538026147E+02  0.99538026147E+02  0.00000000000E+00 0.  1.
          3   -1    0    0  501    0  0.00000000000E+00 -0.00000000000E+00 -0.14359827161E+03  0.14359827161E+03  0.00000000000E+00 0. -1.
         25    2    1    2    0    0  0.15593377952E+02 -0.32588793468E+02  0.81233863152E+01  0.13046029077E+03  0.12509482470E+03 0.  0.
          5    1    3    3  502    0  0.49060840871E+02 -0.61162925577E+02 -0.15953804067E+02  0.80124065275E+02  0.41800000000E+01 0. -1.
         -5    1    3    3    0  502 -0.33467462918E+02  0.28574132109E+02  0.24077190382E+02  0.50336225491E+02  0.41800000000E+01 0. -1.
        -11    1    1    2    0    0 -0.36288617298E+02  0.57007803998E+02 -0.39276280382E+02  0.78162520831E+02  0.00000000000E+00 0. -1.
         11    1    1    2    0    0  0.20695239346E+02 -0.24419010530E+02 -0.12907351400E+02  0.34513486162E+02  0.00000000000E+00 0.  1.
</event>
<event>
 7    1  0.2878477E-009  0.1349666E+03  0.7561462E-02  0.1220267E+00
         -1   -1    0    0    0  501 -0.00000000000E+00  0.00000000000E+00  0.46889157646E+02  0.46889157646E+02  0.00000000000E+00 0.  1.
          1   -1    0    0  501    0  0.00000000000E+00 -0.00000000000E+00 -0.50439498119E+03  0.50439498119E+03  0.00000000000E+00 0. -1.
         25    2    1    2    0    0  0.93855227565E+02 -0.44711731308E+02 -0.28586417635E+03  0.32889901531E+03  0.12509313449E+03 0.  0.
          5    1    3    3  502    0  0.11204727641E+02 -0.73188808647E+02 -0.11333915178E+03  0.13544513043E+03  0.41800000000E+01 0.  1.
         -5    1    3    3    0  502  0.82650499924E+02  0.28477077339E+02 -0.17252502457E+03  0.19345388488E+03  0.41800000000E+01 0.  1.
        -11    1    1    2    0    0 -0.66304660930E+02  0.15482845308E+02 -0.28669772599E+02  0.73878159295E+02  0.00000000000E+00 0.  1.
         11    1    1    2    0    0 -0.27550566635E+02  0.29228886001E+02 -0.14297187460E+03  0.14850696423E+03  0.00000000000E+00 0. -1.
</event>
<event>
 7    1  0.2878477E-009  0.1739242E+03  0.7561462E-02  0.1173816E+00
         -1   -1    0    0    0  501 -0.00000000000E+00  0.00000000000E+00  0.75124731755E+02  0.75124731755E+02  0.00000000000E+00 0.  1.
          1   -1    0    0  501    0  0.00000000000E+00 -0.00000000000E+00 -0.46900598030E+03  0.46900598030E+03  0.00000000000E+00 0. -1.
         25    2    1    2    0    0  0.14823472951E+03 -0.30447059554E+02 -0.24678698205E+03  0.31535878051E+03  0.12508711952E+03 0.  0.
          5    1    3    3  502    0  0.39188291365E+02 -0.54803673601E+02 -0.35399558711E+02  0.76221820873E+02  0.41800000000E+01 0.  1.
         -5    1    3    3    0  502  0.10904643815E+03  0.24356614047E+02 -0.21138742334E+03  0.23913695964E+03  0.41800000000E+01 0.  1.
        -11    1    1    2    0    0 -0.15043216943E+03  0.42469553595E+02 -0.11392553098E+03  0.19342318163E+03  0.00000000000E+00 0.  1.
         11    1    1    2    0    0  0.21974399146E+01 -0.12022494041E+02 -0.33168735507E+02  0.35348749912E+02  0.00000000000E+00 0. -1.
</event>
<event>
 7    1  0.2878477E-009  0.1123667E+03  0.7561462E-02  0.1256249E+00
         -1   -1    0    0    0  501 -0.00000000000E+00  0.00000000000E+00  0.16993756847E+03  0.16993756847E+03  0.00000000000E+00 0.  1.
          1   -1    0    0  501    0  0.00000000000E+00 -0.00000000000E+00 -0.99391519743E+02  0.99391519743E+02  0.00000000000E+00 0. -1.
         25    2    1    2    0    0 -0.66006882765E+02  0.22804458342E+02  0.52712805725E+02  0.15265366597E+03  0.12509016730E+03 0.  0.
          5    1    3    3  502    0 -0.69056187746E+02 -0.25759666503E+02  0.69121963553E+02  0.10113177409E+03  0.41800000000E+01 0. -1.
         -5    1    3    3    0  502  0.30493049812E+01  0.48564124845E+02 -0.16409157827E+02  0.51521891885E+02  0.41800000000E+01 0. -1.
        -11    1    1    2    0    0  0.32397408145E+02  0.26873548569E+02  0.34499032651E+02  0.54423918648E+02  0.00000000000E+00 0.  1.
         11    1    1    2    0    0  0.33609474620E+02 -0.49678006911E+02 -0.16665789651E+02  0.62251503592E+02  0.00000000000E+00 0. -1.
</event>
<event>
 7    1  0.2878477E-009  0.9888640E+02  0.7561462E-02  0.1282655E+00
          1   -1    0    0  501    0  0.00000000000E+00  0.00000000000E+00  0.42461770737E+03  0.42461770737E+03  0.00000000000E+00 0. -1.
         -1   -1    0    0    0  501 -0.00000000000E+00 -0.00000000000E+00 -0.28221078785E+02  0.28221078785E+02  0.00000000000E+00 0.  1.
         25    2    1    2    0    0 -0.97976674892E+01  0.46375397317E+01  0.22366666477E+03  0.25650033525E+03  0.12509254171E+03 0.  0.
          5    1    3    3  502    0  0.50482679881E+02 -0.26625257213E+02  0.93384775259E+02  0.10952439883E+03  0.41800000000E+01 0. -1.
         -5    1    3    3    0  502 -0.60280347371E+02  0.31262796944E+02  0.13028188951E+03  0.14697593642E+03  0.41800000000E+01 0. -1.
        -11    1    1    2    0    0  0.38164520417E+02 -0.16737040777E+02  0.15555190515E+03  0.16103743151E+03  0.00000000000E+00 0. -1.
         11    1    1    2    0    0 -0.28366852928E+02  0.12099501045E+02  0.17178058673E+02  0.35301019395E+02  0.00000000000E+00 0.  1.
</event>
<event>
 7    1  0.2878477E-009  0.1424435E+03  0.7561462E-02  0.1210078E+00
          3   -1    0    0  501    0  0.00000000000E+00  0.00000000000E+00  0.51631028209E+02  0.51631028209E+02  0.00000000000E+00 0. -1.
         -3   -1    0    0    0  501 -0.00000000000E+00 -0.00000000000E+00 -0.54848449812E+03  0.54848449812E+03  0.00000000000E+00 0.  1.
         25    2    1    2    0    0 -0.11770776787E+03  0.50143329104E+02 -0.28876635387E+03  0.33970969815E+03  0.12508876777E+03 0.  0.
          5    1    3    3  502    0 -0.90900394842E+02  0.38312438223E+02 -0.75220139951E+02  0.12412198258E+03  0.41800000000E+01 0. -1.
         -5    1    3    3    0  502 -0.26807373024E+02  0.11830890881E+02 -0.21354621392E+03  0.21558771557E+03  0.41800000000E+01 0. -1.
        -11    1    1    2    0    0  0.10880512405E+03 -0.32805122213E+01 -0.14556152512E+03  0.18176213680E+03  0.00000000000E+00 0. -1.
         11    1    1    2    0    0  0.89026438204E+01 -0.46862816883E+02 -0.62525590929E+02  0.78643691382E+02  0.00000000000E+00 0.  1.
</event>
<event>
 7    1  0.2878477E-009  0.1499765E+03  0.7561462E-02  0.1200502E+00
         -4   -1    0    0    0  501 -0.00000000000E+00  0.00000000000E+00  0.16736030899E+03  0.16736030899E+03  0.00000000000E+00 0.  1.
          4   -1    0    0  501    0  0.00000000000E+00 -0.00000000000E+00 -0.18181666762E+03  0.18181666762E+03  0.00000000000E+00 0. -1.
         25    2    1    2    0    0  0.66290430485E+02  0.92840086556E+02 -0.66453587189E+02  0.18186982382E+03  0.12508737234E+03 0.  0.
          5    1    3    3  502    0 -0.18672859340E+02  0.70320710371E+02 -0.58615662561E+02  0.93525110427E+02  0.41800000000E+01 0. -1.
         -5    1    3    3    0  502  0.84963289825E+02  0.22519376185E+02 -0.78379246281E+01  0.88344713391E+02  0.41800000000E+01 0. -1.
        -11    1    1    2    0    0 -0.82555916540E+02 -0.58809152075E+02 -0.20718865167E+01  0.10138189403E+03  0.00000000000E+00 0. -1.
         11    1    1    2    0    0  0.16265486055E+02 -0.34030934481E+02  0.54069115074E+02  0.65925258765E+02  0.00000000000E+00 0.  1.
</event>
<event>
 7    1  0.2878477E-009  0.1085358E+03  0.7561462E-02  0.1263306E+00
          2   -1    0    0  501    0  0.00000000000E+00  0.00000000000E+00  0.23889978488E+03  0.23889978488E+03  0.00000000000E+00 0. -1.
         -2   -1    0    0    0  501 -0.00000000000E+00 -0.00000000000E+00 -0.75570087446E+02  0.75570087446E+02  0.00000000000E+00 0.  1.
         25    2    1    2    0    0  0.68447562102E+02  0.41025780388E+02  0.93865653820E+02  0.17557507563E+03  0.12509061835E+03 0.  0.
          5    1    3    3  502    0  0.79843576812E+02  0.44098202555E+02  0.11229606737E+02  0.91995786285E+02  0.41800000000E+01 0.  1.
         -5    1    3    3    0  502 -0.11396014709E+02 -0.30724221671E+01  0.82636047083E+02  0.83579289341E+02  0.41800000000E+01 0.  1.
        -11    1    1    2    0    0 -0.40396598562E+01 -0.48260780238E+02  0.70942531593E+01  0.48946401183E+02  0.00000000000E+00 0.  1.
         11    1    1    2    0    0 -0.64407902246E+02  0.72349998504E+01  0.62369790450E+02  0.89948395513E+02  0.00000000000E+00 0. -1.
</event>
<event>
 7    1  0.2878477E-009  0.1575516E+03  0.7561462E-02  0.1191489E+00
          2   -1    0    0  501    0  0.00000000000E+00  0.00000000000E+00  0.16507586525E+03  0.16507586525E+03  0.00000000000E+00 0. -1.
         -2   -1    0    0    0  501 -0.00000000000E+00 -0.00000000000E+00 -0.23054651563E+03  0.23054651563E+03  0.00000000000E+00 0.  1.
         25    2    1    2    0    0 -0.12461918688E+03  0.16954597628E+02 -0.13729473708E+03  0.22430737171E+03  0.12508617850E+03 0.  0.
          5    1    3    3  502    0 -0.14956735630E+03  0.17917040384E+02 -0.10694713371E+03  0.18478792227E+03  0.41800000000E+01 0. -1.
         -5    1    3    3    0  502  0.24948169421E+02 -0.96244275580E+00 -0.30347603374E+02  0.39519449440E+02  0.41800000000E+01 0. -1.
        -11    1    1    2    0    0  0.12361692690E+03 -0.15190084418E+01  0.85788205227E+02  0.15047613817E+03  0.00000000000E+00 0. -1.
         11    1    1    2    0    0  0.10022599807E+01 -0.15435589186E+02 -0.13964118527E+02  0.20838871006E+02  0.00000000000E+00 0.  1.
</event>
<event>
 7    1  0.3735605E-009  0.1018272E+03  0.7561462E-02  0.1276500E+00
         -1   -1    0    0    0  501 -0.00000000000E+00  0.00000000000E+00  0.84606083238E+02  0.84606083238E+02  0.00000000000E+00 0.  1.
          1   -1    0    0  501    0  0.00000000000E+00 -0.00000000000E+00 -0.20731183641E+03  0.20731183641E+03  0.00000000000E+00 0. -1.
         25    2    1    2    0    0  0.49021661703E+02 -0.49373088173E+02 -0.10013938516E+03  0.17468796708E+03  0.12508862551E+03 0.  0.
          5    1    3    3  502    0  0.54128825798E+02  0.22134859825E+01 -0.10913107688E+03  0.12190936651E+03  0.41800000000E+01 0. -1.
         -5    1    3    3    0  502 -0.51071640959E+01 -0.51586574156E+02  0.89916917200E+01  0.52778600571E+02  0.41800000000E+01 0. -1.
        -11    1    1    2    0    0 -0.28309377075E+00  0.48566321152E+02  0.19991586578E+02  0.52520769475E+02  0.00000000000E+00 0.  1.
         11    1    1    2    0    0 -0.48738567932E+02  0.80676702132E+00 -0.42557954587E+02  0.64709183086E+02  0.00000000000E+00 0. -1.
</event>
<event>
 7    1  0.2878477E-009  0.1639563E+03  0.7561462E-02  0.1184301E+00
          2   -1    0    0  501    0  0.00000000000E+00  0.00000000000E+00  0.16370493549E+03  0.16370493549E+03  0.00000000000E+00 0. -1.
         -2   -1    0    0    0  501 -0.00000000000E+00 -0.00000000000E+00 -0.31383790447E+03  0.31383790447E+03  0.00000000000E+00 0.  1.
         25    2    1    2    0    0  0.69370145142E+02 -0.13797255425E+03  0.53673195867E+02  0.20585642424E+03  0.12508961861E+03 0.  0.
          5    1    3    3  502    0  0.42515913022E+02 -0.13862817998E+03 -0.70290231517E+00  0.14506323317E+03  0.41800000000E+01 0.  1.
         -5    1    3    3    0  502  0.26854232120E+02  0.65562573323E+00  0.54376098182E+02  0.60793191077E+02  0.41800000000E+01 0.  1.
        -11    1    1    2    0    0 -0.25783732481E+02  0.73069524627E+02 -0.16937985738E+03  0.18626189191E+03  0.00000000000E+00 0.  1.
         11    1    1    2    0    0 -0.43586412660E+02  0.64903029622E+02 -0.34426307469E+02  0.85424523813E+02  0.00000000000E+00 0. -1.
</event>
<event>
 7    1  0.2878477E-009  0.1063214E+03  0.7561462E-02  0.1267538E+00
          3   -1    0    0  501    0  0.00000000000E+00  0.00000000000E+00  0.25318215604E+03  0.25318215604E+03  0.00000000000E+00 0. -1.
         -3   -1    0    0    0  501 -0.00000000000E+00 -0.00000000000E+00 -0.55296629197E+02  0.55296629197E+02  0.00000000000E+00 0.  1.
         25    2    1    2    0    0  0.38399097982E+02  0.61059537129E+01  0.14038045132E+03  0.19200559524E+03  0.12509078341E+03 0.  0.
          5    1    3    3  502    0  0.75507308080E+02 -0.59637181092E+01  0.13143361756E+03  0.15175370747E+03  0.41800000000E+01 0.  1.
         -5    1    3    3    0  502 -0.37108210098E+02  0.12069671822E+02  0.89468337651E+01  0.40251887769E+02  0.41800000000E+01 0.  1.
        -11    1    1    2    0    0 -0.47839815939E+02  0.32474844121E+02  0.49142932860E+02  0.75883406222E+02  0.00000000000E+00 0. -1.
         11    1    1    2    0    0  0.94407179572E+01 -0.38580797834E+02  0.83621426629E+01  0.40589783776E+02  0.00000000000E+00 0.  1.
</event>
<event>
 7    1  0.2878477E-009  0.1061946E+03  0.7561462E-02  0.1267784E+00
          1   -1    0    0  501    0  0.00000000000E+00  0.00000000000E+00  0.20213318746E+03  0.20213318746E+03  0.00000000000E+00 0. -1.
         -1   -1    0    0    0  501 -0.00000000000E+00 -0.00000000000E+00 -0.61585703447E+02  0.61585703447E+02  0.00000000000E+00 0.  1.
         25    2    1    2    0    0 -0.35702825207E+01  0.26224159697E+02  0.69184064193E+02  0.14537699474E+03  0.12509029695E+03 0.  0.
          5    1    3    3  502    0 -0.23331339891E+02 -0.43068926552E+02  0.51227246936E+02  0.70999909043E+02  0.41800000000E+01 0. -1.
         -5    1    3    3    0  502  0.19761057371E+02  0.69293086249E+02  0.17956817256E+02  0.74377085694E+02  0.41800000000E+01 0. -1.
        -11    1    1    2    0    0 -0.39417097550E+02  0.22631316982E+01  0.15776290074E+02  0.42517298513E+02  0.00000000000E+00 0.  1.
         11    1    1    2    0    0  0.42987380071E+02 -0.28487291396E+02  0.55587129749E+02  0.75824597659E+02  0.00000000000E+00 0. -1.
</event>
<event>
 7    1  0.2878477E-009  0.2231048E+03  0.7561462E-02  0.1131589E+00
         -2   -1    0    0    0  501 -0.00000000000E+00  0.00000000000E+00  0.38813297875E+02  0.38813297875E+02  0.00000000000E+00 0.  1.
          2   -1    0    0  501    0  0.00000000000E+00 -0.00000000000E+00 -0.18965479590E+04  0.18965479590E+04  0.00000000000E+00 0. -1.
         25    2    1    2    0    0 -0.18329338117E+03  0.10548974157E+03 -0.14162652078E+04  0.14374211541E+04  0.12509151194E+03 0.  0.
          5    1    3    3  502    0 -0.16060039691E+03  0.69268978686E+02 -0.13256417259E+04  0.13371365438E+04  0.41800000000E+01 0. -1.
         -5    1    3    3    0  502 -0.22692984253E+02  0.36220762886E+02 -0.90623481867E+02  0.10028461031E+03  0.41800000000E+01 0. -1.
        -11    1    1    2    0    0  0.60633416370E+02  0.80536944644E+01 -0.14921248466E+03  0.16126263905E+03  0.00000000000E+00 0. -1.
         11    1    1    2    0    0  0.12265996480E+03 -0.11354343604E+03 -0.29225696872E+03  0.33667746375E+03  0.00000000000E+00 0.  1.
</event>
<event>
 7    1  0.2878477E-009  0.7930936E+02  0.7561462E-02  0.1331023E+00
          3   -1    0    0  501    0  0.00000000000E+00  0.00000000000E+00  0.75435779776E+02  0.75435779776E+02  0.00000000000E+00 0. -1.
         -3   -1    0    0    0  501 -0.00000000000E+00 -0.00000000000E+00 -0.28153943475E+03  0.28153943475E+03  0.00000000000E+00 0.  1.
         25    2    1    2    0    0  0.14604288824E+02  0.22810211946E+02 -0.22539794927E+03  0.25920052857E+03  0.12508831862E+03 0.  0.
          5    1    3    3  502    0 -0.42261392243E+01 -0.45034909322E+02 -0.14645201084E+03  0.15333514662E+03  0.41800000000E+01 0. -1.
         -5    1    3    3    0  502  0.18830428048E+02  0.67845121268E+02 -0.78945938424E+02  0.10586538194E+03  0.41800000000E+01 0. -1.
        -11    1    1    2    0    0 -0.23615419096E+02 -0.72937322338E+01  0.53619881354E+02  0.59042173278E+02  0.00000000000E+00 0. -1.
         11    1    1    2    0    0  0.90111302721E+01 -0.15516479712E+02 -0.34325587065E+02  0.38732512683E+02  0.00000000000E+00 0.  1.
</event>
<event>
 7    1  0.2878477E-009  0.1381675E+03  0.7561462E-02  0.1215816E+00
          2   -1    0    0  501    0  0.00000000000E+00  0.00000000000E+00  0.75104557942E+03  0.75104557942E+03  0.00000000000E+00 0. -1.
         -2   -1    0    0    0  501 -0.00000000000E+00 -0.00000000000E+00 -0.32975013372E+02  0.32975013372E+02  0.00000000000E+00 0.  1.
         25    2    1    2    0    0 -0.68674468778E+02 -0.87984030962E+02  0.42597254692E+03  0.45777465526E+03  0.12509057478E+03 0.  0.
          5    1    3    3  502    0  0.69663549206E+01 -0.41264976746E+02  0.29343454423E+02  0.51281957102E+02  0.41800000000E+01 0.  1.
         -5    1    3    3    0  502 -0.75640823698E+02 -0.46719054216E+02  0.39662909250E+03  0.40649269816E+03  0.41800000000E+01 0.  1.
        -11    1    1    2    0    0 -0.22069255621E+02  0.31241107299E+02  0.80158338792E+02  0.88816767037E+02  0.00000000000E+00 0. -1.
         11    1    1    2    0    0  0.90743724398E+02  0.56742923664E+02  0.21193968034E+03  0.23742917050E+03  0.00000000000E+00 0.  1.
</event>
<event>
 7    1  0.2878477E-009  0.9642679E+02  0.7561462E-02  0.1287995E+00
          1   -1    0    0  501    0  0.00000000000E+00  0.00000000000E+00  0.68401155325E+03  0.68401155325E+03  0.00000000000E+00 0. -1.
         -1   -1    0    0    0  501 -0.00000000000E+00 -0.00000000000E+00 -0.19166280840E+02  0.19166280840E+02  0.00000000000E+00 0.  1.
         25    2    1    2    0    0  0.26546480738E+02 -0.15176281449E+02  0.43261185858E+03  0.45137080785E+03  0.12509017079E+03 0.  0.
          5    1    3    3  502    0  0.71922233582E+02  0.48541318705E+01  0.18078380497E+03  0.19467055972E+03  0.41800000000E+01 0. -1.
         -5    1    3    3    0  502 -0.45375752844E+02 -0.20030413319E+02  0.25182805361E+03  0.25670024813E+03  0.41800000000E+01 0. -1.
        -11    1    1    2    0    0 -0.16950003425E+02 -0.24643990416E+02  0.20773480574E+02  0.36416567313E+02  0.00000000000E+00 0.  1.
         11    1    1    2    0    0 -0.95964773138E+01  0.39820271865E+02  0.21145993325E+03  0.21539045893E+03  0.00000000000E+00 0. -1.
</event>
<event>
 6    1  0.2878477E-009  0.1096290E+03  0.7561462E-02  0.1261258E+00
          1   -1    0    0  501    0  0.00000000000E+00  0.00000000000E+00  0.19692825894E+03  0.19692825894E+03  0.00000000000E+00 0. -1.
         -1   -1    0    0    0  501 -0.00000000000E+00 -0.00000000000E+00 -0.69789429091E+02  0.69789429091E+02  0.00000000000E+00 0.  1.
          5    1    1    2  502    0  0.36675246099E+02 -0.38118535432E+02  0.59228820078E+01  0.53391472645E+02  0.41800000000E+01 0.  1.
         -5    1    1    2    0  502 -0.50097712323E+02  0.53170338916E+02  0.20100771478E+02  0.75883984703E+02  0.41800000000E+01 0.  1.
        -11    1    1    2    0    0  0.28504822699E+02 -0.48542287349E+02  0.58586479525E+02  0.81248102509E+02  0.00000000000E+00 0.  1.
         11    1    1    2    0    0 -0.15082356476E+02  0.33490483866E+02  0.42528696840E+02  0.56194128175E+02  0.00000000000E+00 0. -1.
</event>
<event>
 7    1  0.2878477E-009  0.9844936E+02  0.7561462E-02  0.1283591E+00
         -1   -1    0    0    0  501 -0.00000000000E+00  0.00000000000E+00  0.19530343681E+02  0.19530343681E+02  0.00000000000E+00 0.  1.
          1   -1    0    0  501    0  0.00000000000E+00 -0.00000000000E+00 -0.72810651377E+03  0.72810651377E+03  0.00000000000E+00 0. -1.
         25    2    1    2    0    0 -0.12894398279E+02 -0.50272658911E+02 -0.42413662328E+03  0.44523268994E+03  0.12508663893E+03 0.  0.
          5    1    3    3  502    0  0.32766571339E+02 -0.39733608820E+02 -0.36965377229E+03  0.37324762777E+03  0.41800000000E+01 0. -1.
         -5    1    3    3    0  502 -0.45660969618E+02 -0.10539050091E+02 -0.54482850999E+02  0.71985062174E+02  0.41800000000E+01 0. -1.
        -11    1    1    2    0    0 -0.50945013662E+01 -0.22575897926E+02 -0.35303374864E+02  0.42213189741E+02  0.00000000000E+00 0.  1.
         11    1    1    2    0    0  0.17988899645E+02  0.72848556837E+02 -0.24913617194E+03  0.26019097777E+03  0.00000000000E+00 0. -1.
</event>
<event>
 7    1  0.2878477E-009  0.2135805E+03  0.7561462E-02  0.1138762E+00
          1   -1    0    0  501    0  0.00000000000E+00  0.00000000000E+00  0.78561883310E+03  0.78561883310E+03  0.00000000000E+00 0. -1.
         -1   -1    0    0    0  501 -0.00000000000E+00 -0.00000000000E+00 -0.86209335910E+02  0.86209335910E+02  0.00000000000E+00 0.  1.
         25    2    1    2    0    0  0.21100500706E+03  0.20247707004E+02  0.53544907831E+03  0.58931017864E+03  0.12509072122E+03 0.  0.
          5    1    3    3  502    0  0.39823335023E+02  0.13916416018E+02  0.21464204522E+02  0.47515777620E+02  0.41800000000E+01 0.  1.
         -5    1    3    3    0  502  0.17118167204E+03  0.63312909853E+01  0.51398487379E+03  0.54179440102E+03  0.41800000000E+01 0.  1.
        -11    1    1    2    0    0 -0.77965078664E+02  0.45117880014E+01  0.11958600266E+02  0.79005808915E+02  0.00000000000E+00 0.  1.
         11    1    1    2    0    0 -0.13303992840E+03 -0.24759495005E+02  0.15200181861E+03  0.20351218145E+03  0.00000000000E+00 0. -1.
</event>
<event>
 7    1  0.2878477E-009  0.1589475E+03  0.7561462E-02  0.1189890E+00
         -1   -1    0    0    0  501 -0.00000000000E+00  0.00000000000E+00  0.17476376027E+03  0.17476376027E+03  0.00000000000E+00 0.  1.
          1   -1    0    0  501    0  0.00000000000E+00 -0.00000000000E+00 -0.20942312207E+03  0.20942312207E+03  0.00000000000E+00 0. -1.
         25    2    1    2    0    0  0.11780240135E+03  0.59184247473E+02 -0.10028294745E+03  0.20756998665E+03  0.12509376042E+03 0.  0.
          5    1    3    3  502    0  0.36861212532E+02 -0.36145020369E+02 -0.87275263191E+01  0.52524790361E+02  0.41800000000E+01 0.  1.
         -5    1    3    3    0  502  0.80941188818E+02  0.95329267841E+02 -0.91555421133E+02  0.15504519629E+03  0.41800000000E+01 0.  1.
        -11    1    1    2    0    0 -0.11765646252E+03 -0.43732157093E+02  0.85178380495E+02  0.15169344495E+03  0.00000000000E+00 0.  1.
         11    1    1    2    0    0 -0.14593882773E+00 -0.15452090379E+02 -0.19554794841E+02  0.24923450734E+02  0.00000000000E+00 0. -1.
</event>
<event>
 7    1  0.2878477E-009  0.1453154E+03  0.7561462E-02  0.1206350E+00
         -2   -1    0    0    0  501 -0.00000000000E+00  0.00000000000E+00  0.93573125567E+02  0.93573125567E+02  0.00000000000E+00 0. -1.
          2   -1    0    0  501    0  0.00000000000E+00 -0.00000000000E+00 -0.54467678075E+03  0.54467678075E+03  0.00000000000E+00 0.  1.
         25    2    1    2    0    0  0.70632876909E+02  0.10310330770E+03 -0.17985218043E+02  0.17773622365E+03  0.12508957498E+03 0.  0.
          5    1    3    3  502    0 -0.20899978993E+01  0.43736418070E+02 -0.60332728250E+02  0.74664267591E+02  0.41800000000E+01 0. -1.
         -5    1    3    3    0  502  0.72722874808E+02  0.59366889633E+02  0.42347510207E+02  0.10307195606E+03  0.41800000000E+01 0. -1.
        -11    1    1    2    0    0 -0.59200604754E+02 -0.11433320394E+02 -0.12392253710E+03  0.13781229125E+03  0.00000000000E+00 0. -1.
         11    1    1    2    0    0 -0.11432272155E+02 -0.91669987310E+02 -0.30919590004E+03  0.32270139141E+03  0.00000000000E+00 0.  1.
</event>
<event>
 7    1  0.2878477E-009  0.1184850E+03  0.7561462E-02  0.1245618E+00
          4   -1    0    0  501    0  0.00000000000E+00  0.00000000000E+00  0.35668826158E+03  0.35668826158E+03  0.00000000000E+00 0. -1.
         -4   -1    0    0    0  501 -0.00000000000E+00 -0.00000000000E+00 -0.44913505123E+02  0.44913505123E+02  0.00000000000E+00 0.  1.
         25    2    1    2    0    0 -0.36109333632E+02  0.44802148458E+02  0.12441565703E+03  0.18557143480E+03  0.12508551162E+03 0.  0.
          5    1    3    3  502    0 -0.43163551751E+02  0.85656205219E+02  0.85762132252E+02  0.12873497357E+03  0.41800000000E+01 0.  1.
         -5    1    3    3    0  502  0.70542181194E+01 -0.40854056761E+02  0.38653524777E+02  0.56836461227E+02  0.41800000000E+01 0.  1.
        -11    1    1    2    0    0  0.14735215544E+02  0.23492798515E+02  0.96318441676E+02  0.10023113471E+03  0.00000000000E+00 0. -1.
         11    1    1    2    0    0  0.21374118088E+02 -0.68294946972E+02  0.91040657752E+02  0.11579919719E+03  0.00000000000E+00 0.  1.
</event>
<event>
 7    1  0.2878477E-009  0.2564118E+03  0.7561462E-02  0.1109318E+00
          1   -1    0    0  501    0  0.00000000000E+00  0.00000000000E+00  0.19370609010E+03  0.19370609010E+03  0.00000000000E+00 0. -1.
         -1   -1    0    0    0  501 -0.00000000000E+00 -0.00000000000E+00 -0.37953124759E+03  0.37953124759E+03  0.00000000000E+00 0.  1.
         25    2    1    2    0    0  0.65240474697E+02  0.22761316443E+03 -0.20362825547E+02  0.26856572077E+03  0.12509528188E+03 0.  0.
          5    1    3    3  502    0 -0.54414943787E+01  0.15849366853E+03  0.23422452944E+02  0.16036189238E+03  0.41800000000E+01 0. -1.
         -5    1    3    3    0  502  0.70681969075E+02  0.69119495895E+02 -0.43785278491E+02  0.10820382839E+03  0.41800000000E+01 0. -1.
        -11    1    1    2    0    0 -0.86223640384E+02 -0.13435476349E+03 -0.93354183913E+02  0.18493437292E+03  0.00000000000E+00 0.  1.
         11    1    1    2    0    0  0.20983165687E+02 -0.93258400941E+02 -0.72108148027E+02  0.11973724400E+03  0.00000000000E+00 0. -1.
</event>
<event>
 7    1  0.2878477E-009  0.1224420E+03  0.7561462E-02  0.1239122E+00
          1   -1    0    0  501    0  0.00000000000E+00  0.00000000000E+00  0.37369087451E+02  0.37369087451E+02  0.00000000000E+00 0. -1.
         -1   -1    0    0    0  501 -0.00000000000E+00 -0.00000000000E+00 -0.89765009422E+03  0.89765009422E+03  0.00000000000E+00 0.  1.
         25    2    1    2    0    0 -0.81894371392E+02  0.11184266426E+02 -0.76169370753E+03  0.77631030648E+03  0.12509441220E+03 0.  0.
          5    1    3    3  502    0  0.27282140796E+02 -0.22394967830E+02 -0.19243184346E+03  0.19568683290E+03  0.41800000000E+01 0.  1.
         -5    1    3    3    0  502 -0.10917651219E+03  0.33579234256E+02 -0.56926186407E+03  0.58062347358E+03  0.41800000000E+01 0.  1.
        -11    1    1    2    0    0  0.43439972677E+02 -0.29436637078E+02 -0.12700812775E+01  0.52489617402E+02  0.00000000000E+00 0. -1.
         11    1    1    2    0    0  0.38454398715E+02  0.18252370652E+02 -0.97317217958E+02  0.10621925779E+03  0.00000000000E+00 0.  1.
</event>
<event>
 7    1  0.2878477E-009  0.8974796E+02  0.7561462E-02  0.1303463E+00
          1   -1    0    0  501    0  0.00000000000E+00  0.00000000000E+00  0.12735209550E+03  0.12735209550E+03  0.00000000000E+00 0. -1.
         -1   -1    0    0    0  501 -0.00000000000E+00 -0.00000000000E+00 -0.14508814943E+03  0.14508814943E+03  0.00000000000E+00 0.  1.
         25    2    1    2    0    0  0.67909928248E+02 -0.25821237960E+02  0.48489137947E+02  0.15257826147E+03  0.12510169739E+03 0.  0.
          5    1    3    3  502    0  0.16494133604E+02 -0.22710253604E+02  0.84797290300E+02  0.89419600225E+02  0.41800000000E+01 0. -1.
         -5    1    3    3    0  502  0.51415794644E+02 -0.31109843558E+01 -0.36308152353E+02  0.63158661242E+02  0.41800000000E+01 0. -1.
        -11    1    1    2    0    0 -0.77909851873E+02  0.35415065722E+02 -0.60799857713E+02  0.10497997236E+03  0.00000000000E+00 0. -1.
         11    1    1    2    0    0  0.99999236249E+01 -0.95938277621E+01 -0.54253341692E+01  0.14882011103E+02  0.00000000000E+00 0.  1.
</event>
<event>
 7    1  0.2878477E-009  0.2141892E+03  0.7561462E-02  0.1138291E+00
          2   -1    0    0  501    0  0.00000000000E+00  0.00000000000E+00  0.40179784200E+03  0.40179784200E+03  0.00000000000E+00 0. -1.
         -2   -1    0    0    0  501 -0.00000000000E+00 -0.00000000000E+00 -0.13459929540E+03  0.13459929540E+03  0.00000000000E+00 0.  1.
         25    2    1    2    0    0 -0.19597571425E+02 -0.19494619591E+03  0.20933962889E+03  0.31282411379E+03  0.12509101421E+03 0.  0.
          5    1    3    3  502    0 -0.39839571860E+02 -0.10425586355E+02  0.14956011092E+02  0.44011805287E+02  0.41800000000E+01 0.  1.
         -5    1    3    3    0  502  0.20242000435E+02 -0.18452060956E+03  0.19438361779E+03  0.26881230850E+03  0.41800000000E+01 0.  1.
        -11    1    1    2    0    0 -0.11702046540E+02  0.11277697465E+03  0.72291159645E+02  0.13446782391E+03  0.00000000000E+00 0. -1.
         11    1    1    2    0    0  0.31299617965E+02  0.82169221270E+02 -0.14432241932E+02  0.89105199714E+02  0.00000000000E+00 0.  1.
</event>
<event>
 7    1  0.2878477E-009  0.1127082E+03  0.7561462E-02  0.1255635E+00
          4   -1    0    0  501    0  0.00000000000E+00  0.00000000000E+00  0.54434420686E+02  0.54434420686E+02  0.00000000000E+00 0. -1.
         -4   -1    0    0    0  501 -0.00000000000E+00 -0.00000000000E+00 -0.31493459043E+03  0.31493459043E+03  0.00000000000E+00 0.  1.
         25    2    1    2    0    0  0.35821657929E+02 -0.54971740823E+02 -0.97756508638E+02  0.17178122192E+03  0.12508944703E+03 0.  0.
          5    1    3    3  502    0 -0.36464990492E+02 -0.13325003471E+02  0.49894105251E+01  0.39365185970E+02  0.41800000000E+01 0. -1.
         -5    1    3    3    0  502  0.72286648421E+02 -0.41646737352E+02 -0.10274591916E+03  0.13241603595E+03  0.41800000000E+01 0. -1.
        -11    1    1    2    0    0 -0.44372474650E+02 -0.27777815499E+01 -0.33168771513E+02  0.55468910036E+02  0.00000000000E+00 0. -1.
         11    1    1    2    0    0  0.85508167207E+01  0.57749522373E+02 -0.12957488959E+03  0.14211887916E+03  0.00000000000E+00 0.  1.
</event>
<event>
 7    1  0.2878477E-009  0.1677422E+03  0.7561462E-02  0.1180223E+00
         -1   -1    0    0    0  501 -0.00000000000E+00  0.00000000000E+00  0.10153297933E+03  0.10153297933E+03  0.00000000000E+00 0.  1.
          1   -1    0    0  501    0  0.00000000000E+00 -0.00000000000E+00 -0.44492229748E+03  0.44492229748E+03  0.00000000000E+00 0. -1.
         25    2    1    2    0    0 -0.10827026986E+03  0.90815366983E+02 -0.30950534038E+02  0.19124726494E+03  0.12509076134E+03 0.  0.
          5    1    3    3  502    0 -0.47258097078E+02  0.10716272720E+03  0.70639276816E+01  0.11740762035E+03  0.41800000000E+01 0.  1.
         -5    1    3    3    0  502 -0.61012172781E+02 -0.16347360221E+02 -0.38014461719E+02  0.73839644591E+02  0.41800000000E+01 0.  1.
        -11    1    1    2    0    0 -0.74698403616E+01 -0.14619645477E+02 -0.37448689931E+01  0.16839138715E+02  0.00000000000E+00 0.  1.
         11    1    1    2    0    0  0.11574011022E+03 -0.76195721507E+02 -0.30869391512E+03  0.33836887316E+03  0.00000000000E+00 0. -1.
</event>
<event>
 7    1  0.2878477E-009  0.8858380E+02  0.7561462E-02  0.1306318E+00
         -1   -1    0    0    0  501 -0.00000000000E+00  0.00000000000E+00  0.20748215042E+02  0.20748215042E+02  0.00000000000E+00 0.  1.
          1   -1    0    0  501    0  0.00000000000E+00 -0.00000000000E+00 -0.67488588559E+03  0.67488588559E+03  0.00000000000E+00 0. -1.
         25    2    1    2    0    0  0.22351882859E+02  0.11679578754E+02 -0.48653039971E+03  0.50298598722E+03  0.12508818599E+03 0.  0.
          5    1    3    3  502    0  0.54527373694E+02  0.31789688468E+02 -0.43090045082E+03  0.43551864448E+03  0.41800000000E+01 0.  1.
         -5    1    3    3    0  502 -0.32175490836E+02 -0.20110109713E+02 -0.55629948888E+02  0.67467342741E+02  0.41800000000E+01 0.  1.
        -11    1    1    2    0    0  0.46682761831E+01  0.27639477177E+02 -0.12682111134E+03  0.12988197635E+03  0.00000000000E+00 0. -1.
         11    1    1    2    0    0 -0.27020159042E+02 -0.39319055931E+02 -0.40786159511E+02  0.62766137061E+02  0.00000000000E+00 0.  1.
</event>
<event>
 7    1  0.2878477E-009  0.1326991E+03  0.7561462E-02  0.1223505E+00
         -2   -1    0    0    0  501 -0.00000000000E+00  0.00000000000E+00  0.23112533648E+03  0.23112533648E+03  0.00000000000E+00 0.  1.
          2   -1    0    0  501    0  0.00000000000E+00 -0.00000000000E+00 -0.99996541725E+02  0.99996541725E+02  0.00000000000E+00 0. -1.
         25    2    1    2    0    0 -0.70492641254E+02  0.28666931747E+02 -0.17070534552E+01  0.14643274298E+03  0.12509447925E+03 0.  0.
          5    1    3    3  502    0 -0.22417692632E+02  0.72353802803E+02  0.18851429861E+02  0.78169524310E+02  0.41800000000E+01 0. -1.
         -5    1    3    3    0  502 -0.48074948621E+02 -0.43686871056E+02 -0.20558483316E+02  0.68263218675E+02  0.41800000000E+01 0. -1.
        -11    1    1    2    0    0  0.95145854590E+02 -0.29969844104E+02  0.12236248564E+03  0.15787179322E+03  0.00000000000E+00 0. -1.
         11    1    1    2    0    0 -0.24653213336E+02  0.13029123572E+01  0.10473362563E+02  0.26817341997E+02  0.00000000000E+00 0.  1.
</event>
<event>
 7    1  0.2878477E-009  0.9371774E+02  0.7561462E-02  0.1294090E+00
         -1   -1    0    0    0  501 -0.00000000000E+00  0.00000000000E+00  0.41169688986E+02  0.41169688986E+02  0.00000000000E+00 0.  1.
          1   -1    0    0  501    0  0.00000000000E+00 -0.00000000000E+00 -0.33122262566E+03  0.33122262566E+03  0.00000000000E+00 0. -1.
         25    2    1    2    0    0  0.10891805740E+01 -0.43206694737E+02 -0.15056328225E+03  0.20046223608E+03  0.12509117215E+03 0.  0.
          5    1    3    3  502    0  0.14459327327E+02  0.23496466585E+02  0.70175398953E+01  0.28772805823E+02  0.41800000000E+01 0. -1.
         -5    1    3    3    0  502 -0.13370146753E+02 -0.66703161322E+02 -0.15758082215E+03  0.17168943026E+03  0.41800000000E+01 0. -1.
        -11    1    1    2    0    0 -0.28468633425E+01  0.67227779945E+02 -0.12933483050E+03  0.14579155465E+03  0.00000000000E+00 0. -1.
         11    1    1    2    0    0  0.17576827685E+01 -0.24021085208E+02 -0.10154823921E+02  0.26138523910E+02  0.00000000000E+00 0.  1.
</event>
<event>
 7    1  0.2878477E-009  0.1562309E+03  0.7561462E-02  0.1193019E+00
         -3   -1    0    0    0  501 -0.00000000000E+00  0.00000000000E+00  0.31658842072E+03  0.31658842072E+03  0.00000000000E+00 0.  1.
          3   -1    0    0  501    0  0.00000000000E+00 -0.00000000000E+00 -0.86448457730E+02  0.86448457730E+02  0.00000000000E+00 0. -1.
         25    2    1    2    0    0  0.11701860075E+03 -0.39030370954E+02  0.13481569534E+03  0.22144631741E+03  0.12508587852E+03 0.  0.
          5    1    3    3  502    0  0.11522810882E+03 -0.72104009768E+02  0.12922207956E+03  0.18759617142E+03  0.41800000000E+01 0.  1.
         -5    1    3    3    0  502  0.17904919363E+01  0.33073638814E+02  0.55936157713E+01  0.33850145984E+02  0.41800000000E+01 0.  1.
        -11    1    1    2    0    0 -0.42780917170E+02 -0.20958228538E+02  0.13670532605E+01  0.47658399595E+02  0.00000000000E+00 0.  1.
         11    1    1    2    0    0 -0.74237683584E+02  0.59988599492E+02  0.93957214391E+02  0.13393216144E+03  0.00000000000E+00 0. -1.
</event>
<event>
 7    1  0.2878477E-009  0.9684826E+02  0.7561462E-02  0.1287067E+00
         -2   -1    0    0    0  501 -0.00000000000E+00  0.00000000000E+00  0.37406847689E+02  0.37406847689E+02  0.00000000000E+00 0.  1.
          2   -1    0    0  501    0  0.00000000000E+00 -0.00000000000E+00 -0.39379985806E+03  0.39379985806E+03  0.00000000000E+00 0. -1.
         25    2    1    2    0    0  0.50587543276E+02 -0.40370490567E+01 -0.23688445919E+03  0.27265043827E+03  0.12509443307E+03 0.  0.
          5    1    3    3  502    0  0.45879960580E+02  0.47787301173E+02 -0.64577109058E+02  0.92608165679E+02  0.41800000000E+01 0. -1.
         -5    1    3    3    0  502  0.47075826962E+01 -0.51824350229E+02 -0.17230735013E+03  0.18004227259E+03  0.41800000000E+01 0. -1.
        -11    1    1    2    0    0 -0.51581065659E+02  0.22748861717E+02 -0.24074580512E+02  0.61300101719E+02  0.00000000000E+00 0.  1.
         11    1    1    2    0    0  0.99352238259E+00 -0.18711812661E+02 -0.95433970669E+02  0.97256165755E+02  0.00000000000E+00 0. -1.
</event>
<event>
 7    1  0.2878477E-009  0.9583310E+02  0.7561462E-02  0.1289311E+00
          2   -1    0    0  501    0  0.00000000000E+00  0.00000000000E+00  0.11022183356E+04  0.11022183356E+04  0.00000000000E+00 0. -1.
         -2   -1    0    0    0  501 -0.00000000000E+00 -0.00000000000E+00 -0.21197620749E+02  0.21197620749E+02  0.00000000000E+00 0.  1.
         25    2    1    2    0    0  0.29859713827E+02 -0.48727945785E+02  0.90417857757E+03  0.91457825993E+03  0.12509387749E+03 0.  0.
          5    1    3    3  502    0  0.47697898906E+02 -0.64896232973E+02  0.32403459690E+03  0.33391990507E+03  0.41800000000E+01 0. -1.
         -5    1    3    3    0  502 -0.17838185079E+02  0.16168287188E+02  0.58014398068E+03  0.58065835486E+03  0.41800000000E+01 0. -1.
        -11    1    1    2    0    0  0.49414109497E+01  0.51439549495E+02  0.16349329389E+03  0.17146574568E+03  0.00000000000E+00 0. -1.
         11    1    1    2    0    0 -0.34801124777E+02 -0.27116037101E+01  0.13348843348E+02  0.37371950700E+02  0.00000000000E+00 0.  1.
</event>
<event>
 7    1  0.2878477E-009  0.2217987E+03  0.7561462E-02  0.1132549E+00
          1   -1    0    0  501    0  0.00000000000E+00  0.00000000000E+00  0.25508611961E+03  0.25508611961E+03  0.00000000000E+00 0. -1.
         -1   -1    0    0    0  501 -0.00000000000E+00 -0.00000000000E+00 -0.20239821600E+03  0.20239821600E+03  0.00000000000E+00 0.  1.
         25    2    1    2    0    0 -0.19363483958E+03 -0.20698773372E+02 -0.16853948445E+02  0.23206687236E+03  0.12509231532E+03 0.  0.
          5    1    3    3  502    0 -0.18437093351E+03  0.23284920882E+02 -0.79362035559E+01  0.18605183254E+03  0.41800000000E+01 0. -1.
         -5    1    3    3    0  502 -0.92639060635E+01 -0.43983694255E+02 -0.89177448892E+01  0.46015039821E+02  0.41800000000E+01 0. -1.
        -11    1    1    2    0    0  0.19316805532E+03  0.36650081843E+02  0.71771614659E+02  0.20930430184E+03  0.00000000000E+00 0. -1.
         11    1    1    2    0    0  0.46678425458E+00 -0.15951308471E+02 -0.22297626085E+01  0.16113161414E+02  0.00000000000E+00 0.  1.
</event>
<event>
 7    1  0.2878477E-009  0.7621447E+02  0.7561462E-02  0.1340151E+00
          1   -1    0    0  501    0  0.00000000000E+00  0.00000000000E+00  0.87794971363E+02  0.87794971363E+02  0.00000000000E+00 0. -1.
         -1   -1    0    0    0  501 -0.00000000000E+00 -0.00000000000E+00 -0.17239861588E+03  0.17239861588E+03  0.00000000000E+00 0.  1.
         25    2    1    2    0    0  0.14894092056E+02 -0.49621923935E+02 -0.75581443988E+02  0.15506823686E+03  0.12509769820E+03 0.  0.
          5    1    3    3  502    0 -0.23013770999E+01 -0.36053821428E+02  0.30007871658E+02  0.47149964343E+02  0.41800000000E+01 0.  1.
         -5    1    3    3    0  502  0.17195469156E+02 -0.13568102507E+02 -0.10558931565E+03  0.10791827252E+03  0.41800000000E+01 0.  1.
        -11    1    1    2    0    0  0.21601558073E+02 -0.10041385746E+02  0.18298640424E+02  0.30038258609E+02  0.00000000000E+00 0.  1.
         11    1    1    2    0    0 -0.36495650129E+02  0.59663309680E+02 -0.27320840952E+02  0.75087091771E+02  0.00000000000E+00 0. -1.
</event>
<event>
 7    1  0.2878477E-009  0.8172033E+02  0.7561462E-02  0.1324239E+00
         -2   -1    0    0    0  501 -0.00000000000E+00  0.00000000000E+00  0.11507913795E+02  0.11507913795E+02  0.00000000000E+00 0.  1.
          2   -1    0    0  501    0  0.00000000000E+00 -0.00000000000E+00 -0.13747728760E+04  0.13747728760E+04  0.00000000000E+00 0. -1.
         25    2    1    2    0    0  0.24843735991E+02 -0.25854243007E+02 -0.10471322107E+04  0.10551869318E+04  0.12509173113E+03 0.  0.
          5    1    3    3  502    0 -0.12958804278E+02 -0.23915361453E+02 -0.95628227265E+03  0.95667817603E+03  0.41800000000E+01 0. -1.
         -5    1    3    3    0  502  0.37802540269E+02 -0.19388815537E+01 -0.90849938045E+02  0.98508755729E+02  0.41800000000E+01 0. -1.
        -11    1    1    2    0    0  0.11611254917E+02  0.51804887328E+02 -0.18903992867E+03  0.19635341154E+03  0.00000000000E+00 0. -1.
         11    1    1    2    0    0 -0.36454990908E+02 -0.25950644321E+02 -0.12709282286E+03  0.13474044650E+03  0.00000000000E+00 0.  1.
</event>
<event>
 7    1  0.2878477E-009  0.2776191E+03  0.7561462E-02  0.1096996E+00
          1   -1    0    0  501    0  0.00000000000E+00  0.00000000000E+00  0.16843139121E+04  0.16843139121E+04  0.00000000000E+00 0. -1.
         -1   -1    0    0    0  501 -0.00000000000E+00 -0.00000000000E+00 -0.54212677652E+02  0.54212677652E+02  0.00000000000E+00 0.  1.
         25    2    1    2    0    0 -0.21032681764E+02 -0.27631339024E+03  0.97806563107E+03  0.10242326073E+04  0.12509433160E+03 0.  0.
          5    1    3    3  502    0 -0.11865115095E+02 -0.58503505541E+02  0.43392157136E+03  0.43802835936E+03  0.41800000000E+01 0. -1.
         -5    1    3    3    0  502 -0.91675666686E+01 -0.21780988470E+03  0.54414405971E+03  0.58620424791E+03  0.41800000000E+01 0. -1.
        -11    1    1    2    0    0  0.59577052129E+01  0.30320009849E+02  0.22465434561E+02  0.38203311357E+02  0.00000000000E+00 0.  1.
         11    1    1    2    0    0  0.15074976551E+02  0.24599338039E+03  0.62957016887E+03  0.67609067117E+03  0.00000000000E+00 0. -1.
</event>
<event>
 7    1  0.2878477E-009  0.1347252E+03  0.7561462E-02  0.1220608E+00
          1   -1    0    0  501    0  0.00000000000E+00  0.00000000000E+00  0.11183017437E+03  0.11183017437E+03  0.00000000000E+00 0. -1.
         -1   -1    0    0    0  501 -0.00000000000E+00 -0.00000000000E+00 -0.19691571438E+03  0.19691571438E+03  0.00000000000E+00 0.  1.
         25    2    1    2    0    0  0.96177898612E+02  0.59781740755E+01 -0.14120995182E+02  0.15852366755E+03  0.12507767155E+03 0.  0.
          5    1    3    3  502    0 -0.18183753196E+02  0.34988745382E+02 -0.24805339214E+00  0.39653437609E+02  0.41800000000E+01 0.  1.
         -5    1    3    3    0  502  0.11436165181E+03 -0.29010571307E+02 -0.13872941790E+02  0.11887022994E+03  0.41800000000E+01 0.  1.
        -11    1    1    2    0    0 -0.93789285043E+02 -0.21345716696E+02 -0.21759846670E+02  0.98618256612E+02  0.00000000000E+00 0. -1.
         11    1    1    2    0    0 -0.23886135686E+01  0.15367542620E+02 -0.49204698157E+02  0.51603964593E+02  0.00000000000E+00 0.  1.
</event>
<event>
 7    1  0.2878477E-009  0.2077209E+03  0.7561462E-02  0.1143384E+00
         -1   -1    0    0    0  501 -0.00000000000E+00  0.00000000000E+00  0.62119943255E+02  0.62119943255E+02  0.00000000000E+00 0.  1.
          1   -1    0    0  501    0  0.00000000000E+00 -0.00000000000E+00 -0.69794083729E+03  0.69794083729E+03  0.00000000000E+00 0. -1.
         25    2    1    2    0    0 -0.76879613235E+02  0.15959519158E+03 -0.35381414381E+03  0.41498475870E+03  0.12508717556E+03 0.  0.
          5    1    3    3  502    0 -0.73413611254E+01  0.14550304044E+03 -0.24137610576E+03  0.28196618094E+03  0.41800000000E+01 0.  1.
         -5    1    3    3    0  502 -0.69538252109E+02  0.14092151142E+02 -0.11243803805E+03  0.13301857777E+03  0.41800000000E+01 0.  1.
        -11    1    1    2    0    0  0.64039546789E+02 -0.34260170825E+02 -0.94851823289E+02  0.11946418392E+03  0.00000000000E+00 0.  1.
         11    1    1    2    0    0  0.12840066446E+02 -0.12533502076E+03 -0.18715492694E+03  0.22561183793E+03  0.00000000000E+00 0. -1.
</event>
<event>
 7    1  0.2878477E-009  0.1407584E+03  0.7561462E-02  0.1212312E+00
         -1   -1    0    0    0  501 -0.00000000000E+00  0.00000000000E+00  0.55216953577E+03  0.55216953577E+03  0.00000000000E+00 0.  1.
          1   -1    0    0  501    0  0.00000000000E+00 -0.00000000000E+00 -0.38507194847E+02  0.38507194847E+02  0.00000000000E+00 0. -1.
         25    2    1    2    0    0 -0.76035093384E+02  0.62071050214E+02  0.28139622205E+03  0.32320945987E+03  0.12508545264E+03 0.  0.
          5    1    3    3  502    0 -0.35438072367E+02  0.94671351805E+02  0.14206356353E+03  0.17440771287E+03  0.41800000000E+01 0. -1.
         -5    1    3    3    0  502 -0.40597021016E+02 -0.32600301591E+02  0.13933265852E+03  0.14880174700E+03  0.41800000000E+01 0. -1.
        -11    1    1    2    0    0 -0.80116094408E+01 -0.40574184962E+02  0.11027179565E+03  0.11777231970E+03  0.00000000000E+00 0.  1.
         11    1    1    2    0    0  0.84046702825E+02 -0.21496865253E+02  0.12199432322E+03  0.14969495105E+03  0.00000000000E+00 0. -1.
</event>
<event>
 7    1  0.2878477E-009  0.1519942E+03  0.7561462E-02  0.1198044E+00
          3   -1    0    0  501    0  0.00000000000E+00  0.00000000000E+00  0.49437114115E+02  0.49437114115E+02  0.00000000000E+00 0. -1.
         -3   -1    0    0    0  501 -0.00000000000E+00 -0.00000000000E+00 -0.53645842097E+03  0.53645842097E+03  0.00000000000E+00 0.  1.
         25    2    1    2    0    0  0.59963280722E+02 -0.95429441690E+02 -0.34104853661E+03  0.38034637302E+03  0.12508751245E+03 0.  0.
          5    1    3    3  502    0 -0.31591319702E+02  0.51131832104E+01 -0.69181439134E+02  0.76339374137E+02  0.41800000000E+01 0.  1.
         -5    1    3    3    0  502  0.91554600424E+02 -0.10054262490E+03 -0.27186709747E+03  0.30400699888E+03  0.41800000000E+01 0.  1.
        -11    1    1    2    0    0  0.17731221176E+02  0.10701469435E+02 -0.55567593697E+02  0.59301560871E+02  0.00000000000E+00 0.  1.
         11    1    1    2    0    0 -0.77694501899E+02  0.84727972254E+02 -0.90405176548E+02  0.14624760119E+03  0.00000000000E+00 0. -1.
</event>
<event>
 7    1  0.2878477E-009  0.9248424E+02  0.7561462E-02  0.1296945E+00
         -1   -1    0    0    0  501 -0.00000000000E+00  0.00000000000E+00  0.31217432645E+02  0.31217432645E+02  0.00000000000E+00 0.  1.
          1   -1    0    0  501    0  0.00000000000E+00 -0.00000000000E+00 -0.51423851653E+03  0.51423851653E+03  0.00000000000E+00 0. -1.
         25    2    1    2    0    0 -0.19655845550E+02 -0.44205216702E+02 -0.22996231838E+03  0.26619506851E+03  0.12504676397E+03 0.  0.
          5    1    3    3  502    0 -0.57447076863E+02 -0.31514607302E+02 -0.51943720257E+02  0.83719529308E+02  0.41800000000E+01 0.  1.
         -5    1    3    3    0  502  0.37791231313E+02 -0.12690609400E+02 -0.17801859812E+03  0.18247553921E+03  0.41800000000E+01 0.  1.
        -11    1    1    2    0    0 -0.10884278936E+02 -0.11416511930E+02  0.24748935181E+01  0.15966507775E+02  0.00000000000E+00 0.  1.
         11    1    1    2    0    0  0.30540124486E+02  0.55621728632E+02 -0.25553365902E+03  0.26329437289E+03  0.00000000000E+00 0. -1.
</event>
<event>
 7    1  0.2878477E-009  0.1436516E+03  0.7561462E-02  0.1208498E+00
         -1   -1    0    0    0  501 -0.00000000000E+00  0.00000000000E+00  0.21482201021E+03  0.21482201021E+03  0.00000000000E+00 0.  1.
          1   -1    0    0  501    0  0.00000000000E+00 -0.00000000000E+00 -0.11246744987E+03  0.11246744987E+03  0.00000000000E+00 0. -1.
         25    2    1    2    0    0 -0.71353856389E+02  0.81544161753E+02  0.35026649408E+02  0.16916120598E+03  0.12509126390E+03 0.  0.
          5    1    3    3  502    0 -0.36870395164E+02 -0.28587249552E+02 -0.46121053712E+01  0.47068044281E+02  0.41800000000E+01 0.  1.
         -5    1    3    3    0  502 -0.34483461225E+02  0.11013141130E+03  0.39638754779E+02  0.12209316170E+03  0.41800000000E+01 0.  1.
        -11    1    1    2    0    0  0.10305387927E+02 -0.59017006742E+02  0.71065309846E+02  0.92948837371E+02  0.00000000000E+00 0.  1.
         11    1    1    2    0    0  0.61048468462E+02 -0.22527155010E+02 -0.37373989087E+01  0.65179416728E+02  0.00000000000E+00 0. -1.
</event>
<event>
 7    1  0.2878477E-009  0.1399133E+03  0.7561462E-02  0.1213446E+00
         -1   -1    0    0    0  501 -0.00000000000E+00  0.00000000000E+00  0.10929275855E+03  0.10929275855E+03  0.00000000000E+00 0.  1.
          1   -1    0    0  501    0  0.00000000000E+00 -0.00000000000E+00 -0.31668712307E+03  0.31668712307E+03  0.00000000000E+00 0. -1.
         25    2    1    2    0    0  0.36718424498E+02 -0.96056620194E+02 -0.23354573957E+03  0.28419513389E+03  0.12509254443E+03 0.  0.
          5    1    3    3  502    0 -0.42531462618E+02 -0.23085891504E+02 -0.41184208837E+02  0.63682769698E+02  0.41800000000E+01 0. -1.
         -5    1    3    3    0  502  0.79249887116E+02 -0.72970728690E+02 -0.19236153073E+03  0.22051236419E+03  0.41800000000E+01 0. -1.
        -11    1    1    2    0    0 -0.52881889382E+02  0.43549045601E+02  0.46939584411E+02  0.83044194150E+02  0.00000000000E+00 0.  1.
         11    1    1    2    0    0  0.16163464884E+02  0.52507574593E+02 -0.20788209358E+02  0.58740553581E+02  0.00000000000E+00 0. -1.
</event>
<event>
 7    1  0.2878477E-009  0.1084362E+03  0.7561462E-02  0.1263493E+00
          1   -1    0    0  501    0  0.00000000000E+00  0.00000000000E+00  0.90900515613E+03  0.90900515613E+03  0.00000000000E+00 0. -1.
         -1   -1    0    0    0  501 -0.00000000000E+00 -0.00000000000E+00 -0.13908588900E+02  0.13908588900E+02  0.00000000000E+00 0.  1.
         25    2    1    2    0    0 -0.17208322787E+02  0.69762124983E+01  0.40404537879E+03  0.42337334997E+03  0.12509009325E+03 0.  0.
          5    1    3    3  502    0 -0.67548472014E+02  0.24643457411E+02  0.25662066931E+03  0.26653655731E+03  0.41800000000E+01 0.  1.
         -5    1    3    3    0  502  0.50340149227E+02 -0.17667244912E+02  0.14742470949E+03  0.15683679267E+03  0.41800000000E+01 0.  1.
        -11    1    1    2    0    0  0.30865529927E+01  0.41105475378E+02  0.24408302957E+03  0.24753931453E+03  0.00000000000E+00 0. -1.
         11    1    1    2    0    0  0.14121769794E+02 -0.48081687876E+02  0.24696815887E+03  0.25200108052E+03  0.00000000000E+00 0.  1.
</event>
<event>
 7    1  0.2878477E-009  0.1049449E+03  0.7561462E-02  0.1270228E+00
          2   -1    0    0  501    0  0.00000000000E+00  0.00000000000E+00  0.28181905608E+03  0.28181905608E+03  0.00000000000E+00 0. -1.
         -2   -1    0    0    0  501 -0.00000000000E+00 -0.00000000000E+00 -0.47823361943E+02  0.47823361943E+02  0.00000000000E+00 0.  1.
         25    2    1    2    0    0 -0.49083626340E+01  0.38558782129E+02  0.11824921864E+03  0.17646794433E+03  0.12508871238E+03 0.  0.
          5    1    3    3  502    0 -0.54122411645E+02  0.31499998307E+02  0.19316778276E+02  0.65666549008E+02  0.41800000000E+01 0. -1.
         -5    1    3    3    0  502  0.49214049011E+02  0.70587838224E+01  0.98932440365E+02  0.11080139532E+03  0.41800000000E+01 0. -1.
        -11    1    1    2    0    0  0.41487401060E+02 -0.43746304238E+02  0.52582341461E+02  0.79999038836E+02  0.00000000000E+00 0.  1.
         11    1    1    2    0    0 -0.36579038426E+02  0.51875221090E+01  0.63164134033E+02  0.73175434853E+02  0.00000000000E+00 0. -1.
</event>
<event>
 7    1  0.2878477E-009  0.3773377E+03  0.7561462E-02  0.1051922E+00
         -2   -1    0    0    0  501 -0.00000000000E+00  0.00000000000E+00  0.10107007351E+03  0.10107007351E+03  0.00000000000E+00 0.  1.
          2   -1    0    0  501    0  0.00000000000E+00 -0.00000000000E+00 -0.16288522622E+04  0.16288522622E+04  0.00000000000E+00 0. -1.
         25    2    1    2    0    0 -0.23970284243E+03 -0.28945820163E+03 -0.99910913838E+03  0.10747606575E+04  0.12509155610E+03 0.  0.
          5    1    3    3  502    0 -0.22945001767E+03 -0.27687209626E+03 -0.82658778798E+03  0.90142682006E+03  0.41800000000E+01 0.  1.
         -5    1    3    3    0  502 -0.10252824756E+02 -0.12586105372E+02 -0.17252135040E+03  0.17333383746E+03  0.41800000000E+01 0.  1.
        -11    1    1    2    0    0  0.14686535032E+03  0.20902894993E+03 -0.41767740537E+03  0.48960897458E+03  0.00000000000E+00 0. -1.
         11    1    1    2    0    0  0.92837492112E+02  0.80429251703E+02 -0.11099564493E+03  0.16555270358E+03  0.00000000000E+00 0.  1.
</event>
<event>
 7    1  0.2878477E-009  0.1530937E+03  0.7561462E-02  0.1196722E+00
         -1   -1    0    0    0  501 -0.00000000000E+00  0.00000000000E+00  0.11888354956E+03  0.11888354956E+03  0.00000000000E+00 0.  1.
          1   -1    0    0  501    0  0.00000000000E+00 -0.00000000000E+00 -0.37820718795E+03  0.37820718795E+03  0.00000000000E+00 0. -1.
         25    2    1    2    0    0  0.12383622099E+03  0.79308930104E+01  0.20826172502E+02  0.17742437340E+03  0.12508944849E+03 0.  0.
          5    1    3    3  502    0  0.12756433325E+03  0.44049982139E+02 -0.66776978115E+00  0.13502214026E+03  0.41800000000E+01 0.  1.
         -5    1    3    3    0  502 -0.37281122607E+01 -0.36119089129E+02  0.21493942283E+02  0.42402233142E+02  0.41800000000E+01 0.  1.
        -11    1    1    2    0    0 -0.71751465513E+02 -0.30356230537E+02 -0.23376138776E+03  0.24640243494E+03  0.00000000000E+00 0. -1.
         11    1    1    2    0    0 -0.52084755478E+02  0.22425337526E+02 -0.46388423125E+02  0.73263929163E+02  0.00000000000E+00 0.  1.
</event>
<event>
 7    1  0.2878477E-009  0.7800098E+02  0.7561462E-02  0.1334822E+00
         -2   -1    0    0    0  501 -0.00000000000E+00  0.00000000000E+00  0.21383691117E+02  0.21383691117E+02  0.00000000000E+00 0.  1.
          2   -1    0    0  501    0  0.00000000000E+00 -0.00000000000E+00 -0.69515898587E+03  0.69515898587E+03  0.00000000000E+00 0. -1.
         25    2    1    2    0    0 -0.30432401754E+02  0.37820461114E+02 -0.44473037381E+03  0.46453027035E+03  0.12508696306E+03 0.  0.
          5    1    3    3  502    0 -0.20057342090E+02 -0.44120806579E+01 -0.36280446651E+01  0.21269662328E+02  0.41800000000E+01 0.  1.
         -5    1    3    3    0  502 -0.10375059664E+02  0.42232541772E+02 -0.44110232914E+03  0.44326060802E+03  0.41800000000E+01 0.  1.
        -11    1    1    2    0    0  0.54604908220E+02 -0.39082136360E+02 -0.98303006740E+02  0.11904868970E+03  0.00000000000E+00 0.  1.
         11    1    1    2    0    0 -0.24172506465E+02  0.12616752455E+01 -0.13074191421E+03  0.13296371695E+03  0.00000000000E+00 0. -1.
</event>
<event>
 7    1  0.2878477E-009  0.1284523E+03  0.7561462E-02  0.1229770E+00
         -2   -1    0    0    0  501 -0.00000000000E+00  0.00000000000E+00  0.10248408584E+03  0.10248408584E+03  0.00000000000E+00 0.  1.
          2   -1    0    0  501    0  0.00000000000E+00 -0.00000000000E+00 -0.20364543650E+03  0.20364543650E+03  0.00000000000E+00 0. -1.
         25    2    1    2    0    0 -0.89372833226E+02 -0.13473747454E+02 -0.31198708021E+02  0.15744797282E+03  0.12508980604E+03 0.  0.
          5    1    3    3  502    0 -0.10215281407E+03 -0.35686018896E+02  0.10001676449E+02  0.10874831170E+03  0.41800000000E+01 0.  1.
         -5    1    3    3    0  502  0.12779980840E+02  0.22212271442E+02 -0.41200384470E+02  0.48699661121E+02  0.41800000000E+01 0.  1.
        -11    1    1    2    0    0  0.42230440361E+02 -0.35137043102E+02 -0.55374967051E+01  0.55214905241E+02  0.00000000000E+00 0.  1.
         11    1    1    2    0    0  0.47142392865E+02  0.48610790556E+02 -0.64425145928E+02  0.93466644271E+02  0.00000000000E+00 0. -1.
</event>
<event>
 6    1  0.2878477E-009  0.9795283E+02  0.7561462E-02  0.1284661E+00
          1   -1    0    0  501    0  0.00000000000E+00  0.00000000000E+00  0.80771242767E+03  0.80771242767E+03  0.00000000000E+00 0. -1.
         -1   -1    0    0    0  501 -0.00000000000E+00 -0.00000000000E+00 -0.22080569955E+02  0.22080569955E+02  0.00000000000E+00 0.  1.
          5    1    1    2  502    0 -0.43661159262E+02  0.44693914271E+01  0.38742755749E+03  0.38992801514E+03  0.41800000000E+01 0.  1.
         -5    1    1    2    0  502 -0.16379448481E+02 -0.54741859349E+02  0.68388776829E+02  0.89215776036E+02  0.41800000000E+01 0.  1.
        -11    1    1    2    0    0  0.24316690710E+02  0.53388744975E+02  0.29461785765E+03  0.30040196668E+03  0.00000000000E+00 0. -1.
         11    1    1    2    0    0  0.35723917033E+02 -0.31162770533E+01  0.35197665744E+02  0.50247239772E+02  0.00000000000E+00 0.  1.
</event>
<event>
 7    1  0.2878477E-009  0.1040832E+03  0.7561462E-02  0.1271936E+00
          1   -1    0    0  501    0  0.00000000000E+00  0.00000000000E+00  0.11199423235E+04  0.11199423235E+04  0.00000000000E+00 0. -1.
         -1   -1    0    0    0  501 -0.00000000000E+00 -0.00000000000E+00 -0.22065087890E+02  0.22065087890E+02  0.00000000000E+00 0.  1.
         25    2    1    2    0    0 -0.42373736250E+02 -0.14499926067E+02  0.96954412328E+03  0.97860545073E+03  0.12508812825E+03 0.  0.
          5    1    3    3  502    0 -0.23618543072E+01 -0.52683811649E+02  0.76018882026E+03  0.76202734676E+03  0.41800000000E+01 0.  1.
         -5    1    3    3    0  502 -0.40011881943E+02  0.38183885582E+02  0.20935530302E+03  0.21657810397E+03  0.41800000000E+01 0.  1.
        -11    1    1    2    0    0  0.46542354946E+02 -0.29824780207E+02  0.57678210731E+02  0.79890451942E+02  0.00000000000E+00 0.  1.
         11    1    1    2    0    0 -0.41686186960E+01  0.44324706274E+02  0.70654901572E+02  0.83511508693E+02  0.00000000000E+00 0. -1.
</event>
<event>
 7    1  0.2878477E-009  0.8383480E+02  0.7561462E-02  0.1318508E+00
          2   -1    0    0  501    0  0.00000000000E+00  0.00000000000E+00  0.14059028162E+03  0.14059028162E+03  0.00000000000E+00 0. -1.
         -2   -1    0    0    0  501 -0.00000000000E+00 -0.00000000000E+00 -0.86769848054E+02  0.86769848054E+02  0.00000000000E+00 0.  1.
         25    2    1    2    0    0  0.54722844835E+01  0.70986728805E+01  0.14575202904E+02  0.12626115168E+03  0.12509638216E+03 0.  0.
          5    1    3    3  502    0 -0.12485262071E+02 -0.35083471106E+02  0.53947482899E+02  0.65685120270E+02  0.41800000000E+01 0.  1.
         -5    1    3    3    0  502  0.17957546554E+02  0.42182143986E+02 -0.39372279995E+02  0.60576031411E+02  0.41800000000E+01 0.  1.
        -11    1    1    2    0    0 -0.38007846833E+02  0.18961949941E+02 -0.19126477706E+01  0.42518351190E+02  0.00000000000E+00 0.  1.
         11    1    1    2    0    0  0.32535562349E+02 -0.26060622822E+02  0.41157878430E+02  0.58580626798E+02  0.00000000000E+00 0. -1.
</event>
<event>
 7    1  0.2878477E-009  0.9094624E+02  0.7561462E-02  0.1300576E+00
         -1   -1    0    0    0  501 -0.00000000000E+00  0.00000000000E+00  0.13148964968E+03  0.13148964968E+03  0.00000000000E+00 0.  1.
          1   -1    0    0  501    0  0.00000000000E+00 -0.00000000000E+00 -0.70016805095E+02  0.70016805095E+02  0.00000000000E+00 0. -1.
         25    2    1    2    0    0  0.14277426804E+02 -0.25305716642E+02  0.48697694642E+02  0.13734600289E+03  0.12509290482E+03 0.  0.
          5    1    3    3  502    0 -0.33102850902E+02  0.36757055322E+02  0.12562337374E+02  0.51207075430E+02  0.41800000000E+01 0.  1.
         -5    1    3    3    0  502  0.47380277707E+02 -0.62062771964E+02  0.36135357268E+02  0.86138927462E+02  0.41800000000E+01 0.  1.
        -11    1    1    2    0    0  0.15422737447E+02  0.17544721684E+02  0.22018787020E+02  0.32101480825E+02  0.00000000000E+00 0.  1.
         11    1    1    2    0    0 -0.29700164251E+02  0.77609949580E+01 -0.92436370732E+01  0.32058971063E+02  0.00000000000E+00 0. -1.
</event>
<event>
 7    1  0.2878477E-009  0.1088229E+03  0.7561462E-02  0.1262765E+00
         -1   -1    0    0    0  501 -0.00000000000E+00  0.00000000000E+00  0.95417831745E+02  0.95417831745E+02  0.00000000000E+00 0.  1.
          1   -1    0    0  501    0  0.00000000000E+00 -0.00000000000E+00 -0.30862294029E+03  0.30862294029E+03  0.00000000000E+00 0. -1.
         25    2    1    2    0    0  0.87000092205E+02 -0.59844475696E+02 -0.20865227494E+03  0.26520490284E+03  0.12508993301E+03 0.  0.
          5    1    3    3  502    0  0.29149755874E+02 -0.40321592109E+02 -0.23154671531E+01  0.49983725810E+02  0.41800000000E+01 0. -1.
         -5    1    3    3    0  502  0.57850336330E+02 -0.19522883587E+02 -0.20633680778E+03  0.21522117703E+03  0.41800000000E+01 0. -1.
        -11    1    1    2    0    0 -0.29819668283E+02  0.12715717136E+02 -0.44186525228E+02  0.54802838344E+02  0.00000000000E+00 0.  1.
         11    1    1    2    0    0 -0.57180423921E+02  0.47128758560E+02  0.39633691615E+02  0.84033030852E+02  0.00000000000E+00 0. -1.
</event>
<event>
 7    1  0.2878477E-009  0.6707296E+02  0.7561462E-02  0.1370339E+00
          1   -1    0    0  501    0  0.00000000000E+00  0.00000000000E+00  0.26020654324E+03  0.26020654324E+03  0.00000000000E+00 0. -1.
         -1   -1    0    0    0  501 -0.00000000000E+00 -0.00000000000E+00 -0.48850380501E+02  0.48850380501E+02  0.00000000000E+00 0.  1.
         25    2    1    2    0    0  0.10859659940E+02  0.19559637905E+02  0.91691851675E+02  0.15670290809E+03  0.12509154285E+03 0.  0.
          5    1    3    3  502    0  0.30274364693E+02  0.22258166726E+02 -0.20312913743E+02  0.42919110059E+02  0.41800000000E+01 0.  1.
         -5    1    3    3    0  502 -0.19414704752E+02 -0.26985288217E+01  0.11200476542E+03  0.11378379803E+03  0.41800000000E+01 0.  1.
        -11    1    1    2    0    0  0.74038621366E+01 -0.44651500122E+02  0.22879852869E+02  0.50715493737E+02  0.00000000000E+00 0.  1.
         11    1    1    2    0    0 -0.18263522077E+02  0.25091862218E+02  0.96784458191E+02  0.10163852191E+03  0.00000000000E+00 0. -1.
</event>
<event>
 7    1  0.2878477E-009  0.6895562E+02  0.7561462E-02  0.1363681E+00
         -2   -1    0    0    0  501 -0.00000000000E+00  0.00000000000E+00  0.75737892150E+02  0.75737892150E+02  0.00000000000E+00 0. -1.
          2   -1    0    0  501    0  0.00000000000E+00 -0.00000000000E+00 -0.19788740115E+03  0.19788740115E+03  0.00000000000E+00 0.  1.
         25    2    1    2    0    0  0.44246146375E+02  0.43424609413E+01 -0.10852805543E+03  0.17148177129E+03  0.12510427904E+03 0.  0.
          5    1    3    3  502    0 -0.73332793947E+01  0.52627291257E+01 -0.11837878779E+03  0.11879597259E+03  0.41800000000E+01 0. -1.
         -5    1    3    3    0  502  0.51579425770E+02 -0.92026818441E+00  0.98507323657E+01  0.52685798698E+02  0.41800000000E+01 0. -1.
        -11    1    1    2    0    0  0.72942753154E+01 -0.20849068021E+02  0.26701981046E+02  0.34653800390E+02  0.00000000000E+00 0. -1.
         11    1    1    2    0    0 -0.51540421690E+02  0.16506607079E+02 -0.40323434623E+02  0.67489721625E+02  0.00000000000E+00 0.  1.
</event>
<event>
 7    1  0.2878477E-009  0.1066260E+03  0.7561462E-02  0.1266949E+00
         -1   -1    0    0    0  501 -0.00000000000E+00  0.00000000000E+00  0.40206982366E+03  0.40206982366E+03  0.00000000000E+00 0.  1.
          1   -1    0    0  501    0  0.00000000000E+00 -0.00000000000E+00 -0.41942739353E+02  0.41942739353E+02  0.00000000000E+00 0. -1.
         25    2    1    2    0    0  0.53928080687E+02  0.44758996023E+02  0.22112306448E+03  0.26354884352E+03  0.12510386750E+03 0.  0.
          5    1    3    3  502    0  0.64526643088E+02 -0.19182726870E+02  0.16294871591E+03  0.17635594998E+03  0.41800000000E+01 0.  1.
         -5    1    3    3    0  502 -0.10598562401E+02  0.63941722893E+02  0.58174348578E+02  0.87192893540E+02  0.41800000000E+01 0.  1.
        -11    1    1    2    0    0 -0.30697295491E+02 -0.48427554136E+02  0.14522678173E+03  0.15613574249E+03  0.00000000000E+00 0.  1.
         11    1    1    2    0    0 -0.23230785196E+02  0.36685581122E+01 -0.62227619060E+01  0.24327977006E+02  0.00000000000E+00 0. -1.
</event>
<event>
 7    1  0.2878477E-009  0.8257433E+02  0.7561462E-02  0.1321901E+00
         -1   -1    0    0    0  501 -0.00000000000E+00  0.00000000000E+00  0.36328589888E+02  0.36328589888E+02  0.00000000000E+00 0.  1.
          1   -1    0    0  501    0  0.00000000000E+00 -0.00000000000E+00 -0.42129959083E+03  0.42129959083E+03  0.00000000000E+00 0. -1.
         25    2    1    2    0    0  0.22786593275E+02 -0.38030623425E+02 -0.28267908894E+03  0.31228300431E+03  0.12509056839E+03 0.  0.
          5    1    3    3  502    0  0.22898601185E+02  0.33225691789E+02 -0.32088057619E+02  0.51724349902E+02  0.41800000000E+01 0.  1.
         -5    1    3    3    0  502 -0.11200790924E+00 -0.71256315214E+02 -0.25059103133E+03  0.26055865440E+03  0.41800000000E+01 0.  1.
        -11    1    1    2    0    0  0.31639745631E+01  0.22991678806E+02 -0.11156314621E+03  0.11395158455E+03  0.00000000000E+00 0. -1.
         11    1    1    2    0    0 -0.25950567839E+02  0.15038944618E+02  0.92712342101E+01  0.31393591864E+02  0.00000000000E+00 0.  1.
</event>
<event>
 7    1  0.2878477E-009  0.1016682E+03  0.7561462E-02  0.1276827E+00
          1   -1    0    0  501    0  0.00000000000E+00  0.00000000000E+00  0.15034142230E+04  0.15034142230E+04  0.00000000000E+00 0. -1.
         -1   -1    0    0    0  501 -0.00000000000E+00 -0.00000000000E+00 -0.87393996461E+01  0.87393996461E+01  0.00000000000E+00 0.  1.
         25    2    1    2    0    0  0.24916987232E+02  0.18634130742E+00  0.10440117938E+04  0.10517741434E+04  0.12508929659E+03 0.  0.
          5    1    3    3  502    0  0.66382424694E+02 -0.12570174630E+02  0.86047246256E+03  0.86313090944E+03  0.41800000000E+01 0. -1.
         -5    1    3    3    0  502 -0.41465437462E+02  0.12756515938E+02  0.18353933128E+03  0.18864323399E+03  0.41800000000E+01 0. -1.
        -11    1    1    2    0    0  0.33502741851E+02 -0.24950429152E+01  0.12124247316E+03  0.12581095440E+03  0.00000000000E+00 0. -1.
         11    1    1    2    0    0 -0.58419729082E+02  0.23087016078E+01  0.32942055634E+03  0.33456852480E+03  0.00000000000E+00 0.  1.
</event>
<event>
 6    1  0.2878477E-009  0.1395932E+03  0.7561462E-02  0.1213877E+00
          1   -1    0    0  501    0  0.00000000000E+00  0.00000000000E+00  0.26378879965E+03  0.26378879965E+03  0.00000000000E+00 0. -1.
         -1   -1    0    0    0  501 -0.00000000000E+00 -0.00000000000E+00 -0.84834930132E+02  0.84834930132E+02  0.00000000000E+00 0.  1.
          5    1    1    2  502    0 -0.30674268513E+02 -0.34182610352E+02  0.79986832729E+02  0.92329450390E+02  0.41800000000E+01 0. -1.
         -5    1    1    2    0  502 -0.57355971037E+02  0.82924417313E+02  0.41861612502E+02  0.10925215513E+03  0.41800000000E+01 0. -1.
        -11    1    1    2    0    0  0.49228173944E+02 -0.71772413019E+02  0.52606365144E+02  0.10169622429E+03  0.00000000000E+00 0.  1.
         11    1    1    2    0    0  0.38802065606E+02  0.23030606059E+02  0.44990591382E+01  0.45345899967E+02  0.00000000000E+00 0. -1.
</event>
<event>
 7    1  0.2878477E-009  0.2200451E+03  0.7561462E-02  0.1133849E+00
          1   -1    0    0  501    0  0.00000000000E+00  0.00000000000E+00  0.61216969649E+03  0.61216969649E+03  0.00000000000E+00 0. -1.
         -1   -1    0    0    0  501 -0.00000000000E+00 -0.00000000000E+00 -0.99829370738E+02  0.99829370738E+02  0.00000000000E+00 0.  1.
         25    2    1    2    0    0 -0.10405890647E+03  0.18162784486E+03  0.16040419546E+03  0.29188867526E+03  0.12511020256E+03 0.  0.
          5    1    3    3  502    0 -0.34496210282E+01  0.33239910922E+02 -0.18629805291E+02  0.38488096972E+02  0.41800000000E+01 0.  1.
         -5    1    3    3    0  502 -0.10060928544E+03  0.14838793394E+03  0.17903400075E+03  0.25340057829E+03  0.41800000000E+01 0.  1.
        -11    1    1    2    0    0  0.98524259845E+02 -0.84498829642E+02  0.17104250347E+03  0.21471520668E+03  0.00000000000E+00 0.  1.
         11    1    1    2    0    0  0.55346466204E+01 -0.97129015216E+02  0.18089362683E+03  0.20539518528E+03  0.00000000000E+00 0. -1.
</event>
<event>
 7    1  0.2878477E-009  0.9348157E+02  0.7561462E-02  0.1294633E+00
          1   -1    0    0  501    0  0.00000000000E+00  0.00000000000E+00  0.27639603680E+03  0.27639603680E+03  0.00000000000E+00 0. -1.
         -1   -1    0    0    0  501 -0.00000000000E+00 -0.00000000000E+00 -0.67428651402E+02  0.67428651402E+02  0.00000000000E+00 0.  1.
         25    2    1    2    0    0 -0.39388328076E+02 -0.68955140557E+02  0.10677029500E+03  0.18262981256E+03  0.12508997059E+03 0.  0.
          5    1    3    3  502    0 -0.42244413468E+02 -0.71588364011E+02  0.13239236782E+03  0.15637997247E+03  0.41800000000E+01 0. -1.
         -5    1    3    3    0  502  0.28560853923E+01  0.26332234540E+01 -0.25622072817E+02  0.26249840094E+02  0.41800000000E+01 0. -1.
        -11    1    1    2    0    0 -0.70357680104E+01  0.45452879051E+02  0.98881601217E+02  0.10905520302E+03  0.00000000000E+00 0.  1.
         11    1    1    2    0    0  0.46424096086E+02  0.23502261505E+02  0.33154891776E+01  0.52139672628E+02  0.00000000000E+00 0. -1.
</event>
<event>
 7    1  0.2878477E-009  0.8607636E+02  0.7561462E-02  0.1312641E+00
          2   -1    0    0  501    0  0.00000000000E+00  0.00000000000E+00  0.67939456313E+02  0.67939456313E+02  0.00000000000E+00 0. -1.
         -2   -1    0    0    0  501 -0.00000000000E+00 -0.00000000000E+00 -0.27709745736E+03  0.27709745736E+03  0.00000000000E+00 0.  1.
         25    2    1    2    0    0  0.33856253099E+02 -0.24506009819E+02 -0.20549005029E+03  0.24418761526E+03  0.12511850498E+03 0.  0.
          5    1    3    3  502    0  0.52028726855E+02 -0.21293780138E+02 -0.21552093472E+03  0.22277154036E+03  0.41800000000E+01 0.  1.
         -5    1    3    3    0  502 -0.18172473756E+02 -0.32122296811E+01  0.10030884429E+02  0.21416074905E+02  0.41800000000E+01 0.  1.
        -11    1    1    2    0    0 -0.21362927111E+02  0.57627049659E+02 -0.15749813804E+02  0.63445316155E+02  0.00000000000E+00 0.  1.
         11    1    1    2    0    0 -0.12493325988E+02 -0.33121039840E+02  0.12081863042E+02  0.37403982260E+02  0.00000000000E+00 0. -1.
</event>
<event>
 7    1  0.2878477E-009  0.1265879E+03  0.7561462E-02  0.1232608E+00
          1   -1    0    0  501    0  0.00000000000E+00  0.00000000000E+00  0.24055665291E+03  0.24055665291E+03  0.00000000000E+00 0. -1.
         -1   -1    0    0    0  501 -0.00000000000E+00 -0.00000000000E+00 -0.92928998527E+02  0.92928998527E+02  0.00000000000E+00 0.  1.
         25    2    1    2    0    0  0.91383655303E+02  0.31648717889E+02  0.11468355251E+03  0.19532642285E+03  0.12508988946E+03 0.  0.
          5    1    3    3  502    0  0.10402717298E+03  0.27807822708E+02  0.13374690316E+03  0.17175748666E+03  0.41800000000E+01 0.  1.
         -5    1    3    3    0  502 -0.12643517673E+02  0.38408951814E+01 -0.19063350644E+02  0.23568936182E+02  0.41800000000E+01 0.  1.
        -11    1    1    2    0    0 -0.47275177878E+02 -0.62033597581E+02  0.32766944465E+02  0.84597767830E+02  0.00000000000E+00 0. -1.
         11    1    1    2    0    0 -0.44108477425E+02  0.30384879692E+02  0.17715741041E+00  0.53561460766E+02  0.00000000000E+00 0.  1.
</event>
<event>
 7    1  0.2878477E-009  0.1278959E+03  0.7561462E-02  0.1230612E+00
          2   -1    0    0  501    0  0.00000000000E+00  0.00000000000E+00  0.54918721113E+03  0.54918721113E+03  0.00000000000E+00 0. -1.
         -2   -1    0    0    0  501 -0.00000000000E+00 -0.00000000000E+00 -0.65235764607E+02  0.65235764607E+02  0.00000000000E+00 0.  1.
         25    2    1    2    0    0 -0.52286942794E+02  0.78284248967E+02  0.45418163128E+03  0.48040688926E+03  0.12508987583E+03 0.  0.
          5    1    3    3  502    0 -0.80241542386E+02  0.49297993092E+02  0.17940706306E+03  0.20266564564E+03  0.41800000000E+01 0.  1.
         -5    1    3    3    0  502  0.27954599591E+02  0.28986255874E+02  0.27477456821E+03  0.27774124362E+03  0.41800000000E+01 0.  1.
        -11    1    1    2    0    0  0.57166817433E+02 -0.17114846059E+02 -0.10539072675E+02  0.60597318619E+02  0.00000000000E+00 0. -1.
         11    1    1    2    0    0 -0.48798746381E+01 -0.61169402908E+02  0.40308887923E+02  0.73418767860E+02  0.00000000000E+00 0.  1.
</event>
<event>
 7    1  0.2878477E-009  0.9605123E+02  0.7561462E-02  0.1288826E+00
          2   -1    0    0  501    0  0.00000000000E+00  0.00000000000E+00  0.49406008024E+03  0.49406008024E+03  0.00000000000E+00 0. -1.
         -2   -1    0    0    0  501 -0.00000000000E+00 -0.00000000000E+00 -0.33961578327E+02  0.33961578327E+02  0.00000000000E+00 0.  1.
         25    2    1    2    0    0  0.32295608755E+02  0.48871777658E+02  0.33931520191E+03  0.36635235153E+03  0.12509109570E+03 0.  0.
          5    1    3    3  502    0  0.77547749285E+01 -0.33298293866E+02  0.19819659984E+03  0.20116728734E+03  0.41800000000E+01 0. -1.
         -5    1    3    3    0  502  0.24540833826E+02  0.82170071523E+02  0.14111860207E+03  0.16518506419E+03  0.41800000000E+01 0. -1.
        -11    1    1    2    0    0  0.78019510954E+01 -0.22483280047E+02  0.10990268736E+03  0.11244985110E+03  0.00000000000E+00 0. -1.
         11    1    1    2    0    0 -0.40097559850E+02 -0.26388497610E+02  0.10880612643E+02  0.49219455945E+02  0.00000000000E+00 0.  1.
</event>
<event>
 7    1  0.2878477E-009  0.1168656E+03  0.7561462E-02  0.1248359E+00
          2   -1    0    0  501    0  0.00000000000E+00  0.00000000000E+00  0.14533083169E+03  0.14533083169E+03  0.00000000000E+00 0. -1.
         -2   -1    0    0    0  501 -0.00000000000E+00 -0.00000000000E+00 -0.16343307057E+03  0.16343307057E+03  0.00000000000E+00 0.  1.
         25    2    1    2    0    0 -0.21663221980E+01 -0.54464798249E+02 -0.10751256630E+03  0.17371600458E+03  0.12508873304E+03 0.  0.
          5    1    3    3  502    0  0.30439697348E+02 -0.83314270872E+02 -0.51507942247E+02  0.10265662872E+03  0.41800000000E+01 0.  1.
         -5    1    3    3    0  502 -0.32606019546E+02  0.28849472623E+02 -0.56004624057E+02  0.71059375856E+02  0.41800000000E+01 0.  1.
        -11    1    1    2    0    0  0.40362503934E+02  0.81769939449E+01  0.37578763339E+02  0.55750860154E+02  0.00000000000E+00 0.  1.
         11    1    1    2    0    0 -0.38196181736E+02  0.46287804304E+02  0.51831564079E+02  0.79297037532E+02  0.00000000000E+00 0. -1.
</event>
<event>
 7    1  0.2878477E-009  0.5862674E+02  0.7561462E-02  0.1403687E+00
         -1   -1    0    0    0  501 -0.00000000000E+00  0.00000000000E+00  0.99356243169E+02  0.99356243169E+02  0.00000000000E+00 0.  1.
          1   -1    0    0  501    0  0.00000000000E+00 -0.00000000000E+00 -0.13216315096E+03  0.13216315096E+03  0.00000000000E+00 0. -1.
         25    2    1    2    0    0 -0.28182186457E+02  0.11310416066E+02  0.53292110632E+01  0.12883152976E+03  0.12508797474E+03 0.  0.
          5    1    3    3  502    0 -0.93449763478E+01  0.40625471990E+02  0.54299901222E+02  0.68583593009E+02  0.41800000000E+01 0.  1.
         -5    1    3    3    0  502 -0.18837210109E+02 -0.29315055924E+02 -0.48970690159E+02  0.60247936754E+02  0.41800000000E+01 0.  1.
        -11    1    1    2    0    0  0.29361980551E+02 -0.47770795725E+00  0.25031868655E+02  0.38586896158E+02  0.00000000000E+00 0.  1.
         11    1    1    2    0    0 -0.11797940933E+01 -0.10832708109E+02 -0.63167987505E+02  0.64100968203E+02  0.00000000000E+00 0. -1.
</event>
<event>
 7    1  0.2878477E-009  0.1085668E+03  0.7561462E-02  0.1263247E+00
         -2   -1    0    0    0  501 -0.00000000000E+00  0.00000000000E+00  0.68186061036E+02  0.68186061036E+02  0.00000000000E+00 0. -1.
          2   -1    0    0  501    0  0.00000000000E+00 -0.00000000000E+00 -0.19092659223E+03  0.19092659223E+03  0.00000000000E+00 0.  1.
         25    2    1    2    0    0 -0.30083898000E+02 -0.23294948815E+02 -0.55066814770E+02  0.14187457571E+03  0.12509334748E+03 0.  0.
          5    1    3    3  502    0  0.30563515618E+02 -0.46983279783E+02 -0.51981937224E+02  0.76558156088E+02  0.41800000000E+01 0.  1.
         -5    1    3    3    0  502 -0.60647413618E+02  0.23688330968E+02 -0.30848775464E+01  0.65316419620E+02  0.41800000000E+01 0.  1.
        -11    1    1    2    0    0  0.14168957602E+01  0.53802881262E+02 -0.36192889605E+02  0.64858946057E+02  0.00000000000E+00 0.  1.
         11    1    1    2    0    0  0.28667002240E+02 -0.30507932447E+02 -0.31480826822E+02  0.52379131503E+02  0.00000000000E+00 0. -1.
</event>
<event>
 7    1  0.2878477E-009  0.1201453E+03  0.7561462E-02  0.1242858E+00
         -3   -1    0    0    0  501 -0.00000000000E+00  0.00000000000E+00  0.12701419314E+03  0.12701419314E+03  0.00000000000E+00 0.  1.
          3   -1    0    0  501    0  0.00000000000E+00 -0.00000000000E+00 -0.18127595256E+03  0.18127595256E+03  0.00000000000E+00 0. -1.
         25    2    1    2    0    0 -0.21484464093E+02 -0.10021104828E+03  0.51777001544E+00  0.16171731208E+03  0.12509350321E+03 0.  0.
          5    1    3    3  502    0  0.20911899626E+02 -0.77062935272E+02  0.48488077314E+02  0.93512403350E+02  0.41800000000E+01 0. -1.
         -5    1    3    3    0  502 -0.42396363720E+02 -0.23148113007E+02 -0.47970307298E+02  0.68204908729E+02  0.41800000000E+01 0. -1.
        -11    1    1    2    0    0  0.34443894211E+02  0.55717696198E+02  0.10680160113E+02  0.66369491019E+02  0.00000000000E+00 0.  1.
         11    1    1    2    0    0 -0.12959430117E+02  0.44493352081E+02 -0.65459689547E+02  0.80203342598E+02  0.00000000000E+00 0. -1.
</event>
<event>
 7    1  0.2878477E-009  0.1120999E+03  0.7561462E-02  0.1256730E+00
          2   -1    0    0  501    0  0.00000000000E+00  0.00000000000E+00  0.53381611712E+03  0.53381611712E+03  0.00000000000E+00 0. -1.
         -2   -1    0    0    0  501 -0.00000000000E+00 -0.00000000000E+00 -0.34082651150E+02  0.34082651150E+02  0.00000000000E+00 0.  1.
         25    2    1    2    0    0  0.66943763778E+02  0.25818783553E+02  0.34676542637E+03  0.37555936133E+03  0.12510194189E+03 0.  0.
          5    1    3    3  502    0 -0.29582951752E+02  0.32000591196E+02  0.15011703421E+03  0.15637066614E+03  0.41800000000E+01 0.  1.
         -5    1    3    3    0  502  0.96526715530E+02 -0.61818076426E+01  0.19664839216E+03  0.21918869518E+03  0.41800000000E+01 0.  1.
        -11    1    1    2    0    0 -0.22610000923E+02 -0.31642837519E+02  0.14069483843E+03  0.14597095214E+03  0.00000000000E+00 0. -1.
         11    1    1    2    0    0 -0.44333762855E+02  0.58240539656E+01  0.12273201169E+02  0.46368454798E+02  0.00000000000E+00 0.  1.
</event>
<event>
 7    1  0.2878477E-009  0.1867662E+03  0.7561462E-02  0.1161411E+00
         -1   -1    0    0    0  501 -0.00000000000E+00  0.00000000000E+00  0.81186985191E+02  0.81186985191E+02  0.00000000000E+00 0.  1.
          1   -1    0    0  501    0  0.00000000000E+00 -0.00000000000E+00 -0.50969877520E+03  0.50969877520E+03  0.00000000000E+00 0. -1.
         25    2    1    2    0    0  0.33168572365E+02 -0.16649086098E+03 -0.26985793323E+03  0.34247568644E+03  0.12508769202E+03 0.  0.
          5    1    3    3  502    0  0.41633781030E+00 -0.14084291250E+03 -0.26532802981E+03  0.30042192853E+03  0.41800000000E+01 0. -1.
         -5    1    3    3    0  502  0.32752234555E+02 -0.25647948479E+02 -0.45299034192E+01  0.42053757912E+02  0.41800000000E+01 0. -1.
        -11    1    1    2    0    0  0.29995695178E+02  0.57160925812E+02 -0.46882005961E+02  0.79781173543E+02  0.00000000000E+00 0. -1.
         11    1    1    2    0    0 -0.63164267543E+02  0.10932993516E+03 -0.11177185082E+03  0.16862890041E+03  0.00000000000E+00 0.  1.
</event>
<event>
 7    1  0.2878477E-009  0.9190428E+02  0.7561462E-02  0.1298305E+00
          1   -1    0    0  501    0  0.00000000000E+00  0.00000000000E+00  0.61982985412E+03  0.61982985412E+03  0.00000000000E+00 0. -1.
         -1   -1    0    0    0  501 -0.00000000000E+00 -0.00000000000E+00 -0.27497956217E+02  0.27497956217E+02  0.00000000000E+00 0.  1.
         25    2    1    2    0    0 -0.48483647419E+02  0.46461550131E+02  0.26100347312E+03  0.29711455938E+03  0.12507960947E+03 0.  0.
          5    1    3    3  502    0 -0.59971915522E+02  0.13501580459E+02  0.40288728070E+02  0.73617778666E+02  0.41800000000E+01 0. -1.
         -5    1    3    3    0  502  0.11488268103E+02  0.32959969673E+02  0.22071474505E+03  0.22349678071E+03  0.41800000000E+01 0. -1.
        -11    1    1    2    0    0  0.61035751154E+02 -0.37896307615E+02  0.32643711043E+03  0.33424942800E+03  0.00000000000E+00 0. -1.
         11    1    1    2    0    0 -0.12552103735E+02 -0.85652425166E+01  0.48913143525E+01  0.15963822965E+02  0.00000000000E+00 0.  1.
</event>
<event>
 7    1  0.2878477E-009  0.1772198E+03  0.7561462E-02  0.1170521E+00
          2   -1    0    0  501    0  0.00000000000E+00  0.00000000000E+00  0.23522762983E+03  0.23522762983E+03  0.00000000000E+00 0. -1.
         -2   -1    0    0    0  501 -0.00000000000E+00 -0.00000000000E+00 -0.15746419635E+03  0.15746419635E+03  0.00000000000E+00 0.  1.
         25    2    1    2    0    0 -0.31504347577E+02 -0.15398345335E+03  0.22658764761E+02  0.20214942115E+03  0.12509013163E+03 0.  0.
          5    1    3    3  502    0  0.11884727069E+02  0.85240611581E+01  0.30108150075E+02  0.33732468885E+02  0.41800000000E+01 0.  1.
         -5    1    3    3    0  502 -0.43389074646E+02 -0.16250751451E+03 -0.74493853132E+01  0.16841695227E+03  0.41800000000E+01 0.  1.
        -11    1    1    2    0    0  0.47275194212E+02  0.63701374350E+02  0.58918405094E+02  0.98813903580E+02  0.00000000000E+00 0. -1.
         11    1    1    2    0    0 -0.15770846636E+02  0.90282079001E+02 -0.38137363816E+01  0.91728501446E+02  0.00000000000E+00 0.  1.
</event>
<event>
 7    1  0.2878477E-009  0.8087168E+02  0.7561462E-02  0.1326596E+00
          4   -1    0    0  501    0  0.00000000000E+00  0.00000000000E+00  0.51691657877E+03  0.51691657877E+03  0.00000000000E+00 0.  1.
         -4   -1    0    0    0  501 -0.00000000000E+00 -0.00000000000E+00 -0.37265181513E+02  0.37265181513E+02  0.00000000000E+00 0. -1.
         25    2    1    2    0    0 -0.16920224329E+02  0.59708638730E+02  0.37208060281E+03  0.39742039022E+03  0.12509027160E+03 0.  0.
          5    1    3    3  502    0 -0.86751852079E+00 -0.83066575235E+01 -0.71623737600E+01  0.11769670576E+02  0.41800000000E+01 0. -1.
         -5    1    3    3    0  502 -0.16052705808E+02  0.68015296254E+02  0.37924297657E+03  0.38565071965E+03  0.41800000000E+01 0. -1.
        -11    1    1    2    0    0  0.36847343134E+02 -0.38270264684E+02  0.11490089339E+03  0.12658813198E+03  0.00000000000E+00 0.  1.
         11    1    1    2    0    0 -0.19927118806E+02 -0.21438374047E+02 -0.73300989458E+01  0.30173238080E+02  0.00000000000E+00 0. -1.
</event>
<event>
 7    1  0.2878477E-009  0.8286446E+02  0.7561462E-02  0.1321114E+00
          4   -1    0    0  501    0  0.00000000000E+00  0.00000000000E+00  0.27773590989E+03  0.27773590989E+03  0.00000000000E+00 0. -1.
         -4   -1    0    0    0  501 -0.00000000000E+00 -0.00000000000E+00 -0.45353655389E+02  0.45353655389E+02  0.00000000000E+00 0.  1.
         25    2    1    2    0    0  0.20769476108E+02 -0.87353328505E+01  0.12491505622E+03  0.17821302545E+03  0.12509370086E+03 0.  0.
          5    1    3    3  502    0  0.14181855037E+02  0.50474110938E+02  0.17711770591E+02  0.55497208080E+02  0.41800000000E+01 0. -1.
         -5    1    3    3    0  502  0.65876210707E+01 -0.59209443788E+02  0.10720328562E+03  0.12271581737E+03  0.41800000000E+01 0. -1.
        -11    1    1    2    0    0  0.41136203576E+01 -0.17073515517E+02 -0.11255272568E+02  0.20859241720E+02  0.00000000000E+00 0.  1.
         11    1    1    2    0    0 -0.24883096465E+02  0.25808848368E+02  0.11872247085E+03  0.12401729810E+03  0.00000000000E+00 0. -1.
</event>
<event>
 7    1  0.2878477E-009  0.1218553E+03  0.7561462E-02  0.1240067E+00
          2   -1    0    0  501    0  0.00000000000E+00  0.00000000000E+00  0.22261620235E+03  0.22261620235E+03  0.00000000000E+00 0. -1.
         -2   -1    0    0    0  501 -0.00000000000E+00 -0.00000000000E+00 -0.11258154266E+03  0.11258154266E+03  0.00000000000E+00 0.  1.
         25    2    1    2    0    0  0.59141627830E+02  0.13553358412E+01  0.16436393127E+03  0.21485615237E+03  0.12509234681E+03 0.  0.
          5    1    3    3  502    0  0.73222237624E+02  0.48273130999E+02  0.90210371326E+02  0.12588556213E+03  0.41800000000E+01 0.  1.
         -5    1    3    3    0  502 -0.14080609794E+02 -0.46917795158E+02  0.74153559943E+02  0.88970590236E+02  0.41800000000E+01 0.  1.
        -11    1    1    2    0    0 -0.49852486044E+02 -0.41917143476E+02 -0.39454576328E+02  0.76151039882E+02  0.00000000000E+00 0. -1.
         11    1    1    2    0    0 -0.92891417866E+01  0.40561807635E+02 -0.14874695259E+02  0.44190552755E+02  0.00000000000E+00 0.  1.
</event>
<event>
 7    1  0.2878477E-009  0.1077144E+03  0.7561462E-02  0.1264862E+00
         -2   -1    0    0    0  501 -0.00000000000E+00  0.00000000000E+00  0.72349236880E+02  0.72349236880E+02  0.00000000000E+00 0.  1.
          2   -1    0    0  501    0  0.00000000000E+00 -0.00000000000E+00 -0.20711045441E+03  0.20711045441E+03  0.00000000000E+00 0. -1.
         25    2    1    2    0    0 -0.46557105078E+02 -0.35147769326E+02 -0.84987370664E+02  0.16208884663E+03  0.12508801425E+03 0.  0.
          5    1    3    3  502    0 -0.42777247014E+02  0.38419730545E+02 -0.62335979943E+02  0.84907098364E+02  0.41800000000E+01 0.  1.
         -5    1    3    3    0  502 -0.37798580650E+01 -0.73567499871E+02 -0.22651390721E+02  0.77181748269E+02  0.41800000000E+01 0.  1.
        -11    1    1    2    0    0  0.45622230419E+02 -0.31091779257E+01  0.96076449737E+01  0.46726456507E+02  0.00000000000E+00 0.  1.
         11    1    1    2    0    0  0.93487465933E+00  0.38256947252E+02 -0.59381491835E+02  0.70644388144E+02  0.00000000000E+00 0. -1.
</event>
<event>
 7    1  0.2878477E-009  0.1616075E+03  0.7561462E-02  0.1186894E+00
         -1   -1    0    0    0  501 -0.00000000000E+00  0.00000000000E+00  0.87242571293E+02  0.87242571293E+02  0.00000000000E+00 0.  1.
          1   -1    0    0  501    0  0.00000000000E+00 -0.00000000000E+00 -0.31547910981E+03  0.31547910981E+03  0.00000000000E+00 0. -1.
         25    2    1    2    0    0 -0.12282996709E+03  0.16733388376E+02 -0.14335252125E+03  0.22708016325E+03  0.12509295781E+03 0.  0.
          5    1    3    3  502    0 -0.29167330104E+02 -0.51916341792E+02 -0.54014868939E+02  0.80505392098E+02  0.41800000000E+01 0.  1.
         -5    1    3    3    0  502 -0.93662636986E+02  0.68649730168E+02 -0.89337652309E+02  0.14657477116E+03  0.41800000000E+01 0.  1.
        -11    1    1    2    0    0  0.70648426256E+02 -0.48989023599E+02 -0.24109436259E+02  0.89288238209E+02  0.00000000000E+00 0.  1.
         11    1    1    2    0    0  0.52181540833E+02  0.32255635224E+02 -0.60774581006E+02  0.86353279636E+02  0.00000000000E+00 0. -1.
</event>
<event>
 7    1  0.2878477E-009  0.9554462E+02  0.7561462E-02  0.1289954E+00
          2   -1    0    0  501    0  0.00000000000E+00  0.00000000000E+00  0.59758221683E+03  0.59758221683E+03  0.00000000000E+00 0. -1.
         -2   -1    0    0    0  501 -0.00000000000E+00 -0.00000000000E+00 -0.23744110175E+02  0.23744110175E+02  0.00000000000E+00 0.  1.
         25    2    1    2    0    0 -0.70384809133E+02  0.11460860809E+02  0.39208499275E+03  0.41769063121E+03  0.12509775847E+03 0.  0.
          5    1    3    3  502    0 -0.88725350050E+01 -0.29706938660E+02  0.28915212073E+03  0.29083955268E+03  0.41800000000E+01 0.  1.
         -5    1    3    3    0  502 -0.61512274128E+02  0.41167799469E+02  0.10293287202E+03  0.12685107853E+03  0.41800000000E+01 0.  1.
        -11    1    1    2    0    0  0.50714825456E+02 -0.29762072027E+02  0.85976371329E+02  0.10416194545E+03  0.00000000000E+00 0.  1.
         11    1    1    2    0    0  0.19669983677E+02  0.18301211218E+02  0.95776742575E+02  0.99473750348E+02  0.00000000000E+00 0. -1.
</event>
<event>
 7    1  0.2878477E-009  0.9656100E+02  0.7561462E-02  0.1287699E+00
          1   -1    0    0  501    0  0.00000000000E+00  0.00000000000E+00  0.13058461285E+03  0.13058461285E+03  0.00000000000E+00 0. -1.
         -1   -1    0    0    0  501 -0.00000000000E+00 -0.00000000000E+00 -0.10140682034E+03  0.10140682034E+03  0.00000000000E+00 0.  1.
         25    2    1    2    0    0 -0.32258145472E+02  0.17608593509E+02  0.25146514430E+02  0.13278136466E+03  0.12509153887E+03 0.  0.
          5    1    3    3  502    0 -0.79493918392E+02  0.19006429351E+02  0.24149473832E+02  0.85329929710E+02  0.41800000000E+01 0.  1.
         -5    1    3    3    0  502  0.47235772920E+02 -0.13978358422E+01  0.99704059808E+00  0.47451434945E+02  0.41800000000E+01 0.  1.
        -11    1    1    2    0    0  0.46761697237E+02 -0.11891184978E+02 -0.33386400490E+02  0.58674597113E+02  0.00000000000E+00 0.  1.
         11    1    1    2    0    0 -0.14503551765E+02 -0.57174085306E+01  0.37417678563E+02  0.40535471419E+02  0.00000000000E+00 0. -1.
</event>
<event>
 7    1  0.2878477E-009  0.1323857E+03  0.7561462E-02  0.1223958E+00
          1   -1    0    0  501    0  0.00000000000E+00  0.00000000000E+00  0.64609996512E+03  0.64609996512E+03  0.00000000000E+00 0. -1.
         -1   -1    0    0    0  501 -0.00000000000E+00 -0.00000000000E+00 -0.28863384299E+02  0.28863384299E+02  0.00000000000E+00 0.  1.
         25    2    1    2    0    0 -0.38863175259E+02  0.68276377879E+02  0.38826137451E+03  0.41540905071E+03  0.12508306965E+03 0.  0.
          5    1    3    3  502    0 -0.73920945014E+02  0.80450977672E+02  0.26673379727E+03  0.28827253932E+03  0.41800000000E+01 0. -1.
         -5    1    3    3    0  502  0.35057769755E+02 -0.12174599792E+02  0.12152757723E+03  0.12713651139E+03  0.41800000000E+01 0. -1.
        -11    1    1    2    0    0  0.44222527420E+01  0.21491683878E+02  0.20736246252E+02  0.30190076248E+02  0.00000000000E+00 0. -1.
         11    1    1    2    0    0  0.34440922517E+02 -0.89768061757E+02  0.20823896006E+03  0.22936422245E+03  0.00000000000E+00 0.  1.
</event>
<event>
 7    1  0.2878477E-009  0.9872235E+02  0.7561462E-02  0.1283006E+00
          1   -1    0    0  501    0  0.00000000000E+00  0.00000000000E+00  0.21531221042E+03  0.21531221042E+03  0.00000000000E+00 0. -1.
         -1   -1    0    0    0  501 -0.00000000000E+00 -0.00000000000E+00 -0.65995628718E+02  0.65995628718E+02  0.00000000000E+00 0.  1.
         25    2    1    2    0    0 -0.92239860463E+01 -0.19324074310E+02  0.29798245280E+02  0.13035863877E+03  0.12508771927E+03 0.  0.
          5    1    3    3  502    0 -0.31860832277E+01  0.48259038674E+02  0.38318987632E+02  0.61845801419E+02  0.41800000000E+01 0.  1.
         -5    1    3    3    0  502 -0.60379028186E+01 -0.67583112984E+02 -0.85207423516E+01  0.68512837346E+02  0.41800000000E+01 0.  1.
        -11    1    1    2    0    0 -0.21637217813E+02  0.38800877740E+02  0.28229352201E+02  0.52636238789E+02  0.00000000000E+00 0.  1.
         11    1    1    2    0    0  0.30861203859E+02 -0.19476803430E+02  0.91288984217E+02  0.98312961582E+02  0.00000000000E+00 0. -1.
</event>
<event>
 7    1  0.2878477E-009  0.8000904E+02  0.7561462E-02  0.1329026E+00
          2   -1    0    0  501    0  0.00000000000E+00  0.00000000000E+00  0.94215599767E+02  0.94215599767E+02  0.00000000000E+00 0.  1.
         -2   -1    0    0    0  501 -0.00000000000E+00 -0.00000000000E+00 -0.15573290489E+03  0.15573290489E+03  0.00000000000E+00 0. -1.
         25    2    1    2    0    0  0.43952102931E+02 -0.31936487911E+02 -0.35766654678E+02  0.14099204445E+03  0.12509107242E+03 0.  0.
          5    1    3    3  502    0  0.44479051057E+02  0.79902557292E+01  0.36554194558E+02  0.58274451601E+02  0.41800000000E+01 0.  1.
         -5    1    3    3    0  502 -0.52694812609E+00 -0.39926743640E+02 -0.72320849236E+02  0.82717592846E+02  0.41800000000E+01 0.  1.
        -11    1    1    2    0    0  0.93065215886E+01  0.16653841237E+02 -0.46130169940E+02  0.49919478671E+02  0.00000000000E+00 0.  1.
         11    1    1    2    0    0 -0.53258624520E+02  0.15282646674E+02  0.20379519491E+02  0.59036981544E+02  0.00000000000E+00 0. -1.
</event>
<event>
 7    1  0.3223436E-009  0.2266893E+03  0.7561462E-02  0.1128992E+00
          1   -1    0    0  501    0  0.00000000000E+00  0.00000000000E+00  0.46531208219E+03  0.46531208219E+03  0.00000000000E+00 0. -1.
         -1   -1    0    0    0  501 -0.00000000000E+00 -0.00000000000E+00 -0.12322521205E+03  0.12322521205E+03  0.00000000000E+00 0.  1.
         25    2    1    2    0    0 -0.19805403839E+03 -0.43235021295E+02  0.95996102172E+02  0.25680725524E+03  0.12506016762E+03 0.  0.
          5    1    3    3  502    0 -0.10998981648E+03  0.39798324534E+02  0.49486761742E+02  0.12707508943E+03  0.41800000000E+01 0.  1.
         -5    1    3    3    0  502 -0.88064221909E+02 -0.83033345829E+02  0.46509340430E+02  0.12973216582E+03  0.41800000000E+01 0.  1.
        -11    1    1    2    0    0  0.58494651677E+02  0.47877130616E+02  0.12891980400E+03  0.14944617685E+03  0.00000000000E+00 0. -1.
         11    1    1    2    0    0  0.13955938671E+03 -0.46421093211E+01  0.11717096397E+03  0.18228386214E+03  0.00000000000E+00 0.  1.
</event>
<event>
 7    1  0.2878477E-009  0.1514256E+03  0.7561462E-02  0.1198732E+00
         -1   -1    0    0    0  501 -0.00000000000E+00  0.00000000000E+00  0.20387270762E+03  0.20387270762E+03  0.00000000000E+00 0.  1.
          1   -1    0    0  501    0  0.00000000000E+00 -0.00000000000E+00 -0.12448287173E+03  0.12448287173E+03  0.00000000000E+00 0. -1.
         25    2    1    2    0    0 -0.34285590937E+02 -0.10807164664E+03  0.63382872110E+02  0.18033305982E+03  0.12509053295E+03 0.  0.
          5    1    3    3  502    0  0.36883013777E+02 -0.63379267231E+02 -0.24618542659E+01  0.73490280625E+02  0.41800000000E+01 0. -1.
         -5    1    3    3    0  502 -0.71168604714E+02 -0.44692379411E+02  0.65844726376E+02  0.10684277919E+03  0.41800000000E+01 0. -1.
        -11    1    1    2    0    0  0.59226691883E+02  0.36746367496E+02  0.19516256390E+02  0.72380804216E+02  0.00000000000E+00 0.  1.
         11    1    1    2    0    0 -0.24941100946E+02  0.71325279146E+02 -0.35092926057E+01  0.75641715318E+02  0.00000000000E+00 0. -1.
</event>
<event>
 7    1  0.2878477E-009  0.1189070E+03  0.7561462E-02  0.1244911E+00
         -2   -1    0    0    0  501 -0.00000000000E+00  0.00000000000E+00  0.11546963582E+03  0.11546963582E+03  0.00000000000E+00 0.  1.
          2   -1    0    0  501    0  0.00000000000E+00 -0.00000000000E+00 -0.16094109817E+03  0.16094109817E+03  0.00000000000E+00 0. -1.
         25    2    1    2    0    0 -0.12119735799E+02  0.69807386452E+02  0.10799419633E+02  0.14416608820E+03  0.12508906557E+03 0.  0.
          5    1    3    3  502    0  0.37489819361E+02  0.11981293498E+01  0.39536578018E+02  0.54658352253E+02  0.41800000000E+01 0. -1.
         -5    1    3    3    0  502 -0.49609555160E+02  0.68609257102E+02 -0.28737158385E+02  0.89507735952E+02  0.41800000000E+01 0. -1.
        -11    1    1    2    0    0  0.41940680039E+01  0.22383351390E+02  0.20546854432E+01  0.22865396522E+02  0.00000000000E+00 0.  1.
         11    1    1    2    0    0  0.79256677952E+01 -0.92190737841E+02 -0.58325567431E+02  0.10937924927E+03  0.00000000000E+00 0. -1.
</event>
<event>
 7    1  0.2878477E-009  0.1221719E+03  0.7561462E-02  0.1239556E+00
         -1   -1    0    0    0  501 -0.00000000000E+00  0.00000000000E+00  0.17333106876E+03  0.17333106876E+03  0.00000000000E+00 0.  1.
          1   -1    0    0  501    0  0.00000000000E+00 -0.00000000000E+00 -0.14224005797E+03  0.14224005797E+03  0.00000000000E+00 0. -1.
         25    2    1    2    0    0  0.91280397733E+02 -0.45306560449E+02 -0.31711529451E+02  0.16443193840E+03  0.12508975112E+03 0.  0.
          5    1    3    3  502    0  0.60562661216E+01 -0.14977627137E+02 -0.65640119090E+02  0.67728172189E+02  0.41800000000E+01 0. -1.
         -5    1    3    3    0  502  0.85224131611E+02 -0.30328933312E+02  0.33928589639E+02  0.96703766212E+02  0.41800000000E+01 0. -1.
        -11    1    1    2    0    0  0.25290481810E+01  0.43192448749E+02  0.25059232388E+02  0.49999488412E+02  0.00000000000E+00 0.  1.
         11    1    1    2    0    0 -0.93809445914E+02  0.21141116995E+01  0.37743307856E+02  0.10113969992E+03  0.00000000000E+00 0. -1.
</event>
<event>
 7    1  0.2878477E-009  0.1322163E+03  0.7561462E-02  0.1224204E+00
          2   -1    0    0  501    0  0.00000000000E+00  0.00000000000E+00  0.41098618955E+03  0.41098618955E+03  0.00000000000E+00 0. -1.
         -2   -1    0    0    0  501 -0.00000000000E+00 -0.00000000000E+00 -0.58835821053E+02  0.58835821053E+02  0.00000000000E+00 0.  1.
         25    2    1    2    0    0 -0.11203434030E+03 -0.33520098366E+01  0.17973026648E+03  0.24599229832E+03  0.12508522202E+03 0.  0.
          5    1    3    3  502    0 -0.54769105500E+02 -0.36388391084E+02  0.16564492847E+03  0.17826801353E+03  0.41800000000E+01 0. -1.
         -5    1    3    3    0  502 -0.57265234800E+02  0.33036381247E+02  0.14085338011E+02  0.67724284783E+02  0.41800000000E+01 0. -1.
        -11    1    1    2    0    0  0.68298931499E+02  0.36484320164E+02  0.14030406928E+03  0.16025317943E+03  0.00000000000E+00 0.  1.
         11    1    1    2    0    0  0.43735408800E+02 -0.33132310327E+02  0.32116032741E+02  0.63576532852E+02  0.00000000000E+00 0. -1.
</event>
<event>
 7    1  0.2878477E-009  0.7925197E+02  0.7561462E-02  0.1331188E+00
         -2   -1    0    0    0  501 -0.00000000000E+00  0.00000000000E+00  0.37598598343E+02  0.37598598343E+02  0.00000000000E+00 0.  1.
          2   -1    0    0  501    0  0.00000000000E+00 -0.00000000000E+00 -0.36807717648E+03  0.36807717648E+03  0.00000000000E+00 0. -1.
         25    2    1    2    0    0 -0.12208775896E+02  0.49892151525E+02 -0.17822556341E+03  0.22371844794E+03  0.12508921418E+03 0.  0.
          5    1    3    3  502    0  0.86766278112E+01  0.31211926375E+02 -0.19018309415E+03  0.19296774321E+03  0.41800000000E+01 0. -1.
         -5    1    3    3    0  502 -0.20885403707E+02  0.18680225150E+02  0.11957530746E+02  0.30750704727E+02  0.41800000000E+01 0. -1.
        -11    1    1    2    0    0  0.41832543839E+02 -0.28664314239E+01 -0.47397494739E+02  0.63282704278E+02  0.00000000000E+00 0.  1.
         11    1    1    2    0    0 -0.29623767943E+02 -0.47025720101E+02 -0.10485551998E+03  0.11867462260E+03  0.00000000000E+00 0. -1.
</event>
<event>
 7    1  0.2878477E-009  0.1026927E+03  0.7561462E-02  0.1274733E+00
          3   -1    0    0  501    0  0.00000000000E+00  0.00000000000E+00  0.18336197340E+03  0.18336197340E+03  0.00000000000E+00 0. -1.
         -3   -1    0    0    0  501 -0.00000000000E+00 -0.00000000000E+00 -0.81005375277E+02  0.81005375277E+02  0.00000000000E+00 0.  1.
         25    2    1    2    0    0  0.12898392938E+02  0.23515806607E+02  0.10995268302E+03  0.16869434512E+03  0.12509527518E+03 0.  0.
          5    1    3    3  502    0  0.55136709955E+02 -0.10980369775E+02  0.97461051639E+02  0.11259109331E+03  0.41800000000E+01 0. -1.
         -5    1    3    3    0  502 -0.42238317017E+02  0.34496176383E+02  0.12491631376E+02  0.56103251812E+02  0.41800000000E+01 0. -1.
        -11    1    1    2    0    0  0.13272979770E+02  0.31066709626E+02  0.40665015881E+01  0.34027178463E+02  0.00000000000E+00 0.  1.
         11    1    1    2    0    0 -0.26171372709E+02 -0.54582516234E+02 -0.11662586485E+02  0.61645825093E+02  0.00000000000E+00 0. -1.
</event>
<event>
 7    1  0.2878477E-009  0.7602101E+02  0.7561462E-02  0.1340738E+00
         -1   -1    0    0    0  501 -0.00000000000E+00  0.00000000000E+00  0.10226131217E+04  0.10226131217E+04  0.00000000000E+00 0.  1.
          1   -1    0    0  501    0  0.00000000000E+00 -0.00000000000E+00 -0.11504612652E+02  0.11504612652E+02  0.00000000000E+00 0. -1.
         25    2    1    2    0    0 -0.57014839022E+01  0.20821071342E+01  0.56953333725E+03  0.58314075496E+03  0.12509226903E+03 0.  0.
          5    1    3    3  502    0  0.22359787624E+02  0.17525284729E+02  0.26272923427E+02  0.38920876311E+02  0.41800000000E+01 0.  1.
         -5    1    3    3    0  502 -0.28061271527E+02 -0.15443177594E+02  0.54326041382E+03  0.54421987865E+03  0.41800000000E+01 0.  1.
        -11    1    1    2    0    0 -0.30586094115E+01  0.44005812598E+02  0.18874284795E+03  0.19382912393E+03  0.00000000000E+00 0.  1.
         11    1    1    2    0    0  0.87600933137E+01 -0.46087919733E+02  0.25283232385E+03  0.25714785545E+03  0.00000000000E+00 0. -1.
</event>
<event>
 7    1  0.2878477E-009  0.1269046E+03  0.7561462E-02  0.1232122E+00
          2   -1    0    0  501    0  0.00000000000E+00  0.00000000000E+00  0.10139951463E+04  0.10139951463E+04  0.00000000000E+00 0. -1.
         -2   -1    0    0    0  501 -0.00000000000E+00 -0.00000000000E+00 -0.34808059656E+02  0.34808059656E+02  0.00000000000E+00 0.  1.
         25    2    1    2    0    0 -0.93668921739E+02 -0.50610916763E+02  0.20604528818E+03  0.26350829512E+03  0.12508648616E+03 0.  0.
          5    1    3    3  502    0 -0.65375740202E+02 -0.95466728278E+01  0.17556472206E+02  0.68489623195E+02  0.41800000000E+01 0.  1.
         -5    1    3    3    0  502 -0.28293181536E+02 -0.41064243935E+02  0.18848881597E+03  0.19501867192E+03  0.41800000000E+01 0.  1.
        -11    1    1    2    0    0 -0.11498092702E+02  0.27615851692E+02  0.17759403722E+03  0.18009576191E+03  0.00000000000E+00 0.  1.
         11    1    1    2    0    0  0.10516701444E+03  0.22995065071E+02  0.59554776121E+03  0.60519914889E+03  0.00000000000E+00 0. -1.
</event>
<event>
 7    1  0.2878477E-009  0.1356025E+03  0.7561462E-02  0.1219372E+00
         -1   -1    0    0    0  501 -0.00000000000E+00  0.00000000000E+00  0.15175316206E+03  0.15175316206E+03  0.00000000000E+00 0.  1.
          1   -1    0    0  501    0  0.00000000000E+00 -0.00000000000E+00 -0.13702636481E+03  0.13702636481E+03  0.00000000000E+00 0. -1.
         25    2    1    2    0    0  0.88191701521E+02 -0.57320994316E+01  0.41595268955E+02  0.15870934432E+03  0.12509139217E+03 0.  0.
          5    1    3    3  502    0  0.14959093905E+02  0.50293778196E+02  0.40478683865E+02  0.66402069720E+02  0.41800000000E+01 0.  1.
         -5    1    3    3    0  502  0.73232607616E+02 -0.56025877627E+02  0.11165850904E+01  0.92307274602E+02  0.41800000000E+01 0.  1.
        -11    1    1    2    0    0 -0.41565017063E+02 -0.42315270599E+02 -0.45205457257E+01  0.59486705263E+02  0.00000000000E+00 0.  1.
         11    1    1    2    0    0 -0.46626684458E+02  0.48047370031E+02 -0.22347925981E+02  0.70583477288E+02  0.00000000000E+00 0. -1.
</event>
<event>
 7    1  0.2878477E-009  0.1117259E+03  0.7561462E-02  0.1257407E+00
         -2   -1    0    0    0  501 -0.00000000000E+00  0.00000000000E+00  0.18591628416E+02  0.18591628416E+02  0.00000000000E+00 0.  1.
          2   -1    0    0  501    0  0.00000000000E+00 -0.00000000000E+00 -0.16376016965E+04  0.16376016965E+04  0.00000000000E+00 0. -1.
         25    2    1    2    0    0 -0.19475431665E+02  0.49928701095E+02 -0.14549619674E+04  0.14613123299E+04  0.12508889344E+03 0.  0.
          5    1    3    3  502    0  0.23202021892E+02  0.80160762805E+02 -0.87194770345E+03  0.87594197962E+03  0.41800000000E+01 0. -1.
         -5    1    3    3    0  502 -0.42677453557E+02 -0.30232061710E+02 -0.58301426396E+03  0.58537035027E+03  0.41800000000E+01 0. -1.
        -11    1    1    2    0    0 -0.48164622906E+01 -0.60675161983E+02 -0.15548215375E+03  0.16697117633E+03  0.00000000000E+00 0. -1.
         11    1    1    2    0    0  0.24291893956E+02  0.10746460888E+02 -0.85659469507E+01  0.27909818716E+02  0.00000000000E+00 0.  1.
</event>
<event>
 7    1  0.2878477E-009  0.1228878E+03  0.7561462E-02  0.1238408E+00
         -1   -1    0    0    0  501 -0.00000000000E+00  0.00000000000E+00  0.40471339966E+03  0.40471339966E+03  0.00000000000E+00 0.  1.
          1   -1    0    0  501    0  0.00000000000E+00 -0.00000000000E+00 -0.39746869444E+02  0.39746869444E+02  0.00000000000E+00 0. -1.
         25    2    1    2    0    0 -0.46381925520E+02  0.46907050898E+02  0.20673804727E+03  0.25047713228E+03  0.12508644677E+03 0.  0.
          5    1    3    3  502    0  0.23118080640E+02  0.58485614220E+02  0.13912595145E+03  0.15273675226E+03  0.41800000000E+01 0.  1.
         -5    1    3    3    0  502 -0.69500006160E+02 -0.11578563322E+02  0.67612095821E+02  0.97740380019E+02  0.41800000000E+01 0.  1.
        -11    1    1    2    0    0  0.49441549337E+02 -0.71750273285E+02  0.12536363461E+03  0.15267157365E+03  0.00000000000E+00 0. -1.
         11    1    1    2    0    0 -0.30596238168E+01  0.24843222386E+02  0.32864848332E+02  0.41311563179E+02  0.00000000000E+00 0.  1.
</event>
<event>
 7    1  0.2878477E-009  0.1212965E+03  0.7561462E-02  0.1240973E+00
          2   -1    0    0  501    0  0.00000000000E+00  0.00000000000E+00  0.38050695822E+03  0.38050695822E+03  0.00000000000E+00 0. -1.
         -2   -1    0    0    0  501 -0.00000000000E+00 -0.00000000000E+00 -0.53809710819E+02  0.53809710819E+02  0.00000000000E+00 0.  1.
         25    2    1    2    0    0 -0.72975080113E+02  0.59071910313E+02  0.18546611291E+03  0.24260873694E+03  0.12508583971E+03 0.  0.
          5    1    3    3  502    0 -0.91286580655E+02  0.20290657490E+02  0.63131574054E+02  0.11290712392E+03  0.41800000000E+01 0.  1.
         -5    1    3    3    0  502  0.18311500543E+02  0.38781252823E+02  0.12233453885E+03  0.12970161302E+03  0.41800000000E+01 0.  1.
        -11    1    1    2    0    0  0.56989398562E+02 -0.67076315473E+02  0.55324282268E+02  0.10396056875E+03  0.00000000000E+00 0.  1.
         11    1    1    2    0    0  0.15985681550E+02  0.80044051601E+01  0.85906852221E+02  0.87747363351E+02  0.00000000000E+00 0. -1.
</event>
<event>
 7    1  0.2878477E-009  0.2618629E+03  0.7561462E-02  0.1106029E+00
          2   -1    0    0  501    0  0.00000000000E+00  0.00000000000E+00  0.82633686508E+02  0.82633686508E+02  0.00000000000E+00 0. -1.
         -2   -1    0    0    0  501 -0.00000000000E+00 -0.00000000000E+00 -0.11917249162E+04  0.11917249162E+04  0.00000000000E+00 0.  1.
         25    2    1    2    0    0 -0.50468151819E+02 -0.25348934611E+03 -0.84956480913E+03  0.89677854220E+03  0.12508999120E+03 0.  0.
          5    1    3    3  502    0 -0.37922513937E+02 -0.14649464125E+03 -0.29222441061E+03  0.32910693632E+03  0.41800000000E+01 0. -1.
         -5    1    3    3    0  502 -0.12545637882E+02 -0.10699470486E+03 -0.55734039852E+03  0.56767160588E+03  0.41800000000E+01 0. -1.
        -11    1    1    2    0    0  0.17029412951E+02  0.12219979935E+02 -0.57247151144E+02  0.60963637762E+02  0.00000000000E+00 0.  1.
         11    1    1    2    0    0  0.33438738868E+02  0.24126936617E+03 -0.20227926939E+03  0.31661642272E+03  0.00000000000E+00 0. -1.
</event>
<event>
 7    1  0.2878477E-009  0.1251507E+03  0.7561462E-02  0.1234834E+00
          1   -1    0    0  501    0  0.00000000000E+00  0.00000000000E+00  0.10861366187E+03  0.10861366187E+03  0.00000000000E+00 0. -1.
         -1   -1    0    0    0  501 -0.00000000000E+00 -0.00000000000E+00 -0.27742068451E+03  0.27742068451E+03  0.00000000000E+00 0.  1.
         25    2    1    2    0    0 -0.83160167954E+02  0.46603986885E+02 -0.19494740501E+03  0.25048058588E+03  0.12509391694E+03 0.  0.
          5    1    3    3  502    0  0.20234971601E+02  0.28432030072E+02 -0.10967016585E+03  0.11516445670E+03  0.41800000000E+01 0. -1.
         -5    1    3    3    0  502 -0.10339513956E+03  0.18171956813E+02 -0.85277239161E+02  0.13531612918E+03  0.41800000000E+01 0. -1.
        -11    1    1    2    0    0  0.55357766988E+02  0.53941652288E+00 -0.24913021146E+02  0.60707758637E+02  0.00000000000E+00 0.  1.
         11    1    1    2    0    0  0.27802400967E+02 -0.47143403407E+02  0.51053403513E+02  0.74846001861E+02  0.00000000000E+00 0. -1.
</event>
<event>
 7    1  0.2878477E-009  0.1553728E+03  0.7561462E-02  0.1194022E+00
         -1   -1    0    0    0  501 -0.00000000000E+00  0.00000000000E+00  0.81035441686E+02  0.81035441686E+02  0.00000000000E+00 0.  1.
          1   -1    0    0  501    0  0.00000000000E+00 -0.00000000000E+00 -0.32466026686E+03  0.32466026686E+03  0.00000000000E+00 0. -1.
         25    2    1    2    0    0 -0.56312541452E+02 -0.99207289208E+02 -0.74655181083E+02  0.18502417684E+03  0.12508941361E+03 0.  0.
          5    1    3    3  502    0  0.12426042375E+02 -0.99564875113E+02 -0.43704009334E+02  0.10952206954E+03  0.41800000000E+01 0.  1.
         -5    1    3    3    0  502 -0.68738583827E+02  0.35758590578E+00 -0.30951171749E+02  0.75502107301E+02  0.41800000000E+01 0.  1.
        -11    1    1    2    0    0  0.77460873493E+02  0.88949488274E+02 -0.13375210442E+03  0.17833065867E+03  0.00000000000E+00 0. -1.
         11    1    1    2    0    0 -0.21148332041E+02  0.10257800934E+02 -0.35217539676E+02  0.42340873030E+02  0.00000000000E+00 0.  1.
</event>
<event>
 7    1  0.2878477E-009  0.1921102E+03  0.7561462E-02  0.1156572E+00
         -1   -1    0    0    0  501 -0.00000000000E+00  0.00000000000E+00  0.55425541429E+03  0.55425541429E+03  0.00000000000E+00 0.  1.
          1   -1    0    0  501    0  0.00000000000E+00 -0.00000000000E+00 -0.86048057553E+02  0.86048057553E+02  0.00000000000E+00 0. -1.
         25    2    1    2    0    0  0.14558725176E+03  0.84743034093E+02  0.36858596216E+03  0.42413204831E+03  0.12512135389E+03 0.  0.
          5    1    3    3  502    0 -0.44327710877E+01  0.37332615885E+02  0.22684686265E+02  0.44107154287E+02  0.41800000000E+01 0. -1.
         -5    1    3    3    0  502  0.15002002285E+03  0.47410418208E+02  0.34590127590E+03  0.38002489403E+03  0.41800000000E+01 0. -1.
        -11    1    1    2    0    0 -0.21894635090E+02 -0.58631962535E+02  0.50965193611E+02  0.80712657224E+02  0.00000000000E+00 0.  1.
         11    1    1    2    0    0 -0.12369261667E+03 -0.26111071558E+02  0.48656200962E+02  0.13545876631E+03  0.00000000000E+00 0. -1.
</event>
<event>
 7    1  0.2878477E-009  0.1041278E+03  0.7561462E-02  0.1271848E+00
          2   -1    0    0  501    0  0.00000000000E+00  0.00000000000E+00  0.11405935602E+03  0.11405935602E+03  0.00000000000E+00 0. -1.
         -2   -1    0    0    0  501 -0.00000000000E+00 -0.00000000000E+00 -0.10820692415E+03  0.10820692415E+03  0.00000000000E+00 0.  1.
         25    2    1    2    0    0 -0.30778740456E+02 -0.57629966224E+01  0.92158795792E+01  0.12928091235E+03  0.12509228140E+03 0.  0.
          5    1    3    3  502    0 -0.58745493540E+02  0.41290094319E+02  0.16802853156E+02  0.73862799665E+02  0.41800000000E+01 0. -1.
         -5    1    3    3    0  502  0.27966753084E+02 -0.47053090941E+02 -0.75869735765E+01  0.55418112682E+02  0.41800000000E+01 0. -1.
        -11    1    1    2    0    0  0.33086867333E+02  0.37272275379E+02 -0.23930703306E+02  0.55286904982E+02  0.00000000000E+00 0.  1.
         11    1    1    2    0    0 -0.23081268768E+01 -0.31509278756E+02  0.20567255601E+02  0.37698462838E+02  0.00000000000E+00 0. -1.
</event>
<event>
 7    1  0.2878477E-009  0.3000140E+03  0.7561462E-02  0.1085234E+00
          1   -1    0    0  501    0  0.00000000000E+00  0.00000000000E+00  0.45576848799E+02  0.45576848799E+02  0.00000000000E+00 0. -1.
         -1   -1    0    0    0  501 -0.00000000000E+00 -0.00000000000E+00 -0.21282180078E+04  0.21282180078E+04  0.00000000000E+00 0.  1.
         25    2    1    2    0    0  0.29010289439E+03 -0.50253877884E+01 -0.96079830186E+03  0.10114168659E+04  0.12508299649E+03 0.  0.
          5    1    3    3  502    0  0.23778213575E+03 -0.26185400110E+02 -0.88531567889E+03  0.91707542926E+03  0.41800000000E+01 0. -1.
         -5    1    3    3    0  502  0.52320758639E+02  0.21160012321E+02 -0.75482622965E+02  0.94341436684E+02  0.41800000000E+01 0. -1.
        -11    1    1    2    0    0 -0.11523968486E+02 -0.21445667339E+02 -0.98552618788E+02  0.10151520658E+03  0.00000000000E+00 0.  1.
         11    1    1    2    0    0 -0.27857892590E+03  0.26471055128E+02 -0.10232902383E+04  0.10608627840E+04  0.00000000000E+00 0. -1.
</event>
<event>
 7    1  0.2878477E-009  0.1381036E+03  0.7561462E-02  0.1215904E+00
         -2   -1    0    0    0  501 -0.00000000000E+00  0.00000000000E+00  0.10097672067E+03  0.10097672067E+03  0.00000000000E+00 0.  1.
          2   -1    0    0  501    0  0.00000000000E+00 -0.00000000000E+00 -0.48436932350E+03  0.48436932350E+03  0.00000000000E+00 0. -1.
         25    2    1    2    0    0 -0.89569594307E+02 -0.72879878911E+01  0.23962834815E+02  0.15587262207E+03  0.12508489064E+03 0.  0.
          5    1    3    3  502    0 -0.82810116804E+02 -0.58946486632E+02  0.14638698957E+02  0.10278116383E+03  0.41800000000E+01 0. -1.
         -5    1    3    3    0  502 -0.67594775039E+01  0.51658498741E+02  0.93241358575E+01  0.53091458238E+02  0.41800000000E+01 0. -1.
        -11    1    1    2    0    0  0.10571018242E+03  0.82976456870E+01 -0.39537553813E+03  0.40934741937E+03  0.00000000000E+00 0. -1.
         11    1    1    2    0    0 -0.16140588110E+02 -0.10096577959E+01 -0.11979899518E+02  0.20126002730E+02  0.00000000000E+00 0.  1.
</event>
<event>
 7    1  0.2878477E-009  0.8952601E+02  0.7561462E-02  0.1304004E+00
          1   -1    0    0  501    0  0.00000000000E+00  0.00000000000E+00  0.73509543336E+02  0.73509543336E+02  0.00000000000E+00 0. -1.
         -1   -1    0    0    0  501 -0.00000000000E+00 -0.00000000000E+00 -0.18870243203E+03  0.18870243203E+03  0.00000000000E+00 0.  1.
         25    2    1    2    0    0 -0.10879171796E+02 -0.11066841077E+02 -0.25701803953E+02  0.12864168630E+03  0.12508904579E+03 0.  0.
          5    1    3    3  502    0 -0.55099536135E+02 -0.42493893745E+02 -0.25513974510E+02  0.74230217454E+02  0.41800000000E+01 0.  1.
         -5    1    3    3    0  502  0.44220364339E+02  0.31427052669E+02 -0.18782944260E+00  0.54411468843E+02  0.41800000000E+01 0.  1.
        -11    1    1    2    0    0  0.17403904691E+02  0.30123949972E+02  0.65828994479E+01  0.35407383771E+02  0.00000000000E+00 0. -1.
         11    1    1    2    0    0 -0.65247328952E+01 -0.19057108895E+02 -0.96073984194E+02  0.98162905304E+02  0.00000000000E+00 0.  1.
</event>
<event>
 7    1  0.2878477E-009  0.8695010E+02  0.7561462E-02  0.1310410E+00
          1   -1    0    0  501    0  0.00000000000E+00  0.00000000000E+00  0.56231045746E+03  0.56231045746E+03  0.00000000000E+00 0. -1.
         -1   -1    0    0    0  501 -0.00000000000E+00 -0.00000000000E+00 -0.23793931370E+02  0.23793931370E+02  0.00000000000E+00 0.  1.
         25    2    1    2    0    0 -0.69817409256E+01 -0.40094068788E+02  0.29685784444E+03  0.32469610324E+03  0.12508677226E+03 0.  0.
          5    1    3    3  502    0  0.17326631542E+02  0.25106740317E+02  0.21493036770E+03  0.21712460923E+03  0.41800000000E+01 0.  1.
         -5    1    3    3    0  502 -0.24308372467E+02 -0.65200809105E+02  0.81927476738E+02  0.10757149401E+03  0.41800000000E+01 0.  1.
        -11    1    1    2    0    0  0.27405944948E+02  0.44728082905E+02  0.23285396508E+03  0.23868945572E+03  0.00000000000E+00 0. -1.
         11    1    1    2    0    0 -0.20424204022E+02 -0.46340141163E+01  0.88047165682E+01  0.22718829869E+02  0.00000000000E+00 0.  1.
</event>
<event>
 6    1  0.2878477E-009  0.1182190E+03  0.7561462E-02  0.1246064E+00
         -2   -1    0    0    0  501 -0.00000000000E+00  0.00000000000E+00  0.21300141173E+02  0.21300141173E+02  0.00000000000E+00 0.  1.
          2   -1    0    0  501    0  0.00000000000E+00 -0.00000000000E+00 -0.89076423549E+03  0.89076423549E+03  0.00000000000E+00 0. -1.
          5    1    1    2  502    0  0.43524635835E+02 -0.31526221915E+01 -0.12416269558E+03  0.13167452421E+03  0.41800000000E+01 0. -1.
         -5    1    1    2    0  502 -0.60042825978E+02  0.69250808554E+02 -0.52614242946E+03  0.53408252538E+03  0.41800000000E+01 0. -1.
        -11    1    1    2    0    0 -0.29002175702E+00  0.16527683553E+02 -0.68969159417E+01  0.17911334003E+02  0.00000000000E+00 0.  1.
         11    1    1    2    0    0  0.16808211900E+02 -0.82625869916E+02 -0.21226205334E+03  0.22839599308E+03  0.00000000000E+00 0. -1.
</event>
<event>
 7    1  0.2878477E-009  0.1381477E+03  0.7561462E-02  0.1215843E+00
          2   -1    0    0  501    0  0.00000000000E+00  0.00000000000E+00  0.12001529319E+03  0.12001529319E+03  0.00000000000E+00 0. -1.
         -2   -1    0    0    0  501 -0.00000000000E+00 -0.00000000000E+00 -0.19921662385E+03  0.19921662385E+03  0.00000000000E+00 0.  1.
         25    2    1    2    0    0  0.67869460661E+02 -0.80970277129E+02 -0.98899858723E+01  0.16403754751E+03  0.12509218882E+03 0.  0.
          5    1    3    3  502    0  0.58988194520E+02  0.61578740100E+00 -0.45362906387E+02  0.74533562659E+02  0.41800000000E+01 0.  1.
         -5    1    3    3    0  502  0.88812661405E+01 -0.81586064530E+02  0.35472920514E+02  0.89503984848E+02  0.41800000000E+01 0.  1.
        -11    1    1    2    0    0 -0.74948076399E+02  0.25658100465E+02 -0.22403513811E+02  0.82325389197E+02  0.00000000000E+00 0. -1.
         11    1    1    2    0    0  0.70786157382E+01  0.55312176665E+02 -0.46907830982E+02  0.72868980339E+02  0.00000000000E+00 0.  1.
</event>
<event>
 7    1  0.2878477E-009  0.1134786E+03  0.7561462E-02  0.1254260E+00
         -2   -1    0    0    0  501 -0.00000000000E+00  0.00000000000E+00  0.10383309570E+03  0.10383309570E+03  0.00000000000E+00 0.  1.
          2   -1    0    0  501    0  0.00000000000E+00 -0.00000000000E+00 -0.17658439982E+03  0.17658439982E+03  0.00000000000E+00 0. -1.
         25    2    1    2    0    0  0.53601319579E+02  0.63849533582E+02 -0.42381767146E+02  0.15618150962E+03  0.12508631165E+03 0.  0.
          5    1    3    3  502    0  0.51631514420E+02 -0.45265613658E+01  0.27059655775E+02  0.58617407055E+02  0.41800000000E+01 0. -1.
         -5    1    3    3    0  502  0.19698051589E+01  0.68376094948E+02 -0.69441422921E+02  0.97564102568E+02  0.41800000000E+01 0. -1.
        -11    1    1    2    0    0  0.43595787534E+01 -0.45388602082E+02 -0.42357923679E+02  0.62236041200E+02  0.00000000000E+00 0. -1.
         11    1    1    2    0    0 -0.57960898333E+02 -0.18460931500E+02  0.11988386706E+02  0.61999944703E+02  0.00000000000E+00 0.  1.
</event>
<event>
 7    1  0.2878477E-009  0.1997028E+03  0.7561462E-02  0.1149990E+00
         -1   -1    0    0    0  501 -0.00000000000E+00  0.00000000000E+00  0.71825196411E+02  0.71825196411E+02  0.00000000000E+00 0.  1.
          1   -1    0    0  501    0  0.00000000000E+00 -0.00000000000E+00 -0.92395513012E+03  0.92395513012E+03  0.00000000000E+00 0. -1.
         25    2    1    2    0    0 -0.60094504556E+02 -0.16906199136E+03 -0.72593625997E+03  0.75817077429E+03  0.12508462353E+03 0.  0.
          5    1    3    3  502    0 -0.96786770101E+02 -0.11705828070E+03 -0.45007424306E+03  0.47503117436E+03  0.41800000000E+01 0. -1.
         -5    1    3    3    0  502  0.36692265545E+02 -0.52003710653E+02 -0.27586201691E+03  0.28313959993E+03  0.41800000000E+01 0. -1.
        -11    1    1    2    0    0  0.12443391451E+02  0.60374901444E+01 -0.49236788003E+02  0.51142453704E+02  0.00000000000E+00 0. -1.
         11    1    1    2    0    0  0.47651113104E+02  0.16302450121E+03 -0.76956885734E+02  0.18646709854E+03  0.00000000000E+00 0.  1.
</event>
<event>
 7    1  0.2878477E-009  0.9515304E+02  0.7561462E-02  0.1290832E+00
         -1   -1    0    0    0  501 -0.00000000000E+00  0.00000000000E+00  0.18763781463E+02  0.18763781463E+02  0.00000000000E+00 0.  1.
          1   -1    0    0  501    0  0.00000000000E+00 -0.00000000000E+00 -0.72913236798E+03  0.72913236798E+03  0.00000000000E+00 0. -1.
         25    2    1    2    0    0 -0.12505959665E+01  0.22111363754E+02 -0.51834788201E+03  0.53368787891E+03  0.12509096256E+03 0.  0.
          5    1    3    3  502    0 -0.39502484245E+02  0.38229198508E+02 -0.45175279276E+03  0.45510435732E+03  0.41800000000E+01 0.  1.
         -5    1    3    3    0  502  0.38251888279E+02 -0.16117834754E+02 -0.66595089252E+02  0.78583521597E+02  0.41800000000E+01 0.  1.
        -11    1    1    2    0    0  0.44971268030E+02 -0.21221232228E+02 -0.83170775471E+02  0.96902701396E+02  0.00000000000E+00 0.  1.
         11    1    1    2    0    0 -0.43720672063E+02 -0.89013152596E+00 -0.10884992904E+03  0.11730556914E+03  0.00000000000E+00 0. -1.
</event>
<event>
 7    1  0.2878477E-009  0.1226282E+03  0.7561462E-02  0.1238823E+00
          2   -1    0    0  501    0  0.00000000000E+00  0.00000000000E+00  0.90932751963E+03  0.90932751963E+03  0.00000000000E+00 0. -1.
         -2   -1    0    0    0  501 -0.00000000000E+00 -0.00000000000E+00 -0.28462564353E+02  0.28462564353E+02  0.00000000000E+00 0.  1.
         25    2    1    2    0    0  0.52598349487E+02  0.75682438303E+02  0.67266867034E+03  0.69038091599E+03  0.12509297052E+03 0.  0.
          5    1    3    3  502    0  0.90510599830E+02  0.69957948523E+02  0.55021841154E+03  0.56200004985E+03  0.41800000000E+01 0.  1.
         -5    1    3    3    0  502 -0.37912250343E+02  0.57244897799E+01  0.12245025880E+03  0.12838086614E+03  0.41800000000E+01 0.  1.
        -11    1    1    2    0    0 -0.79620820992E+01 -0.13461421288E+02 -0.83449327382E+01  0.17726886835E+02  0.00000000000E+00 0.  1.
         11    1    1    2    0    0 -0.44636267388E+02 -0.62221017014E+02  0.21654121768E+03  0.22968228116E+03  0.00000000000E+00 0. -1.
</event>
<event>
 7    1  0.2878477E-009  0.1027387E+03  0.7561462E-02  0.1274640E+00
         -1   -1    0    0    0  501 -0.00000000000E+00  0.00000000000E+00  0.14559299102E+02  0.14559299102E+02  0.00000000000E+00 0.  1.
          1   -1    0    0  501    0  0.00000000000E+00 -0.00000000000E+00 -0.94113276342E+03  0.94113276342E+03  0.00000000000E+00 0. -1.
         25    2    1    2    0    0  0.21019357052E+02  0.13698252751E+02 -0.75092217063E+03  0.76168431165E+03  0.12509767690E+03 0.  0.
          5    1    3    3  502    0  0.70684014749E+02 -0.22312995743E+01 -0.52641192804E+03  0.53115741454E+03  0.41800000000E+01 0. -1.
         -5    1    3    3    0  502 -0.49664657697E+02  0.15929552325E+02 -0.22451024259E+03  0.23052689710E+03  0.41800000000E+01 0. -1.
        -11    1    1    2    0    0 -0.23974886604E+02  0.30061549035E+02 -0.78240819323E+02  0.87178654076E+02  0.00000000000E+00 0.  1.
         11    1    1    2    0    0  0.29555295515E+01 -0.43759801786E+02 -0.97410474364E+02  0.10682909680E+03  0.00000000000E+00 0. -1.
</event>
<event>
 7    1  0.2878477E-009  0.1072361E+03  0.7561462E-02  0.1265775E+00
         -2   -1    0    0    0  501 -0.00000000000E+00  0.00000000000E+00  0.27147064577E+02  0.27147064577E+02  0.00000000000E+00 0.  1.
          2   -1    0    0  501    0  0.00000000000E+00 -0.00000000000E+00 -0.50191139939E+03  0.50191139939E+03  0.00000000000E+00 0. -1.
         25    2    1    2    0    0  0.31380449751E+02  0.25706244290E+02 -0.29285271062E+03  0.32102285275E+03  0.12508964086E+03 0.  0.
          5    1    3    3  502    0 -0.32987040232E+02  0.44785311048E+02 -0.78040962315E+02  0.95925664490E+02  0.41800000000E+01 0. -1.
         -5    1    3    3    0  502  0.64367489983E+02 -0.19079066758E+02 -0.21481174830E+03  0.22509718826E+03  0.41800000000E+01 0. -1.
        -11    1    1    2    0    0 -0.47338529635E+02  0.13393170062E+02 -0.52684206598E+02  0.72082862160E+02  0.00000000000E+00 0.  1.
         11    1    1    2    0    0  0.15958079884E+02 -0.39099414352E+02 -0.12922741760E+03  0.13595274905E+03  0.00000000000E+00 0. -1.
</event>
<event>
 7    1  0.2878477E-009  0.9567828E+02  0.7561462E-02  0.1289656E+00
         -2   -1    0    0    0  501 -0.00000000000E+00  0.00000000000E+00  0.26275458468E+02  0.26275458468E+02  0.00000000000E+00 0.  1.
          2   -1    0    0  501    0  0.00000000000E+00 -0.00000000000E+00 -0.67324961218E+03  0.67324961218E+03  0.00000000000E+00 0. -1.
         25    2    1    2    0    0 -0.27184342497E+02  0.23494112237E+02 -0.52973861446E+03  0.54549209953E+03  0.12509064402E+03 0.  0.
          5    1    3    3  502    0 -0.19393413989E+02 -0.49840846704E+02 -0.17057261398E+03  0.17880912602E+03  0.41800000000E+01 0.  1.
         -5    1    3    3    0  502 -0.77909285081E+01  0.73334958941E+02 -0.35916600047E+03  0.36668297352E+03  0.41800000000E+01 0.  1.
        -11    1    1    2    0    0  0.33809106695E+02 -0.36190399912E+02 -0.12725666459E+03  0.13655423620E+03  0.00000000000E+00 0. -1.
         11    1    1    2    0    0 -0.66247641974E+01  0.12696287675E+02  0.10021125333E+02  0.17478734918E+02  0.00000000000E+00 0.  1.
</event>
<event>
 7    1  0.2878477E-009  0.1049224E+03  0.7561462E-02  0.1270273E+00
         -2   -1    0    0    0  501 -0.00000000000E+00  0.00000000000E+00  0.23138414475E+02  0.23138414475E+02  0.00000000000E+00 0.  1.
          2   -1    0    0  501    0  0.00000000000E+00 -0.00000000000E+00 -0.55521896407E+03  0.55521896407E+03  0.00000000000E+00 0. -1.
         25    2    1    2    0    0  0.29259626769E+02  0.90215183261E+01 -0.29650895477E+03  0.32326914437E+03  0.12509143012E+03 0.  0.
          5    1    3    3  502    0 -0.46000800371E+02  0.96028953739E+01 -0.16581007343E+03  0.17239124712E+03  0.41800000000E+01 0.  1.
         -5    1    3    3    0  502  0.75260427141E+02 -0.58137704778E+00 -0.13069888134E+03  0.15087789725E+03  0.41800000000E+01 0.  1.
        -11    1    1    2    0    0  0.28741224121E+02 -0.12432053647E+01 -0.30916359333E+02  0.42230614463E+02  0.00000000000E+00 0.  1.
         11    1    1    2    0    0 -0.58000850890E+02 -0.77783129615E+01 -0.20465523550E+03  0.21285761972E+03  0.00000000000E+00 0. -1.
</event>
<event>
 7    1  0.2878477E-009  0.1012616E+03  0.7561462E-02  0.1277665E+00
         -1   -1    0    0    0  501 -0.00000000000E+00  0.00000000000E+00  0.11915278415E+03  0.11915278415E+03  0.00000000000E+00 0.  1.
          1   -1    0    0  501    0  0.00000000000E+00 -0.00000000000E+00 -0.10133459902E+03  0.10133459902E+03  0.00000000000E+00 0. -1.
         25    2    1    2    0    0 -0.13410224575E+02  0.27377755833E+02  0.99906801946E+01  0.12913557729E+03  0.12508720156E+03 0.  0.
          5    1    3    3  502    0 -0.65414819417E+02  0.25007836607E+02  0.25512763571E+02  0.74651617505E+02  0.41800000000E+01 0.  1.
         -5    1    3    3    0  502  0.52004594842E+02  0.23699192260E+01 -0.15522083376E+02  0.54483959788E+02  0.41800000000E+01 0.  1.
        -11    1    1    2    0    0  0.38689099802E+02  0.50570671545E+01  0.25479846896E+02  0.46600890223E+02  0.00000000000E+00 0. -1.
         11    1    1    2    0    0 -0.25278875227E+02 -0.32434822987E+02 -0.17652341963E+02  0.44750915652E+02  0.00000000000E+00 0.  1.
</event>
<event>
 7    1  0.2878477E-009  0.9118301E+02  0.7561462E-02  0.1300012E+00
         -2   -1    0    0    0  501 -0.00000000000E+00  0.00000000000E+00  0.23866743140E+03  0.23866743140E+03  0.00000000000E+00 0.  1.
          2   -1    0    0  501    0  0.00000000000E+00 -0.00000000000E+00 -0.82236236936E+02  0.82236236936E+02  0.00000000000E+00 0. -1.
         25    2    1    2    0    0  0.63540493451E+02 -0.13533023495E+02  0.33130912623E+02  0.14479647111E+03  0.12509126125E+03 0.  0.
          5    1    3    3  502    0  0.34594196650E+02 -0.38789988173E+02 -0.37539902945E+02  0.64250590172E+02  0.41800000000E+01 0.  1.
         -5    1    3    3    0  502  0.28946296801E+02  0.25256964678E+02  0.70670815568E+02  0.80545880940E+02  0.41800000000E+01 0.  1.
        -11    1    1    2    0    0 -0.31195649424E+02 -0.25923082088E+02 -0.22127403350E+01  0.40621065320E+02  0.00000000000E+00 0. -1.
         11    1    1    2    0    0 -0.32344844027E+02  0.39456105583E+02  0.12551302217E+03  0.13548613190E+03  0.00000000000E+00 0.  1.
</event>
<event>
 7    1  0.2878477E-009  0.1061630E+03  0.7561462E-02  0.1267845E+00
          1   -1    0    0  501    0  0.00000000000E+00  0.00000000000E+00  0.31356318828E+03  0.31356318828E+03  0.00000000000E+00 0. -1.
         -1   -1    0    0    0  501 -0.00000000000E+00 -0.00000000000E+00 -0.72354484444E+02  0.72354484444E+02  0.00000000000E+00 0.  1.
         25    2    1    2    0    0 -0.42925284646E+02 -0.23030154068E+02  0.24773251872E+03  0.28176407135E+03  0.12508646214E+03 0.  0.
          5    1    3    3  502    0  0.27175073748E+02 -0.27075317046E+02  0.18008436218E+03  0.18417222192E+03  0.41800000000E+01 0. -1.
         -5    1    3    3    0  502 -0.70100358394E+02  0.40451629780E+01  0.67648156545E+02  0.97591849426E+02  0.41800000000E+01 0. -1.
        -11    1    1    2    0    0  0.49911663586E+02  0.52894882509E+02  0.32807234864E+00  0.72726545285E+02  0.00000000000E+00 0. -1.
         11    1    1    2    0    0 -0.69863789402E+01 -0.29864728441E+02 -0.68518872397E+01  0.31427056087E+02  0.00000000000E+00 0.  1.
</event>
<event>
 7    1  0.2878477E-009  0.7889858E+02  0.7561462E-02  0.1332206E+00
         -1   -1    0    0    0  501 -0.00000000000E+00  0.00000000000E+00  0.16943280779E+03  0.16943280779E+03  0.00000000000E+00 0.  1.
          1   -1    0    0  501    0  0.00000000000E+00 -0.00000000000E+00 -0.81810219388E+02  0.81810219388E+02  0.00000000000E+00 0. -1.
         25    2    1    2    0    0 -0.68971673019E+01  0.46160626532E+02  0.53457996879E+02  0.14381759675E+03  0.12508944538E+03 0.  0.
          5    1    3    3  502    0 -0.87626132787E+01  0.65427964094E+02  0.84307955565E+02  0.10715832048E+03  0.41800000000E+01 0. -1.
         -5    1    3    3    0  502  0.18654459768E+01 -0.19267337563E+02 -0.30849958686E+02  0.36659276267E+02  0.41800000000E+01 0. -1.
        -11    1    1    2    0    0  0.20785532559E+02  0.27850297118E+01 -0.22847168030E+02  0.31012704514E+02  0.00000000000E+00 0. -1.
         11    1    1    2    0    0 -0.13888365257E+02 -0.48945656244E+02  0.57011759558E+02  0.76412725920E+02  0.00000000000E+00 0.  1.
</event>
<event>
 7    1  0.2878477E-009  0.2043030E+03  0.7561462E-02  0.1146158E+00
          2   -1    0    0  501    0  0.00000000000E+00  0.00000000000E+00  0.10478111280E+03  0.10478111280E+03  0.00000000000E+00 0. -1.
         -2   -1    0    0    0  501 -0.00000000000E+00 -0.00000000000E+00 -0.73186707682E+03  0.73186707682E+03  0.00000000000E+00 0.  1.
         25    2    1    2    0    0 -0.82276389650E+02  0.15921955613E+03 -0.59535633422E+03  0.63420604620E+03  0.12509145852E+03 0.  0.
          5    1    3    3  502    0 -0.32487185832E+02 -0.83715178954E+01 -0.42249628483E+02  0.54111025329E+02  0.41800000000E+01 0.  1.
         -5    1    3    3    0  502 -0.49789203818E+02  0.16759107402E+03 -0.55310670574E+03  0.58009502087E+03  0.41800000000E+01 0.  1.
        -11    1    1    2    0    0  0.14784439916E+01 -0.99337304579E+02 -0.14250289940E+02  0.10036511665E+03  0.00000000000E+00 0. -1.
         11    1    1    2    0    0  0.80797945658E+02 -0.59882251546E+02 -0.17479339861E+02  0.10207702677E+03  0.00000000000E+00 0.  1.
</event>
<event>
 7    1  0.2878477E-009  0.1367471E+03  0.7561462E-02  0.1217774E+00
         -1   -1    0    0    0  501 -0.00000000000E+00  0.00000000000E+00  0.39961732598E+02  0.39961732598E+02  0.00000000000E+00 0.  1.
          1   -1    0    0  501    0  0.00000000000E+00 -0.00000000000E+00 -0.60326017073E+03  0.60326017073E+03  0.00000000000E+00 0. -1.
         25    2    1    2    0    0 -0.56022809713E+02  0.91696336439E+02 -0.40019465604E+03  0.43283910875E+03  0.12508860066E+03 0.  0.
          5    1    3    3  502    0  0.29367962255E+02  0.70346628526E+02 -0.17005387033E+03  0.18640524822E+03  0.41800000000E+01 0. -1.
         -5    1    3    3    0  502 -0.85390771968E+02  0.21349707913E+02 -0.23014078572E+03  0.24643386053E+03  0.41800000000E+01 0. -1.
        -11    1    1    2    0    0  0.44866047936E+02 -0.56730698092E+02 -0.41559220056E+02  0.83417642828E+02  0.00000000000E+00 0.  1.
         11    1    1    2    0    0  0.11156761778E+02 -0.34965638347E+02 -0.12154456203E+03  0.12696515174E+03  0.00000000000E+00 0. -1.
</event>
<event>
 7    1  0.2878477E-009  0.1098395E+03  0.7561462E-02  0.1260867E+00
          2   -1    0    0  501    0  0.00000000000E+00  0.00000000000E+00  0.29640746578E+03  0.29640746578E+03  0.00000000000E+00 0. -1.
         -2   -1    0    0    0  501 -0.00000000000E+00 -0.00000000000E+00 -0.67329269768E+02  0.67329269768E+02  0.00000000000E+00 0.  1.
         25    2    1    2    0    0 -0.52445133591E+02 -0.65851542868E+02  0.86391298473E+02  0.17376443359E+03  0.12507479440E+03 0.  0.
          5    1    3    3  502    0 -0.72707989824E+02 -0.60066084733E+02  0.10789792706E+03  0.14336603985E+03  0.41800000000E+01 0. -1.
         -5    1    3    3    0  502  0.20262856233E+02 -0.57854581341E+01 -0.21506628588E+02  0.30398393736E+02  0.41800000000E+01 0. -1.
        -11    1    1    2    0    0  0.65870050814E+02  0.48225014292E+02  0.52400254491E+02  0.97006712491E+02  0.00000000000E+00 0.  1.
         11    1    1    2    0    0 -0.13424917223E+02  0.17626528575E+02  0.90286643046E+02  0.92965589464E+02  0.00000000000E+00 0. -1.
</event>
<event>
 7    1  0.2878477E-009  0.3343285E+03  0.7561462E-02  0.1069238E+00
         -2   -1    0    0    0  501 -0.00000000000E+00  0.00000000000E+00  0.11646293989E+03  0.11646293989E+03  0.00000000000E+00 0.  1.
          2   -1    0    0  501    0  0.00000000000E+00 -0.00000000000E+00 -0.10127337546E+04  0.10127337546E+04  0.00000000000E+00 0. -1.
         25    2    1    2    0    0 -0.25859770987E+03  0.19776506962E+03 -0.46851517369E+03  0.58406971954E+03  0.12508865255E+03 0.  0.
          5    1    3    3  502    0 -0.26185718589E+03  0.16505748167E+03 -0.44975030393E+03  0.54599081159E+03  0.41800000000E+01 0.  1.
         -5    1    3    3    0  502  0.32594760243E+01  0.32707587948E+02 -0.18764869758E+02  0.38078907946E+02  0.41800000000E+01 0.  1.
        -11    1    1    2    0    0  0.19065905854E+03 -0.13661412918E+03 -0.23616465572E+03  0.33284837615E+03  0.00000000000E+00 0.  1.
         11    1    1    2    0    0  0.67938651328E+02 -0.61150940444E+02 -0.19159098532E+03  0.21227859882E+03  0.00000000000E+00 0. -1.
</event>
<event>
 7    1  0.2878477E-009  0.1003203E+03  0.7561462E-02  0.1279624E+00
         -2   -1    0    0    0  501 -0.00000000000E+00  0.00000000000E+00  0.14672818130E+03  0.14672818130E+03  0.00000000000E+00 0. -1.
          2   -1    0    0  501    0  0.00000000000E+00 -0.00000000000E+00 -0.23912565876E+03  0.23912565876E+03  0.00000000000E+00 0.  1.
         25    2    1    2    0    0  0.39603276471E+02 -0.16741258637E+02 -0.19792014561E+03  0.23805095921E+03  0.12508871211E+03 0.  0.
          5    1    3    3  502    0  0.37201654776E+02 -0.65979270746E+02 -0.15494533056E+03  0.17251885447E+03  0.41800000000E+01 0. -1.
         -5    1    3    3    0  502  0.24016216953E+01  0.49238012109E+02 -0.42974815048E+02  0.65532104740E+02  0.41800000000E+01 0. -1.
        -11    1    1    2    0    0 -0.49032334829E+02  0.31148035061E+02  0.21352089815E+02  0.61889269558E+02  0.00000000000E+00 0.  1.
         11    1    1    2    0    0  0.94290583581E+01 -0.14406776424E+02  0.84170578334E+02  0.85913611294E+02  0.00000000000E+00 0. -1.
</event>
<event>
 7    1  0.2878477E-009  0.1053002E+03  0.7561462E-02  0.1269529E+00
          3   -1    0    0  501    0  0.00000000000E+00  0.00000000000E+00  0.23470081827E+03  0.23470081827E+03  0.00000000000E+00 0. -1.
         -3   -1    0    0    0  501 -0.00000000000E+00 -0.00000000000E+00 -0.13268836744E+03  0.13268836744E+03  0.00000000000E+00 0.  1.
         25    2    1    2    0    0  0.68036658018E+02  0.67642822800E+02  0.16346666896E+03  0.22709998512E+03  0.12509401692E+03 0.  0.
          5    1    3    3  502    0  0.18316980301E+02 -0.13500016851E+01  0.13649116492E+03  0.13778477700E+03  0.41800000000E+01 0.  1.
         -5    1    3    3    0  502  0.49719677716E+02  0.68992824485E+02  0.26975504038E+02  0.89315208115E+02  0.41800000000E+01 0.  1.
        -11    1    1    2    0    0 -0.52231267299E+00 -0.28649373169E+02  0.13910787821E+02  0.31852306216E+02  0.00000000000E+00 0. -1.
         11    1    1    2    0    0 -0.67514345345E+02 -0.38993449630E+02 -0.75365005950E+02  0.10843689438E+03  0.00000000000E+00 0.  1.
</event>
<event>
 7    1  0.2878477E-009  0.1371279E+03  0.7561462E-02  0.1217247E+00
          1   -1    0    0  501    0  0.00000000000E+00  0.00000000000E+00  0.19205167287E+04  0.19205167287E+04  0.00000000000E+00 0. -1.
         -1   -1    0    0    0  501 -0.00000000000E+00 -0.00000000000E+00 -0.18735656701E+02  0.18735656701E+02  0.00000000000E+00 0.  1.
         25    2    1    2    0    0  0.50979176984E+02  0.92677257361E+02  0.15822666690E+04  0.15907237844E+04  0.12508555388E+03 0.  0.
          5    1    3    3  502    0  0.74018262187E+02  0.55676617658E+02  0.56839860051E+03  0.57591060969E+03  0.41800000000E+01 0. -1.
         -5    1    3    3    0  502 -0.23039085204E+02  0.37000639704E+02  0.10138680685E+04  0.10148131747E+04  0.41800000000E+01 0. -1.
        -11    1    1    2    0    0  0.14899226952E+02 -0.64334088086E+02  0.17852909688E+03  0.19035099234E+03  0.00000000000E+00 0. -1.
         11    1    1    2    0    0 -0.65878403935E+02 -0.28343169276E+02  0.14098530609E+03  0.15817760866E+03  0.00000000000E+00 0.  1.
</event>
<event>
 7    1  0.2878477E-009  0.8846282E+02  0.7561462E-02  0.1306617E+00
         -1   -1    0    0    0  501 -0.00000000000E+00  0.00000000000E+00  0.22858467718E+02  0.22858467718E+02  0.00000000000E+00 0.  1.
          1   -1    0    0  501    0  0.00000000000E+00 -0.00000000000E+00 -0.63795364240E+03  0.63795364240E+03  0.00000000000E+00 0. -1.
         25    2    1    2    0    0 -0.63806780563E+01 -0.22000815165E+02 -0.21379696509E+03  0.24876042752E+03  0.12509140296E+03 0.  0.
          5    1    3    3  502    0 -0.43034052715E+02 -0.19149786481E+02 -0.19798580060E+02  0.51264999636E+02  0.41800000000E+01 0.  1.
         -5    1    3    3    0  502  0.36653374659E+02 -0.28510286845E+01 -0.19399838503E+03  0.19749542788E+03  0.41800000000E+01 0.  1.
        -11    1    1    2    0    0  0.42781335045E+02  0.33637425227E+02 -0.20724581467E+03  0.21427213235E+03  0.00000000000E+00 0.  1.
         11    1    1    2    0    0 -0.36400656989E+02 -0.11636610061E+02 -0.19405239491E+03  0.19777955024E+03  0.00000000000E+00 0. -1.
</event>
<event>
 7    1  0.2878477E-009  0.7144380E+02  0.7561462E-02  0.1355251E+00
          1   -1    0    0  501    0  0.00000000000E+00  0.00000000000E+00  0.13952282384E+04  0.13952282384E+04  0.00000000000E+00 0. -1.
         -1   -1    0    0    0  501 -0.00000000000E+00 -0.00000000000E+00 -0.10237709118E+02  0.10237709118E+02  0.00000000000E+00 0.  1.
         25    2    1    2    0    0  0.67342524258E+01  0.13450002453E+02  0.10702380230E+04  0.10776282257E+04  0.12508762594E+03 0.  0.
          5    1    3    3  502    0  0.21236939703E+02  0.31157703281E+02  0.97631827063E+02  0.10474376419E+03  0.41800000000E+01 0. -1.
         -5    1    3    3    0  502 -0.14502687277E+02 -0.17707700829E+02  0.97260619596E+03  0.97288446150E+03  0.41800000000E+01 0. -1.
        -11    1    1    2    0    0 -0.42700671949E+02 -0.16061338965E+02  0.24607589941E+03  0.25026917962E+03  0.00000000000E+00 0.  1.
         11    1    1    2    0    0  0.35966419523E+02  0.26113365124E+01  0.68676606805E+02  0.77568542167E+02  0.00000000000E+00 0. -1.
</event>
<event>
 7    1  0.2878477E-009  0.1958582E+03  0.7561462E-02  0.1153281E+00
         -1   -1    0    0    0  501 -0.00000000000E+00  0.00000000000E+00  0.41690212504E+02  0.41690212504E+02  0.00000000000E+00 0.  1.
          1   -1    0    0  501    0  0.00000000000E+00 -0.00000000000E+00 -0.11630755719E+04  0.11630755719E+04  0.00000000000E+00 0. -1.
         25    2    1    2    0    0  0.35177175883E+02  0.18823284285E+03 -0.54962717143E+03  0.59531991791E+03  0.12508693077E+03 0.  0.
          5    1    3    3  502    0  0.19083466586E+02  0.19190620587E+02 -0.24509433012E+03  0.24661946734E+03  0.41800000000E+01 0.  1.
         -5    1    3    3    0  502  0.16093709297E+02  0.16904222226E+03 -0.30453284132E+03  0.34870045057E+03  0.41800000000E+01 0.  1.
        -11    1    1    2    0    0 -0.11813858928E+02 -0.14369329212E+03 -0.29728185185E+03  0.33039949894E+03  0.00000000000E+00 0.  1.
         11    1    1    2    0    0 -0.23363316956E+02 -0.44539550734E+02 -0.27447633613E+03  0.27904636757E+03  0.00000000000E+00 0. -1.
</event>
<event>
 7    1  0.2878477E-009  0.9675143E+02  0.7561462E-02  0.1287279E+00
          1   -1    0    0  501    0  0.00000000000E+00  0.00000000000E+00  0.47469182869E+02  0.47469182869E+02  0.00000000000E+00 0. -1.
         -1   -1    0    0    0  501 -0.00000000000E+00 -0.00000000000E+00 -0.34046548680E+03  0.34046548680E+03  0.00000000000E+00 0.  1.
         25    2    1    2    0    0 -0.28212297610E+02 -0.80341263528E+01 -0.72360919234E+02  0.14746614787E+03  0.12509868590E+03 0.  0.
          5    1    3    3  502    0  0.28319617301E+02  0.31082611728E+02 -0.65909203002E+02  0.78291921143E+02  0.41800000000E+01 0.  1.
         -5    1    3    3    0  502 -0.56531914910E+02 -0.39116738081E+02 -0.64517162319E+01  0.69174226731E+02  0.41800000000E+01 0.  1.
        -11    1    1    2    0    0  0.12881734367E+01  0.40316662183E+02 -0.16969419910E+03  0.17442251532E+03  0.00000000000E+00 0.  1.
         11    1    1    2    0    0  0.26924124173E+02 -0.32282535830E+02 -0.50941185597E+02  0.66046006481E+02  0.00000000000E+00 0. -1.
</event>
<event>
 7    1  0.2878477E-009  0.1391713E+03  0.7561462E-02  0.1214448E+00
          1   -1    0    0  501    0  0.00000000000E+00  0.00000000000E+00  0.87110555796E+02  0.87110555796E+02  0.00000000000E+00 0. -1.
         -1   -1    0    0    0  501 -0.00000000000E+00 -0.00000000000E+00 -0.26463877714E+03  0.26463877714E+03  0.00000000000E+00 0.  1.
         25    2    1    2    0    0 -0.89292074297E+02 -0.24886623257E+02 -0.10436331638E+03  0.18743405753E+03  0.12508959016E+03 0.  0.
          5    1    3    3  502    0 -0.11949646708E+03 -0.22924444936E+02 -0.66318521712E+02  0.13863821458E+03  0.41800000000E+01 0. -1.
         -5    1    3    3    0  502  0.30204392785E+02 -0.19621783212E+01 -0.38044794669E+02  0.48795842945E+02  0.41800000000E+01 0. -1.
        -11    1    1    2    0    0  0.68564127456E+02 -0.24237300705E+02 -0.82727190244E+02  0.11014660378E+03  0.00000000000E+00 0.  1.
         11    1    1    2    0    0  0.20727946841E+02  0.49123923962E+02  0.95622852836E+01  0.54168671624E+02  0.00000000000E+00 0. -1.
</event>
<event>
 7    1  0.2878477E-009  0.1834831E+03  0.7561462E-02  0.1164474E+00
          1   -1    0    0  501    0  0.00000000000E+00  0.00000000000E+00  0.53556078258E+03  0.53556078258E+03  0.00000000000E+00 0. -1.
         -1   -1    0    0    0  501 -0.00000000000E+00 -0.00000000000E+00 -0.88332736674E+02  0.88332736674E+02  0.00000000000E+00 0.  1.
         25    2    1    2    0    0 -0.56255494661E+02  0.15855829521E+03  0.11587427676E+03  0.23954120802E+03  0.12509088163E+03 0.  0.
          5    1    3    3  502    0 -0.18593250790E+01 -0.76330563306E+01  0.52884601792E+02  0.53628109657E+02  0.41800000000E+01 0.  1.
         -5    1    3    3    0  502 -0.54396169582E+02  0.16619135154E+03  0.62989674967E+02  0.18591309836E+03  0.41800000000E+01 0.  1.
        -11    1    1    2    0    0  0.20169785555E+02  0.37346138526E+00  0.69963585235E+01  0.21352019935E+02  0.00000000000E+00 0.  1.
         11    1    1    2    0    0  0.36085709106E+02 -0.15893175659E+03  0.32435741062E+03  0.36300029129E+03  0.00000000000E+00 0. -1.
</event>
<event>
 7    1  0.2878477E-009  0.1824351E+03  0.7561462E-02  0.1165467E+00
         -2   -1    0    0    0  501 -0.00000000000E+00  0.00000000000E+00  0.29477068185E+03  0.29477068185E+03  0.00000000000E+00 0.  1.
          2   -1    0    0  501    0  0.00000000000E+00 -0.00000000000E+00 -0.17516314998E+03  0.17516314998E+03  0.00000000000E+00 0. -1.
         25    2    1    2    0    0  0.11577001574E+03 -0.11569959863E+03 -0.51444853311E+02  0.21232856114E+03  0.12509097200E+03 0.  0.
          5    1    3    3  502    0  0.21526779140E+02 -0.62193139345E+02  0.34060226790E+02  0.74222370285E+02  0.41800000000E+01 0. -1.
         -5    1    3    3    0  502  0.94243236595E+02 -0.53506459283E+02 -0.85505080101E+02  0.13810619085E+03  0.41800000000E+01 0. -1.
        -11    1    1    2    0    0 -0.10489330138E+03  0.37311665611E+02  0.11856869768E+03  0.16264470829E+03  0.00000000000E+00 0. -1.
         11    1    1    2    0    0 -0.10876714355E+02  0.78387933016E+02  0.52483687492E+02  0.94960562395E+02  0.00000000000E+00 0.  1.
</event>
<event>
 7    1  0.2878477E-009  0.2676194E+03  0.7561462E-02  0.1102650E+00
          2   -1    0    0  501    0  0.00000000000E+00  0.00000000000E+00  0.29879270324E+03  0.29879270324E+03  0.00000000000E+00 0. -1.
         -2   -1    0    0    0  501 -0.00000000000E+00 -0.00000000000E+00 -0.24367210983E+03  0.24367210983E+03  0.00000000000E+00 0.  1.
         25    2    1    2    0    0  0.20263150000E+03  0.14119379593E+03  0.32269428770E+02  0.27871813328E+03  0.12508904421E+03 0.  0.
          5    1    3    3  502    0  0.20444847070E+03  0.92032514578E+02  0.97659034063E+01  0.22445936421E+03  0.41800000000E+01 0. -1.
         -5    1    3    3    0  502 -0.18169706993E+01  0.49161281355E+02  0.22503525364E+02  0.54258769068E+02  0.41800000000E+01 0. -1.
        -11    1    1    2    0    0 -0.14606806502E+03 -0.50152583454E+02  0.25515720505E+02  0.15653182820E+03  0.00000000000E+00 0. -1.
         11    1    1    2    0    0 -0.56563434977E+02 -0.91041212478E+02 -0.26645558664E+01  0.10721485160E+03  0.00000000000E+00 0.  1.
</event>
<event>
 7    1  0.2878477E-009  0.1089185E+03  0.7561462E-02  0.1262586E+00
         -2   -1    0    0    0  501 -0.00000000000E+00  0.00000000000E+00  0.39592405960E+02  0.39592405960E+02  0.00000000000E+00 0. -1.
          2   -1    0    0  501    0  0.00000000000E+00 -0.00000000000E+00 -0.35368537000E+03  0.35368537000E+03  0.00000000000E+00 0.  1.
         25    2    1    2    0    0 -0.19548154764E+02 -0.39784736348E+02 -0.14721683832E+03  0.19820399430E+03  0.12508824992E+03 0.  0.
          5    1    3    3  502    0 -0.47659355486E+02 -0.71388953691E+02 -0.12048578458E+03  0.14799355919E+03  0.41800000000E+01 0.  1.
         -5    1    3    3    0  502  0.28111200722E+02  0.31604217343E+02 -0.26731053741E+02  0.50210435111E+02  0.41800000000E+01 0.  1.
        -11    1    1    2    0    0  0.47435641676E+02  0.97814560008E+01 -0.13420755277E+03  0.14267965588E+03  0.00000000000E+00 0.  1.
         11    1    1    2    0    0 -0.27887486912E+02  0.30003280347E+02 -0.32668572952E+02  0.52394125783E+02  0.00000000000E+00 0. -1.
</event>
<event>
 7    1  0.2878477E-009  0.1235723E+03  0.7561462E-02  0.1237318E+00
          1   -1    0    0  501    0  0.00000000000E+00  0.00000000000E+00  0.10532461663E+04  0.10532461663E+04  0.00000000000E+00 0. -1.
         -1   -1    0    0    0  501 -0.00000000000E+00 -0.00000000000E+00 -0.19842543100E+02  0.19842543100E+02  0.00000000000E+00 0.  1.
         25    2    1    2    0    0 -0.94908378915E+02 -0.11476082086E+02  0.52857660105E+03  0.55152518442E+03  0.12508998770E+03 0.  0.
          5    1    3    3  502    0 -0.81311586789E+02  0.17971549381E+02  0.50338655575E+03  0.51024508585E+03  0.41800000000E+01 0.  1.
         -5    1    3    3    0  502 -0.13596792125E+02 -0.29447631467E+02  0.25190045304E+02  0.41280098565E+02  0.41800000000E+01 0.  1.
        -11    1    1    2    0    0  0.56779650208E+02 -0.38205055446E+02  0.26539203711E+03  0.27407387380E+03  0.00000000000E+00 0.  1.
         11    1    1    2    0    0  0.38128728707E+02  0.49681137531E+02  0.23943498506E+03  0.24748965120E+03  0.00000000000E+00 0. -1.
</event>
<event>
 7    1  0.2878477E-009  0.1431047E+03  0.7561462E-02  0.1209211E+00
          1   -1    0    0  501    0  0.00000000000E+00  0.00000000000E+00  0.20480773736E+03  0.20480773736E+03  0.00000000000E+00 0. -1.
         -1   -1    0    0    0  501 -0.00000000000E+00 -0.00000000000E+00 -0.11982848896E+03  0.11982848896E+03  0.00000000000E+00 0.  1.
         25    2    1    2    0    0  0.99520061348E+02 -0.29542996277E+02  0.92430382378E+02  0.18699619839E+03  0.12508865411E+03 0.  0.
          5    1    3    3  502    0  0.12131800241E+03 -0.13756416574E+02  0.41114084718E+02  0.12889971710E+03  0.41800000000E+01 0.  1.
         -5    1    3    3    0  502 -0.21797941061E+02 -0.15786579703E+02  0.51316297660E+02  0.58096481294E+02  0.41800000000E+01 0.  1.
        -11    1    1    2    0    0 -0.68222532816E+02 -0.26034824651E+02  0.26053893847E+01  0.73067873462E+02  0.00000000000E+00 0.  1.
         11    1    1    2    0    0 -0.31297528532E+02  0.55577820929E+02 -0.10056523364E+02  0.64572154475E+02  0.00000000000E+00 0. -1.
</event>
<event>
 7    1  0.2878477E-009  0.1081943E+03  0.7561462E-02  0.1263951E+00
          2   -1    0    0  501    0  0.00000000000E+00  0.00000000000E+00  0.99009426478E+02  0.99009426478E+02  0.00000000000E+00 0. -1.
         -2   -1    0    0    0  501 -0.00000000000E+00 -0.00000000000E+00 -0.18132925582E+03  0.18132925582E+03  0.00000000000E+00 0.  1.
         25    2    1    2    0    0 -0.39121113519E+02 -0.65359100503E+02 -0.58144689119E+02  0.15756896387E+03  0.12507957451E+03 0.  0.
          5    1    3    3  502    0  0.39935348528E+02 -0.22868978925E+02 -0.48846330992E+02  0.67240305699E+02  0.41800000000E+01 0.  1.
         -5    1    3    3    0  502 -0.79056462047E+02 -0.42490121578E+02 -0.92983581268E+01  0.90328658171E+02  0.41800000000E+01 0.  1.
        -11    1    1    2    0    0  0.26751331816E+02  0.20236693823E+02  0.34236518609E+02  0.47930123485E+02  0.00000000000E+00 0. -1.
         11    1    1    2    0    0  0.12369781703E+02  0.45122406680E+02 -0.58411658832E+02  0.74839594945E+02  0.00000000000E+00 0.  1.
</event>
<event>
 7    1  0.2878477E-009  0.9951322E+02  0.7561462E-02  0.1281323E+00
         -2   -1    0    0    0  501 -0.00000000000E+00  0.00000000000E+00  0.65955471784E+02  0.65955471784E+02  0.00000000000E+00 0.  1.
          2   -1    0    0  501    0  0.00000000000E+00 -0.00000000000E+00 -0.27581389285E+03  0.27581389285E+03  0.00000000000E+00 0. -1.
         25    2    1    2    0    0  0.76908182382E+02  0.25625705943E+02 -0.11426219815E+03  0.18779939807E+03  0.12506485784E+03 0.  0.
          5    1    3    3  502    0  0.57679568875E+02  0.29179137351E+02  0.67686291533E+01  0.65127885447E+02  0.41800000000E+01 0.  1.
         -5    1    3    3    0  502  0.19228613507E+02 -0.35534314071E+01 -0.12103082730E+03  0.12267151262E+03  0.41800000000E+01 0.  1.
        -11    1    1    2    0    0 -0.36301215846E+02  0.28808588388E+02 -0.15295373464E+02  0.48802269273E+02  0.00000000000E+00 0.  1.
         11    1    1    2    0    0 -0.40606966537E+02 -0.54434294331E+02 -0.80300849458E+02  0.10516769730E+03  0.00000000000E+00 0. -1.
</event>
<event>
 6    1  0.2878477E-009  0.6377546E+02  0.7561462E-02  0.1382638E+00
         -1   -1    0    0    0  501 -0.00000000000E+00  0.00000000000E+00  0.13435368423E+03  0.13435368423E+03  0.00000000000E+00 0.  1.
          1   -1    0    0  501    0  0.00000000000E+00 -0.00000000000E+00 -0.93596762215E+02  0.93596762215E+02  0.00000000000E+00 0. -1.
          5    1    1    2  502    0 -0.25744846863E+02 -0.11783157116E+02  0.68854118225E+02  0.74565420458E+02  0.41800000000E+01 0.  1.
         -5    1    1    2    0  502  0.43764341492E+02  0.31605392359E+02 -0.26299515652E+02  0.60194313152E+02  0.41800000000E+01 0.  1.
        -11    1    1    2    0    0 -0.27414951194E+01  0.10489236261E+02  0.38791865959E+02  0.40278390452E+02  0.00000000000E+00 0.  1.
         11    1    1    2    0    0 -0.15277999510E+02 -0.30311471504E+02 -0.40589546516E+02  0.52912322384E+02  0.00000000000E+00 0. -1.
</event>
<event>
 7    1  0.2878477E-009  0.1195699E+03  0.7561462E-02  0.1243808E+00
          1   -1    0    0  501    0  0.00000000000E+00  0.00000000000E+00  0.12590780072E+04  0.12590780072E+04  0.00000000000E+00 0. -1.
         -1   -1    0    0    0  501 -0.00000000000E+00 -0.00000000000E+00 -0.20080911894E+02  0.20080911894E+02  0.00000000000E+00 0.  1.
         25    2    1    2    0    0  0.42267817931E+02  0.32401471049E+02  0.10717996396E+04  0.10803899702E+04  0.12510634038E+03 0.  0.
          5    1    3    3  502    0  0.84848387804E+02  0.26010893905E+02  0.58994578811E+03  0.59659812338E+03  0.41800000000E+01 0.  1.
         -5    1    3    3    0  502 -0.42580569873E+02  0.63905771448E+01  0.48185385153E+03  0.48379184681E+03  0.41800000000E+01 0.  1.
        -11    1    1    2    0    0 -0.69356728663E+02 -0.38418669506E+02  0.11550099509E+03  0.14009578810E+03  0.00000000000E+00 0.  1.
         11    1    1    2    0    0  0.27088910732E+02  0.60171984563E+01  0.51696460587E+02  0.58673160808E+02  0.00000000000E+00 0. -1.
</event>
<event>
 7    1  0.2878477E-009  0.1183122E+03  0.7561462E-02  0.1245908E+00
          1   -1    0    0  501    0  0.00000000000E+00  0.00000000000E+00  0.48775510676E+02  0.48775510676E+02  0.00000000000E+00 0. -1.
         -1   -1    0    0    0  501 -0.00000000000E+00 -0.00000000000E+00 -0.36950168202E+03  0.36950168202E+03  0.00000000000E+00 0.  1.
         25    2    1    2    0    0  0.49100999887E+02 -0.49611859429E+01 -0.80800813724E+02  0.15687963684E+03  0.12508767886E+03 0.  0.
          5    1    3    3  502    0  0.84173204790E+02 -0.31778637992E+02 -0.52039299467E+02  0.10402197521E+03  0.41800000000E+01 0.  1.
         -5    1    3    3    0  502 -0.35072204904E+02  0.26817452049E+02 -0.28761514257E+02  0.52857661635E+02  0.41800000000E+01 0.  1.
        -11    1    1    2    0    0 -0.23354914376E+02  0.47244891588E+02 -0.14606168395E+03  0.15527893394E+03  0.00000000000E+00 0. -1.
         11    1    1    2    0    0 -0.25746085511E+02 -0.42283705645E+02 -0.93863673669E+02  0.10611862191E+03  0.00000000000E+00 0.  1.
</event>
<event>
 7    1  0.2878477E-009  0.7454609E+02  0.7561462E-02  0.1345282E+00
         -2   -1    0    0    0  501 -0.00000000000E+00  0.00000000000E+00  0.14018302562E+03  0.14018302562E+03  0.00000000000E+00 0.  1.
          2   -1    0    0  501    0  0.00000000000E+00 -0.00000000000E+00 -0.99017895897E+02  0.99017895897E+02  0.00000000000E+00 0. -1.
         25    2    1    2    0    0  0.30702216374E+02  0.22384918387E+02  0.18774438889E+02  0.13209431278E+03  0.12511081988E+03 0.  0.
          5    1    3    3  502    0  0.19467275063E+02  0.33078923497E+02 -0.49033490205E+02  0.62409498795E+02  0.41800000000E+01 0. -1.
         -5    1    3    3    0  502  0.11234941311E+02 -0.10694005110E+02  0.67807929095E+02  0.69684813982E+02  0.41800000000E+01 0. -1.
        -11    1    1    2    0    0  0.97320837673E-01  0.31956206309E+02 -0.13920336536E+02  0.34856625802E+02  0.00000000000E+00 0. -1.
         11    1    1    2    0    0 -0.30799537212E+02 -0.54341124696E+02  0.36311027366E+02  0.72249982935E+02  0.00000000000E+00 0.  1.
</event>
<event>
 7    1  0.2878477E-009  0.7564712E+02  0.7561462E-02  0.1341879E+00
         -1   -1    0    0    0  501 -0.00000000000E+00  0.00000000000E+00  0.10833646998E+03  0.10833646998E+03  0.00000000000E+00 0.  1.
          1   -1    0    0  501    0  0.00000000000E+00 -0.00000000000E+00 -0.11989360045E+03  0.11989360045E+03  0.00000000000E+00 0. -1.
         25    2    1    2    0    0 -0.21898523978E+02  0.25107744029E+02 -0.22976283897E+02  0.13146769190E+03  0.12508357298E+03 0.  0.
          5    1    3    3  502    0 -0.56942905116E+02  0.26791337343E+02  0.28356007590E+02  0.69150602066E+02  0.41800000000E+01 0. -1.
         -5    1    3    3    0  502  0.35044381138E+02 -0.16835933139E+01 -0.51332291487E+02  0.62317089832E+02  0.41800000000E+01 0. -1.
        -11    1    1    2    0    0  0.13517007638E+02 -0.36400200436E+02  0.45546411095E+02  0.59851145777E+02  0.00000000000E+00 0.  1.
         11    1    1    2    0    0  0.83815163401E+01  0.11292456406E+02 -0.34127257668E+02  0.36911232759E+02  0.00000000000E+00 0. -1.
</event>
<event>
 7    1  0.2878477E-009  0.1008936E+03  0.7561462E-02  0.1278428E+00
         -2   -1    0    0    0  501 -0.00000000000E+00  0.00000000000E+00  0.51440722480E+02  0.51440722480E+02  0.00000000000E+00 0.  1.
          2   -1    0    0  501    0  0.00000000000E+00 -0.00000000000E+00 -0.54946991001E+03  0.54946991001E+03  0.00000000000E+00 0. -1.
         25    2    1    2    0    0  0.69191246155E+02 -0.19939037817E+02 -0.76269825559E+02  0.16324694850E+03  0.12508991218E+03 0.  0.
          5    1    3    3  502    0  0.55530157596E+02  0.27550984468E+02  0.10783427925E+02  0.63058781035E+02  0.41800000000E+01 0.  1.
         -5    1    3    3    0  502  0.13661088559E+02 -0.47490022284E+02 -0.87053253484E+02  0.10018816746E+03  0.41800000000E+01 0.  1.
        -11    1    1    2    0    0  0.30693803750E+01  0.17495738594E+02 -0.11679382513E+02  0.21258643906E+02  0.00000000000E+00 0.  1.
         11    1    1    2    0    0 -0.72260626530E+02  0.24432992228E+01 -0.41007997946E+03  0.41640504009E+03  0.00000000000E+00 0. -1.
</event>
<event>
 7    1  0.2878477E-009  0.1380210E+03  0.7561462E-02  0.1216017E+00
          2   -1    0    0  501    0  0.00000000000E+00  0.00000000000E+00  0.97159534653E+03  0.97159534653E+03  0.00000000000E+00 0. -1.
         -2   -1    0    0    0  501 -0.00000000000E+00 -0.00000000000E+00 -0.34031149036E+02  0.34031149036E+02  0.00000000000E+00 0.  1.
         25    2    1    2    0    0 -0.71929106457E+02  0.89526384504E+02  0.74672602985E+03  0.76579168213E+03  0.12509343262E+03 0.  0.
          5    1    3    3  502    0 -0.39996716715E+02 -0.20659398180E+02  0.11222257418E+03  0.12098729948E+03  0.41800000000E+01 0. -1.
         -5    1    3    3    0  502 -0.31932389742E+02  0.11018578268E+03  0.63450345567E+03  0.64480438264E+03  0.41800000000E+01 0. -1.
        -11    1    1    2    0    0  0.37232064548E+02 -0.59297878491E+02  0.17916346716E+03  0.19235907306E+03  0.00000000000E+00 0. -1.
         11    1    1    2    0    0  0.34697041909E+02 -0.30228506014E+02  0.11674700488E+02  0.47475740379E+02  0.00000000000E+00 0.  1.
</event>
<event>
 7    1  0.2878477E-009  0.1017516E+03  0.7561462E-02  0.1276655E+00
         -2   -1    0    0    0  501 -0.00000000000E+00  0.00000000000E+00  0.77716481751E+02  0.77716481751E+02  0.00000000000E+00 0.  1.
          2   -1    0    0  501    0  0.00000000000E+00 -0.00000000000E+00 -0.32480445073E+03  0.32480445073E+03  0.00000000000E+00 0. -1.
         25    2    1    2    0    0 -0.48646188999E+02  0.25557424302E+02 -0.31293296356E+01  0.13666014876E+03  0.12508624990E+03 0.  0.
          5    1    3    3  502    0  0.13714247810E+02 -0.23697043343E+02  0.38048468795E+02  0.47061543046E+02  0.41800000000E+01 0.  1.
         -5    1    3    3    0  502 -0.62360436808E+02  0.49254467645E+02 -0.41177798431E+02  0.89598605712E+02  0.41800000000E+01 0.  1.
        -11    1    1    2    0    0  0.59168245886E+02  0.92328268932E+01 -0.93185570482E+02  0.11076857388E+03  0.00000000000E+00 0. -1.
         11    1    1    2    0    0 -0.10522056887E+02 -0.34790251196E+02 -0.15077306886E+03  0.15509220984E+03  0.00000000000E+00 0.  1.
</event>
<event>
 7    1  0.2878477E-009  0.9290129E+02  0.7561462E-02  0.1295974E+00
          1   -1    0    0  501    0  0.00000000000E+00  0.00000000000E+00  0.36298392244E+03  0.36298392244E+03  0.00000000000E+00 0. -1.
         -1   -1    0    0    0  501 -0.00000000000E+00 -0.00000000000E+00 -0.48441998395E+02  0.48441998395E+02  0.00000000000E+00 0.  1.
         25    2    1    2    0    0 -0.17287319197E+02 -0.40756846528E+02  0.78098064039E+02  0.15397207069E+03  0.12509244182E+03 0.  0.
          5    1    3    3  502    0  0.19002151147E+02 -0.43229398429E+02  0.10045068416E+03  0.11107508714E+03  0.41800000000E+01 0.  1.
         -5    1    3    3    0  502 -0.36289470344E+02  0.24725519005E+01 -0.22352620118E+02  0.42896983541E+02  0.41800000000E+01 0.  1.
        -11    1    1    2    0    0 -0.35874752121E+02  0.31663160555E+02  0.11635197189E+03  0.12580673646E+03  0.00000000000E+00 0.  1.
         11    1    1    2    0    0  0.53162071319E+02  0.90936859737E+01  0.12009188812E+03  0.13164711369E+03  0.00000000000E+00 0. -1.
</event>
<event>
 7    1  0.2878477E-009  0.1229075E+03  0.7561462E-02  0.1238376E+00
          2   -1    0    0  501    0  0.00000000000E+00  0.00000000000E+00  0.34386895184E+03  0.34386895184E+03  0.00000000000E+00 0. -1.
         -2   -1    0    0    0  501 -0.00000000000E+00 -0.00000000000E+00 -0.54111258060E+02  0.54111258060E+02  0.00000000000E+00 0.  1.
         25    2    1    2    0    0  0.18006573449E+02  0.58553002647E+02  0.76231389454E+02  0.15878423605E+03  0.12509403693E+03 0.  0.
          5    1    3    3  502    0  0.48751900260E+02  0.85043502827E+02  0.48454302488E+02  0.10942777061E+03  0.41800000000E+01 0. -1.
         -5    1    3    3    0  502 -0.30745326810E+02 -0.26490500180E+02  0.27777086966E+02  0.49356465441E+02  0.41800000000E+01 0. -1.
        -11    1    1    2    0    0 -0.16996100533E+02 -0.81843247599E+02  0.15317327797E+03  0.17449709939E+03  0.00000000000E+00 0. -1.
         11    1    1    2    0    0 -0.10104729167E+01  0.23290244953E+02  0.60353026356E+02  0.64698874455E+02  0.00000000000E+00 0.  1.
</event>
<event>
 7    1  0.2878477E-009  0.1221527E+03  0.7561462E-02  0.1239588E+00
         -1   -1    0    0    0  501 -0.00000000000E+00  0.00000000000E+00  0.66430931183E+02  0.66430931183E+02  0.00000000000E+00 0.  1.
          1   -1    0    0  501    0  0.00000000000E+00 -0.00000000000E+00 -0.29627558182E+03  0.29627558182E+03  0.00000000000E+00 0. -1.
         25    2    1    2    0    0  0.59674023258E+01  0.67719168680E+02 -0.44602441581E+02  0.14920268147E+03  0.12510222486E+03 0.  0.
          5    1    3    3  502    0 -0.59174735889E+02  0.33369825781E+02 -0.14841685205E+02  0.69663065249E+02  0.41800000000E+01 0. -1.
         -5    1    3    3    0  502  0.65142138215E+02  0.34349342899E+02 -0.29760756377E+02  0.79539616223E+02  0.41800000000E+01 0. -1.
        -11    1    1    2    0    0  0.28623583477E+02 -0.25977623841E+01 -0.29494178160E+02  0.41182088896E+02  0.00000000000E+00 0.  1.
         11    1    1    2    0    0 -0.34590985803E+02 -0.65121406296E+02 -0.15574803089E+03  0.17232174263E+03  0.00000000000E+00 0. -1.
</event>
<event>
 7    1  0.2878477E-009  0.4075513E+03  0.7561462E-02  0.1041196E+00
         -2   -1    0    0    0  501 -0.00000000000E+00  0.00000000000E+00  0.15534427174E+03  0.15534427174E+03  0.00000000000E+00 0.  1.
          2   -1    0    0  501    0  0.00000000000E+00 -0.00000000000E+00 -0.12097568903E+04  0.12097568903E+04  0.00000000000E+00 0. -1.
         25    2    1    2    0    0  0.14650209212E+03  0.37251868031E+03 -0.72986572389E+03  0.84177434350E+03  0.12508813010E+03 0.  0.
          5    1    3    3  502    0  0.34078424651E+01  0.14128799053E+03 -0.32054345046E+03  0.35034195537E+03  0.41800000000E+01 0. -1.
         -5    1    3    3    0  502  0.14309424965E+03  0.23123068978E+03 -0.40932227343E+03  0.49143238813E+03  0.41800000000E+01 0. -1.
        -11    1    1    2    0    0 -0.13587128330E+03 -0.31189394159E+03 -0.30959535508E+03  0.45998708712E+03  0.00000000000E+00 0. -1.
         11    1    1    2    0    0 -0.10630808812E+02 -0.60624738716E+02 -0.14951539579E+02  0.63339731419E+02  0.00000000000E+00 0.  1.
</event>
<event>
 7    1  0.2878477E-009  0.9867160E+02  0.7561462E-02  0.1283114E+00
          1   -1    0    0  501    0  0.00000000000E+00  0.00000000000E+00  0.10848083940E+04  0.10848083940E+04  0.00000000000E+00 0. -1.
         -1   -1    0    0    0  501 -0.00000000000E+00 -0.00000000000E+00 -0.19875674047E+02  0.19875674047E+02  0.00000000000E+00 0.  1.
         25    2    1    2    0    0  0.58107267102E+02 -0.41925124290E+02  0.56348480577E+03  0.58163271438E+03  0.12508923841E+03 0.  0.
          5    1    3    3  502    0  0.53443470419E+02 -0.31514934701E+02  0.98482682833E+02  0.11647191446E+03  0.41800000000E+01 0.  1.
         -5    1    3    3    0  502  0.46637966832E+01 -0.10410189589E+02  0.46500212294E+03  0.46516079992E+03  0.41800000000E+01 0.  1.
        -11    1    1    2    0    0  0.19650215683E+02 -0.16572411297E+02  0.22016726385E+02  0.33845413770E+02  0.00000000000E+00 0.  1.
         11    1    1    2    0    0 -0.77757482785E+02  0.58497535586E+02  0.47943118784E+03  0.48920593994E+03  0.00000000000E+00 0. -1.
</event>
<event>
 7    1  0.3315151E-009  0.1090963E+03  0.7561462E-02  0.1262253E+00
          1   -1    0    0  501    0  0.00000000000E+00  0.00000000000E+00  0.26326360923E+03  0.26326360923E+03  0.00000000000E+00 0. -1.
         -1   -1    0    0    0  501 -0.00000000000E+00 -0.00000000000E+00 -0.82036732984E+02  0.82036732984E+02  0.00000000000E+00 0.  1.
         25    2    1    2    0    0  0.64875701209E+02  0.48281785123E+02  0.31191597429E+02  0.15218613548E+03  0.12509083380E+03 0.  0.
          5    1    3    3  502    0 -0.36036255214E+01  0.65701826390E+02  0.45319033899E+02  0.80006270638E+02  0.41800000000E+01 0.  1.
         -5    1    3    3    0  502  0.68479326731E+02 -0.17420041267E+02 -0.14127436470E+02  0.72179864841E+02  0.41800000000E+01 0.  1.
        -11    1    1    2    0    0 -0.20501753346E+02 -0.97286277552E+01 -0.83438841687E+01  0.24178264852E+02  0.00000000000E+00 0.  1.
         11    1    1    2    0    0 -0.44373947864E+02 -0.38553157368E+02  0.15837916299E+03  0.16893594189E+03  0.00000000000E+00 0. -1.
</event>
<event>
 7    1  0.2878477E-009  0.8034739E+02  0.7561462E-02  0.1328068E+00
         -2   -1    0    0    0  501 -0.00000000000E+00  0.00000000000E+00  0.32235643853E+02  0.32235643853E+02  0.00000000000E+00 0.  1.
          2   -1    0    0  501    0  0.00000000000E+00 -0.00000000000E+00 -0.36630768469E+03  0.36630768469E+03  0.00000000000E+00 0. -1.
         25    2    1    2    0    0 -0.56537359482E+02 -0.13472757237E+02 -0.26842628994E+03  0.30179223335E+03  0.12509152960E+03 0.  0.
          5    1    3    3  502    0 -0.24390623012E+02 -0.40663019777E+02 -0.23220274636E+02  0.52962602112E+02  0.41800000000E+01 0.  1.
         -5    1    3    3    0  502 -0.32146736470E+02  0.27190262540E+02 -0.24520601530E+03  0.24882963124E+03  0.41800000000E+01 0.  1.
        -11    1    1    2    0    0  0.30094473615E+02 -0.13523934275E+02 -0.34974251726E+02  0.48080894586E+02  0.00000000000E+00 0.  1.
         11    1    1    2    0    0  0.26442885867E+02  0.26996691512E+02 -0.30671499175E+02  0.48670200608E+02  0.00000000000E+00 0. -1.
</event>
<event>
 7    1  0.2878477E-009  0.8268208E+02  0.7561462E-02  0.1321608E+00
          2   -1    0    0  501    0  0.00000000000E+00  0.00000000000E+00  0.46042915136E+03  0.46042915136E+03  0.00000000000E+00 0. -1.
         -2   -1    0    0    0  501 -0.00000000000E+00 -0.00000000000E+00 -0.42540118264E+02  0.42540118264E+02  0.00000000000E+00 0.  1.
         25    2    1    2    0    0 -0.23049502820E+02  0.59522318799E+01  0.38014805376E+03  0.40090713961E+03  0.12508910092E+03 0.  0.
          5    1    3    3  502    0  0.35975055783E+02  0.66438550387E+01  0.29456572303E+03  0.29685818674E+03  0.41800000000E+01 0.  1.
         -5    1    3    3    0  502 -0.59024558603E+02 -0.69162315878E+00  0.85582330725E+02  0.10404895287E+03  0.41800000000E+01 0.  1.
        -11    1    1    2    0    0  0.20348695567E+02 -0.34842887283E+02  0.55066015629E+02  0.68266846146E+02  0.00000000000E+00 0. -1.
         11    1    1    2    0    0  0.27008072529E+01  0.28890655403E+02 -0.17325036290E+02  0.33795283870E+02  0.00000000000E+00 0.  1.
</event>
<event>
 7    1  0.2878477E-009  0.9072604E+02  0.7561462E-02  0.1301103E+00
         -2   -1    0    0    0  501 -0.00000000000E+00  0.00000000000E+00  0.27097900166E+02  0.27097900166E+02  0.00000000000E+00 0.  1.
          2   -1    0    0  501    0  0.00000000000E+00 -0.00000000000E+00 -0.54431611138E+03  0.54431611138E+03  0.00000000000E+00 0. -1.
         25    2    1    2    0    0 -0.15492927154E+01  0.54715205469E+02 -0.32030287073E+03  0.34819392578E+03  0.12509567114E+03 0.  0.
          5    1    3    3  502    0  0.13624286398E+02  0.64340796785E+02 -0.66154845637E+02  0.93377166974E+02  0.41800000000E+01 0.  1.
         -5    1    3    3    0  502 -0.15173579113E+02 -0.96255913160E+01 -0.25414802509E+03  0.25481675881E+03  0.41800000000E+01 0.  1.
        -11    1    1    2    0    0 -0.31939576791E+02  0.11598829462E+01 -0.29173442795E+02  0.43273221033E+02  0.00000000000E+00 0.  1.
         11    1    1    2    0    0  0.33488869506E+02 -0.55875088415E+02 -0.16774189769E+03  0.17994686473E+03  0.00000000000E+00 0. -1.
</event>
<event>
 7    1  0.2878477E-009  0.1204006E+03  0.7561462E-02  0.1242438E+00
          2   -1    0    0  501    0  0.00000000000E+00  0.00000000000E+00  0.14949272515E+03  0.14949272515E+03  0.00000000000E+00 0. -1.
         -2   -1    0    0    0  501 -0.00000000000E+00 -0.00000000000E+00 -0.14235828915E+03  0.14235828915E+03  0.00000000000E+00 0.  1.
         25    2    1    2    0    0  0.16932420745E+02  0.91859535634E+02 -0.20883913123E+02  0.15750434175E+03  0.12508636490E+03 0.  0.
          5    1    3    3  502    0  0.53922060180E+02  0.20009372692E+02  0.26788620345E+02  0.63585109495E+02  0.41800000000E+01 0. -1.
         -5    1    3    3    0  502 -0.36989639435E+02  0.71850162942E+02 -0.47672533468E+02  0.93919232256E+02  0.41800000000E+01 0. -1.
        -11    1    1    2    0    0 -0.27954134610E+02 -0.37637625267E+02 -0.28812820113E+02  0.55029111209E+02  0.00000000000E+00 0.  1.
         11    1    1    2    0    0  0.11021713865E+02 -0.54221910367E+02  0.56831169230E+02  0.79317561337E+02  0.00000000000E+00 0. -1.
</event>
<event>
 7    1  0.2878477E-009  0.1334139E+03  0.7561462E-02  0.1222476E+00
          4   -1    0    0  501    0  0.00000000000E+00  0.00000000000E+00  0.34541784170E+03  0.34541784170E+03  0.00000000000E+00 0. -1.
         -4   -1    0    0    0  501 -0.00000000000E+00 -0.00000000000E+00 -0.67148251967E+02  0.67148251967E+02  0.00000000000E+00 0.  1.
         25    2    1    2    0    0 -0.61933817858E+02  0.82124177128E+02  0.11201087950E+03  0.19691081261E+03  0.12508897926E+03 0.  0.
          5    1    3    3  502    0 -0.78633755667E+02  0.30161995322E+02  0.15181083521E+02  0.85679351007E+02  0.41800000000E+01 0.  1.
         -5    1    3    3    0  502  0.16699937809E+02  0.51962181806E+02  0.96829795979E+02  0.11123146160E+03  0.41800000000E+01 0.  1.
        -11    1    1    2    0    0  0.76281670236E+02 -0.83799375074E+02  0.16626551324E+03  0.20120996339E+03  0.00000000000E+00 0.  1.
         11    1    1    2    0    0 -0.14347852378E+02  0.16751979465E+01 -0.68030076969E-02  0.14445317660E+02  0.00000000000E+00 0. -1.
</event>
<event>
 7    1  0.2878477E-009  0.2079965E+03  0.7561462E-02  0.1143162E+00
          1   -1    0    0  501    0  0.00000000000E+00  0.00000000000E+00  0.14145304204E+03  0.14145304204E+03  0.00000000000E+00 0. -1.
         -1   -1    0    0    0  501 -0.00000000000E+00 -0.00000000000E+00 -0.39842418180E+03  0.39842418180E+03  0.00000000000E+00 0.  1.
         25    2    1    2    0    0 -0.62063493715E+02 -0.17579540278E+03 -0.25003726961E+03  0.33603801438E+03  0.12508800913E+03 0.  0.
          5    1    3    3  502    0 -0.86870847579E+02 -0.68008608630E+02 -0.15407097262E+03  0.18954432730E+03  0.41800000000E+01 0.  1.
         -5    1    3    3    0  502  0.24807353864E+02 -0.10778679415E+03 -0.95966296990E+02  0.14649368709E+03  0.41800000000E+01 0.  1.
        -11    1    1    2    0    0  0.44270418269E+02  0.45804996918E+02  0.25615523376E+02  0.68659469224E+02  0.00000000000E+00 0. -1.
         11    1    1    2    0    0  0.17793075446E+02  0.12999040586E+03 -0.32549393526E+02  0.13517974023E+03  0.00000000000E+00 0.  1.
</event>
<event>
 7    1  0.2878477E-009  0.1509218E+03  0.7561462E-02  0.1199345E+00
          2   -1    0    0  501    0  0.00000000000E+00  0.00000000000E+00  0.67384877119E+03  0.67384877119E+03  0.00000000000E+00 0. -1.
         -2   -1    0    0    0  501 -0.00000000000E+00 -0.00000000000E+00 -0.38943559344E+02  0.38943559344E+02  0.00000000000E+00 0.  1.
         25    2    1    2    0    0 -0.76559967957E+02  0.89624042669E+02  0.39216333731E+03  0.42817474649E+03  0.12509049796E+03 0.  0.
          5    1    3    3  502    0 -0.31375962799E+02 -0.23633406343E+02  0.43400590087E+02  0.58686221184E+02  0.41800000000E+01 0.  1.
         -5    1    3    3    0  502 -0.45184005158E+02  0.11325744901E+03  0.34876274723E+03  0.36948852530E+03  0.41800000000E+01 0.  1.
        -11    1    1    2    0    0 -0.11347439941E+02 -0.35097979525E+02  0.28173899421E+02  0.46415527235E+02  0.00000000000E+00 0.  1.
         11    1    1    2    0    0  0.87907407898E+02 -0.54526063145E+02  0.21456797511E+03  0.23820205681E+03  0.00000000000E+00 0. -1.
</event>
<event>
 7    1  0.2878477E-009  0.1593505E+03  0.7561462E-02  0.1189432E+00
         -2   -1    0    0    0  501 -0.00000000000E+00  0.00000000000E+00  0.69496850736E+02  0.69496850736E+02  0.00000000000E+00 0.  1.
          2   -1    0    0  501    0  0.00000000000E+00 -0.00000000000E+00 -0.57846948813E+03  0.57846948813E+03  0.00000000000E+00 0. -1.
         25    2    1    2    0    0 -0.11791752050E+03 -0.94242148697E+02 -0.21962249790E+03  0.29439353781E+03  0.12508952509E+03 0.  0.
          5    1    3    3  502    0 -0.38793115988E+02 -0.43887638123E+01 -0.15165860059E+03  0.15665877131E+03  0.41800000000E+01 0. -1.
         -5    1    3    3    0  502 -0.79124404515E+02 -0.89853384885E+02 -0.67963897308E+02  0.13773476650E+03  0.41800000000E+01 0. -1.
        -11    1    1    2    0    0  0.41810072212E+02  0.66660122078E+02 -0.34036420453E+02  0.85732910432E+02  0.00000000000E+00 0.  1.
         11    1    1    2    0    0  0.76107448291E+02  0.27582026619E+02 -0.25531371905E+03  0.26783989063E+03  0.00000000000E+00 0. -1.
</event>
<event>
 7    1  0.2878477E-009  0.1601075E+03  0.7561462E-02  0.1188575E+00
         -1   -1    0    0    0  501 -0.00000000000E+00  0.00000000000E+00  0.13191532894E+03  0.13191532894E+03  0.00000000000E+00 0.  1.
          1   -1    0    0  501    0  0.00000000000E+00 -0.00000000000E+00 -0.23867522354E+03  0.23867522354E+03  0.00000000000E+00 0. -1.
         25    2    1    2    0    0  0.10531997526E+03  0.60327899920E+02 -0.20244405405E+02  0.17546633580E+03  0.12508735488E+03 0.  0.
          5    1    3    3  502    0 -0.10662082761E+02  0.29167987389E+02  0.31680736268E+02  0.44559992679E+02  0.41800000000E+01 0. -1.
         -5    1    3    3    0  502  0.11598205802E+03  0.31159912532E+02 -0.51925141673E+02  0.13090634312E+03  0.41800000000E+01 0. -1.
        -11    1    1    2    0    0 -0.90625177609E+02  0.15092294170E+02 -0.21226051330E+02  0.94293400697E+02  0.00000000000E+00 0. -1.
         11    1    1    2    0    0 -0.14694797655E+02 -0.75420194090E+02 -0.65289437862E+02  0.10083081598E+03  0.00000000000E+00 0.  1.
</event>
<event>
 7    1  0.2878477E-009  0.1808615E+03  0.7561462E-02  0.1166972E+00
         -2   -1    0    0    0  501 -0.00000000000E+00  0.00000000000E+00  0.69034430106E+02  0.69034430106E+02  0.00000000000E+00 0.  1.
          2   -1    0    0  501    0  0.00000000000E+00 -0.00000000000E+00 -0.54103742456E+03  0.54103742456E+03  0.00000000000E+00 0. -1.
         25    2    1    2    0    0 -0.90886520992E+02 -0.12726400003E+03 -0.19945155202E+03  0.28264107595E+03  0.12509424770E+03 0.  0.
          5    1    3    3  502    0 -0.97640501399E+02 -0.58454974056E+02 -0.17577627524E+03  0.20944073826E+03  0.41800000000E+01 0. -1.
         -5    1    3    3    0  502  0.67539804068E+01 -0.68809025978E+02 -0.23675276780E+02  0.73200337690E+02  0.41800000000E+01 0. -1.
        -11    1    1    2    0    0  0.10459323616E+03  0.12744734595E+03 -0.23193534762E+03  0.28456383557E+03  0.00000000000E+00 0. -1.
         11    1    1    2    0    0 -0.13706715167E+02 -0.18334592132E+00 -0.40616094813E+02  0.42866943141E+02  0.00000000000E+00 0.  1.
</event>
<event>
 7    1  0.2878477E-009  0.9899346E+02  0.7561462E-02  0.1282427E+00
         -1   -1    0    0    0  501 -0.00000000000E+00  0.00000000000E+00  0.26454821897E+03  0.26454821897E+03  0.00000000000E+00 0.  1.
          1   -1    0    0  501    0  0.00000000000E+00 -0.00000000000E+00 -0.63860399302E+02  0.63860399302E+02  0.00000000000E+00 0. -1.
         25    2    1    2    0    0 -0.55813477898E+02  0.31482866377E+00  0.16914541989E+03  0.21765483179E+03  0.12509280274E+03 0.  0.
          5    1    3    3  502    0 -0.57301355657E+02  0.53534725887E+02  0.12828230367E+03  0.15041021930E+03  0.41800000000E+01 0.  1.
         -5    1    3    3    0  502  0.14878777589E+01 -0.53219897223E+02  0.40863116227E+02  0.67244612486E+02  0.41800000000E+01 0.  1.
        -11    1    1    2    0    0  0.47985967406E+02 -0.14260953393E+02  0.59981208173E+02  0.78126648421E+02  0.00000000000E+00 0.  1.
         11    1    1    2    0    0  0.78275104920E+01  0.13946124729E+02 -0.28438808396E+02  0.32627138067E+02  0.00000000000E+00 0. -1.
</event>
<event>
 7    1  0.2878477E-009  0.6995678E+02  0.7561462E-02  0.1360240E+00
          1   -1    0    0  501    0  0.00000000000E+00  0.00000000000E+00  0.31328033231E+02  0.31328033231E+02  0.00000000000E+00 0. -1.
         -1   -1    0    0    0  501 -0.00000000000E+00 -0.00000000000E+00 -0.49837031932E+03  0.49837031932E+03  0.00000000000E+00 0.  1.
         25    2    1    2    0    0  0.57980477884E+02  0.62248440410E+01 -0.21446333838E+03  0.25503535627E+03  0.12509206585E+03 0.  0.
          5    1    3    3  502    0  0.50388260315E+02 -0.10931677409E+02 -0.13915603386E+02  0.53568598695E+02  0.41800000000E+01 0.  1.
         -5    1    3    3    0  502  0.75922175686E+01  0.17156521450E+02 -0.20054773499E+03  0.20146675757E+03  0.41800000000E+01 0.  1.
        -11    1    1    2    0    0 -0.54351021047E+02  0.74092288307E+01 -0.25457136687E+03  0.26041411443E+03  0.00000000000E+00 0.  1.
         11    1    1    2    0    0 -0.36294568369E+01 -0.13634072872E+02  0.19924191654E+01  0.14248881855E+02  0.00000000000E+00 0. -1.
</event>
<event>
 7    1  0.2878477E-009  0.9007177E+02  0.7561462E-02  0.1302678E+00
         -1   -1    0    0    0  501 -0.00000000000E+00  0.00000000000E+00  0.14197098986E+03  0.14197098986E+03  0.00000000000E+00 0.  1.
          1   -1    0    0  501    0  0.00000000000E+00 -0.00000000000E+00 -0.12271500347E+03  0.12271500347E+03  0.00000000000E+00 0. -1.
         25    2    1    2    0    0  0.45035591946E+02 -0.58876026976E+02  0.16715132791E+02  0.14637194232E+03  0.12510299253E+03 0.  0.
          5    1    3    3  502    0  0.19757784501E+01 -0.70643362737E-01 -0.48355963326E+02  0.48576540430E+02  0.41800000000E+01 0.  1.
         -5    1    3    3    0  502  0.43059813496E+02 -0.58805383613E+02  0.65071096117E+02  0.97795401886E+02  0.41800000000E+01 0.  1.
        -11    1    1    2    0    0 -0.52917824065E+02  0.11069949844E+02 -0.28157139312E+02  0.60956249782E+02  0.00000000000E+00 0.  1.
         11    1    1    2    0    0  0.78822321186E+01  0.47806077132E+02  0.30697992910E+02  0.57357801236E+02  0.00000000000E+00 0. -1.
</event>
<event>
 7    1  0.2878477E-009  0.1038807E+03  0.7561462E-02  0.1272341E+00
          1   -1    0    0  501    0  0.00000000000E+00  0.00000000000E+00  0.42874801042E+03  0.42874801042E+03  0.00000000000E+00 0. -1.
         -1   -1    0    0    0  501 -0.00000000000E+00 -0.00000000000E+00 -0.32493402544E+02  0.32493402544E+02  0.00000000000E+00 0.  1.
         25    2    1    2    0    0  0.14201108810E+01 -0.38974454777E+02  0.27540123007E+03  0.30498212421E+03  0.12508890329E+03 0.  0.
          5    1    3    3  502    0  0.12370348824E+00 -0.79393648354E+02  0.23321533420E+03  0.24639446261E+03  0.41800000000E+01 0. -1.
         -5    1    3    3    0  502  0.12964073928E+01  0.40419193577E+02  0.42185895870E+02  0.58587661601E+02  0.41800000000E+01 0. -1.
        -11    1    1    2    0    0 -0.37056266029E+02  0.36287851705E+02  0.33149293993E+02  0.61553641043E+02  0.00000000000E+00 0.  1.
         11    1    1    2    0    0  0.35636155148E+02  0.26866030720E+01  0.87704083812E+02  0.94705647705E+02  0.00000000000E+00 0. -1.
</event>
<event>
 7    1  0.2878477E-009  0.8715308E+02  0.7561462E-02  0.1309896E+00
         -2   -1    0    0    0  501 -0.00000000000E+00  0.00000000000E+00  0.51778169793E+02  0.51778169793E+02  0.00000000000E+00 0.  1.
          2   -1    0    0  501    0  0.00000000000E+00 -0.00000000000E+00 -0.25528635650E+03  0.25528635650E+03  0.00000000000E+00 0. -1.
         25    2    1    2    0    0  0.23255611856E+02 -0.12168644891E+00 -0.76824300372E+02  0.14864435916E+03  0.12510928859E+03 0.  0.
          5    1    3    3  502    0  0.58759918411E+02  0.40692825791E+02 -0.32703633784E+02  0.78712350652E+02  0.41800000000E+01 0.  1.
         -5    1    3    3    0  502 -0.35504306555E+02 -0.40814512240E+02 -0.44120666589E+02  0.69932008505E+02  0.41800000000E+01 0.  1.
        -11    1    1    2    0    0  0.85749814352E+01  0.11765373489E+02  0.99573414726E+01  0.17638111269E+02  0.00000000000E+00 0.  1.
         11    1    1    2    0    0 -0.31830593291E+02 -0.11643687040E+02 -0.13664122780E+03  0.14078205586E+03  0.00000000000E+00 0. -1.
</event>
<event>
 7    1  0.2878477E-009  0.2548105E+03  0.7561462E-02  0.1110302E+00
         -2   -1    0    0    0  501 -0.00000000000E+00  0.00000000000E+00  0.14954870255E+03  0.14954870255E+03  0.00000000000E+00 0.  1.
          2   -1    0    0  501    0  0.00000000000E+00 -0.00000000000E+00 -0.74907970791E+03  0.74907970791E+03  0.00000000000E+00 0. -1.
         25    2    1    2    0    0  0.71574972704E+02  0.24341779119E+03 -0.55767448406E+03  0.62531867519E+03  0.12508963821E+03 0.  0.
          5    1    3    3  502    0  0.60966521481E+02  0.15833599348E+03 -0.48155617830E+03  0.51058890394E+03  0.41800000000E+01 0. -1.
         -5    1    3    3    0  502  0.10608451222E+02  0.85081797709E+02 -0.76118305763E+02  0.11472977125E+03  0.41800000000E+01 0. -1.
        -11    1    1    2    0    0 -0.44491370369E+02 -0.17251133535E+03  0.14539981915E+02  0.17874857744E+03  0.00000000000E+00 0.  1.
         11    1    1    2    0    0 -0.27083602334E+02 -0.70906455840E+02 -0.56396503220E+02  0.94561157833E+02  0.00000000000E+00 0. -1.
</event>
<event>
 7    1  0.2878477E-009  0.8992712E+02  0.7561462E-02  0.1303028E+00
          1   -1    0    0  501    0  0.00000000000E+00  0.00000000000E+00  0.56747084029E+02  0.56747084029E+02  0.00000000000E+00 0. -1.
         -1   -1    0    0    0  501 -0.00000000000E+00 -0.00000000000E+00 -0.25660096420E+03  0.25660096420E+03  0.00000000000E+00 0.  1.
         25    2    1    2    0    0 -0.27512882908E+02  0.13695518119E+02 -0.53395162910E+02  0.13943992842E+03  0.12509166349E+03 0.  0.
          5    1    3    3  502    0 -0.51520901734E+02 -0.42817356645E+02 -0.31187064768E+02  0.74012395951E+02  0.41800000000E+01 0. -1.
         -5    1    3    3    0  502  0.24008018826E+02  0.56512874765E+02 -0.22208098142E+02  0.65427532471E+02  0.41800000000E+01 0. -1.
        -11    1    1    2    0    0  0.74368138027E+01 -0.26403060116E+02 -0.14759383421E+03  0.15012117665E+03  0.00000000000E+00 0.  1.
         11    1    1    2    0    0  0.20076069105E+02  0.12707541996E+02  0.11351169436E+01  0.23786943158E+02  0.00000000000E+00 0. -1.
</event>
<event>
 7    1  0.2878477E-009  0.1434883E+03  0.7561462E-02  0.1208711E+00
          1   -1    0    0  501    0  0.00000000000E+00  0.00000000000E+00  0.53030037624E+03  0.53030037624E+03  0.00000000000E+00 0. -1.
         -1   -1    0    0    0  501 -0.00000000000E+00 -0.00000000000E+00 -0.54381380475E+02  0.54381380475E+02  0.00000000000E+00 0.  1.
         25    2    1    2    0    0 -0.64353578549E+02  0.97739091798E+02  0.15468945361E+03  0.23080407046E+03  0.12508948295E+03 0.  0.
          5    1    3    3  502    0  0.75294246868E+01  0.53983842549E+02  0.13300623198E+03  0.14380221708E+03  0.41800000000E+01 0.  1.
         -5    1    3    3    0  502 -0.71883003235E+02  0.43755249249E+02  0.21683221631E+02  0.87001853379E+02  0.41800000000E+01 0.  1.
        -11    1    1    2    0    0  0.87413921732E+02 -0.83881413479E+02  0.27242935359E+03  0.29815270909E+03  0.00000000000E+00 0.  1.
         11    1    1    2    0    0 -0.23060343183E+02 -0.13857678319E+02  0.48800188566E+02  0.55724977166E+02  0.00000000000E+00 0. -1.
</event>
<event>
 7    1  0.2878477E-009  0.1120994E+03  0.7561462E-02  0.1256731E+00
          1   -1    0    0  501    0  0.00000000000E+00  0.00000000000E+00  0.31334206877E+02  0.31334206877E+02  0.00000000000E+00 0. -1.
         -1   -1    0    0    0  501 -0.00000000000E+00 -0.00000000000E+00 -0.42668746306E+03  0.42668746306E+03  0.00000000000E+00 0.  1.
         25    2    1    2    0    0 -0.22964853342E+02 -0.35248069597E+02 -0.24228989970E+03  0.27590059695E+03  0.12508770124E+03 0.  0.
          5    1    3    3  502    0 -0.61230480276E+02  0.19823536912E+02 -0.12775964794E+03  0.14311584249E+03  0.41800000000E+01 0.  1.
         -5    1    3    3    0  502  0.38265626934E+02 -0.55071606509E+02 -0.11453025177E+03  0.13278475446E+03  0.41800000000E+01 0.  1.
        -11    1    1    2    0    0  0.37410194370E+02 -0.14943088077E+02 -0.99325911913E+02  0.10718421200E+03  0.00000000000E+00 0. -1.
         11    1    1    2    0    0 -0.14445341029E+02  0.50191157674E+02 -0.53737444570E+02  0.74936860990E+02  0.00000000000E+00 0.  1.
</event>
<event>
 7    1  0.2878477E-009  0.3518159E+03  0.7561462E-02  0.1061872E+00
          2   -1    0    0  501    0  0.00000000000E+00  0.00000000000E+00  0.59196065970E+03  0.59196065970E+03  0.00000000000E+00 0. -1.
         -2   -1    0    0    0  501 -0.00000000000E+00 -0.00000000000E+00 -0.25066193536E+03  0.25066193536E+03  0.00000000000E+00 0.  1.
         25    2    1    2    0    0  0.31170800848E+03 -0.14611874841E+03  0.31481771475E+03  0.48298038632E+03  0.12508912369E+03 0.  0.
          5    1    3    3  502    0  0.82442220729E+02 -0.50070912992E+02  0.16936081671E+03  0.19494710750E+03  0.41800000000E+01 0. -1.
         -5    1    3    3    0  502  0.22926578776E+03 -0.96047835414E+02  0.14545689804E+03  0.28803327883E+03  0.41800000000E+01 0. -1.
        -11    1    1    2    0    0 -0.27586836642E+03  0.16129081027E+03  0.19970251081E+02  0.32018259165E+03  0.00000000000E+00 0.  1.
         11    1    1    2    0    0 -0.35839642069E+02 -0.15172061862E+02  0.65107585025E+01  0.39459617092E+02  0.00000000000E+00 0. -1.
</event>
<event>
 7    1  0.2878477E-009  0.1079669E+03  0.7561462E-02  0.1264382E+00
         -2   -1    0    0    0  501 -0.00000000000E+00  0.00000000000E+00  0.16641209739E+03  0.16641209739E+03  0.00000000000E+00 0.  1.
          2   -1    0    0  501    0  0.00000000000E+00 -0.00000000000E+00 -0.11430278801E+03  0.11430278801E+03  0.00000000000E+00 0. -1.
         25    2    1    2    0    0 -0.64722788019E+02  0.22907029022E+02 -0.23099667662E+02  0.14454735627E+03  0.12508625940E+03 0.  0.
          5    1    3    3  502    0 -0.82964468127E+02  0.24350796447E+02 -0.58500022188E+02  0.10447865454E+03  0.41800000000E+01 0.  1.
         -5    1    3    3    0  502  0.18241680109E+02 -0.14437674248E+01  0.35400354526E+02  0.40068701728E+02  0.41800000000E+01 0.  1.
        -11    1    1    2    0    0  0.40864782940E+02  0.31233652804E+02  0.19815929870E+02  0.55119348952E+02  0.00000000000E+00 0. -1.
         11    1    1    2    0    0  0.23858005078E+02 -0.54140681827E+02  0.55393047175E+02  0.81048180179E+02  0.00000000000E+00 0.  1.
</event>
<event>
 7    1  0.2878477E-009  0.9835961E+02  0.7561462E-02  0.1283784E+00
         -2   -1    0    0    0  501 -0.00000000000E+00  0.00000000000E+00  0.39088551637E+02  0.39088551637E+02  0.00000000000E+00 0.  1.
          2   -1    0    0  501    0  0.00000000000E+00 -0.00000000000E+00 -0.37226147257E+03  0.37226147257E+03  0.00000000000E+00 0. -1.
         25    2    1    2    0    0  0.51429562452E+02  0.69459737981E+00 -0.16861849737E+03  0.21615542201E+03  0.12508191895E+03 0.  0.
          5    1    3    3  502    0  0.47383009260E+02 -0.57020333975E+02 -0.11661743266E+03  0.13825182116E+03  0.41800000000E+01 0. -1.
         -5    1    3    3    0  502  0.40465531920E+01  0.57714931355E+02 -0.52001064709E+02  0.77903600847E+02  0.41800000000E+01 0. -1.
        -11    1    1    2    0    0 -0.20316964323E+02  0.18849257902E+02 -0.15468817944E+03  0.15715122150E+03  0.00000000000E+00 0. -1.
         11    1    1    2    0    0 -0.31112598129E+02 -0.19543855282E+02 -0.98662441239E+01  0.38043380695E+02  0.00000000000E+00 0.  1.
</event>
<event>
 7    1  0.2878477E-009  0.1235531E+03  0.7561462E-02  0.1237348E+00
         -1   -1    0    0    0  501 -0.00000000000E+00  0.00000000000E+00  0.49862159966E+02  0.49862159966E+02  0.00000000000E+00 0.  1.
          1   -1    0    0  501    0  0.00000000000E+00 -0.00000000000E+00 -0.40304065049E+03  0.40304065049E+03  0.00000000000E+00 0. -1.
         25    2    1    2    0    0  0.87492479296E+02  0.66082575264E+01 -0.16277984043E+03  0.22325859493E+03  0.12509404766E+03 0.  0.
          5    1    3    3  502    0  0.38105540184E+02  0.53352057903E+02 -0.26387033270E+02  0.70797049374E+02  0.41800000000E+01 0.  1.
         -5    1    3    3    0  502  0.49386939112E+02 -0.46743800377E+02 -0.13639280716E+03  0.15246154556E+03  0.41800000000E+01 0.  1.
        -11    1    1    2    0    0 -0.65385284848E+02 -0.37438010783E+02 -0.67971430155E+02  0.10147391509E+03  0.00000000000E+00 0.  1.
         11    1    1    2    0    0 -0.22107194448E+02  0.30829753256E+02 -0.12242721994E+03  0.12817030043E+03  0.00000000000E+00 0. -1.
</event>
<event>
 7    1  0.2878477E-009  0.1069810E+03  0.7561462E-02  0.1266265E+00
         -2   -1    0    0    0  501 -0.00000000000E+00  0.00000000000E+00  0.29170789442E+03  0.29170789442E+03  0.00000000000E+00 0.  1.
          2   -1    0    0  501    0  0.00000000000E+00 -0.00000000000E+00 -0.48214469496E+02  0.48214469496E+02  0.00000000000E+00 0. -1.
         25    2    1    2    0    0  0.18376758173E+02  0.48400995334E+02  0.13085471725E+03  0.18828427271E+03  0.12509056214E+03 0.  0.
          5    1    3    3  502    0  0.34420568334E+02 -0.21503760322E+02  0.10377296162E+03  0.11150554782E+03  0.41800000000E+01 0.  1.
         -5    1    3    3    0  502 -0.16043810161E+02  0.69904755656E+02  0.27081755629E+02  0.76778724890E+02  0.41800000000E+01 0.  1.
        -11    1    1    2    0    0 -0.45062460074E+02 -0.57562584019E+02  0.85478659341E+02  0.11247523100E+03  0.00000000000E+00 0. -1.
         11    1    1    2    0    0  0.26685701901E+02  0.91615886851E+01  0.27160048337E+02  0.39162860197E+02  0.00000000000E+00 0.  1.
</event>
<event>
 7    1  0.2878477E-009  0.1049474E+03  0.7561462E-02  0.1270223E+00
          2   -1    0    0  501    0  0.00000000000E+00  0.00000000000E+00  0.17229625349E+03  0.17229625349E+03  0.00000000000E+00 0. -1.
         -2   -1    0    0    0  501 -0.00000000000E+00 -0.00000000000E+00 -0.10968853745E+03  0.10968853745E+03  0.00000000000E+00 0.  1.
         25    2    1    2    0    0 -0.60772564024E+02  0.14865670308E+02  0.92134956182E+02  0.16748775653E+03  0.12509598613E+03 0.  0.
          5    1    3    3  502    0  0.18956152158E+02  0.49119291591E+02  0.30779147669E+02  0.61129934093E+02  0.41800000000E+01 0. -1.
         -5    1    3    3    0  502 -0.79728716182E+02 -0.34253621283E+02  0.61355808513E+02  0.10635782244E+03  0.41800000000E+01 0. -1.
        -11    1    1    2    0    0  0.27589073307E+01 -0.11789226159E+02  0.29370699190E+02  0.31768465402E+02  0.00000000000E+00 0. -1.
         11    1    1    2    0    0  0.58013656693E+02 -0.30764441489E+01 -0.58897939339E+02  0.82728569007E+02  0.00000000000E+00 0.  1.
</event>
<event>
 7    1  0.2878477E-009  0.1082705E+03  0.7561462E-02  0.1263807E+00
          1   -1    0    0  501    0  0.00000000000E+00  0.00000000000E+00  0.43085366890E+03  0.43085366890E+03  0.00000000000E+00 0. -1.
         -1   -1    0    0    0  501 -0.00000000000E+00 -0.00000000000E+00 -0.39726528653E+02  0.39726528653E+02  0.00000000000E+00 0.  1.
         25    2    1    2    0    0 -0.59733073980E+02  0.38568844516E+02  0.23967056637E+03  0.27954337796E+03  0.12508766479E+03 0.  0.
          5    1    3    3  502    0 -0.65220703433E+02 -0.26753106766E+01  0.22641787905E+03  0.23567652788E+03  0.41800000000E+01 0.  1.
         -5    1    3    3    0  502  0.54876294530E+01  0.41244155193E+02  0.13252687328E+02  0.43866850081E+02  0.41800000000E+01 0.  1.
        -11    1    1    2    0    0  0.80367327453E+02 -0.23399645150E+02  0.82710149352E+02  0.11767505904E+03  0.00000000000E+00 0.  1.
         11    1    1    2    0    0 -0.20634253473E+02 -0.15169199366E+02  0.68746424520E+02  0.73361760544E+02  0.00000000000E+00 0. -1.
</event>
<event>
 7    1  0.2878477E-009  0.1064894E+03  0.7561462E-02  0.1267213E+00
         -1   -1    0    0    0  501 -0.00000000000E+00  0.00000000000E+00  0.26267273708E+03  0.26267273708E+03  0.00000000000E+00 0.  1.
          1   -1    0    0  501    0  0.00000000000E+00 -0.00000000000E+00 -0.56708767302E+02  0.56708767302E+02  0.00000000000E+00 0. -1.
         25    2    1    2    0    0 -0.39117932291E+02 -0.42636817956E+02  0.10990683614E+03  0.17628269664E+03  0.12509182879E+03 0.  0.
          5    1    3    3  502    0  0.30271577480E+01 -0.76467691017E+02  0.36122718765E+02  0.84727767966E+02  0.41800000000E+01 0. -1.
         -5    1    3    3    0  502 -0.42145090039E+02  0.33830873062E+02  0.73784117377E+02  0.91554928669E+02  0.41800000000E+01 0. -1.
        -11    1    1    2    0    0 -0.10405878056E+02  0.28932567096E+02 -0.36169726401E+01  0.30958976533E+02  0.00000000000E+00 0. -1.
         11    1    1    2    0    0  0.49523810347E+02  0.13704250860E+02  0.99674106275E+02  0.11213983121E+03  0.00000000000E+00 0.  1.
</event>
<event>
 7    1  0.2878477E-009  0.9415852E+02  0.7561462E-02  0.1293083E+00
          2   -1    0    0  501    0  0.00000000000E+00  0.00000000000E+00  0.49300339576E+03  0.49300339576E+03  0.00000000000E+00 0. -1.
         -2   -1    0    0    0  501 -0.00000000000E+00 -0.00000000000E+00 -0.43525670508E+02  0.43525670508E+02  0.00000000000E+00 0.  1.
         25    2    1    2    0    0 -0.11862709853E+02 -0.21353942650E+02  0.41728866530E+03  0.43631845161E+03  0.12508895345E+03 0.  0.
          5    1    3    3  502    0 -0.61791308642E+02  0.13732237226E+02  0.25813367968E+03  0.26581423805E+03  0.41800000000E+01 0. -1.
         -5    1    3    3    0  502  0.49928598789E+02 -0.35086179876E+02  0.15915498562E+03  0.17050421356E+03  0.41800000000E+01 0. -1.
        -11    1    1    2    0    0  0.35945449254E+02  0.12894029936E+02 -0.19265573442E+02  0.42772580587E+02  0.00000000000E+00 0.  1.
         11    1    1    2    0    0 -0.24082739401E+02  0.84599127140E+01  0.51454633396E+02  0.57438034073E+02  0.00000000000E+00 0. -1.
</event>
<event>
 7    1  0.2878477E-009  0.9263289E+02  0.7561462E-02  0.1296598E+00
          2   -1    0    0  501    0  0.00000000000E+00  0.00000000000E+00  0.35571213152E+02  0.35571213152E+02  0.00000000000E+00 0. -1.
         -2   -1    0    0    0  501 -0.00000000000E+00 -0.00000000000E+00 -0.36968267781E+03  0.36968267781E+03  0.00000000000E+00 0.  1.
         25    2    1    2    0    0  0.23960916329E+02 -0.19429970327E+01 -0.22645693865E+03  0.25983599083E+03  0.12511633114E+03 0.  0.
          5    1    3    3  502    0  0.45702875167E+02 -0.27767714316E+02 -0.21838371744E+03  0.22487489677E+03  0.41800000000E+01 0. -1.
         -5    1    3    3    0  502 -0.21741958838E+02  0.25824717283E+02 -0.80732212159E+01  0.34961094057E+02  0.41800000000E+01 0. -1.
        -11    1    1    2    0    0  0.29768864553E+02  0.25256764965E+02 -0.47033380343E+02  0.61124695007E+02  0.00000000000E+00 0. -1.
         11    1    1    2    0    0 -0.53729780882E+02 -0.23313767932E+02 -0.60621145664E+02  0.84293205127E+02  0.00000000000E+00 0.  1.
</event>
<event>
 7    1  0.2878477E-009  0.1558414E+03  0.7561462E-02  0.1193473E+00
         -1   -1    0    0    0  501 -0.00000000000E+00  0.00000000000E+00  0.25594547878E+03  0.25594547878E+03  0.00000000000E+00 0.  1.
          1   -1    0    0  501    0  0.00000000000E+00 -0.00000000000E+00 -0.10879334175E+03  0.10879334175E+03  0.00000000000E+00 0. -1.
         25    2    1    2    0    0 -0.11346390927E+03  0.34006388749E+02  0.63352150075E+02  0.18356915769E+03  0.12511453773E+03 0.  0.
          5    1    3    3  502    0 -0.11127832446E+03  0.61206048314E+02  0.81106207854E+02  0.15074725602E+03  0.41800000000E+01 0. -1.
         -5    1    3    3    0  502 -0.21855848058E+01 -0.27199659565E+02 -0.17754057779E+02  0.32821901666E+02  0.41800000000E+01 0. -1.
        -11    1    1    2    0    0  0.13205365119E+03 -0.39122982878E+02  0.85010923243E+02  0.16185064613E+03  0.00000000000E+00 0.  1.
         11    1    1    2    0    0 -0.18589741920E+02  0.51165941289E+01 -0.12109362920E+01  0.19319016715E+02  0.00000000000E+00 0. -1.
</event>
<event>
 7    1  0.2878477E-009  0.8577123E+02  0.7561462E-02  0.1313428E+00
          1   -1    0    0  501    0  0.00000000000E+00  0.00000000000E+00  0.85689117508E+03  0.85689117508E+03  0.00000000000E+00 0. -1.
         -1   -1    0    0    0  501 -0.00000000000E+00 -0.00000000000E+00 -0.10787537640E+02  0.10787537640E+02  0.00000000000E+00 0.  1.
         25    2    1    2    0    0  0.81740476157E+01 -0.28757012817E+02  0.60887421226E+03  0.62231072455E+03  0.12509616580E+03 0.  0.
          5    1    3    3  502    0  0.56550337306E+02 -0.15225196707E+02  0.15674723647E+03  0.16738254331E+03  0.41800000000E+01 0. -1.
         -5    1    3    3    0  502 -0.48376289690E+02 -0.13531816109E+02  0.45212697579E+03  0.45492818124E+03  0.41800000000E+01 0. -1.
        -11    1    1    2    0    0  0.10124239260E+02  0.39788422220E+02  0.14537451591E+03  0.15106081106E+03  0.00000000000E+00 0. -1.
         11    1    1    2    0    0 -0.18298286876E+02 -0.11031409403E+02  0.91854909269E+02  0.94307177101E+02  0.00000000000E+00 0.  1.
</event>
<event>
 6    1  0.2878477E-009  0.1556914E+03  0.7561462E-02  0.1193649E+00
         -2   -1    0    0    0  501 -0.00000000000E+00  0.00000000000E+00  0.40426535143E+02  0.40426535143E+02  0.00000000000E+00 0.  1.
          2   -1    0    0  501    0  0.00000000000E+00 -0.00000000000E+00 -0.84635034412E+03  0.84635034412E+03  0.00000000000E+00 0. -1.
          5    1    1    2  502    0  0.16945777677E+02  0.41767469092E+02 -0.11630139206E+03  0.12480050902E+03  0.41800000000E+01 0.  1.
         -5    1    1    2    0  502 -0.12119490919E+03  0.11686531638E+02 -0.53471275023E+03  0.54841588115E+03  0.41800000000E+01 0.  1.
        -11    1    1    2    0    0  0.18985604314E+01 -0.41155885435E+02 -0.63999181382E+02  0.76113774412E+02  0.00000000000E+00 0. -1.
         11    1    1    2    0    0  0.10235057108E+03 -0.12298115296E+02 -0.90910485303E+02  0.13744671469E+03  0.00000000000E+00 0.  1.
</event>
<event>
 7    1  0.2878477E-009  0.3483317E+03  0.7561462E-02  0.1063302E+00
         -1   -1    0    0    0  501 -0.00000000000E+00  0.00000000000E+00  0.54605494628E+02  0.54605494628E+02  0.00000000000E+00 0.  1.
          1   -1    0    0  501    0  0.00000000000E+00 -0.00000000000E+00 -0.31162467948E+04  0.31162467948E+04  0.00000000000E+00 0. -1.
         25    2    1    2    0    0  0.17628172360E+03  0.29901197261E+03 -0.22921141089E+04  0.23216197555E+04  0.12509114820E+03 0.  0.
          5    1    3    3  502    0  0.14533258495E+03  0.22878178864E+03 -0.13865062599E+04  0.14127560824E+04  0.41800000000E+01 0. -1.
         -5    1    3    3    0  502  0.30949138642E+02  0.70230183968E+02 -0.90560784894E+03  0.90886367316E+03  0.41800000000E+01 0. -1.
        -11    1    1    2    0    0 -0.65602135264E+02 -0.14422314100E+03 -0.45300966860E+03  0.47991844557E+03  0.00000000000E+00 0. -1.
         11    1    1    2    0    0 -0.11067958833E+03 -0.15478883161E+03 -0.31651752274E+03  0.36931408836E+03  0.00000000000E+00 0.  1.
</event>
<event>
 7    1  0.2878477E-009  0.1474365E+03  0.7561462E-02  0.1203659E+00
          2   -1    0    0  501    0  0.00000000000E+00  0.00000000000E+00  0.17861927207E+03  0.17861927207E+03  0.00000000000E+00 0. -1.
         -2   -1    0    0    0  501 -0.00000000000E+00 -0.00000000000E+00 -0.15639939467E+03  0.15639939467E+03  0.00000000000E+00 0.  1.
         25    2    1    2    0    0 -0.42122047411E+02  0.10928373150E+03 -0.35742169324E+02  0.17505032425E+03  0.12509161643E+03 0.  0.
          5    1    3    3  502    0  0.39469849907E+02  0.30823243610E+02  0.12731789563E+02  0.51841221666E+02  0.41800000000E+01 0.  1.
         -5    1    3    3    0  502 -0.81591897318E+02  0.78460487894E+02 -0.48473958887E+02  0.12320910258E+03  0.41800000000E+01 0.  1.
        -11    1    1    2    0    0 -0.10661963890E+02 -0.53484979394E+02 -0.12258764771E+02  0.55898102011E+02  0.00000000000E+00 0.  1.
         11    1    1    2    0    0  0.52784011301E+02 -0.55798752111E+02  0.70220811500E+02  0.10407024048E+03  0.00000000000E+00 0. -1.
</event>
<event>
 7    1  0.2878477E-009  0.1200830E+03  0.7561462E-02  0.1242960E+00
         -2   -1    0    0    0  501 -0.00000000000E+00  0.00000000000E+00  0.21789867120E+02  0.21789867120E+02  0.00000000000E+00 0. -1.
          2   -1    0    0  501    0  0.00000000000E+00 -0.00000000000E+00 -0.71630953921E+03  0.71630953921E+03  0.00000000000E+00 0.  1.
         25    2    1    2    0    0 -0.39146240449E+02  0.47720037145E+02 -0.40858204305E+03  0.43172833690E+03  0.12506174831E+03 0.  0.
          5    1    3    3  502    0 -0.81586096537E+02  0.47883107608E+02 -0.24453212791E+03  0.26222608017E+03  0.41800000000E+01 0. -1.
         -5    1    3    3    0  502  0.42439856089E+02 -0.16307046291E+00 -0.16404991515E+03  0.16950225673E+03  0.41800000000E+01 0. -1.
        -11    1    1    2    0    0 -0.21960249350E+02 -0.33554153060E+02 -0.16877278759E+03  0.17347157569E+03  0.00000000000E+00 0. -1.
         11    1    1    2    0    0  0.61106489798E+02 -0.14165884086E+02 -0.11716484145E+03  0.13289949375E+03  0.00000000000E+00 0.  1.
</event>
<event>
 7    1  0.2878477E-009  0.1031594E+03  0.7561462E-02  0.1273789E+00
         -4   -1    0    0    0  501 -0.00000000000E+00  0.00000000000E+00  0.13841021496E+03  0.13841021496E+03  0.00000000000E+00 0.  1.
          4   -1    0    0  501    0  0.00000000000E+00 -0.00000000000E+00 -0.13023799605E+03  0.13023799605E+03  0.00000000000E+00 0. -1.
         25    2    1    2    0    0  0.15268748506E+02  0.52952956513E+02 -0.52462741521E+02  0.14641455454E+03  0.12509089594E+03 0.  0.
          5    1    3    3  502    0 -0.22432528712E+02  0.64115687286E+02  0.13620733639E+02  0.69404873643E+02  0.41800000000E+01 0. -1.
         -5    1    3    3    0  502  0.37701277218E+02 -0.11162730773E+02 -0.66083475160E+02  0.77009680894E+02  0.41800000000E+01 0. -1.
        -11    1    1    2    0    0  0.33486988720E+02 -0.13909640776E+02  0.16125683788E+01  0.36296789071E+02  0.00000000000E+00 0. -1.
         11    1    1    2    0    0 -0.48755737226E+02 -0.39043315736E+02  0.59022392048E+02  0.85936867404E+02  0.00000000000E+00 0.  1.
</event>
<event>
 7    1  0.2878477E-009  0.1075307E+03  0.7561462E-02  0.1265212E+00
          1   -1    0    0  501    0  0.00000000000E+00  0.00000000000E+00  0.14666173163E+04  0.14666173163E+04  0.00000000000E+00 0. -1.
         -1   -1    0    0    0  501 -0.00000000000E+00 -0.00000000000E+00 -0.12070453513E+02  0.12070453513E+02  0.00000000000E+00 0.  1.
         25    2    1    2    0    0  0.27018167053E+01  0.31308509299E+02  0.12010976004E+04  0.12080024715E+04  0.12508798034E+03 0.  0.
          5    1    3    3  502    0  0.62400157691E+01  0.76166568394E+02  0.93193872209E+03  0.93507622046E+03  0.41800000000E+01 0. -1.
         -5    1    3    3    0  502 -0.35381990638E+01 -0.44858059095E+02  0.26915887834E+03  0.27292625104E+03  0.41800000000E+01 0. -1.
        -11    1    1    2    0    0  0.11873111228E+02  0.28975285711E+02  0.11073024226E+03  0.11507269226E+03  0.00000000000E+00 0. -1.
         11    1    1    2    0    0 -0.14574927933E+02 -0.60283795010E+02  0.14271902007E+03  0.15561260603E+03  0.00000000000E+00 0.  1.
</event>
<event>
 7    1  0.2878477E-009  0.9797201E+02  0.7561462E-02  0.1284619E+00
         -2   -1    0    0    0  501 -0.00000000000E+00  0.00000000000E+00  0.21039646005E+02  0.21039646005E+02  0.00000000000E+00 0.  1.
          2   -1    0    0  501    0  0.00000000000E+00 -0.00000000000E+00 -0.10153450552E+04  0.10153450552E+04  0.00000000000E+00 0. -1.
         25    2    1    2    0    0  0.74227730007E+02 -0.95112318526E+00 -0.76380073889E+03  0.77752562640E+03  0.12507545899E+03 0.  0.
          5    1    3    3  502    0  0.21561292169E+02 -0.20088669123E+02 -0.32502916674E+02  0.44072167401E+02  0.41800000000E+01 0.  1.
         -5    1    3    3    0  502  0.52666437839E+02  0.19137545937E+02 -0.73129782222E+03  0.73345345900E+03  0.41800000000E+01 0.  1.
        -11    1    1    2    0    0 -0.70743884611E+02 -0.31436267719E+02 -0.19906230454E+03  0.21358543309E+03  0.00000000000E+00 0. -1.
         11    1    1    2    0    0 -0.34838453966E+01  0.32387390904E+02 -0.31442365721E+02  0.45273641675E+02  0.00000000000E+00 0.  1.
</event>
<event>
 7    1  0.2878477E-009  0.1025542E+03  0.7561462E-02  0.1275015E+00
          1   -1    0    0  501    0  0.00000000000E+00  0.00000000000E+00  0.94763202408E+03  0.94763202408E+03  0.00000000000E+00 0. -1.
         -1   -1    0    0    0  501 -0.00000000000E+00 -0.00000000000E+00 -0.14274819082E+02  0.14274819082E+02  0.00000000000E+00 0.  1.
         25    2    1    2    0    0  0.44064243212E+02  0.19006965210E+02  0.57700168649E+03  0.59235213571E+03  0.12508870538E+03 0.  0.
          5    1    3    3  502    0 -0.14339341726E+02 -0.37721774100E+02  0.92036022306E+02  0.10058156275E+03  0.41800000000E+01 0.  1.
         -5    1    3    3    0  502  0.58403584938E+02  0.56728739310E+02  0.48496566418E+03  0.49177057296E+03  0.41800000000E+01 0.  1.
        -11    1    1    2    0    0 -0.57653565476E+02  0.23446047280E+01  0.32058219867E+03  0.32573359803E+03  0.00000000000E+00 0.  1.
         11    1    1    2    0    0  0.13589322264E+02 -0.21351569938E+02  0.35773319839E+02  0.43821109419E+02  0.00000000000E+00 0. -1.
</event>
<event>
 7    1  0.2878477E-009  0.2296118E+03  0.7561462E-02  0.1126913E+00
          4   -1    0    0  501    0  0.00000000000E+00  0.00000000000E+00  0.10065678738E+04  0.10065678738E+04  0.00000000000E+00 0. -1.
         -4   -1    0    0    0  501 -0.00000000000E+00 -0.00000000000E+00 -0.77623642795E+02  0.77623642795E+02  0.00000000000E+00 0.  1.
         25    2    1    2    0    0 -0.20875785736E+03  0.77673655069E+02  0.72578498672E+03  0.76943166622E+03  0.12509277489E+03 0.  0.
          5    1    3    3  502    0 -0.13185851344E+03  0.66442014979E+02  0.27675485514E+03  0.31370675983E+03  0.41800000000E+01 0.  1.
         -5    1    3    3    0  502 -0.76899343923E+02  0.11231640090E+02  0.44903013159E+03  0.45572490639E+03  0.41800000000E+01 0.  1.
        -11    1    1    2    0    0  0.11355569283E+03 -0.79239579668E+02  0.15572207574E+03  0.20838227187E+03  0.00000000000E+00 0.  1.
         11    1    1    2    0    0  0.95202164528E+02  0.15659245993E+01  0.47437168571E+02  0.10637757852E+03  0.00000000000E+00 0. -1.
</event>
<event>
 7    1  0.2878477E-009  0.9471238E+02  0.7561462E-02  0.1291825E+00
          1   -1    0    0  501    0  0.00000000000E+00  0.00000000000E+00  0.15705532132E+02  0.15705532132E+02  0.00000000000E+00 0. -1.
         -1   -1    0    0    0  501 -0.00000000000E+00 -0.00000000000E+00 -0.91079730267E+03  0.91079730267E+03  0.00000000000E+00 0.  1.
         25    2    1    2    0    0 -0.41467441372E+02 -0.12770215288E+01 -0.61992238290E+03  0.63377628252E+03  0.12508971173E+03 0.  0.
          5    1    3    3  502    0  0.25198905340E+02  0.13871764707E+02 -0.38027288422E+02  0.47863950434E+02  0.41800000000E+01 0.  1.
         -5    1    3    3    0  502 -0.66666346711E+02 -0.15148786236E+02 -0.58189509448E+03  0.58591233208E+03  0.41800000000E+01 0.  1.
        -11    1    1    2    0    0  0.39257240527E+02  0.38258775073E+02 -0.21655768355E+03  0.22338776849E+03  0.00000000000E+00 0.  1.
         11    1    1    2    0    0  0.22102008450E+01 -0.36981753544E+02 -0.58611704088E+02  0.69338783801E+02  0.00000000000E+00 0. -1.
</event>
<event>
 7    1  0.2878477E-009  0.8433677E+02  0.7561462E-02  0.1317176E+00
          2   -1    0    0  501    0  0.00000000000E+00  0.00000000000E+00  0.23879036495E+03  0.23879036495E+03  0.00000000000E+00 0.  1.
         -2   -1    0    0    0  501 -0.00000000000E+00 -0.00000000000E+00 -0.57735701543E+02  0.57735701543E+02  0.00000000000E+00 0. -1.
         25    2    1    2    0    0  0.11354728284E+02  0.39074191775E+02  0.12045182148E+03  0.17835870258E+03  0.12508982041E+03 0.  0.
          5    1    3    3  502    0  0.47999409616E+02  0.42702928200E+02  0.12540786410E+03  0.14096839426E+03  0.41800000000E+01 0.  1.
         -5    1    3    3    0  502 -0.36644681331E+02 -0.36287364255E+01 -0.49560426200E+01  0.37390308321E+02  0.41800000000E+01 0.  1.
        -11    1    1    2    0    0  0.11547457077E+02 -0.42530536041E+02  0.77734883540E+02  0.89358280981E+02  0.00000000000E+00 0.  1.
         11    1    1    2    0    0 -0.22902185361E+02  0.34563442665E+01 -0.17132041612E+02  0.28809082939E+02  0.00000000000E+00 0. -1.
</event>
<event>
 7    1  0.2878477E-009  0.2148814E+03  0.7561462E-02  0.1137758E+00
          2   -1    0    0  501    0  0.00000000000E+00  0.00000000000E+00  0.95500577874E+02  0.95500577874E+02  0.00000000000E+00 0. -1.
         -2   -1    0    0    0  501 -0.00000000000E+00 -0.00000000000E+00 -0.77123563449E+03  0.77123563449E+03  0.00000000000E+00 0.  1.
         25    2    1    2    0    0 -0.66842831613E+02 -0.19397800977E+03 -0.56932362710E+03  0.61795793519E+03  0.12508870802E+03 0.  0.
          5    1    3    3  502    0 -0.68238498798E+02 -0.83139479908E+02 -0.15273026331E+03  0.18684932852E+03  0.41800000000E+01 0.  1.
         -5    1    3    3    0  502  0.13956671849E+01 -0.11083852986E+03 -0.41659336379E+03  0.43110860666E+03  0.41800000000E+01 0.  1.
        -11    1    1    2    0    0  0.76751162480E+01  0.99003847719E+02 -0.93053655254E+02  0.13608692821E+03  0.00000000000E+00 0.  1.
         11    1    1    2    0    0  0.59167715365E+02  0.94974162052E+02 -0.13357774260E+02  0.11269134897E+03  0.00000000000E+00 0. -1.
</event>
<event>
 7    1  0.2878477E-009  0.2035379E+03  0.7561462E-02  0.1146788E+00
         -2   -1    0    0    0  501 -0.00000000000E+00  0.00000000000E+00  0.80473341557E+02  0.80473341557E+02  0.00000000000E+00 0.  1.
          2   -1    0    0  501    0  0.00000000000E+00 -0.00000000000E+00 -0.68990865594E+03  0.68990865594E+03  0.00000000000E+00 0. -1.
         25    2    1    2    0    0 -0.13601634846E+03  0.13912360832E+03 -0.19149831906E+03  0.30029014467E+03  0.12508692714E+03 0.  0.
          5    1    3    3  502    0 -0.34014186547E+02  0.61655207394E+02 -0.14970977451E+03  0.16549567508E+03  0.41800000000E+01 0. -1.
         -5    1    3    3    0  502 -0.10200216191E+03  0.77468400922E+02 -0.41788544548E+02  0.13479446959E+03  0.41800000000E+01 0. -1.
        -11    1    1    2    0    0  0.70870356392E+02 -0.21733527464E+02 -0.20882741301E+03  0.22159386737E+03  0.00000000000E+00 0. -1.
         11    1    1    2    0    0  0.65145992065E+02 -0.11739008085E+03 -0.20910958232E+03  0.24849798547E+03  0.00000000000E+00 0.  1.
</event>
<event>
 7    1  0.2878477E-009  0.9479963E+02  0.7561462E-02  0.1291628E+00
          2   -1    0    0  501    0  0.00000000000E+00  0.00000000000E+00  0.67828607844E+02  0.67828607844E+02  0.00000000000E+00 0. -1.
         -2   -1    0    0    0  501 -0.00000000000E+00 -0.00000000000E+00 -0.35668539142E+03  0.35668539142E+03  0.00000000000E+00 0.  1.
         25    2    1    2    0    0  0.63663863153E+02  0.54827232094E+02 -0.57193953056E+02  0.16117660110E+03  0.12509050973E+03 0.  0.
          5    1    3    3  502    0  0.26349104057E+02  0.44294410309E+02  0.34074404329E+02  0.61925822559E+02  0.41800000000E+01 0. -1.
         -5    1    3    3    0  502  0.37314759095E+02  0.10532821786E+02 -0.91268357385E+02  0.99250778540E+02  0.41800000000E+01 0. -1.
        -11    1    1    2    0    0 -0.10793086997E+02 -0.43505248085E+02 -0.18961946076E+03  0.19484541882E+03  0.00000000000E+00 0.  1.
         11    1    1    2    0    0 -0.52870776155E+02 -0.11321984010E+02 -0.42043369757E+02  0.68491979339E+02  0.00000000000E+00 0. -1.
</event>
<event>
 7    1  0.2878477E-009  0.9806295E+02  0.7561462E-02  0.1284423E+00
         -1   -1    0    0    0  501 -0.00000000000E+00  0.00000000000E+00  0.29556287973E+02  0.29556287973E+02  0.00000000000E+00 0.  1.
          1   -1    0    0  501    0  0.00000000000E+00 -0.00000000000E+00 -0.48751743816E+03  0.48751743816E+03  0.00000000000E+00 0. -1.
         25    2    1    2    0    0 -0.48521256828E+02  0.11588315244E+02 -0.25666140769E+03  0.28985517560E+03  0.12510932505E+03 0.  0.
          5    1    3    3  502    0  0.61623229548E+01  0.31603322031E+02 -0.66822121695E+01  0.33149186221E+02  0.41800000000E+01 0. -1.
         -5    1    3    3    0  502 -0.54683579783E+02 -0.20015006787E+02 -0.24997919552E+03  0.25670598938E+03  0.41800000000E+01 0. -1.
        -11    1    1    2    0    0 -0.10488706820E+02 -0.38873193968E+02 -0.82134630774E+02  0.91472595636E+02  0.00000000000E+00 0.  1.
         11    1    1    2    0    0  0.59009963648E+02  0.27284878724E+02 -0.11916511172E+03  0.13574595489E+03  0.00000000000E+00 0. -1.
</event>
<event>
 7    1  0.2878477E-009  0.1357048E+03  0.7561462E-02  0.1219228E+00
         -2   -1    0    0    0  501 -0.00000000000E+00  0.00000000000E+00  0.10269752515E+03  0.10269752515E+03  0.00000000000E+00 0.  1.
          2   -1    0    0  501    0  0.00000000000E+00 -0.00000000000E+00 -0.26881242456E+03  0.26881242456E+03  0.00000000000E+00 0. -1.
         25    2    1    2    0    0 -0.86487667752E+02 -0.37782857427E+02 -0.18214825924E+03  0.24027131356E+03  0.12507859443E+03 0.  0.
          5    1    3    3  502    0 -0.44273871595E+01 -0.67798800002E+02 -0.94247161693E+02  0.11625953262E+03  0.41800000000E+01 0. -1.
         -5    1    3    3    0  502 -0.82060280592E+02  0.30015942575E+02 -0.87901097549E+02  0.12401178093E+03  0.41800000000E+01 0. -1.
        -11    1    1    2    0    0  0.63058606951E+02 -0.88464091344E+01  0.38514431023E+02  0.74417795333E+02  0.00000000000E+00 0.  1.
         11    1    1    2    0    0  0.23429060801E+02  0.46629266561E+02 -0.22481071189E+02  0.56820840823E+02  0.00000000000E+00 0. -1.
</event>
<event>
 7    1  0.2878477E-009  0.1437181E+03  0.7561462E-02  0.1208412E+00
          1   -1    0    0  501    0  0.00000000000E+00  0.00000000000E+00  0.54136151492E+02  0.54136151492E+02  0.00000000000E+00 0. -1.
         -1   -1    0    0    0  501 -0.00000000000E+00 -0.00000000000E+00 -0.62248216274E+03  0.62248216274E+03  0.00000000000E+00 0.  1.
         25    2    1    2    0    0 -0.35772803231E+02  0.41395758796E+02 -0.87850239938E+02  0.16235039986E+03  0.12508671145E+03 0.  0.
          5    1    3    3  502    0  0.13110663828E+01 -0.32824062034E+02 -0.69917251284E+02  0.77362990962E+02  0.41800000000E+01 0.  1.
         -5    1    3    3    0  502 -0.37083869613E+02  0.74219820829E+02 -0.17932988655E+02  0.84987408900E+02  0.41800000000E+01 0.  1.
        -11    1    1    2    0    0  0.90577130242E+02 -0.65091263939E+02 -0.39164958594E+03  0.40722289637E+03  0.00000000000E+00 0.  1.
         11    1    1    2    0    0 -0.54804327012E+02  0.23695505144E+02 -0.88846185371E+02  0.10704501800E+03  0.00000000000E+00 0. -1.
</event>
<event>
 7    1  0.2878477E-009  0.8960474E+02  0.7561462E-02  0.1303812E+00
          2   -1    0    0  501    0  0.00000000000E+00  0.00000000000E+00  0.54980272490E+02  0.54980272490E+02  0.00000000000E+00 0. -1.
         -2   -1    0    0    0  501 -0.00000000000E+00 -0.00000000000E+00 -0.29555559106E+03  0.29555559106E+03  0.00000000000E+00 0.  1.
         25    2    1    2    0    0 -0.45972930044E+02  0.23116698538E+02 -0.75286302893E+02  0.15480184689E+03  0.12509073647E+03 0.  0.
          5    1    3    3  502    0 -0.59872250524E+02 -0.16298304667E+02 -0.90773916119E+02  0.11003498246E+03  0.41800000000E+01 0. -1.
         -5    1    3    3    0  502  0.13899320480E+02  0.39415003205E+02  0.15487613226E+02  0.44766864430E+02  0.41800000000E+01 0. -1.
        -11    1    1    2    0    0  0.20738786326E+02 -0.39720514270E+02 -0.15858283928E+03  0.16479178810E+03  0.00000000000E+00 0.  1.
         11    1    1    2    0    0  0.25234143718E+02  0.16603815732E+02 -0.67061763981E+01  0.30942228555E+02  0.00000000000E+00 0. -1.
</event>
<event>
 7    1  0.2878477E-009  0.1051184E+03  0.7561462E-02  0.1269887E+00
          1   -1    0    0  501    0  0.00000000000E+00  0.00000000000E+00  0.66982259175E+03  0.66982259175E+03  0.00000000000E+00 0. -1.
         -1   -1    0    0    0  501 -0.00000000000E+00 -0.00000000000E+00 -0.30872974916E+02  0.30872974916E+02  0.00000000000E+00 0.  1.
         25    2    1    2    0    0 -0.61020297317E+02  0.52613829761E+02  0.47060415376E+03  0.49356696628E+03  0.12509352064E+03 0.  0.
          5    1    3    3  502    0 -0.27545642410E+02 -0.43713696556E+01  0.12752547372E+02  0.30951109074E+02  0.41800000000E+01 0. -1.
         -5    1    3    3    0  502 -0.33474654908E+02  0.56985199417E+02  0.45785160638E+03  0.46261585721E+03  0.41800000000E+01 0. -1.
        -11    1    1    2    0    0  0.39079089205E+02  0.17152629287E+02  0.35629405836E+02  0.55595345711E+02  0.00000000000E+00 0. -1.
         11    1    1    2    0    0  0.21941208113E+02 -0.69766459048E+02  0.13271605725E+03  0.15153325468E+03  0.00000000000E+00 0.  1.
</event>
<event>
 7    1  0.2878477E-009  0.1257332E+03  0.7561462E-02  0.1233928E+00
         -1   -1    0    0    0  501 -0.00000000000E+00  0.00000000000E+00  0.25600604110E+03  0.25600604110E+03  0.00000000000E+00 0.  1.
          1   -1    0    0  501    0  0.00000000000E+00 -0.00000000000E+00 -0.69256626496E+02  0.69256626496E+02  0.00000000000E+00 0. -1.
         25    2    1    2    0    0 -0.26159869574E+02 -0.63539270473E+02  0.14624800800E+03  0.20434468584E+03  0.12508674239E+03 0.  0.
          5    1    3    3  502    0  0.50190895397E+02 -0.29560887541E+02  0.50691259523E+02  0.77330771657E+02  0.41800000000E+01 0. -1.
         -5    1    3    3    0  502 -0.76350764971E+02 -0.33978382931E+02  0.95556748473E+02  0.12701391419E+03  0.41800000000E+01 0. -1.
        -11    1    1    2    0    0 -0.28447658727E+02  0.41920647623E+02  0.20182935972E+01  0.50701908181E+02  0.00000000000E+00 0.  1.
         11    1    1    2    0    0  0.54607528300E+02  0.21618622849E+02  0.38483113012E+02  0.70216073574E+02  0.00000000000E+00 0. -1.
</event>
<event>
 7    1  0.2878477E-009  0.1082134E+03  0.7561462E-02  0.1263915E+00
          2   -1    0    0  501    0  0.00000000000E+00  0.00000000000E+00  0.51562924269E+03  0.51562924269E+03  0.00000000000E+00 0. -1.
         -2   -1    0    0    0  501 -0.00000000000E+00 -0.00000000000E+00 -0.24344928923E+02  0.24344928923E+02  0.00000000000E+00 0.  1.
         25    2    1    2    0    0  0.20395675228E+02 -0.91525972122E+00  0.29327365282E+03  0.31948469112E+03  0.12507682098E+03 0.  0.
          5    1    3    3  502    0 -0.56968173697E+01  0.58200721002E+02  0.17618429243E+03  0.18568294201E+03  0.41800000000E+01 0. -1.
         -5    1    3    3    0  502  0.26092492598E+02 -0.59115980723E+02  0.11708936039E+03  0.13380174911E+03  0.41800000000E+01 0. -1.
        -11    1    1    2    0    0  0.36093251741E+02 -0.41442259762E+01  0.48612451408E+02  0.60688284389E+02  0.00000000000E+00 0.  1.
         11    1    1    2    0    0 -0.56488926969E+02  0.50594856975E+01  0.14939820954E+03  0.15980119611E+03  0.00000000000E+00 0. -1.
</event>
<event>
 7    1  0.2878477E-009  0.9151579E+02  0.7561462E-02  0.1299222E+00
          2   -1    0    0  501    0  0.00000000000E+00  0.00000000000E+00  0.56654236764E+03  0.56654236764E+03  0.00000000000E+00 0. -1.
         -2   -1    0    0    0  501 -0.00000000000E+00 -0.00000000000E+00 -0.39222794679E+02  0.39222794679E+02  0.00000000000E+00 0.  1.
         25    2    1    2    0    0  0.64957872207E+02  0.29650615507E+00  0.44748059758E+03  0.46915446918E+03  0.12508963852E+03 0.  0.
          5    1    3    3  502    0 -0.65271073348E+01 -0.85383738277E+01  0.33702611784E+03  0.33722334359E+03  0.41800000000E+01 0. -1.
         -5    1    3    3    0  502  0.71484979542E+02  0.88348799828E+01  0.11045447975E+03  0.13193112559E+03  0.41800000000E+01 0. -1.
        -11    1    1    2    0    0 -0.79186932442E+02  0.12555246809E+02  0.34309569729E+02  0.87208663944E+02  0.00000000000E+00 0.  1.
         11    1    1    2    0    0  0.14229060235E+02 -0.12851752964E+02  0.45529405656E+02  0.49402029198E+02  0.00000000000E+00 0. -1.
</event>
<event>
 7    1  0.2878477E-009  0.1137488E+03  0.7561462E-02  0.1253781E+00
         -1   -1    0    0    0  501 -0.00000000000E+00  0.00000000000E+00  0.74802009062E+02  0.74802009062E+02  0.00000000000E+00 0.  1.
          1   -1    0    0  501    0  0.00000000000E+00 -0.00000000000E+00 -0.23636255396E+03  0.23636255396E+03  0.00000000000E+00 0. -1.
         25    2    1    2    0    0  0.40478998008E+02 -0.58235344241E+01 -0.12091834319E+02  0.13216066820E+03  0.12509103456E+03 0.  0.
          5    1    3    3  502    0  0.42282797397E+02 -0.62043317951E+02 -0.74747836498E+01  0.75568201306E+02  0.41800000000E+01 0.  1.
         -5    1    3    3    0  502 -0.18037993889E+01  0.56219783527E+02 -0.46170506688E+01  0.56592466892E+02  0.41800000000E+01 0.  1.
        -11    1    1    2    0    0  0.81223667177E+01  0.37180425912E+02 -0.80133224270E+02  0.88711276307E+02  0.00000000000E+00 0. -1.
         11    1    1    2    0    0 -0.48601364726E+02 -0.31356891488E+02 -0.69335486308E+02  0.90292618516E+02  0.00000000000E+00 0.  1.
</event>
<event>
 7    1  0.2878477E-009  0.2335990E+03  0.7561462E-02  0.1124132E+00
          1   -1    0    0  501    0  0.00000000000E+00  0.00000000000E+00  0.60352756564E+03  0.60352756564E+03  0.00000000000E+00 0. -1.
         -1   -1    0    0    0  501 -0.00000000000E+00 -0.00000000000E+00 -0.96436677468E+02  0.96436677468E+02  0.00000000000E+00 0.  1.
         25    2    1    2    0    0 -0.53140012157E+01  0.21548782448E+03  0.24572968001E+03  0.34999140543E+03  0.12509063565E+03 0.  0.
          5    1    3    3  502    0  0.89286737190E+01 -0.77843711316E+01  0.53623638698E+02  0.55075263735E+02  0.41800000000E+01 0. -1.
         -5    1    3    3    0  502 -0.14242674935E+02  0.22327219561E+03  0.19210604132E+03  0.29491614170E+03  0.41800000000E+01 0. -1.
        -11    1    1    2    0    0 -0.32699023198E+02 -0.16190751134E+03  0.16604230937E+03  0.23420784967E+03  0.00000000000E+00 0.  1.
         11    1    1    2    0    0  0.38013024413E+02 -0.53580313139E+02  0.95318898794E+02  0.11576498801E+03  0.00000000000E+00 0. -1.
</event>
<event>
 7    1  0.2878477E-009  0.1545304E+03  0.7561462E-02  0.1195014E+00
          2   -1    0    0  501    0  0.00000000000E+00  0.00000000000E+00  0.13351208819E+03  0.13351208819E+03  0.00000000000E+00 0. -1.
         -2   -1    0    0    0  501 -0.00000000000E+00 -0.00000000000E+00 -0.21212113959E+03  0.21212113959E+03  0.00000000000E+00 0.  1.
         25    2    1    2    0    0 -0.38341574345E+02  0.11745477600E+03 -0.19648354444E+02  0.17691561925E+03  0.12508947906E+03 0.  0.
          5    1    3    3  502    0 -0.30496626398E+02 -0.11485327297E+02 -0.33508870838E+02  0.46928390017E+02  0.41800000000E+01 0. -1.
         -5    1    3    3    0  502 -0.78449479468E+01  0.12894010330E+03  0.13860516394E+02  0.12998722923E+03  0.41800000000E+01 0. -1.
        -11    1    1    2    0    0  0.61552663024E+02 -0.64580205184E+02 -0.44783475793E+01  0.89327424815E+02  0.00000000000E+00 0. -1.
         11    1    1    2    0    0 -0.23211088679E+02 -0.52874570820E+02 -0.54482349379E+02  0.79390183720E+02  0.00000000000E+00 0.  1.
</event>
<event>
 7    1  0.2878477E-009  0.3508123E+03  0.7561462E-02  0.1062282E+00
         -1   -1    0    0    0  501 -0.00000000000E+00  0.00000000000E+00  0.45917517481E+03  0.45917517481E+03  0.00000000000E+00 0.  1.
          1   -1    0    0  501    0  0.00000000000E+00 -0.00000000000E+00 -0.62854213576E+03  0.62854213576E+03  0.00000000000E+00 0. -1.
         25    2    1    2    0    0 -0.19049058937E+03  0.29276328636E+03 -0.48322759966E+03  0.60922341248E+03  0.12508895539E+03 0.  0.
          5    1    3    3  502    0 -0.28346971649E+02  0.20256738813E+02 -0.50604698298E+01  0.35453730747E+02  0.41800000000E+01 0. -1.
         -5    1    3    3    0  502 -0.16214361772E+03  0.27250654754E+03 -0.47816712983E+03  0.57376968173E+03  0.41800000000E+01 0. -1.
        -11    1    1    2    0    0  0.66546722378E+02 -0.94098499533E+02  0.16414220832E+03  0.20056335265E+03  0.00000000000E+00 0.  1.
         11    1    1    2    0    0  0.12394386699E+03 -0.19866478682E+03  0.14971843039E+03  0.27793054544E+03  0.00000000000E+00 0. -1.
</event>
<event>
 7    1  0.2878477E-009  0.1382827E+03  0.7561462E-02  0.1215659E+00
          4   -1    0    0  501    0  0.00000000000E+00  0.00000000000E+00  0.86177225556E+02  0.86177225556E+02  0.00000000000E+00 0. -1.
         -4   -1    0    0    0  501 -0.00000000000E+00 -0.00000000000E+00 -0.24026824393E+03  0.24026824393E+03  0.00000000000E+00 0.  1.
         25    2    1    2    0    0  0.56109635360E+02  0.75520259241E+02 -0.94507661327E+02  0.18283545961E+03  0.12508199913E+03 0.  0.
          5    1    3    3  502    0  0.93925993348E+02  0.62042403479E+02 -0.51517559563E+02  0.12386639334E+03  0.41800000000E+01 0.  1.
         -5    1    3    3    0  502 -0.37816357988E+02  0.13477855761E+02 -0.42990101764E+02  0.58969066273E+02  0.41800000000E+01 0.  1.
        -11    1    1    2    0    0  0.15145869422E+02 -0.42316549279E+02  0.39384619851E-01  0.44945403042E+02  0.00000000000E+00 0. -1.
         11    1    1    2    0    0 -0.71255504782E+02 -0.33203709962E+02 -0.59622741662E+02  0.98664606827E+02  0.00000000000E+00 0.  1.
</event>
<event>
 7    1  0.2878477E-009  0.1090544E+03  0.7561462E-02  0.1262331E+00
         -2   -1    0    0    0  501 -0.00000000000E+00  0.00000000000E+00  0.17971130446E+02  0.17971130446E+02  0.00000000000E+00 0.  1.
          2   -1    0    0  501    0  0.00000000000E+00 -0.00000000000E+00 -0.79840971501E+03  0.79840971501E+03  0.00000000000E+00 0. -1.
         25    2    1    2    0    0 -0.28241423937E+02  0.31019224944E+02 -0.44754930450E+03  0.46659413514E+03  0.12509970682E+03 0.  0.
          5    1    3    3  502    0 -0.41809727819E+02 -0.34126511455E+02 -0.11089922678E+03  0.12340495543E+03  0.41800000000E+01 0. -1.
         -5    1    3    3    0  502  0.13568303881E+02  0.65145736399E+02 -0.33665007772E+03  0.34318917971E+03  0.41800000000E+01 0. -1.
        -11    1    1    2    0    0 -0.31806486970E+02 -0.66241238790E+01 -0.50450354037E+02  0.60006415098E+02  0.00000000000E+00 0.  1.
         11    1    1    2    0    0  0.60047910907E+02 -0.24395101065E+02 -0.28243892603E+03  0.28978029522E+03  0.00000000000E+00 0. -1.
</event>
<event>
 7    1  0.2878477E-009  0.7861262E+02  0.7561462E-02  0.1333035E+00
         -2   -1    0    0    0  501 -0.00000000000E+00  0.00000000000E+00  0.45615532013E+02  0.45615532013E+02  0.00000000000E+00 0.  1.
          2   -1    0    0  501    0  0.00000000000E+00 -0.00000000000E+00 -0.33689625282E+03  0.33689625282E+03  0.00000000000E+00 0. -1.
         25    2    1    2    0    0 -0.63281014271E+02  0.20739426311E+02 -0.17629289003E+03  0.22618852709E+03  0.12508979231E+03 0.  0.
          5    1    3    3  502    0 -0.38970855844E+02 -0.13618916087E+02  0.33552370359E+01  0.41628505812E+02  0.41800000000E+01 0. -1.
         -5    1    3    3    0  502 -0.24310158427E+02  0.34358342398E+02 -0.17964812707E+03  0.18456002128E+03  0.41800000000E+01 0. -1.
        -11    1    1    2    0    0  0.23032279339E+02 -0.23738686375E+02  0.14309999940E+01  0.33106780021E+02  0.00000000000E+00 0.  1.
         11    1    1    2    0    0  0.40248734932E+02  0.29992600645E+01 -0.11641883077E+03  0.12321647772E+03  0.00000000000E+00 0. -1.
</event>
<event>
 7    1  0.2878477E-009  0.8925980E+02  0.7561462E-02  0.1304654E+00
         -2   -1    0    0    0  501 -0.00000000000E+00  0.00000000000E+00  0.81732299222E+02  0.81732299222E+02  0.00000000000E+00 0.  1.
          2   -1    0    0  501    0  0.00000000000E+00 -0.00000000000E+00 -0.15954458512E+03  0.15954458512E+03  0.00000000000E+00 0. -1.
         25    2    1    2    0    0  0.37519269259E+01 -0.23943492689E+02 -0.19577353711E+02  0.12890965927E+03  0.12508820759E+03 0.  0.
          5    1    3    3  502    0 -0.56648154721E+02  0.10381334318E+02 -0.66962131857E+01  0.58130002636E+02  0.41800000000E+01 0.  1.
         -5    1    3    3    0  502  0.60400081647E+02 -0.34324827007E+02 -0.12881140525E+02  0.70779656634E+02  0.41800000000E+01 0.  1.
        -11    1    1    2    0    0 -0.21584317478E+02  0.32787993836E+00  0.19562303098E+02  0.29132009350E+02  0.00000000000E+00 0.  1.
         11    1    1    2    0    0  0.17832390552E+02  0.23615612751E+02 -0.77797235281E+02  0.83235215719E+02  0.00000000000E+00 0. -1.
</event>
<event>
 7    1  0.2878477E-009  0.8123971E+02  0.7561462E-02  0.1325570E+00
          2   -1    0    0  501    0  0.00000000000E+00  0.00000000000E+00  0.84141633264E+03  0.84141633264E+03  0.00000000000E+00 0. -1.
         -2   -1    0    0    0  501 -0.00000000000E+00 -0.00000000000E+00 -0.25291112340E+02  0.25291112340E+02  0.00000000000E+00 0.  1.
         25    2    1    2    0    0 -0.39776971059E+02 -0.64435000616E+02  0.59992978209E+03  0.61749198644E+03  0.12508610296E+03 0.  0.
          5    1    3    3  502    0 -0.35823465091E+02 -0.34166509458E+02  0.65672131827E+02  0.82346659425E+02  0.41800000000E+01 0.  1.
         -5    1    3    3    0  502 -0.39535059680E+01 -0.30268491157E+02  0.53425765026E+03  0.53514532702E+03  0.41800000000E+01 0.  1.
        -11    1    1    2    0    0 -0.52481023456E+01  0.10433759911E+02 -0.80639844346E+01  0.14192736490E+02  0.00000000000E+00 0.  1.
         11    1    1    2    0    0  0.45025073404E+02  0.54001240705E+02  0.22425942265E+03  0.23502272205E+03  0.00000000000E+00 0. -1.
</event>
<event>
 7    1  0.2878477E-009  0.1114577E+03  0.7561462E-02  0.1257894E+00
         -1   -1    0    0    0  501 -0.00000000000E+00  0.00000000000E+00  0.38362527015E+02  0.38362527015E+02  0.00000000000E+00 0. -1.
          1   -1    0    0  501    0  0.00000000000E+00 -0.00000000000E+00 -0.54191039364E+03  0.54191039364E+03  0.00000000000E+00 0.  1.
         25    2    1    2    0    0  0.27625743486E+02 -0.75839306693E+02 -0.36457499324E+03  0.39379825858E+03  0.12508941051E+03 0.  0.
          5    1    3    3  502    0 -0.35081530137E+02 -0.51889791885E+02 -0.81667452999E+02  0.10300635678E+03  0.41800000000E+01 0.  1.
         -5    1    3    3    0  502  0.62707273623E+02 -0.23949514808E+02 -0.28290754024E+03  0.29079190179E+03  0.41800000000E+01 0.  1.
        -11    1    1    2    0    0  0.55243541607E+01  0.51409971768E+02 -0.12122861038E+02  0.53108073264E+02  0.00000000000E+00 0. -1.
         11    1    1    2    0    0 -0.33150097647E+02  0.24429334925E+02 -0.12685001235E+03  0.13336658881E+03  0.00000000000E+00 0.  1.
</event>
<event>
 7    1  0.2878477E-009  0.1101924E+03  0.7561462E-02  0.1260214E+00
         -2   -1    0    0    0  501 -0.00000000000E+00  0.00000000000E+00  0.17144865425E+02  0.17144865425E+02  0.00000000000E+00 0.  1.
          2   -1    0    0  501    0  0.00000000000E+00 -0.00000000000E+00 -0.95499046462E+03  0.95499046462E+03  0.00000000000E+00 0. -1.
         25    2    1    2    0    0  0.32890210772E+02  0.37130292654E+02 -0.69113632402E+03  0.70411464245E+03  0.12509031435E+03 0.  0.
          5    1    3    3  502    0  0.78834360899E+02  0.24436352280E+02 -0.51528725445E+03  0.52187203295E+03  0.41800000000E+01 0. -1.
         -5    1    3    3    0  502 -0.45944150127E+02  0.12693940374E+02 -0.17584906956E+03  0.18224260951E+03  0.41800000000E+01 0. -1.
        -11    1    1    2    0    0 -0.58636714091E+00 -0.53622400271E+02 -0.20871351649E+03  0.21549254651E+03  0.00000000000E+00 0.  1.
         11    1    1    2    0    0 -0.32303843631E+02  0.16492107617E+02 -0.37995758694E+02  0.52528141084E+02  0.00000000000E+00 0. -1.
</event>
<event>
 7    1  0.2878477E-009  0.9912066E+02  0.7561462E-02  0.1282156E+00
          1   -1    0    0  501    0  0.00000000000E+00  0.00000000000E+00  0.16189069010E+03  0.16189069010E+03  0.00000000000E+00 0. -1.
         -1   -1    0    0    0  501 -0.00000000000E+00 -0.00000000000E+00 -0.10779778177E+03  0.10779778177E+03  0.00000000000E+00 0.  1.
         25    2    1    2    0    0  0.35895091934E+02  0.14332022343E+02  0.92707373284E+02  0.16042352539E+03  0.12508871231E+03 0.  0.
          5    1    3    3  502    0 -0.18675895709E+02 -0.28548768918E+02  0.83488587150E+02  0.90286421302E+02  0.41800000000E+01 0. -1.
         -5    1    3    3    0  502  0.54570987643E+02  0.42880791261E+02  0.92187861343E+01  0.70137104084E+02  0.41800000000E+01 0. -1.
        -11    1    1    2    0    0 -0.44400433857E+02  0.27119559084E+02 -0.41929240176E+02  0.66820133144E+02  0.00000000000E+00 0.  1.
         11    1    1    2    0    0  0.85053419237E+01 -0.41451581427E+02  0.33147752247E+01  0.42444813332E+02  0.00000000000E+00 0. -1.
</event>
<event>
 7    1  0.2878477E-009  0.1098953E+03  0.7561462E-02  0.1260764E+00
          2   -1    0    0  501    0  0.00000000000E+00  0.00000000000E+00  0.50045164553E+02  0.50045164553E+02  0.00000000000E+00 0.  1.
         -2   -1    0    0    0  501 -0.00000000000E+00 -0.00000000000E+00 -0.33331693511E+03  0.33331693511E+03  0.00000000000E+00 0. -1.
         25    2    1    2    0    0 -0.43921862611E+02 -0.49687093005E+02 -0.12036064770E+03  0.18582826828E+03  0.12509005777E+03 0.  0.
          5    1    3    3  502    0  0.39969206673E+02 -0.32896172131E+02 -0.24976019993E+02  0.57627854355E+02  0.41800000000E+01 0.  1.
         -5    1    3    3    0  502 -0.83891069284E+02 -0.16790920875E+02 -0.95384627703E+02  0.12820041393E+03  0.41800000000E+01 0.  1.
        -11    1    1    2    0    0  0.12249391239E+02  0.49012189318E+02 -0.15748894309E+03  0.16539349891E+03  0.00000000000E+00 0. -1.
         11    1    1    2    0    0  0.31672471372E+02  0.67490368755E+00 -0.54221797766E+01  0.32140332471E+02  0.00000000000E+00 0.  1.
</event>
<event>
 7    1  0.2878477E-009  0.1000484E+03  0.7561462E-02  0.1280194E+00
          1   -1    0    0  501    0  0.00000000000E+00  0.00000000000E+00  0.39086899544E+03  0.39086899544E+03  0.00000000000E+00 0. -1.
         -1   -1    0    0    0  501 -0.00000000000E+00 -0.00000000000E+00 -0.62284932240E+02  0.62284932240E+02  0.00000000000E+00 0.  1.
         25    2    1    2    0    0  0.63785159083E+01  0.82066686612E+02  0.28823056538E+03  0.32480781678E+03  0.12509049724E+03 0.  0.
          5    1    3    3  502    0  0.34282130453E+02  0.74300217974E+02  0.28357608279E+03  0.29517563245E+03  0.41800000000E+01 0. -1.
         -5    1    3    3    0  502 -0.27903614545E+02  0.77664686384E+01  0.46544825896E+01  0.29632184326E+02  0.41800000000E+01 0. -1.
        -11    1    1    2    0    0  0.13179300060E+02 -0.46229383440E+02  0.64857660974E+02  0.80730205192E+02  0.00000000000E+00 0.  1.
         11    1    1    2    0    0 -0.19557815968E+02 -0.35837303172E+02 -0.24504163162E+02  0.47615905707E+02  0.00000000000E+00 0. -1.
</event>
<event>
 7    1  0.2878477E-009  0.9734231E+02  0.7561462E-02  0.1285986E+00
         -1   -1    0    0    0  501 -0.00000000000E+00  0.00000000000E+00  0.36146542829E+02  0.36146542829E+02  0.00000000000E+00 0.  1.
          1   -1    0    0  501    0  0.00000000000E+00 -0.00000000000E+00 -0.43314482553E+03  0.43314482553E+03  0.00000000000E+00 0. -1.
         25    2    1    2    0    0 -0.14088109876E+02  0.27679272858E+02 -0.32340305888E+03  0.34814377443E+03  0.12509968902E+03 0.  0.
          5    1    3    3  502    0  0.59550830204E+01 -0.44115487833E+02 -0.63024464582E+02  0.77273506562E+02  0.41800000000E+01 0. -1.
         -5    1    3    3    0  502 -0.20043192897E+02  0.71794760691E+02 -0.26037859430E+03  0.27087026786E+03  0.41800000000E+01 0. -1.
        -11    1    1    2    0    0  0.64089069380E+01 -0.50671569399E+02 -0.86196940774E+01  0.51797501479E+02  0.00000000000E+00 0.  1.
         11    1    1    2    0    0  0.76792029383E+01  0.22992296541E+02 -0.64975529740E+02  0.69350092451E+02  0.00000000000E+00 0. -1.
</event>
<event>
 7    1  0.2878477E-009  0.1357813E+03  0.7561462E-02  0.1219121E+00
          2   -1    0    0  501    0  0.00000000000E+00  0.00000000000E+00  0.15682034205E+04  0.15682034205E+04  0.00000000000E+00 0. -1.
         -2   -1    0    0    0  501 -0.00000000000E+00 -0.00000000000E+00 -0.12933315509E+02  0.12933315509E+02  0.00000000000E+00 0.  1.
         25    2    1    2    0    0  0.17347312847E+02  0.88035672278E+02  0.90771254319E+03  0.92067407041E+03  0.12508986370E+03 0.  0.
          5    1    3    3  502    0  0.62404833152E+02  0.32427065804E+02  0.62721405536E+03  0.63115831725E+03  0.41800000000E+01 0.  1.
         -5    1    3    3    0  502 -0.45057520305E+02  0.55608606474E+02  0.28049848783E+03  0.28951575316E+03  0.41800000000E+01 0.  1.
        -11    1    1    2    0    0  0.36826223719E+02 -0.18328637216E+02  0.17962060431E+03  0.18427064657E+03  0.00000000000E+00 0.  1.
         11    1    1    2    0    0 -0.54173536566E+02 -0.69707035061E+02  0.46793695754E+03  0.47619201908E+03  0.00000000000E+00 0. -1.
</event>
<event>
 7    1  0.3680506E-009  0.2007363E+03  0.7561462E-02  0.1149119E+00
          4   -1    0    0  501    0  0.00000000000E+00  0.00000000000E+00  0.18480400114E+03  0.18480400114E+03  0.00000000000E+00 0. -1.
         -4   -1    0    0    0  501 -0.00000000000E+00 -0.00000000000E+00 -0.29202314640E+03  0.29202314640E+03  0.00000000000E+00 0.  1.
         25    2    1    2    0    0 -0.15452593391E+03  0.94696083006E+02  0.42994451217E+02  0.22436791764E+03  0.12508727850E+03 0.  0.
          5    1    3    3  502    0 -0.88271064837E+02  0.98944000401E+02 -0.18292764352E+02  0.13391711515E+03  0.41800000000E+01 0. -1.
         -5    1    3    3    0  502 -0.66254869071E+02 -0.42479173952E+01  0.61287215569E+02  0.90450802484E+02  0.41800000000E+01 0. -1.
        -11    1    1    2    0    0  0.10561093947E+03 -0.10855049215E+03 -0.12079202465E+03  0.19372039929E+03  0.00000000000E+00 0. -1.
         11    1    1    2    0    0  0.48914994440E+02  0.13854409143E+02 -0.29421571833E+02  0.58738830622E+02  0.00000000000E+00 0.  1.
</event>
<event>
 7    1  0.2878477E-009  0.1998511E+03  0.7561462E-02  0.1149865E+00
          2   -1    0    0  501    0  0.00000000000E+00  0.00000000000E+00  0.20334551905E+03  0.20334551905E+03  0.00000000000E+00 0.  1.
         -2   -1    0    0    0  501 -0.00000000000E+00 -0.00000000000E+00 -0.22253542093E+03  0.22253542093E+03  0.00000000000E+00 0. -1.
         25    2    1    2    0    0 -0.13204289702E+03  0.10843646684E+03  0.54807817734E+02  0.21873475204E+03  0.12508877197E+03 0.  0.
          5    1    3    3  502    0 -0.13206512284E+03  0.35170474765E+02  0.48500558584E+02  0.14507906655E+03  0.41800000000E+01 0.  1.
         -5    1    3    3    0  502  0.22225823764E-01  0.73265992072E+02  0.63072591501E+01  0.73655685499E+02  0.41800000000E+01 0.  1.
        -11    1    1    2    0    0  0.13252262908E+03 -0.11953982285E+03 -0.57985136802E+02  0.18765471632E+03  0.00000000000E+00 0.  1.
         11    1    1    2    0    0 -0.47973206087E+00  0.11103356013E+02 -0.16012582812E+02  0.19491471621E+02  0.00000000000E+00 0. -1.
</event>
<event>
 7    1  0.2878477E-009  0.1628029E+03  0.7561462E-02  0.1185568E+00
          2   -1    0    0  501    0  0.00000000000E+00  0.00000000000E+00  0.61755729374E+03  0.61755729374E+03  0.00000000000E+00 0.  1.
         -2   -1    0    0    0  501 -0.00000000000E+00 -0.00000000000E+00 -0.62412252198E+02  0.62412252198E+02  0.00000000000E+00 0. -1.
         25    2    1    2    0    0  0.67758916812E+02 -0.13428088693E+03  0.39016329937E+03  0.43646018651E+03  0.12508983503E+03 0.  0.
          5    1    3    3  502    0  0.33217502443E+02 -0.68257128642E+02  0.56947426924E+02  0.94989051539E+02  0.41800000000E+01 0. -1.
         -5    1    3    3    0  502  0.34541414369E+02 -0.66023758287E+02  0.33321587245E+03  0.34147113497E+03  0.41800000000E+01 0. -1.
        -11    1    1    2    0    0 -0.56444461260E+02  0.19658289960E+02  0.82351881940E+02  0.10175587467E+03  0.00000000000E+00 0.  1.
         11    1    1    2    0    0 -0.11314455552E+02  0.11462259697E+03  0.82629860234E+02  0.14175348476E+03  0.00000000000E+00 0. -1.
</event>
<event>
 7    1  0.2878477E-009  0.6596546E+02  0.7561462E-02  0.1374376E+00
          2   -1    0    0  501    0  0.00000000000E+00  0.00000000000E+00  0.63567191263E+03  0.63567191263E+03  0.00000000000E+00 0. -1.
         -2   -1    0    0    0  501 -0.00000000000E+00 -0.00000000000E+00 -0.19926356338E+02  0.19926356338E+02  0.00000000000E+00 0.  1.
         25    2    1    2    0    0  0.20531619860E+02  0.92588336177E+01  0.29462429566E+03  0.32086656712E+03  0.12507839497E+03 0.  0.
          5    1    3    3  502    0  0.17914114204E+02 -0.86667597979E+01  0.30063918933E+03  0.30132610702E+03  0.41800000000E+01 0.  1.
         -5    1    3    3    0  502  0.26175056563E+01  0.17925593416E+02 -0.60148936648E+01  0.19540460101E+02  0.41800000000E+01 0.  1.
        -11    1    1    2    0    0 -0.56424836354E+02 -0.24978240739E+01  0.16514699518E+03  0.17453805116E+03  0.00000000000E+00 0.  1.
         11    1    1    2    0    0  0.35893216493E+02 -0.67610095439E+01  0.15597426544E+03  0.16019365069E+03  0.00000000000E+00 0. -1.
</event>
<event>
 7    1  0.2878477E-009  0.1084444E+03  0.7561462E-02  0.1263478E+00
         -1   -1    0    0    0  501 -0.00000000000E+00  0.00000000000E+00  0.12631210590E+03  0.12631210590E+03  0.00000000000E+00 0.  1.
          1   -1    0    0  501    0  0.00000000000E+00 -0.00000000000E+00 -0.11368953109E+03  0.11368953109E+03  0.00000000000E+00 0. -1.
         25    2    1    2    0    0 -0.38615855225E+02 -0.29978183236E+02  0.25890109451E+02  0.13677696229E+03  0.12509102246E+03 0.  0.
          5    1    3    3  502    0  0.30168826081E+02  0.30142755804E+02  0.86026651482E+01  0.43706087016E+02  0.41800000000E+01 0.  1.
         -5    1    3    3    0  502 -0.68784681306E+02 -0.60120939039E+02  0.17287444302E+02  0.93070875272E+02  0.41800000000E+01 0.  1.
        -11    1    1    2    0    0 -0.19163681633E+02  0.68889044964E+01  0.23385530959E+02  0.31009462381E+02  0.00000000000E+00 0.  1.
         11    1    1    2    0    0  0.57779536858E+02  0.23089278739E+02 -0.36653065605E+02  0.72215212320E+02  0.00000000000E+00 0. -1.
</event>
<event>
 7    1  0.2878477E-009  0.1043342E+03  0.7561462E-02  0.1271437E+00
          1   -1    0    0  501    0  0.00000000000E+00  0.00000000000E+00  0.30002125811E+03  0.30002125811E+03  0.00000000000E+00 0.  1.
         -1   -1    0    0    0  501 -0.00000000000E+00 -0.00000000000E+00 -0.49010894600E+02  0.49010894600E+02  0.00000000000E+00 0. -1.
         25    2    1    2    0    0 -0.17413621181E+02  0.29657939357E+02  0.75193346278E+02  0.14994792245E+03  0.12509001779E+03 0.  0.
          5    1    3    3  502    0  0.48802081898E+02  0.32279123880E+01  0.58940072704E+02  0.76703762530E+02  0.41800000000E+01 0.  1.
         -5    1    3    3    0  502 -0.66215703079E+02  0.26430026969E+02  0.16253273574E+02  0.73244159915E+02  0.41800000000E+01 0.  1.
        -11    1    1    2    0    0 -0.28299933445E+02  0.74728441137E+01  0.30431758791E+02  0.42223471852E+02  0.00000000000E+00 0. -1.
         11    1    1    2    0    0  0.45713554626E+02 -0.37130783471E+02  0.14538525844E+03  0.15686075841E+03  0.00000000000E+00 0.  1.
</event>
<event>
 7    1  0.2878477E-009  0.1011298E+03  0.7561462E-02  0.1277938E+00
         -1   -1    0    0    0  501 -0.00000000000E+00  0.00000000000E+00  0.16559229043E+03  0.16559229043E+03  0.00000000000E+00 0.  1.
          1   -1    0    0  501    0  0.00000000000E+00 -0.00000000000E+00 -0.10156432180E+03  0.10156432180E+03  0.00000000000E+00 0. -1.
         25    2    1    2    0    0  0.43804281511E+00 -0.64703757127E+02  0.65596429740E+01  0.14098181311E+03  0.12508427017E+03 0.  0.
          5    1    3    3  502    0  0.22041981390E+02  0.53104431638E+01 -0.45496097561E+02  0.51004088498E+02  0.41800000000E+01 0. -1.
         -5    1    3    3    0  502 -0.21603938575E+02 -0.70014200291E+02  0.52055740535E+02  0.89977724616E+02  0.41800000000E+01 0. -1.
        -11    1    1    2    0    0 -0.17788655887E+02 -0.15598434630E+02 -0.34349554017E+01  0.23907035780E+02  0.00000000000E+00 0. -1.
         11    1    1    2    0    0  0.17350613072E+02  0.80302191757E+02  0.60903281054E+02  0.10226776334E+03  0.00000000000E+00 0.  1.
</event>
<event>
 7    1  0.2878477E-009  0.1142543E+03  0.7561462E-02  0.1252888E+00
         -4   -1    0    0    0  501 -0.00000000000E+00  0.00000000000E+00  0.23592671402E+03  0.23592671402E+03  0.00000000000E+00 0. -1.
          4   -1    0    0  501    0  0.00000000000E+00 -0.00000000000E+00 -0.72775725297E+02  0.72775725297E+02  0.00000000000E+00 0.  1.
         25    2    1    2    0    0 -0.71656850570E+02  0.19894065122E+01  0.58447247764E+02  0.15557286768E+03  0.12509266332E+03 0.  0.
          5    1    3    3  502    0  0.34261492847E+02  0.42229453447E+01  0.29674914128E+02  0.45713850068E+02  0.41800000000E+01 0.  1.
         -5    1    3    3    0  502 -0.10591834342E+03 -0.22335388325E+01  0.28772333636E+02  0.10985901761E+03  0.41800000000E+01 0.  1.
        -11    1    1    2    0    0  0.62907946516E+02 -0.21377214983E+02  0.11235085531E+03  0.13052627990E+03  0.00000000000E+00 0. -1.
         11    1    1    2    0    0  0.87489040539E+01  0.19387808470E+02 -0.76471143523E+01  0.22603291737E+02  0.00000000000E+00 0.  1.
</event>
<event>
 7    1  0.2878477E-009  0.1317918E+03  0.7561462E-02  0.1224821E+00
         -2   -1    0    0    0  501 -0.00000000000E+00  0.00000000000E+00  0.23966212949E+02  0.23966212949E+02  0.00000000000E+00 0.  1.
          2   -1    0    0  501    0  0.00000000000E+00 -0.00000000000E+00 -0.95329889117E+03  0.95329889117E+03  0.00000000000E+00 0. -1.
         25    2    1    2    0    0 -0.98346497526E+02  0.16904470125E+02 -0.60775782093E+03  0.62847046574E+03  0.12509101775E+03 0.  0.
          5    1    3    3  502    0 -0.61309306961E+02  0.56776702923E+02 -0.19598751135E+03  0.21309857371E+03  0.41800000000E+01 0. -1.
         -5    1    3    3    0  502 -0.37037190565E+02 -0.39872232797E+02 -0.41177030958E+03  0.41537189203E+03  0.41800000000E+01 0. -1.
        -11    1    1    2    0    0  0.28593194663E+02  0.29872996222E+02 -0.51987776657E+02  0.66428123608E+02  0.00000000000E+00 0.  1.
         11    1    1    2    0    0  0.69753302863E+02 -0.46777466348E+02 -0.26958708063E+03  0.28236651477E+03  0.00000000000E+00 0. -1.
</event>
<event>
 7    1  0.2878477E-009  0.2222620E+03  0.7561462E-02  0.1132208E+00
         -2   -1    0    0    0  501 -0.00000000000E+00  0.00000000000E+00  0.59546041614E+02  0.59546041614E+02  0.00000000000E+00 0.  1.
          2   -1    0    0  501    0  0.00000000000E+00 -0.00000000000E+00 -0.99877077331E+03  0.99877077331E+03  0.00000000000E+00 0. -1.
         25    2    1    2    0    0 -0.70653050420E+02 -0.20467404301E+03 -0.53911066604E+03  0.59428221359E+03  0.12509085392E+03 0.  0.
          5    1    3    3  502    0 -0.29703382183E+02 -0.29227651121E+02 -0.23362826444E+02  0.47956652954E+02  0.41800000000E+01 0.  1.
         -5    1    3    3    0  502 -0.40949668238E+02 -0.17544639189E+03 -0.51574783960E+03  0.54632556064E+03  0.41800000000E+01 0.  1.
        -11    1    1    2    0    0  0.72645127345E+02  0.13997842311E+03 -0.20614806279E+03  0.25955403532E+03  0.00000000000E+00 0.  1.
         11    1    1    2    0    0 -0.19920769248E+01  0.64695619903E+02 -0.19396600287E+03  0.20448056600E+03  0.00000000000E+00 0. -1.
</event>
<event>
 7    1  0.2878477E-009  0.7879161E+02  0.7561462E-02  0.1332516E+00
          1   -1    0    0  501    0  0.00000000000E+00  0.00000000000E+00  0.45335086493E+02  0.45335086493E+02  0.00000000000E+00 0. -1.
         -1   -1    0    0    0  501 -0.00000000000E+00 -0.00000000000E+00 -0.54564247623E+03  0.54564247623E+03  0.00000000000E+00 0.  1.
         25    2    1    2    0    0 -0.46281995268E+02 -0.10624026241E+02 -0.46510488226E+03  0.48397116149E+03  0.12510252048E+03 0.  0.
          5    1    3    3  502    0 -0.44969077285E+02  0.35786550151E+02 -0.96236477355E+02  0.11216874367E+03  0.41800000000E+01 0.  1.
         -5    1    3    3    0  502 -0.13129179825E+01 -0.46410576392E+02 -0.36886840491E+03  0.37180241781E+03  0.41800000000E+01 0.  1.
        -11    1    1    2    0    0  0.36977514836E+01  0.10100627523E+02 -0.57801856424E+02  0.58794137875E+02  0.00000000000E+00 0.  1.
         11    1    1    2    0    0  0.42584243784E+02  0.52339871804E+00  0.22599348952E+02  0.48212263356E+02  0.00000000000E+00 0. -1.
</event>
<event>
 7    1  0.2878477E-009  0.1196389E+03  0.7561462E-02  0.1243694E+00
         -1   -1    0    0    0  501 -0.00000000000E+00  0.00000000000E+00  0.21909737726E+03  0.21909737726E+03  0.00000000000E+00 0.  1.
          1   -1    0    0  501    0  0.00000000000E+00 -0.00000000000E+00 -0.71656721114E+02  0.71656721114E+02  0.00000000000E+00 0. -1.
         25    2    1    2    0    0  0.36623809507E+02 -0.40225898954E+02  0.11523571778E+03  0.17856734783E+03  0.12509037009E+03 0.  0.
          5    1    3    3  502    0  0.66776082242E+02  0.15171235683E+02  0.36865683390E+02  0.77883005614E+02  0.41800000000E+01 0.  1.
         -5    1    3    3    0  502 -0.30152272735E+02 -0.55397134637E+02  0.78370034386E+02  0.10068434221E+03  0.41800000000E+01 0.  1.
        -11    1    1    2    0    0  0.10052426347E+02 -0.25178493010E+02  0.78181733155E+01  0.28215804431E+02  0.00000000000E+00 0.  1.
         11    1    1    2    0    0 -0.46676235854E+02  0.65404391964E+02  0.24386765053E+02  0.83970946115E+02  0.00000000000E+00 0. -1.
</event>
<event>
 7    1  0.2878477E-009  0.1659462E+03  0.7561462E-02  0.1182142E+00
         -2   -1    0    0    0  501 -0.00000000000E+00  0.00000000000E+00  0.46104207162E+03  0.46104207162E+03  0.00000000000E+00 0. -1.
          2   -1    0    0  501    0  0.00000000000E+00 -0.00000000000E+00 -0.81337833238E+02  0.81337833238E+02  0.00000000000E+00 0.  1.
         25    2    1    2    0    0 -0.14626187384E+03  0.14494678849E+02  0.28729205387E+03  0.34610234495E+03  0.12508987772E+03 0.  0.
          5    1    3    3  502    0 -0.12522511087E+03 -0.21599419214E+02  0.27400166014E+03  0.30206331366E+03  0.41800000000E+01 0.  1.
         -5    1    3    3    0  502 -0.21036762965E+02  0.36094098063E+02  0.13290393737E+02  0.44039031287E+02  0.41800000000E+01 0.  1.
        -11    1    1    2    0    0  0.73276872229E+02 -0.42360712232E+02  0.14369376199E+02  0.85851085705E+02  0.00000000000E+00 0.  1.
         11    1    1    2    0    0  0.72985001608E+02  0.27866033383E+02  0.78042808313E+02  0.11042647421E+03  0.00000000000E+00 0. -1.
</event>
<event>
 7    1  0.2878477E-009  0.1398188E+03  0.7561462E-02  0.1213573E+00
         -2   -1    0    0    0  501 -0.00000000000E+00  0.00000000000E+00  0.75865150815E+02  0.75865150815E+02  0.00000000000E+00 0.  1.
          2   -1    0    0  501    0  0.00000000000E+00 -0.00000000000E+00 -0.40655408619E+03  0.40655408619E+03  0.00000000000E+00 0. -1.
         25    2    1    2    0    0 -0.98172554682E+02 -0.65252308576E+02 -0.76497529688E+02  0.18813517987E+03  0.12508900667E+03 0.  0.
          5    1    3    3  502    0  0.75376055892E+00 -0.29448172736E+02  0.27231020857E+02  0.40333161659E+02  0.41800000000E+01 0.  1.
         -5    1    3    3    0  502 -0.98926315241E+02 -0.35804135840E+02 -0.10372855055E+03  0.14780201822E+03  0.41800000000E+01 0.  1.
        -11    1    1    2    0    0  0.61603727920E+02  0.83468988150E+02 -0.20920962605E+03  0.23351821965E+03  0.00000000000E+00 0. -1.
         11    1    1    2    0    0  0.36568826762E+02 -0.18216679574E+02 -0.44981779640E+02  0.60765837483E+02  0.00000000000E+00 0.  1.
</event>
<event>
 7    1  0.2878477E-009  0.2761142E+03  0.7561462E-02  0.1097830E+00
         -1   -1    0    0    0  501 -0.00000000000E+00  0.00000000000E+00  0.24898794116E+03  0.24898794116E+03  0.00000000000E+00 0.  1.
          1   -1    0    0  501    0  0.00000000000E+00 -0.00000000000E+00 -0.32667397694E+03  0.32667397694E+03  0.00000000000E+00 0. -1.
         25    2    1    2    0    0 -0.12126083516E+03 -0.22581889399E+03  0.75020200150E+01  0.28530875913E+03  0.12508574941E+03 0.  0.
          5    1    3    3  502    0 -0.11892464655E+03 -0.89783193522E+02  0.56571952540E+01  0.14917630393E+03  0.41800000000E+01 0. -1.
         -5    1    3    3    0  502 -0.23361886052E+01 -0.13603570047E+03  0.18448247610E+01  0.13613245520E+03  0.41800000000E+01 0. -1.
        -11    1    1    2    0    0  0.22380314420E+02  0.12056398034E+03  0.11859844547E+00  0.12262367592E+03  0.00000000000E+00 0.  1.
         11    1    1    2    0    0  0.98880520736E+02  0.10525491365E+03 -0.85306654234E+02  0.16772948305E+03  0.00000000000E+00 0. -1.
</event>
<event>
 7    1  0.2878477E-009  0.9750567E+02  0.7561462E-02  0.1285630E+00
          1   -1    0    0  501    0  0.00000000000E+00  0.00000000000E+00  0.58537565499E+03  0.58537565499E+03  0.00000000000E+00 0. -1.
         -1   -1    0    0    0  501 -0.00000000000E+00 -0.00000000000E+00 -0.28010668003E+02  0.28010668003E+02  0.00000000000E+00 0.  1.
         25    2    1    2    0    0  0.43667469216E+01 -0.51405158068E+01  0.46452204947E+03  0.48111718291E+03  0.12509003105E+03 0.  0.
          5    1    3    3  502    0 -0.19186043240E+02  0.43173896000E+02  0.36376035541E+03  0.36683941735E+03  0.41800000000E+01 0. -1.
         -5    1    3    3    0  502  0.23552790161E+02 -0.48314411807E+02  0.10076169406E+03  0.11427776556E+03  0.41800000000E+01 0. -1.
        -11    1    1    2    0    0  0.42660184898E+02  0.15725821140E+02  0.52141507067E+02  0.69180413307E+02  0.00000000000E+00 0. -1.
         11    1    1    2    0    0 -0.47026931820E+02 -0.10585305333E+02  0.40701430448E+02  0.63088726773E+02  0.00000000000E+00 0.  1.
</event>
<event>
 7    1  0.2878477E-009  0.1077926E+03  0.7561462E-02  0.1264713E+00
         -2   -1    0    0    0  501 -0.00000000000E+00  0.00000000000E+00  0.40007577712E+02  0.40007577712E+02  0.00000000000E+00 0. -1.
          2   -1    0    0  501    0  0.00000000000E+00 -0.00000000000E+00 -0.42746031982E+03  0.42746031982E+03  0.00000000000E+00 0.  1.
         25    2    1    2    0    0 -0.19461063471E+01 -0.35335470184E+02 -0.32976527083E+03  0.35446209485E+03  0.12508341239E+03 0.  0.
          5    1    3    3  502    0  0.19138144380E+02 -0.74680938044E+02 -0.14432040678E+03  0.16367456519E+03  0.41800000000E+01 0. -1.
         -5    1    3    3    0  502 -0.21084250727E+02  0.39345467860E+02 -0.18544486405E+03  0.19078752965E+03  0.41800000000E+01 0. -1.
        -11    1    1    2    0    0  0.42373799889E+02  0.43280092684E+01 -0.11216592006E+02  0.44046367812E+02  0.00000000000E+00 0.  1.
         11    1    1    2    0    0 -0.40427693542E+02  0.31007460916E+02 -0.46470879270E+02  0.68959434871E+02  0.00000000000E+00 0. -1.
</event>
<event>
 7    1  0.2878477E-009  0.1116705E+03  0.7561462E-02  0.1257507E+00
         -1   -1    0    0    0  501 -0.00000000000E+00  0.00000000000E+00  0.39132317710E+02  0.39132317710E+02  0.00000000000E+00 0.  1.
          1   -1    0    0  501    0  0.00000000000E+00 -0.00000000000E+00 -0.42041398061E+03  0.42041398061E+03  0.00000000000E+00 0. -1.
         25    2    1    2    0    0 -0.36650060868E+02  0.40690648186E+02 -0.13877972368E+03  0.19469806128E+03  0.12509423468E+03 0.  0.
          5    1    3    3  502    0  0.35422007743E+02  0.26440713504E+02 -0.86952858302E+01  0.45242793446E+02  0.41800000000E+01 0. -1.
         -5    1    3    3    0  502 -0.72072068611E+02  0.14249934682E+02 -0.13008443785E+03  0.14945526783E+03  0.41800000000E+01 0. -1.
        -11    1    1    2    0    0 -0.29330455091E+02 -0.32962877710E+01 -0.51792128321E+02  0.59611791325E+02  0.00000000000E+00 0.  1.
         11    1    1    2    0    0  0.65980515959E+02 -0.37394360415E+02 -0.19070981089E+03  0.20523644571E+03  0.00000000000E+00 0. -1.
</event>
<event>
 7    1  0.2878477E-009  0.1294165E+03  0.7561462E-02  0.1228324E+00
          2   -1    0    0  501    0  0.00000000000E+00  0.00000000000E+00  0.15564896613E+02  0.15564896613E+02  0.00000000000E+00 0. -1.
         -2   -1    0    0    0  501 -0.00000000000E+00 -0.00000000000E+00 -0.11859267548E+04  0.11859267548E+04  0.00000000000E+00 0.  1.
         25    2    1    2    0    0  0.58270463107E+02  0.45769977549E+02 -0.56067176610E+03  0.57921582170E+03  0.12509117112E+03 0.  0.
          5    1    3    3  502    0  0.42971691372E+02 -0.33292014013E+02 -0.33851378723E+03  0.34287604320E+03  0.41800000000E+01 0. -1.
         -5    1    3    3    0  502  0.15298771735E+02  0.79061991561E+02 -0.22215797887E+03  0.23633977850E+03  0.41800000000E+01 0. -1.
        -11    1    1    2    0    0 -0.56743632173E+02  0.18274386767E+02 -0.33016055295E+03  0.33549930511E+03  0.00000000000E+00 0. -1.
         11    1    1    2    0    0 -0.15268309344E+01 -0.64044364315E+02 -0.27952953916E+03  0.28677652463E+03  0.00000000000E+00 0.  1.
</event>
<event>
 7    1  0.3416428E-009  0.1653723E+03  0.7561462E-02  0.1182762E+00
          2   -1    0    0  501    0  0.00000000000E+00  0.00000000000E+00  0.98379682131E+03  0.98379682131E+03  0.00000000000E+00 0. -1.
         -2   -1    0    0    0  501 -0.00000000000E+00 -0.00000000000E+00 -0.30839223079E+02  0.30839223079E+02  0.00000000000E+00 0.  1.
         25    2    1    2    0    0  0.88700346551E+02 -0.10066184368E+03  0.56843406139E+03  0.59729957075E+03  0.12509571063E+03 0.  0.
          5    1    3    3  502    0 -0.18244430319E+02  0.15405523214E+02  0.10310136926E+03  0.10591295542E+03  0.41800000000E+01 0.  1.
         -5    1    3    3    0  502  0.10694477687E+03 -0.11606736689E+03  0.46533269213E+03  0.49138661533E+03  0.41800000000E+01 0.  1.
        -11    1    1    2    0    0 -0.48221358985E+02  0.98778846896E+01  0.58273485483E+02  0.76280214857E+02  0.00000000000E+00 0.  1.
         11    1    1    2    0    0 -0.40478987566E+02  0.90783958987E+02  0.32625005135E+03  0.34105625878E+03  0.00000000000E+00 0. -1.
</event>
<event>
 7    1  0.2878477E-009  0.1660842E+03  0.7561462E-02  0.1181994E+00
          1   -1    0    0  501    0  0.00000000000E+00  0.00000000000E+00  0.38440530735E+02  0.38440530735E+02  0.00000000000E+00 0. -1.
         -1   -1    0    0    0  501 -0.00000000000E+00 -0.00000000000E+00 -0.10297599093E+04  0.10297599093E+04  0.00000000000E+00 0.  1.
         25    2    1    2    0    0 -0.13239364636E+01 -0.16292091528E+03 -0.42886405006E+03  0.47551781979E+03  0.12509135087E+03 0.  0.
          5    1    3    3  502    0 -0.30982290474E+00 -0.16211170651E+03 -0.43708822749E+03  0.46620155769E+03  0.41800000000E+01 0.  1.
         -5    1    3    3    0  502 -0.10141135589E+01 -0.80920876630E+00  0.82241774318E+01  0.93162621027E+01  0.41800000000E+01 0.  1.
        -11    1    1    2    0    0 -0.14005960690E+02  0.92608294734E+02 -0.17389584829E+03  0.19751513674E+03  0.00000000000E+00 0. -1.
         11    1    1    2    0    0  0.15329897153E+02  0.70312620544E+02 -0.38855948022E+03  0.39516748351E+03  0.00000000000E+00 0.  1.
</event>
<event>
 7    1  0.2878477E-009  0.3921293E+03  0.7561462E-02  0.1046540E+00
          1   -1    0    0  501    0  0.00000000000E+00  0.00000000000E+00  0.11450269077E+04  0.11450269077E+04  0.00000000000E+00 0. -1.
         -1   -1    0    0    0  501 -0.00000000000E+00 -0.00000000000E+00 -0.15013321942E+03  0.15013321942E+03  0.00000000000E+00 0.  1.
         25    2    1    2    0    0 -0.32031474091E+03  0.21130362205E+03  0.32742605041E+03  0.51971741456E+03  0.12509044159E+03 0.  0.
          5    1    3    3  502    0 -0.18888538660E+03  0.84774809503E+02  0.24116493660E+03  0.31787176132E+03  0.41800000000E+01 0.  1.
         -5    1    3    3    0  502 -0.13142935430E+03  0.12652881255E+03  0.86261113812E+02  0.20184565324E+03  0.41800000000E+01 0.  1.
        -11    1    1    2    0    0  0.20686666087E+03 -0.18659108156E+03  0.47454608053E+03  0.55027632117E+03  0.00000000000E+00 0.  1.
         11    1    1    2    0    0  0.11344808004E+03 -0.24712540494E+02  0.19292155729E+03  0.22516639134E+03  0.00000000000E+00 0. -1.
</event>
<event>
 7    1  0.2878477E-009  0.1453810E+03  0.7561462E-02  0.1206266E+00
          2   -1    0    0  501    0  0.00000000000E+00  0.00000000000E+00  0.50662238563E+03  0.50662238563E+03  0.00000000000E+00 0. -1.
         -2   -1    0    0    0  501 -0.00000000000E+00 -0.00000000000E+00 -0.52622000135E+02  0.52622000135E+02  0.00000000000E+00 0.  1.
         25    2    1    2    0    0  0.27527818204E+02  0.10016706317E+03  0.13435934109E+03  0.21092321194E+03  0.12507976446E+03 0.  0.
          5    1    3    3  502    0  0.64926584868E+02  0.11313525320E+02  0.51769845403E+02  0.83910944285E+02  0.41800000000E+01 0. -1.
         -5    1    3    3    0  502 -0.37398766664E+02  0.88853537851E+02  0.82589495684E+02  0.12701226765E+03  0.41800000000E+01 0. -1.
        -11    1    1    2    0    0  0.20710951747E+02 -0.65851450023E+02  0.10495072269E+03  0.12561851450E+03  0.00000000000E+00 0.  1.
         11    1    1    2    0    0 -0.48238769951E+02 -0.34315613148E+02  0.21469032172E+03  0.22270265933E+03  0.00000000000E+00 0. -1.
</event>
<event>
 7    1  0.2878477E-009  0.1717409E+03  0.7561462E-02  0.1176044E+00
         -1   -1    0    0    0  501 -0.00000000000E+00  0.00000000000E+00  0.53032264805E+03  0.53032264805E+03  0.00000000000E+00 0.  1.
          1   -1    0    0  501    0  0.00000000000E+00 -0.00000000000E+00 -0.75648983075E+02  0.75648983075E+02  0.00000000000E+00 0. -1.
         25    2    1    2    0    0  0.90100827719E+01 -0.14934753170E+03  0.35396372326E+03  0.40413328610E+03  0.12509008249E+03 0.  0.
          5    1    3    3  502    0  0.43556295260E+02 -0.92096620996E+02  0.10519350537E+03  0.14649943490E+03  0.41800000000E+01 0. -1.
         -5    1    3    3    0  502 -0.34546212488E+02 -0.57250910702E+02  0.24877021789E+03  0.25763385120E+03  0.41800000000E+01 0. -1.
        -11    1    1    2    0    0  0.16852394069E+02 -0.53471697427E+01  0.62738322446E+01  0.18760500557E+02  0.00000000000E+00 0.  1.
         11    1    1    2    0    0 -0.25862476841E+02  0.15469470144E+03  0.94436109472E+02  0.18307784447E+03  0.00000000000E+00 0. -1.
</event>
<event>
 7    1  0.2878477E-009  0.1232909E+03  0.7561462E-02  0.1237765E+00
         -2   -1    0    0    0  501 -0.00000000000E+00  0.00000000000E+00  0.25610767830E+02  0.25610767830E+02  0.00000000000E+00 0.  1.
          2   -1    0    0  501    0  0.00000000000E+00 -0.00000000000E+00 -0.61868385354E+03  0.61868385354E+03  0.00000000000E+00 0. -1.
         25    2    1    2    0    0  0.59261236750E+02 -0.23172967456E+02 -0.35340709754E+03  0.38025317584E+03  0.12508805116E+03 0.  0.
          5    1    3    3  502    0  0.29088367707E+01 -0.65248800729E+02 -0.12317023719E+03  0.13947848242E+03  0.41800000000E+01 0. -1.
         -5    1    3    3    0  502  0.56352399979E+02  0.42075833272E+02 -0.23023686034E+03  0.24077469342E+03  0.41800000000E+01 0. -1.
        -11    1    1    2    0    0 -0.30921498487E+02  0.58032837597E+02 -0.14846253291E+03  0.16237325207E+03  0.00000000000E+00 0. -1.
         11    1    1    2    0    0 -0.28339738263E+02 -0.34859870141E+02 -0.91203455256E+02  0.10166819346E+03  0.00000000000E+00 0.  1.
</event>
<event>
 7    1  0.2878477E-009  0.1060924E+03  0.7561462E-02  0.1267982E+00
         -1   -1    0    0    0  501 -0.00000000000E+00  0.00000000000E+00  0.33825912938E+02  0.33825912938E+02  0.00000000000E+00 0.  1.
          1   -1    0    0  501    0  0.00000000000E+00 -0.00000000000E+00 -0.58474088325E+03  0.58474088325E+03  0.00000000000E+00 0. -1.
         25    2    1    2    0    0  0.59391788666E+02  0.39897991713E+02 -0.41937350605E+03  0.44344278457E+03  0.12509249102E+03 0.  0.
          5    1    3    3  502    0  0.22071291320E+02 -0.32505519492E+02 -0.27329229308E+03  0.27613384537E+03  0.41800000000E+01 0. -1.
         -5    1    3    3    0  502  0.37320497346E+02  0.72403511205E+02 -0.14608121296E+03  0.16730893921E+03  0.41800000000E+01 0. -1.
        -11    1    1    2    0    0 -0.45655334145E+02 -0.54476901227E+02 -0.13701889351E+03  0.15435776456E+03  0.00000000000E+00 0. -1.
         11    1    1    2    0    0 -0.13736454521E+02  0.14578909514E+02  0.54774292442E+01  0.20766247050E+02  0.00000000000E+00 0.  1.
</event>
<event>
 7    1  0.2878477E-009  0.1338873E+03  0.7561462E-02  0.1221799E+00
         -2   -1    0    0    0  501 -0.00000000000E+00  0.00000000000E+00  0.77779887321E+03  0.77779887321E+03  0.00000000000E+00 0.  1.
          2   -1    0    0  501    0  0.00000000000E+00 -0.00000000000E+00 -0.34442432914E+02  0.34442432914E+02  0.00000000000E+00 0. -1.
         25    2    1    2    0    0  0.83870314596E+02 -0.47314194803E+02  0.21060956566E+03  0.26322152036E+03  0.12512520502E+03 0.  0.
          5    1    3    3  502    0 -0.15101154548E+02 -0.33192358036E+02  0.12893841764E+03  0.13406105119E+03  0.41800000000E+01 0. -1.
         -5    1    3    3    0  502  0.98971469144E+02 -0.14121836767E+02  0.81671148019E+02  0.12916046917E+03  0.41800000000E+01 0. -1.
        -11    1    1    2    0    0 -0.37665439450E+02  0.70033832238E+02  0.36437532214E+03  0.37295146919E+03  0.00000000000E+00 0.  1.
         11    1    1    2    0    0 -0.46204875146E+02 -0.22719637435E+02  0.16837155249E+03  0.17606831657E+03  0.00000000000E+00 0. -1.
</event>
<event>
 7    1  0.2878477E-009  0.1631253E+03  0.7561462E-02  0.1185213E+00
         -2   -1    0    0    0  501 -0.00000000000E+00  0.00000000000E+00  0.23802908378E+03  0.23802908378E+03  0.00000000000E+00 0.  1.
          2   -1    0    0  501    0  0.00000000000E+00 -0.00000000000E+00 -0.13891446596E+03  0.13891446596E+03  0.00000000000E+00 0. -1.
         25    2    1    2    0    0 -0.12012596062E+03  0.66733455243E+02  0.36265221738E+02  0.18933146344E+03  0.12509051234E+03 0.  0.
          5    1    3    3  502    0 -0.27530275963E+02 -0.11273709698E+02  0.58871589041E+02  0.66093486980E+02  0.41800000000E+01 0.  1.
         -5    1    3    3    0  502 -0.92595684657E+02  0.78007164941E+02 -0.22606367303E+02  0.12323797646E+03  0.41800000000E+01 0.  1.
        -11    1    1    2    0    0  0.11142503034E+03 -0.37576359945E+01  0.52386515968E+02  0.12318280834E+03  0.00000000000E+00 0.  1.
         11    1    1    2    0    0  0.87009302761E+01 -0.62975819249E+02  0.10462880116E+02  0.64429277957E+02  0.00000000000E+00 0. -1.
</event>
<event>
 7    1  0.2878477E-009  0.1549484E+03  0.7561462E-02  0.1194521E+00
          1   -1    0    0  501    0  0.00000000000E+00  0.00000000000E+00  0.12443060774E+03  0.12443060774E+03  0.00000000000E+00 0. -1.
         -1   -1    0    0    0  501 -0.00000000000E+00 -0.00000000000E+00 -0.31841902015E+03  0.31841902015E+03  0.00000000000E+00 0.  1.
         25    2    1    2    0    0 -0.77950093789E+02 -0.93683776835E+02  0.24580770025E+02  0.17635609283E+03  0.12507753619E+03 0.  0.
          5    1    3    3  502    0 -0.10393267958E+03 -0.36776411261E+02  0.41179489042E+01  0.11040351540E+03  0.41800000000E+01 0. -1.
         -5    1    3    3    0  502  0.25982585793E+02 -0.56907365573E+02  0.20462821121E+02  0.65952577426E+02  0.41800000000E+01 0. -1.
        -11    1    1    2    0    0  0.87916466689E+02  0.91041257923E+02 -0.22207139766E+03  0.25560422809E+03  0.00000000000E+00 0.  1.
         11    1    1    2    0    0 -0.99663728996E+01  0.26425189120E+01  0.35022152207E+01  0.10889306976E+02  0.00000000000E+00 0. -1.
</event>
<event>
 7    1  0.2878477E-009  0.1219341E+03  0.7561462E-02  0.1239940E+00
          1   -1    0    0  501    0  0.00000000000E+00  0.00000000000E+00  0.58875974584E+03  0.58875974584E+03  0.00000000000E+00 0. -1.
         -1   -1    0    0    0  501 -0.00000000000E+00 -0.00000000000E+00 -0.27412967235E+02  0.27412967235E+02  0.00000000000E+00 0.  1.
         25    2    1    2    0    0  0.36339399233E+02  0.54398971603E+02  0.28679955605E+03  0.31965863443E+03  0.12509139526E+03 0.  0.
          5    1    3    3  502    0 -0.34352765346E+02  0.50512441580E+02  0.19024587555E+03  0.19985641047E+03  0.41800000000E+01 0. -1.
         -5    1    3    3    0  502  0.70692164579E+02  0.38865300229E+01  0.96553680503E+02  0.11980222397E+03  0.41800000000E+01 0. -1.
        -11    1    1    2    0    0  0.29737697848E+02 -0.27060042094E+02  0.88843484003E+02  0.97517901953E+02  0.00000000000E+00 0.  1.
         11    1    1    2    0    0 -0.66077097082E+02 -0.27338929509E+02  0.18570373855E+03  0.19899617669E+03  0.00000000000E+00 0. -1.
</event>
<event>
 7    1  0.2878477E-009  0.1147430E+03  0.7561462E-02  0.1252030E+00
          1   -1    0    0  501    0  0.00000000000E+00  0.00000000000E+00  0.15315833533E+04  0.15315833533E+04  0.00000000000E+00 0. -1.
         -1   -1    0    0    0  501 -0.00000000000E+00 -0.00000000000E+00 -0.20958640898E+02  0.20958640898E+02  0.00000000000E+00 0.  1.
         25    2    1    2    0    0 -0.45629782930E+02  0.46497963126E+02  0.13395134064E+04  0.13469182432E+04  0.12509376595E+03 0.  0.
          5    1    3    3  502    0  0.39583725493E+02 -0.68213501567E+01  0.36766217597E+03  0.36987342454E+03  0.41800000000E+01 0. -1.
         -5    1    3    3    0  502 -0.85213508422E+02  0.53319313282E+02  0.97185123040E+03  0.97704481863E+03  0.41800000000E+01 0. -1.
        -11    1    1    2    0    0 -0.57980757164E+01 -0.35414905020E+02  0.13995251340E+03  0.14448023805E+03  0.00000000000E+00 0. -1.
         11    1    1    2    0    0  0.51427858646E+02 -0.11083058106E+02  0.31158792648E+02  0.61143512993E+02  0.00000000000E+00 0.  1.
</event>
<event>
 7    1  0.2878477E-009  0.6923482E+02  0.7561462E-02  0.1362715E+00
          2   -1    0    0  501    0  0.00000000000E+00  0.00000000000E+00  0.65317912613E+03  0.65317912613E+03  0.00000000000E+00 0. -1.
         -2   -1    0    0    0  501 -0.00000000000E+00 -0.00000000000E+00 -0.21456783614E+02  0.21456783614E+02  0.00000000000E+00 0.  1.
         25    2    1    2    0    0  0.97832249225E+01 -0.45370579796E+02  0.36031091436E+03  0.38422109854E+03  0.12509075330E+03 0.  0.
          5    1    3    3  502    0  0.12942230918E+02 -0.31312971542E+02  0.36643147301E+03  0.36801834239E+03  0.41800000000E+01 0. -1.
         -5    1    3    3    0  502 -0.31590059955E+01 -0.14057608254E+02 -0.61205586505E+01  0.16202756151E+02  0.41800000000E+01 0. -1.
        -11    1    1    2    0    0 -0.43357067388E+02  0.26513386004E+02  0.77225234409E+02  0.92447454045E+02  0.00000000000E+00 0. -1.
         11    1    1    2    0    0  0.33573842466E+02  0.18857193792E+02  0.19418619375E+03  0.19796735715E+03  0.00000000000E+00 0.  1.
</event>
<event>
 7    1  0.2878477E-009  0.1790153E+03  0.7561462E-02  0.1168759E+00
          2   -1    0    0  501    0  0.00000000000E+00  0.00000000000E+00  0.36962630467E+03  0.36962630467E+03  0.00000000000E+00 0. -1.
         -2   -1    0    0    0  501 -0.00000000000E+00 -0.00000000000E+00 -0.10707478357E+03  0.10707478357E+03  0.00000000000E+00 0.  1.
         25    2    1    2    0    0 -0.83150732207E+02 -0.14390978065E+03  0.13336559492E+03  0.24709740776E+03  0.12508668108E+03 0.  0.
          5    1    3    3  502    0 -0.14699022365E+01 -0.17834555103E+02  0.88319394848E+02  0.90210974247E+02  0.41800000000E+01 0.  1.
         -5    1    3    3    0  502 -0.81680829971E+02 -0.12607522554E+03  0.45046200071E+02  0.15688643352E+03  0.41800000000E+01 0.  1.
        -11    1    1    2    0    0 -0.14948703254E+02  0.54942848703E+02  0.31801846580E+02  0.65219152083E+02  0.00000000000E+00 0. -1.
         11    1    1    2    0    0  0.98099435462E+02  0.88966931943E+02  0.97384079601E+02  0.16438452840E+03  0.00000000000E+00 0.  1.
</event>
<event>
 7    1  0.2878477E-009  0.3024994E+03  0.7561462E-02  0.1083998E+00
          1   -1    0    0  501    0  0.00000000000E+00  0.00000000000E+00  0.94958758590E+03  0.94958758590E+03  0.00000000000E+00 0. -1.
         -1   -1    0    0    0  501 -0.00000000000E+00 -0.00000000000E+00 -0.12444711478E+03  0.12444711478E+03  0.00000000000E+00 0.  1.
         25    2    1    2    0    0  0.15941660741E+03  0.23638889613E+03  0.17211799422E+03  0.35576016154E+03  0.12508926283E+03 0.  0.
          5    1    3    3  502    0  0.11069290412E+03  0.23333772621E+03  0.16435125578E+03  0.30615065110E+03  0.41800000000E+01 0.  1.
         -5    1    3    3    0  502  0.48723703289E+02  0.30511699232E+01  0.77667384410E+01  0.49609510440E+02  0.41800000000E+01 0.  1.
        -11    1    1    2    0    0 -0.11492516037E+03 -0.22361043046E+03  0.57484528383E+03  0.62742052679E+03  0.00000000000E+00 0.  1.
         11    1    1    2    0    0 -0.44491447032E+02 -0.12778465676E+02  0.78177193069E+02  0.90854012351E+02  0.00000000000E+00 0. -1.
</event>
<event>
 7    1  0.2878477E-009  0.1845081E+03  0.7561462E-02  0.1163510E+00
          3   -1    0    0  501    0  0.00000000000E+00  0.00000000000E+00  0.10904173685E+04  0.10904173685E+04  0.00000000000E+00 0. -1.
         -3   -1    0    0    0  501 -0.00000000000E+00 -0.00000000000E+00 -0.43602782320E+02  0.43602782320E+02  0.00000000000E+00 0.  1.
         25    2    1    2    0    0 -0.14974489924E+03 -0.51798764468E+02  0.78437463131E+03  0.80993674188E+03  0.12508923512E+03 0.  0.
          5    1    3    3  502    0 -0.16092228149E+03 -0.72692356007E+02  0.71554726533E+03  0.73702477613E+03  0.41800000000E+01 0.  1.
         -5    1    3    3    0  502  0.11177382249E+02  0.20893591540E+02  0.68827365979E+02  0.72911965747E+02  0.41800000000E+01 0.  1.
        -11    1    1    2    0    0  0.45743602981E+02 -0.10716475666E+02  0.16425643011E+02  0.49770692307E+02  0.00000000000E+00 0.  1.
         11    1    1    2    0    0  0.10400129626E+03  0.62515240133E+02  0.24601431191E+03  0.27431271669E+03  0.00000000000E+00 0. -1.
</event>
<event>
 7    1  0.2878477E-009  0.2725022E+03  0.7561462E-02  0.1099856E+00
          1   -1    0    0  501    0  0.00000000000E+00  0.00000000000E+00  0.10740098841E+04  0.10740098841E+04  0.00000000000E+00 0. -1.
         -1   -1    0    0    0  501 -0.00000000000E+00 -0.00000000000E+00 -0.16209808922E+03  0.16209808922E+03  0.00000000000E+00 0.  1.
         25    2    1    2    0    0  0.24901896696E+03 -0.25077029304E+02  0.92766212321E+03  0.96894000109E+03  0.12509359522E+03 0.  0.
          5    1    3    3  502    0  0.24726564627E+02  0.37925957485E+02  0.11949848361E+03  0.12785593937E+03  0.41800000000E+01 0. -1.
         -5    1    3    3    0  502  0.22429240234E+03 -0.63002986789E+02  0.80816363960E+03  0.84108406171E+03  0.41800000000E+01 0. -1.
        -11    1    1    2    0    0 -0.14302580236E+03 -0.31391183131E+02 -0.13487477669E+02  0.14704998664E+03  0.00000000000E+00 0. -1.
         11    1    1    2    0    0 -0.10599316461E+03  0.56468212434E+02 -0.22628506993E+01  0.12011798555E+03  0.00000000000E+00 0.  1.
</event>
<event>
 7    1  0.3111021E-009  0.2316455E+03  0.7561462E-02  0.1125487E+00
         -1   -1    0    0    0  501 -0.00000000000E+00  0.00000000000E+00  0.14145703763E+03  0.14145703763E+03  0.00000000000E+00 0.  1.
          1   -1    0    0  501    0  0.00000000000E+00 -0.00000000000E+00 -0.51618466284E+03  0.51618466284E+03  0.00000000000E+00 0. -1.
         25    2    1    2    0    0  0.88524895614E+02  0.20116216264E+03 -0.32978742999E+03  0.41558452227E+03  0.12509145995E+03 0.  0.
          5    1    3    3  502    0  0.83450113667E+02  0.74779273556E+02 -0.87478212645E+02  0.14221733830E+03  0.41800000000E+01 0.  1.
         -5    1    3    3    0  502  0.50747819472E+01  0.12638288909E+03 -0.24230921734E+03  0.27336718398E+03  0.41800000000E+01 0.  1.
        -11    1    1    2    0    0 -0.10084385294E+02 -0.77574357577E+02 -0.54541008459E+02  0.95363501320E+02  0.00000000000E+00 0. -1.
         11    1    1    2    0    0 -0.78440510321E+02 -0.12358780507E+03  0.96008132344E+01  0.14669367688E+03  0.00000000000E+00 0.  1.
</event>
<event>
 7    1  0.2878477E-009  0.1171090E+03  0.7561462E-02  0.1247944E+00
         -3   -1    0    0    0  501 -0.00000000000E+00  0.00000000000E+00  0.65876686386E+03  0.65876686386E+03  0.00000000000E+00 0.  1.
          3   -1    0    0  501    0  0.00000000000E+00 -0.00000000000E+00 -0.26954190847E+02  0.26954190847E+02  0.00000000000E+00 0. -1.
         25    2    1    2    0    0 -0.73506018269E+02  0.15709672458E+02  0.40245022370E+03  0.42809221144E+03  0.12508729116E+03 0.  0.
          5    1    3    3  502    0 -0.77082855916E+02 -0.30863597677E+02  0.33986533605E+03  0.34988604915E+03  0.41800000000E+01 0. -1.
         -5    1    3    3    0  502  0.35768376464E+01  0.46573270135E+02  0.62584887645E+02  0.78206162290E+02  0.41800000000E+01 0. -1.
        -11    1    1    2    0    0  0.32423325085E+02  0.28975004328E+02  0.15833560119E+03  0.16419800696E+03  0.00000000000E+00 0.  1.
         11    1    1    2    0    0  0.41082693184E+02 -0.44684676786E+02  0.71026848124E+02  0.93430836308E+02  0.00000000000E+00 0. -1.
</event>
<event>
 7    1  0.2878477E-009  0.7987322E+02  0.7561462E-02  0.1329412E+00
         -1   -1    0    0    0  501 -0.00000000000E+00  0.00000000000E+00  0.35042907847E+02  0.35042907847E+02  0.00000000000E+00 0.  1.
          1   -1    0    0  501    0  0.00000000000E+00 -0.00000000000E+00 -0.56174705681E+03  0.56174705681E+03  0.00000000000E+00 0. -1.
         25    2    1    2    0    0 -0.42326712427E+02  0.24787143303E+02 -0.13719233649E+03  0.19202912853E+03  0.12508995146E+03 0.  0.
          5    1    3    3  502    0 -0.20873472710E+02  0.11589602777E+02  0.20829001977E+02  0.31958417965E+02  0.41800000000E+01 0.  1.
         -5    1    3    3    0  502 -0.21453239717E+02  0.13197540526E+02 -0.15802133847E+03  0.16007071057E+03  0.41800000000E+01 0.  1.
        -11    1    1    2    0    0  0.93928395234E+01  0.37963383927E+02 -0.13130163142E+03  0.13700205242E+03  0.00000000000E+00 0.  1.
         11    1    1    2    0    0  0.32933872903E+02 -0.62750527230E+02 -0.25821018105E+03  0.26775878370E+03  0.00000000000E+00 0. -1.
</event>
<event>
 7    1  0.2878477E-009  0.8384447E+02  0.7561462E-02  0.1318482E+00
          2   -1    0    0  501    0  0.00000000000E+00  0.00000000000E+00  0.52551935223E+03  0.52551935223E+03  0.00000000000E+00 0. -1.
         -2   -1    0    0    0  501 -0.00000000000E+00 -0.00000000000E+00 -0.25816354142E+02  0.25816354142E+02  0.00000000000E+00 0.  1.
         25    2    1    2    0    0 -0.16531843140E+02 -0.36975912932E+02  0.32404610160E+03  0.34970796208E+03  0.12509701356E+03 0.  0.
          5    1    3    3  502    0 -0.17834596074E+02  0.14121796892E+02  0.15736663050E+01  0.23182898659E+02  0.41800000000E+01 0. -1.
         -5    1    3    3    0  502  0.13027529341E+01 -0.51097709824E+02  0.32247243530E+03  0.32652506342E+03  0.41800000000E+01 0. -1.
        -11    1    1    2    0    0  0.25171542105E+02 -0.22144684390E+02  0.33358745286E+02  0.47294814364E+02  0.00000000000E+00 0.  1.
         11    1    1    2    0    0 -0.86396989653E+01  0.59120597322E+02  0.14229815120E+03  0.15433292993E+03  0.00000000000E+00 0. -1.
</event>
<event>
 7    1  0.2878477E-009  0.3039975E+03  0.7561462E-02  0.1083259E+00
         -2   -1    0    0    0  501 -0.00000000000E+00  0.00000000000E+00  0.62222174654E+03  0.62222174654E+03  0.00000000000E+00 0.  1.
          2   -1    0    0  501    0  0.00000000000E+00 -0.00000000000E+00 -0.19378790851E+03  0.19378790851E+03  0.00000000000E+00 0. -1.
         25    2    1    2    0    0  0.16365619695E+03  0.23957056655E+03  0.35105592799E+02  0.31789464213E+03  0.12508874327E+03 0.  0.
          5    1    3    3  502    0  0.18262626985E+03  0.20195830577E+03  0.40154571498E+02  0.27526237251E+03  0.41800000000E+01 0. -1.
         -5    1    3    3    0  502 -0.18970072902E+02  0.37612260781E+02 -0.50489786990E+01  0.42632269619E+02  0.41800000000E+01 0. -1.
        -11    1    1    2    0    0 -0.30760198150E+02 -0.20006317340E+02  0.12280182004E+02  0.38694255308E+02  0.00000000000E+00 0. -1.
         11    1    1    2    0    0 -0.13289599880E+03 -0.21956424921E+03  0.38104806323E+03  0.45942075761E+03  0.00000000000E+00 0.  1.
</event>
<event>
 6    1  0.2878477E-009  0.1470482E+03  0.7561462E-02  0.1204148E+00
          2   -1    0    0  501    0  0.00000000000E+00  0.00000000000E+00  0.46894763559E+03  0.46894763559E+03  0.00000000000E+00 0. -1.
         -2   -1    0    0    0  501 -0.00000000000E+00 -0.00000000000E+00 -0.64346380311E+02  0.64346380311E+02  0.00000000000E+00 0.  1.
          5    1    1    2  502    0  0.49764324590E+01 -0.25826556048E+01  0.12882763182E+03  0.12901730934E+03  0.41800000000E+01 0.  1.
         -5    1    1    2    0  502  0.12963810255E+03 -0.77104465197E+01  0.95928127648E+02  0.16150902976E+03  0.41800000000E+01 0.  1.
        -11    1    1    2    0    0 -0.62167925039E+02 -0.35376362212E+02  0.50185343432E+02  0.87377952611E+02  0.00000000000E+00 0.  1.
         11    1    1    2    0    0 -0.72446609972E+02  0.45669464336E+02  0.12966015238E+03  0.15538972419E+03  0.00000000000E+00 0. -1.
</event>
<event>
 7    1  0.2878477E-009  0.1144354E+03  0.7561462E-02  0.1252570E+00
          1   -1    0    0  501    0  0.00000000000E+00  0.00000000000E+00  0.32745958311E+03  0.32745958311E+03  0.00000000000E+00 0. -1.
         -1   -1    0    0    0  501 -0.00000000000E+00 -0.00000000000E+00 -0.55436639153E+02  0.55436639153E+02  0.00000000000E+00 0.  1.
         25    2    1    2    0    0  0.47846285574E+02  0.57149100502E+02  0.11270217856E+03  0.18413204137E+03  0.12509013100E+03 0.  0.
          5    1    3    3  502    0  0.59342402724E+02  0.28269681034E+01  0.11379618044E+03  0.12843891775E+03  0.41800000000E+01 0. -1.
         -5    1    3    3    0  502 -0.11496117150E+02  0.54322132399E+02 -0.10940018830E+01  0.55693123615E+02  0.41800000000E+01 0. -1.
        -11    1    1    2    0    0 -0.44047196694E+02 -0.79539587939E+02  0.14721471568E+03  0.17302853551E+03  0.00000000000E+00 0. -1.
         11    1    1    2    0    0 -0.37990888802E+01  0.22390487437E+02  0.12106049716E+02  0.25735645392E+02  0.00000000000E+00 0.  1.
</event>
<event>
 7    1  0.2878477E-009  0.1179800E+03  0.7561462E-02  0.1246467E+00
         -2   -1    0    0    0  501 -0.00000000000E+00  0.00000000000E+00  0.44981348053E+02  0.44981348053E+02  0.00000000000E+00 0.  1.
          2   -1    0    0  501    0  0.00000000000E+00 -0.00000000000E+00 -0.35093204366E+03  0.35093204366E+03  0.00000000000E+00 0. -1.
         25    2    1    2    0    0 -0.30501271478E+02 -0.57430297243E+02 -0.18457313177E+03  0.23225787686E+03  0.12509162158E+03 0.  0.
          5    1    3    3  502    0  0.47528215084E+02 -0.78142121169E+01 -0.66932730119E+02  0.82567886622E+02  0.41800000000E+01 0.  1.
         -5    1    3    3    0  502 -0.78029486562E+02 -0.49616085126E+02 -0.11764040165E+03  0.14968999023E+03  0.41800000000E+01 0.  1.
        -11    1    1    2    0    0  0.95345924105E+01  0.69971998589E+02 -0.45660511274E+02  0.84094419130E+02  0.00000000000E+00 0.  1.
         11    1    1    2    0    0  0.20966679068E+02 -0.12541701346E+02 -0.75717052563E+02  0.79561095723E+02  0.00000000000E+00 0. -1.
</event>
<event>
 7    1  0.2878477E-009  0.1598124E+03  0.7561462E-02  0.1188909E+00
          1   -1    0    0  501    0  0.00000000000E+00  0.00000000000E+00  0.38769222203E+02  0.38769222203E+02  0.00000000000E+00 0. -1.
         -1   -1    0    0    0  501 -0.00000000000E+00 -0.00000000000E+00 -0.78882045214E+03  0.78882045214E+03  0.00000000000E+00 0.  1.
         25    2    1    2    0    0  0.74527088764E+02  0.11195616895E+03 -0.46267816970E+03  0.49780164078E+03  0.12508762576E+03 0.  0.
          5    1    3    3  502    0 -0.18048301867E+02  0.16677473984E+02 -0.11497010349E+02  0.27450555290E+02  0.41800000000E+01 0.  1.
         -5    1    3    3    0  502  0.92575390630E+02  0.95278694967E+02 -0.45118115935E+03  0.47035108549E+03  0.41800000000E+01 0.  1.
        -11    1    1    2    0    0  0.18190117537E+02 -0.41578015099E+02 -0.82009006701E+02  0.93728805048E+02  0.00000000000E+00 0. -1.
         11    1    1    2    0    0 -0.92717206301E+02 -0.70378153852E+02 -0.20536405353E+03  0.23605922851E+03  0.00000000000E+00 0.  1.
</event>
<event>
 7    1  0.2878477E-009  0.1092294E+03  0.7561462E-02  0.1262004E+00
         -1   -1    0    0    0  501 -0.00000000000E+00  0.00000000000E+00  0.10651782279E+03  0.10651782279E+03  0.00000000000E+00 0.  1.
          1   -1    0    0  501    0  0.00000000000E+00 -0.00000000000E+00 -0.20398784558E+03  0.20398784558E+03  0.00000000000E+00 0. -1.
         25    2    1    2    0    0  0.95070498137E+02 -0.25893640750E+02 -0.41672620367E+02  0.16459911247E+03  0.12508948913E+03 0.  0.
          5    1    3    3  502    0  0.36366037397E+02 -0.11618696627E+02  0.44813253634E+02  0.59018496156E+02  0.41800000000E+01 0.  1.
         -5    1    3    3    0  502  0.58704460740E+02 -0.14274944122E+02 -0.86485874000E+02  0.10558061632E+03  0.41800000000E+01 0.  1.
        -11    1    1    2    0    0 -0.77806847481E+01 -0.19580341637E+02  0.13954702102E+02  0.25271773672E+02  0.00000000000E+00 0.  1.
         11    1    1    2    0    0 -0.87289813389E+02  0.45473982387E+02 -0.69752104530E+02  0.12063478222E+03  0.00000000000E+00 0. -1.
</event>
<event>
 7    1  0.2878477E-009  0.1167787E+03  0.7561462E-02  0.1248508E+00
          2   -1    0    0  501    0  0.00000000000E+00  0.00000000000E+00  0.10147312246E+03  0.10147312246E+03  0.00000000000E+00 0. -1.
         -2   -1    0    0    0  501 -0.00000000000E+00 -0.00000000000E+00 -0.16327852126E+03  0.16327852126E+03  0.00000000000E+00 0.  1.
         25    2    1    2    0    0 -0.12864134711E+02  0.56872960079E+02 -0.76136606379E+02  0.15761887635E+03  0.12508760051E+03 0.  0.
          5    1    3    3  502    0  0.50046812396E+02  0.87960924993E+01 -0.52359349986E+01  0.51253703179E+02  0.41800000000E+01 0. -1.
         -5    1    3    3    0  502 -0.62910947107E+02  0.48076867579E+02 -0.70900671380E+02  0.10636517317E+03  0.41800000000E+01 0. -1.
        -11    1    1    2    0    0  0.85246499018E+01 -0.79645838465E+02  0.43039321953E+00  0.80101900595E+02  0.00000000000E+00 0. -1.
         11    1    1    2    0    0  0.43394848095E+01  0.22772878386E+02  0.13900814362E+02  0.27030866769E+02  0.00000000000E+00 0.  1.
</event>
<event>
 7    1  0.2878477E-009  0.1561443E+03  0.7561462E-02  0.1193120E+00
         -3   -1    0    0    0  501 -0.00000000000E+00  0.00000000000E+00  0.52830442433E+02  0.52830442433E+02  0.00000000000E+00 0.  1.
          3   -1    0    0  501    0  0.00000000000E+00 -0.00000000000E+00 -0.87173322637E+03  0.87173322637E+03  0.00000000000E+00 0. -1.
         25    2    1    2    0    0 -0.47158250074E+02  0.11251800535E+03 -0.12629605405E+03  0.21560022192E+03  0.12509420588E+03 0.  0.
          5    1    3    3  502    0 -0.79587915611E+02  0.95491566508E+02 -0.12828353804E+03  0.17868132000E+03  0.41800000000E+01 0.  1.
         -5    1    3    3    0  502  0.32429665537E+02  0.17026438844E+02  0.19874839876E+01  0.36918901922E+02  0.41800000000E+01 0.  1.
        -11    1    1    2    0    0  0.73960306937E+02 -0.83153075780E+02 -0.53124603291E+03  0.54277703387E+03  0.00000000000E+00 0.  1.
         11    1    1    2    0    0 -0.26802056863E+02 -0.29364929571E+02 -0.16136069698E+03  0.16618641301E+03  0.00000000000E+00 0. -1.
</event>
<event>
 7    1  0.2878477E-009  0.1207119E+03  0.7561462E-02  0.1241927E+00
         -1   -1    0    0    0  501 -0.00000000000E+00  0.00000000000E+00  0.65829284790E+02  0.65829284790E+02  0.00000000000E+00 0.  1.
          1   -1    0    0  501    0  0.00000000000E+00 -0.00000000000E+00 -0.26630952126E+03  0.26630952126E+03  0.00000000000E+00 0. -1.
         25    2    1    2    0    0 -0.39696843634E+02 -0.65982373181E+02 -0.10030001394E+03  0.17786411985E+03  0.12508412917E+03 0.  0.
          5    1    3    3  502    0 -0.77463298545E+02 -0.51231551995E+02 -0.10076776153E+03  0.13710159994E+03  0.41800000000E+01 0.  1.
         -5    1    3    3    0  502  0.37766454910E+02 -0.14750821186E+02  0.46774758893E+00  0.40762519917E+02  0.41800000000E+01 0.  1.
        -11    1    1    2    0    0 -0.22661181269E+02  0.19922159769E+02 -0.35372126681E+01  0.30379819944E+02  0.00000000000E+00 0.  1.
         11    1    1    2    0    0  0.62358024903E+02  0.46060213412E+02 -0.96643009862E+02  0.12389486626E+03  0.00000000000E+00 0. -1.
</event>
<event>
 7    1  0.2878477E-009  0.1260741E+03  0.7561462E-02  0.1233400E+00
         -2   -1    0    0    0  501 -0.00000000000E+00  0.00000000000E+00  0.33666220649E+02  0.33666220649E+02  0.00000000000E+00 0.  1.
          2   -1    0    0  501    0  0.00000000000E+00 -0.00000000000E+00 -0.82017448130E+03  0.82017448130E+03  0.00000000000E+00 0. -1.
         25    2    1    2    0    0  0.11589128390E+02 -0.10055454471E+03 -0.60823191726E+03  0.62915859062E+03  0.12509573382E+03 0.  0.
          5    1    3    3  502    0  0.31262126404E+02  0.14630779282E+01 -0.34022860509E+03  0.34169055776E+03  0.41800000000E+01 0. -1.
         -5    1    3    3    0  502 -0.19672998014E+02 -0.10201762264E+03 -0.26800331217E+03  0.28746803285E+03  0.41800000000E+01 0. -1.
        -11    1    1    2    0    0 -0.22449920029E+02  0.86658110999E+01 -0.27254567326E+00  0.24065940092E+02  0.00000000000E+00 0.  1.
         11    1    1    2    0    0  0.10860791640E+02  0.91888733612E+02 -0.17800379772E+03  0.20061617124E+03  0.00000000000E+00 0. -1.
</event>
<event>
 7    1  0.2878477E-009  0.1454406E+03  0.7561462E-02  0.1206190E+00
          1   -1    0    0  501    0  0.00000000000E+00  0.00000000000E+00  0.11001954497E+03  0.11001954497E+03  0.00000000000E+00 0. -1.
         -1   -1    0    0    0  501 -0.00000000000E+00 -0.00000000000E+00 -0.23845870090E+03  0.23845870090E+03  0.00000000000E+00 0.  1.
         25    2    1    2    0    0 -0.30955452744E+02 -0.10165613019E+03 -0.67448823673E+01  0.16427347402E+03  0.12509225383E+03 0.  0.
          5    1    3    3  502    0 -0.66424382537E+02 -0.10815063602E+03 -0.12167170016E+02  0.12757065138E+03  0.41800000000E+01 0. -1.
         -5    1    3    3    0  502  0.35468929793E+02  0.64945058291E+01  0.54222876486E+01  0.36702822643E+02  0.41800000000E+01 0. -1.
        -11    1    1    2    0    0  0.29903626126E+02  0.42779004780E+01 -0.25362443023E+01  0.30314350119E+02  0.00000000000E+00 0. -1.
         11    1    1    2    0    0  0.10518266178E+01  0.97378229713E+02 -0.11915802927E+03  0.15389042173E+03  0.00000000000E+00 0.  1.
</event>
<event>
 7    1  0.2878477E-009  0.1224784E+03  0.7561462E-02  0.1239064E+00
          2   -1    0    0  501    0  0.00000000000E+00  0.00000000000E+00  0.25298031279E+03  0.25298031279E+03  0.00000000000E+00 0. -1.
         -2   -1    0    0    0  501 -0.00000000000E+00 -0.00000000000E+00 -0.68648739635E+02  0.68648739635E+02  0.00000000000E+00 0.  1.
         25    2    1    2    0    0  0.68752306061E+02  0.27905503002E+02  0.94482470685E+02  0.17343403296E+03  0.12508728886E+03 0.  0.
          5    1    3    3  502    0  0.99050559008E+02  0.44020638134E+02  0.84349339388E+02  0.13740856333E+03  0.41800000000E+01 0.  1.
         -5    1    3    3    0  502 -0.30298252947E+02 -0.16115135132E+02  0.10133131298E+02  0.36025469627E+02  0.41800000000E+01 0.  1.
        -11    1    1    2    0    0 -0.80045318049E+02 -0.98944955809E+01  0.32365038513E+02  0.86905981971E+02  0.00000000000E+00 0.  1.
         11    1    1    2    0    0  0.11293011987E+02 -0.18011007421E+02  0.57484063953E+02  0.61289037492E+02  0.00000000000E+00 0. -1.
</event>
<event>
 7    1  0.2878477E-009  0.1011612E+03  0.7561462E-02  0.1277873E+00
          1   -1    0    0  501    0  0.00000000000E+00  0.00000000000E+00  0.37011063192E+02  0.37011063192E+02  0.00000000000E+00 0. -1.
         -1   -1    0    0    0  501 -0.00000000000E+00 -0.00000000000E+00 -0.46066535495E+03  0.46066535495E+03  0.00000000000E+00 0.  1.
         25    2    1    2    0    0  0.23682215883E+02 -0.58591947826E+02 -0.18581688388E+03  0.23274180640E+03  0.12508785079E+03 0.  0.
          5    1    3    3  502    0  0.59596140429E+01 -0.68548666880E+02 -0.19731942005E+03  0.20901402503E+03  0.41800000000E+01 0. -1.
         -5    1    3    3    0  502  0.17722601840E+02  0.99567190534E+01  0.11502536177E+02  0.23727781371E+02  0.41800000000E+01 0. -1.
        -11    1    1    2    0    0 -0.57248774948E+02  0.54104213738E+02 -0.19513476974E+03  0.21043352047E+03  0.00000000000E+00 0. -1.
         11    1    1    2    0    0  0.33566559065E+02  0.44877340883E+01 -0.42702638142E+02  0.54501091264E+02  0.00000000000E+00 0.  1.
</event>
<event>
 7    1  0.2878477E-009  0.1766294E+03  0.7561462E-02  0.1171106E+00
          1   -1    0    0  501    0  0.00000000000E+00  0.00000000000E+00  0.57662111930E+03  0.57662111930E+03  0.00000000000E+00 0. -1.
         -1   -1    0    0    0  501 -0.00000000000E+00 -0.00000000000E+00 -0.57765257498E+02  0.57765257498E+02  0.00000000000E+00 0.  1.
         25    2    1    2    0    0 -0.14004234947E+03 -0.33192873574E+02  0.31524664265E+03  0.36843303597E+03  0.12509528285E+03 0.  0.
          5    1    3    3  502    0 -0.16364525811E+03 -0.30768456425E+02  0.27313438946E+03  0.31991613826E+03  0.41800000000E+01 0. -1.
         -5    1    3    3    0  502  0.23602908642E+02 -0.24244171484E+01  0.42112253190E+02  0.48516897712E+02  0.41800000000E+01 0. -1.
        -11    1    1    2    0    0  0.94961632385E+02 -0.15528858397E+02  0.77931223054E+02  0.12382298896E+03  0.00000000000E+00 0.  1.
         11    1    1    2    0    0  0.45080717082E+02  0.48721731971E+02  0.12567799610E+03  0.14213035187E+03  0.00000000000E+00 0. -1.
</event>
<event>
 7    1  0.2878477E-009  0.1029470E+03  0.7561462E-02  0.1274218E+00
          1   -1    0    0  501    0  0.00000000000E+00  0.00000000000E+00  0.91658420810E+03  0.91658420810E+03  0.00000000000E+00 0. -1.
         -1   -1    0    0    0  501 -0.00000000000E+00 -0.00000000000E+00 -0.12916788214E+02  0.12916788214E+02  0.00000000000E+00 0.  1.
         25    2    1    2    0    0  0.18066448250E+02  0.57974520553E+01  0.68661703490E+03  0.69817598048E+03  0.12508693022E+03 0.  0.
          5    1    3    3  502    0  0.51799469417E+02  0.48822638950E+02  0.41472564668E+03  0.42081072886E+03  0.41800000000E+01 0.  1.
         -5    1    3    3    0  502 -0.33733021167E+02 -0.43025186895E+02  0.27189138821E+03  0.27736525163E+03  0.41800000000E+01 0.  1.
        -11    1    1    2    0    0 -0.46721604568E+02  0.88864982285E+01  0.13817285217E+03  0.14612876260E+03  0.00000000000E+00 0.  1.
         11    1    1    2    0    0  0.28655156318E+02 -0.14683950284E+02  0.78877532820E+02  0.85196253223E+02  0.00000000000E+00 0. -1.
</event>
<event>
 7    1  0.2878477E-009  0.1611924E+03  0.7561462E-02  0.1187357E+00
          1   -1    0    0  501    0  0.00000000000E+00  0.00000000000E+00  0.81408376959E+02  0.81408376959E+02  0.00000000000E+00 0. -1.
         -1   -1    0    0    0  501 -0.00000000000E+00 -0.00000000000E+00 -0.40091100202E+03  0.40091100202E+03  0.00000000000E+00 0.  1.
         25    2    1    2    0    0 -0.11430747944E+03  0.76411355252E+02 -0.12762398645E+03  0.22547772193E+03  0.12508967225E+03 0.  0.
          5    1    3    3  502    0 -0.11395627688E+02  0.43077881302E+02  0.14294989505E+02  0.46982798052E+02  0.41800000000E+01 0. -1.
         -5    1    3    3    0  502 -0.10291185175E+03  0.33333473950E+02 -0.14191897595E+03  0.17849492388E+03  0.41800000000E+01 0. -1.
        -11    1    1    2    0    0  0.58868521514E+02 -0.94259332083E+02 -0.14081085627E+03  0.17938233401E+03  0.00000000000E+00 0.  1.
         11    1    1    2    0    0  0.55438957922E+02  0.17847976831E+02 -0.51067782346E+02  0.77459323043E+02  0.00000000000E+00 0. -1.
</event>
<event>
 7    1  0.2878477E-009  0.2111676E+03  0.7561462E-02  0.1140645E+00
          1   -1    0    0  501    0  0.00000000000E+00  0.00000000000E+00  0.27510032982E+03  0.27510032982E+03  0.00000000000E+00 0. -1.
         -1   -1    0    0    0  501 -0.00000000000E+00 -0.00000000000E+00 -0.25648587173E+03  0.25648587173E+03  0.00000000000E+00 0.  1.
         25    2    1    2    0    0  0.18974478330E+03 -0.48087204589E+02 -0.14398911387E+03  0.27330215826E+03  0.12508294351E+03 0.  0.
          5    1    3    3  502    0  0.74422241639E+02  0.33464671433E+02 -0.17298349216E+02  0.83518019434E+02  0.41800000000E+01 0. -1.
         -5    1    3    3    0  502  0.11532254167E+03 -0.81551876022E+02 -0.12669076466E+03  0.18978413882E+03  0.41800000000E+01 0. -1.
        -11    1    1    2    0    0 -0.58304462124E+02  0.33060719089E+02  0.69196821770E+02  0.96335982858E+02  0.00000000000E+00 0.  1.
         11    1    1    2    0    0 -0.13144032118E+03  0.15026485501E+02  0.93406750197E+02  0.16194806044E+03  0.00000000000E+00 0. -1.
</event>
<event>
 7    1  0.2878477E-009  0.8827644E+02  0.7561462E-02  0.1307080E+00
          2   -1    0    0  501    0  0.00000000000E+00  0.00000000000E+00  0.60892763115E+02  0.60892763115E+02  0.00000000000E+00 0. -1.
         -2   -1    0    0    0  501 -0.00000000000E+00 -0.00000000000E+00 -0.32113670864E+03  0.32113670864E+03  0.00000000000E+00 0.  1.
         25    2    1    2    0    0 -0.69054862521E+02 -0.22668205966E+02 -0.20861330410E+03  0.25386799640E+03  0.12508807837E+03 0.  0.
          5    1    3    3  502    0 -0.58778845623E+02  0.24327060176E+01 -0.21723800550E+03  0.22510151973E+03  0.41800000000E+01 0. -1.
         -5    1    3    3    0  502 -0.10276016898E+02 -0.25100911984E+02  0.86247014017E+01  0.28766476670E+02  0.41800000000E+01 0. -1.
        -11    1    1    2    0    0  0.19069401302E+02  0.33904642813E+02 -0.64513563913E+02  0.75333702943E+02  0.00000000000E+00 0.  1.
         11    1    1    2    0    0  0.49985461219E+02 -0.11236436847E+02  0.12882922486E+02  0.52827772413E+02  0.00000000000E+00 0. -1.
</event>
<event>
 7    1  0.2878477E-009  0.1020101E+03  0.7561462E-02  0.1276125E+00
         -1   -1    0    0    0  501 -0.00000000000E+00  0.00000000000E+00  0.11539289963E+03  0.11539289963E+03  0.00000000000E+00 0.  1.
          1   -1    0    0  501    0  0.00000000000E+00 -0.00000000000E+00 -0.16703863668E+03  0.16703863668E+03  0.00000000000E+00 0. -1.
         25    2    1    2    0    0 -0.50443894776E+02 -0.49759284656E+02 -0.77268835613E+02  0.16321185747E+03  0.12508822699E+03 0.  0.
          5    1    3    3  502    0 -0.49319365411E+02 -0.84421528623E+02 -0.26145072053E+02  0.10129378802E+03  0.41800000000E+01 0.  1.
         -5    1    3    3    0  502 -0.11245293653E+01  0.34662243968E+02 -0.51123763560E+02  0.61918069445E+02  0.41800000000E+01 0.  1.
        -11    1    1    2    0    0  0.44231399742E+02  0.39870544246E+02 -0.26951212205E+02  0.65363941596E+02  0.00000000000E+00 0. -1.
         11    1    1    2    0    0  0.62124950338E+01  0.98887404101E+01  0.52574310771E+02  0.53855737248E+02  0.00000000000E+00 0.  1.
</event>
<event>
 7    1  0.2878477E-009  0.9163128E+02  0.7561462E-02  0.1298949E+00
         -1   -1    0    0    0  501 -0.00000000000E+00  0.00000000000E+00  0.42312801394E+02  0.42312801394E+02  0.00000000000E+00 0.  1.
          1   -1    0    0  501    0  0.00000000000E+00 -0.00000000000E+00 -0.40573952705E+03  0.40573952705E+03  0.00000000000E+00 0. -1.
         25    2    1    2    0    0  0.27242684292E+02 -0.67243045415E+02 -0.17792228412E+03  0.22927675395E+03  0.12509076590E+03 0.  0.
          5    1    3    3  502    0  0.45545025442E+02 -0.74505915985E+02 -0.51925029666E+02  0.10168166976E+03  0.41800000000E+01 0.  1.
         -5    1    3    3    0  502 -0.18302341149E+02  0.72628705700E+01 -0.12599725445E+03  0.12759508419E+03  0.41800000000E+01 0.  1.
        -11    1    1    2    0    0 -0.16962380722E+01  0.32709367689E+02 -0.48815857432E+01  0.33115099843E+02  0.00000000000E+00 0.  1.
         11    1    1    2    0    0 -0.25546446220E+02  0.34533677726E+02 -0.18062285579E+03  0.18566047465E+03  0.00000000000E+00 0. -1.
</event>
<event>
 7    1  0.2878477E-009  0.1018291E+03  0.7561462E-02  0.1276496E+00
          1   -1    0    0  501    0  0.00000000000E+00  0.00000000000E+00  0.17616270440E+03  0.17616270440E+03  0.00000000000E+00 0. -1.
         -1   -1    0    0    0  501 -0.00000000000E+00 -0.00000000000E+00 -0.11772824435E+03  0.11772824435E+03  0.00000000000E+00 0.  1.
         25    2    1    2    0    0 -0.66321811435E+02 -0.16459802169E+02 -0.36987545199E+02  0.14725514669E+03  0.12508593833E+03 0.  0.
          5    1    3    3  502    0 -0.22525146124E+02 -0.64010350677E+02  0.78964841433E+01  0.68443656123E+02  0.41800000000E+01 0. -1.
         -5    1    3    3    0  502 -0.43796665311E+02  0.47550548508E+02 -0.44884029343E+02  0.78811490569E+02  0.41800000000E+01 0. -1.
        -11    1    1    2    0    0  0.42978907643E+02  0.11883589737E+01  0.10784517123E+03  0.11609986933E+03  0.00000000000E+00 0. -1.
         11    1    1    2    0    0  0.23342903792E+02  0.15271443195E+02 -0.12423165979E+02  0.30535932729E+02  0.00000000000E+00 0.  1.
</event>
<event>
 7    1  0.2878477E-009  0.2033123E+03  0.7561462E-02  0.1146974E+00
          2   -1    0    0  501    0  0.00000000000E+00  0.00000000000E+00  0.38693390669E+03  0.38693390669E+03  0.00000000000E+00 0. -1.
         -2   -1    0    0    0  501 -0.00000000000E+00 -0.00000000000E+00 -0.12043429374E+03  0.12043429374E+03  0.00000000000E+00 0.  1.
         25    2    1    2    0    0  0.16732628101E+03 -0.64042533228E+02  0.19933211730E+03  0.29577041920E+03  0.12508923817E+03 0.  0.
          5    1    3    3  502    0  0.17969046778E+03 -0.45093128222E+02  0.14035254920E+03  0.23246153421E+03  0.41800000000E+01 0.  1.
         -5    1    3    3    0  502 -0.12364186769E+02 -0.18949405006E+02  0.58979568100E+02  0.63308884983E+02  0.41800000000E+01 0.  1.
        -11    1    1    2    0    0 -0.81257623207E+02  0.76183210669E+02  0.21611984640E+02  0.11346259647E+03  0.00000000000E+00 0.  1.
         11    1    1    2    0    0 -0.86068657800E+02 -0.12140677441E+02  0.45555511011E+02  0.98135184760E+02  0.00000000000E+00 0. -1.
</event>
<event>
 7    1  0.2878477E-009  0.9823868E+02  0.7561462E-02  0.1284044E+00
          2   -1    0    0  501    0  0.00000000000E+00  0.00000000000E+00  0.61732620093E+03  0.61732620093E+03  0.00000000000E+00 0. -1.
         -2   -1    0    0    0  501 -0.00000000000E+00 -0.00000000000E+00 -0.28283637176E+02  0.28283637176E+02  0.00000000000E+00 0.  1.
         25    2    1    2    0    0 -0.27283637258E+01  0.50456141520E+02  0.46724554799E+03  0.48633205933E+03  0.12508878300E+03 0.  0.
          5    1    3    3  502    0  0.21874875187E+02 -0.29210811642E+02  0.26499540389E+03  0.26752909779E+03  0.41800000000E+01 0.  1.
         -5    1    3    3    0  502 -0.24603238913E+02  0.79666953162E+02  0.20225014409E+03  0.21880296154E+03  0.41800000000E+01 0.  1.
        -11    1    1    2    0    0 -0.28110057454E+01  0.12626469673E+02 -0.77514913347E+01  0.15080288711E+02  0.00000000000E+00 0.  1.
         11    1    1    2    0    0  0.55393694712E+01 -0.63082611192E+02  0.12954850710E+03  0.14419749006E+03  0.00000000000E+00 0. -1.
</event>
<event>
 7    1  0.2878477E-009  0.6569133E+02  0.7561462E-02  0.1375390E+00
         -1   -1    0    0    0  501 -0.00000000000E+00  0.00000000000E+00  0.63797853430E+02  0.63797853430E+02  0.00000000000E+00 0.  1.
          1   -1    0    0  501    0  0.00000000000E+00 -0.00000000000E+00 -0.21282190711E+03  0.21282190711E+03  0.00000000000E+00 0. -1.
         25    2    1    2    0    0 -0.27290261778E+02 -0.15463181657E+02 -0.51648632027E+02  0.13892184236E+03  0.12509128155E+03 0.  0.
          5    1    3    3  502    0 -0.37502092674E+02 -0.26195181926E+01 -0.89658610600E+02  0.97310881638E+02  0.41800000000E+01 0. -1.
         -5    1    3    3    0  502  0.10211830896E+02 -0.12843663464E+02  0.38009978573E+02  0.41610960726E+02  0.41800000000E+01 0. -1.
        -11    1    1    2    0    0 -0.16796429866E+02  0.26318427188E+02 -0.85126275692E+02  0.90671177775E+02  0.00000000000E+00 0. -1.
         11    1    1    2    0    0  0.44086691644E+02 -0.10855245531E+02 -0.12249145957E+02  0.47026740396E+02  0.00000000000E+00 0.  1.
</event>
<event>
 7    1  0.2878477E-009  0.1059099E+03  0.7561462E-02  0.1268337E+00
          2   -1    0    0  501    0  0.00000000000E+00  0.00000000000E+00  0.78909598795E+03  0.78909598795E+03  0.00000000000E+00 0. -1.
         -2   -1    0    0    0  501 -0.00000000000E+00 -0.00000000000E+00 -0.18133529663E+02  0.18133529663E+02  0.00000000000E+00 0.  1.
         25    2    1    2    0    0 -0.48998276658E+02 -0.12935239592E+01  0.48724522435E+03  0.50542568382E+03  0.12507881074E+03 0.  0.
          5    1    3    3  502    0  0.13463445394E+02 -0.50414543494E+02  0.14839273250E+03  0.15735554015E+03  0.41800000000E+01 0. -1.
         -5    1    3    3    0  502 -0.62461722052E+02  0.49121019534E+02  0.33885249185E+03  0.34807014367E+03  0.41800000000E+01 0. -1.
        -11    1    1    2    0    0 -0.13276963945E+02  0.10525408804E+02  0.75452139785E+01  0.18547028227E+02  0.00000000000E+00 0.  1.
         11    1    1    2    0    0  0.62275240603E+02 -0.92318848449E+01  0.27617201996E+03  0.28325680557E+03  0.00000000000E+00 0. -1.
</event>
<event>
 7    1  0.2878477E-009  0.1179036E+03  0.7561462E-02  0.1246596E+00
         -2   -1    0    0    0  501 -0.00000000000E+00  0.00000000000E+00  0.31509832660E+02  0.31509832660E+02  0.00000000000E+00 0.  1.
          2   -1    0    0  501    0  0.00000000000E+00 -0.00000000000E+00 -0.58549847951E+03  0.58549847951E+03  0.00000000000E+00 0. -1.
         25    2    1    2    0    0 -0.53286006237E+02  0.47006351849E+02 -0.21340411393E+03  0.25736960980E+03  0.12509518229E+03 0.  0.
          5    1    3    3  502    0 -0.41247205261E+02 -0.24599559816E+02 -0.16009027537E+03  0.16719102534E+03  0.41800000000E+01 0. -1.
         -5    1    3    3    0  502 -0.12038800976E+02  0.71605911665E+02 -0.53313838560E+02  0.90178584466E+02  0.41800000000E+01 0. -1.
        -11    1    1    2    0    0  0.62632085858E+02 -0.67659988519E+02 -0.25714165530E+03  0.27317116084E+03  0.00000000000E+00 0. -1.
         11    1    1    2    0    0 -0.93460796216E+01  0.20653636670E+02 -0.83442877618E+02  0.86467541524E+02  0.00000000000E+00 0.  1.
</event>
<event>
 7    1  0.2878477E-009  0.9974381E+02  0.7561462E-02  0.1280836E+00
          2   -1    0    0  501    0  0.00000000000E+00  0.00000000000E+00  0.48801825781E+03  0.48801825781E+03  0.00000000000E+00 0. -1.
         -2   -1    0    0    0  501 -0.00000000000E+00 -0.00000000000E+00 -0.27877834798E+02  0.27877834798E+02  0.00000000000E+00 0.  1.
         25    2    1    2    0    0 -0.38873761195E+02 -0.13747249349E+02  0.23876933726E+03  0.27268609252E+03  0.12508697960E+03 0.  0.
          5    1    3    3  502    0 -0.54269703890E+02 -0.44243504576E+02  0.22489124384E+03  0.23557638339E+03  0.41800000000E+01 0. -1.
         -5    1    3    3    0  502  0.15395942696E+02  0.30496255227E+02  0.13878093419E+02  0.37109709124E+02  0.41800000000E+01 0. -1.
        -11    1    1    2    0    0 -0.25660539420E+02  0.16199111807E+02  0.11348121568E+03  0.11746855247E+03  0.00000000000E+00 0.  1.
         11    1    1    2    0    0  0.64534300615E+02 -0.24518624582E+01  0.10788987008E+03  0.12574144762E+03  0.00000000000E+00 0. -1.
</event>
<event>
 7    1  0.2878477E-009  0.1039814E+03  0.7561462E-02  0.1272140E+00
         -1   -1    0    0    0  501 -0.00000000000E+00  0.00000000000E+00  0.15984897244E+02  0.15984897244E+02  0.00000000000E+00 0.  1.
          1   -1    0    0  501    0  0.00000000000E+00 -0.00000000000E+00 -0.92611640358E+03  0.92611640358E+03  0.00000000000E+00 0. -1.
         25    2    1    2    0    0 -0.48504172501E+02  0.20548396003E+02 -0.46610592935E+03  0.48546545983E+03  0.12508830476E+03 0.  0.
          5    1    3    3  502    0  0.96755823256E+01  0.39101845018E+02 -0.36525363720E+03  0.36749185442E+03  0.41800000000E+01 0. -1.
         -5    1    3    3    0  502 -0.58179754826E+02 -0.18553449015E+02 -0.10085229215E+03  0.11797360541E+03  0.41800000000E+01 0. -1.
        -11    1    1    2    0    0 -0.16303214130E+02 -0.36098369047E+02 -0.18284722033E+03  0.18708819584E+03  0.00000000000E+00 0. -1.
         11    1    1    2    0    0  0.64807386631E+02  0.15549973044E+02 -0.26117835666E+03  0.26954764516E+03  0.00000000000E+00 0.  1.
</event>
<event>
 7    1  0.2878477E-009  0.8543802E+02  0.7561462E-02  0.1314291E+00
          2   -1    0    0  501    0  0.00000000000E+00  0.00000000000E+00  0.20102953942E+03  0.20102953942E+03  0.00000000000E+00 0. -1.
         -2   -1    0    0    0  501 -0.00000000000E+00 -0.00000000000E+00 -0.72627555165E+02  0.72627555165E+02  0.00000000000E+00 0.  1.
         25    2    1    2    0    0  0.13614628851E+02 -0.10522791182E+01  0.13455014477E+02  0.12657872822E+03  0.12511863016E+03 0.  0.
          5    1    3    3  502    0 -0.31960829994E+02 -0.49217647221E+02  0.12415392057E+02  0.60128909950E+02  0.41800000000E+01 0. -1.
         -5    1    3    3    0  502  0.45575458845E+02  0.48165368102E+02  0.10396224201E+01  0.66449818271E+02  0.41800000000E+01 0. -1.
        -11    1    1    2    0    0 -0.59237697885E+01  0.22263803132E+02  0.12143517480E+03  0.12360125265E+03  0.00000000000E+00 0. -1.
         11    1    1    2    0    0 -0.76908590625E+01 -0.21211524014E+02 -0.64882050180E+01  0.23477113717E+02  0.00000000000E+00 0.  1.
</event>
<event>
 7    1  0.2878477E-009  0.8827038E+02  0.7561462E-02  0.1307095E+00
         -2   -1    0    0    0  501 -0.00000000000E+00  0.00000000000E+00  0.55375055305E+02  0.55375055305E+02  0.00000000000E+00 0.  1.
          2   -1    0    0  501    0  0.00000000000E+00 -0.00000000000E+00 -0.23614640508E+03  0.23614640508E+03  0.00000000000E+00 0. -1.
         25    2    1    2    0    0 -0.58998322778E+01  0.90481604039E+01 -0.57326759607E+02  0.13802689084E+03  0.12509351702E+03 0.  0.
          5    1    3    3  502    0 -0.16355113186E+02 -0.56507885399E+02 -0.29202279076E+02  0.65809394032E+02  0.41800000000E+01 0. -1.
         -5    1    3    3    0  502  0.10455280908E+02  0.65556045803E+02 -0.28124480531E+02  0.72217496809E+02  0.41800000000E+01 0. -1.
        -11    1    1    2    0    0 -0.86048763975E+01  0.18227640797E+02 -0.12082086376E+03  0.12249070131E+03  0.00000000000E+00 0. -1.
         11    1    1    2    0    0  0.14504708675E+02 -0.27275801201E+02 -0.26237264001E+01  0.31003868229E+02  0.00000000000E+00 0.  1.
</event>
<event>
 7    1  0.2878477E-009  0.9011487E+02  0.7561462E-02  0.1302574E+00
         -1   -1    0    0    0  501 -0.00000000000E+00  0.00000000000E+00  0.80302679692E+02  0.80302679692E+02  0.00000000000E+00 0.  1.
          1   -1    0    0  501    0  0.00000000000E+00 -0.00000000000E+00 -0.20813257314E+03  0.20813257314E+03  0.00000000000E+00 0. -1.
         25    2    1    2    0    0 -0.45678835176E+02  0.27496260489E+02 -0.12232506908E+03  0.18289945074E+03  0.12508471622E+03 0.  0.
          5    1    3    3  502    0 -0.68872067631E+02  0.48763421054E+02 -0.37707236042E+02  0.92523191593E+02  0.41800000000E+01 0. -1.
         -5    1    3    3    0  502  0.23193232454E+02 -0.21267160565E+02 -0.84617833035E+02  0.90376259149E+02  0.41800000000E+01 0. -1.
        -11    1    1    2    0    0  0.13158494959E+02 -0.28572215754E+02  0.39188975704E+02  0.50252296658E+02  0.00000000000E+00 0.  1.
         11    1    1    2    0    0  0.32520340217E+02  0.10759552644E+01 -0.44693800071E+02  0.55283505427E+02  0.00000000000E+00 0. -1.
</event>
<event>
 7    1  0.2878477E-009  0.1097431E+03  0.7561462E-02  0.1261046E+00
          2   -1    0    0  501    0  0.00000000000E+00  0.00000000000E+00  0.94641178691E+02  0.94641178691E+02  0.00000000000E+00 0.  1.
         -2   -1    0    0    0  501 -0.00000000000E+00 -0.00000000000E+00 -0.13535289351E+03  0.13535289351E+03  0.00000000000E+00 0. -1.
         25    2    1    2    0    0 -0.33000518778E+02 -0.17191135776E+02 -0.17550029524E+02  0.13164641618E+03  0.12505281271E+03 0.  0.
          5    1    3    3  502    0  0.36044535942E+02  0.28544785047E+02  0.28287899954E+01  0.46254597367E+02  0.41800000000E+01 0.  1.
         -5    1    3    3    0  502 -0.69045054720E+02 -0.45735920823E+02 -0.20378819520E+02  0.85391818811E+02  0.41800000000E+01 0.  1.
        -11    1    1    2    0    0  0.30579638455E+02  0.49397357356E+02 -0.29923922595E+02  0.65350243651E+02  0.00000000000E+00 0. -1.
         11    1    1    2    0    0  0.24208803224E+01 -0.32206221581E+02  0.67622372981E+01  0.32997412373E+02  0.00000000000E+00 0.  1.
</event>
<event>
 7    1  0.2878477E-009  0.1236075E+03  0.7561462E-02  0.1237262E+00
          4   -1    0    0  501    0  0.00000000000E+00  0.00000000000E+00  0.15333111430E+03  0.15333111430E+03  0.00000000000E+00 0. -1.
         -4   -1    0    0    0  501 -0.00000000000E+00 -0.00000000000E+00 -0.10422197732E+03  0.10422197732E+03  0.00000000000E+00 0.  1.
         25    2    1    2    0    0 -0.99696212777E+01  0.62194058503E+02  0.36272850204E+02  0.14467318148E+03  0.12508843078E+03 0.  0.
          5    1    3    3  502    0 -0.58420226428E+02  0.64003397011E+02  0.51546377640E+01  0.86910300743E+02  0.41800000000E+01 0. -1.
         -5    1    3    3    0  502  0.48450605150E+02 -0.18093385077E+01  0.31118212440E+02  0.57762880735E+02  0.41800000000E+01 0. -1.
        -11    1    1    2    0    0 -0.30842805879E+02 -0.63890816692E+02  0.38178176034E+01  0.71048510634E+02  0.00000000000E+00 0. -1.
         11    1    1    2    0    0  0.40812427156E+02  0.16967581891E+01  0.90184691736E+01  0.41831399510E+02  0.00000000000E+00 0.  1.
</event>
<event>
 7    1  0.2878477E-009  0.1307922E+03  0.7561462E-02  0.1226285E+00
         -2   -1    0    0    0  501 -0.00000000000E+00  0.00000000000E+00  0.14672905514E+03  0.14672905514E+03  0.00000000000E+00 0. -1.
          2   -1    0    0  501    0  0.00000000000E+00 -0.00000000000E+00 -0.12532884799E+03  0.12532884799E+03  0.00000000000E+00 0.  1.
         25    2    1    2    0    0  0.76284221912E+02 -0.23595057469E+02  0.37611690137E+00  0.14840316987E+03  0.12508936850E+03 0.  0.
          5    1    3    3  502    0  0.13071659047E+02 -0.65428043435E+02 -0.20037328593E+02  0.69790143109E+02  0.41800000000E+01 0.  1.
         -5    1    3    3    0  502  0.63212562866E+02  0.41832985966E+02  0.20413445494E+02  0.78613026757E+02  0.41800000000E+01 0.  1.
        -11    1    1    2    0    0 -0.60205720877E+02 -0.26812591130E+02  0.25247155685E+02  0.70576644434E+02  0.00000000000E+00 0.  1.
         11    1    1    2    0    0 -0.16078501035E+02  0.50407648599E+02 -0.42230654344E+01  0.53078088836E+02  0.00000000000E+00 0. -1.
</event>
<event>
 7    1  0.2878477E-009  0.9753215E+02  0.7561462E-02  0.1285573E+00
         -1   -1    0    0    0  501 -0.00000000000E+00  0.00000000000E+00  0.59289959131E+02  0.59289959131E+02  0.00000000000E+00 0.  1.
          1   -1    0    0  501    0  0.00000000000E+00 -0.00000000000E+00 -0.24315298864E+03  0.24315298864E+03  0.00000000000E+00 0. -1.
         25    2    1    2    0    0  0.19978023468E+02 -0.11512016548E+02 -0.16891338148E+03  0.21144901471E+03  0.12508919790E+03 0.  0.
          5    1    3    3  502    0  0.52733211715E+02 -0.47249953987E+02 -0.13382453287E+03  0.15145899698E+03  0.41800000000E+01 0. -1.
         -5    1    3    3    0  502 -0.32755188247E+02  0.35737937440E+02 -0.35088848610E+02  0.59990017723E+02  0.41800000000E+01 0. -1.
        -11    1    1    2    0    0 -0.35047360238E+02 -0.20140080800E+02 -0.32428125498E+02  0.51822038147E+02  0.00000000000E+00 0. -1.
         11    1    1    2    0    0  0.15069336770E+02  0.31652097348E+02  0.17478477466E+02  0.39171894922E+02  0.00000000000E+00 0.  1.
</event>
<event>
 7    1  0.2878477E-009  0.9051873E+02  0.7561462E-02  0.1301600E+00
         -2   -1    0    0    0  501 -0.00000000000E+00  0.00000000000E+00  0.64687381989E+02  0.64687381989E+02  0.00000000000E+00 0. -1.
          2   -1    0    0  501    0  0.00000000000E+00 -0.00000000000E+00 -0.94109693704E+03  0.94109693704E+03  0.00000000000E+00 0.  1.
         25    2    1    2    0    0  0.58173305448E+01  0.62178837352E+02 -0.88852071567E+03  0.89945349111E+03  0.12508985313E+03 0.  0.
          5    1    3    3  502    0 -0.20938070433E+02  0.75060037107E+02 -0.83034287758E+03  0.83400190570E+03  0.41800000000E+01 0.  1.
         -5    1    3    3    0  502  0.26755400978E+02 -0.12881199754E+02 -0.58177838094E+02  0.65451585419E+02  0.41800000000E+01 0.  1.
        -11    1    1    2    0    0 -0.17497877172E+02 -0.11345393582E+02  0.41512828862E+02  0.46456523990E+02  0.00000000000E+00 0. -1.
         11    1    1    2    0    0  0.11680546627E+02 -0.50833443771E+02 -0.29401668247E+02  0.59874303928E+02  0.00000000000E+00 0.  1.
</event>
<event>
 7    1  0.3683401E-009  0.2888682E+03  0.7561462E-02  0.1090942E+00
          2   -1    0    0  501    0  0.00000000000E+00  0.00000000000E+00  0.45482078571E+03  0.45482078571E+03  0.00000000000E+00 0.  1.
         -2   -1    0    0    0  501 -0.00000000000E+00 -0.00000000000E+00 -0.23357898670E+03  0.23357898670E+03  0.00000000000E+00 0. -1.
         25    2    1    2    0    0  0.26543528185E+03  0.85223642140E+02 -0.23292463091E+02  0.30644626534E+03  0.12509123340E+03 0.  0.
          5    1    3    3  502    0  0.22908246245E+03  0.51365584554E+02 -0.62544454976E+02  0.24299481297E+03  0.41800000000E+01 0.  1.
         -5    1    3    3    0  502  0.36352819397E+02  0.33858057586E+02  0.39251991885E+02  0.63451452376E+02  0.41800000000E+01 0.  1.
        -11    1    1    2    0    0 -0.18028656377E+03 -0.11852339599E+02  0.14176989528E+03  0.22965719287E+03  0.00000000000E+00 0. -1.
         11    1    1    2    0    0 -0.85148718078E+02 -0.73371302541E+02  0.10276436683E+03  0.15229631419E+03  0.00000000000E+00 0.  1.
</event>
<event>
 7    1  0.2878477E-009  0.1586666E+03  0.7561462E-02  0.1190210E+00
          1   -1    0    0  501    0  0.00000000000E+00  0.00000000000E+00  0.73892960441E+03  0.73892960441E+03  0.00000000000E+00 0. -1.
         -1   -1    0    0    0  501 -0.00000000000E+00 -0.00000000000E+00 -0.42190242976E+02  0.42190242976E+02  0.00000000000E+00 0.  1.
         25    2    1    2    0    0 -0.89680188515E+02 -0.10374858026E+03  0.40871431419E+03  0.44888896002E+03  0.12509038207E+03 0.  0.
          5    1    3    3  502    0 -0.83127396041E+02 -0.81966370983E+01  0.24834488425E+03  0.26204961890E+03  0.41800000000E+01 0.  1.
         -5    1    3    3    0  502 -0.65527924740E+01 -0.95551943157E+02  0.16036942993E+03  0.18683934111E+03  0.41800000000E+01 0.  1.
        -11    1    1    2    0    0  0.25079564574E+02  0.38992682150E+02  0.22777293640E+02  0.51654805449E+02  0.00000000000E+00 0.  1.
         11    1    1    2    0    0  0.64600623941E+02  0.64755898106E+02  0.26524775361E+03  0.28057608192E+03  0.00000000000E+00 0. -1.
</event>
<event>
 7    1  0.2878477E-009  0.1019581E+03  0.7561462E-02  0.1276231E+00
         -2   -1    0    0    0  501 -0.00000000000E+00  0.00000000000E+00  0.76761118639E+02  0.76761118639E+02  0.00000000000E+00 0.  1.
          2   -1    0    0  501    0  0.00000000000E+00 -0.00000000000E+00 -0.20649041286E+03  0.20649041286E+03  0.00000000000E+00 0. -1.
         25    2    1    2    0    0  0.24767038017E+02  0.47487877185E+02 -0.10893378737E+03  0.17430725945E+03  0.12509175039E+03 0.  0.
          5    1    3    3  502    0  0.59993901398E+02 -0.53479152336E+01 -0.17417750493E+02  0.62838832219E+02  0.41800000000E+01 0. -1.
         -5    1    3    3    0  502 -0.35226863381E+02  0.52835792418E+02 -0.91516036872E+02  0.11146842723E+03  0.41800000000E+01 0. -1.
        -11    1    1    2    0    0 -0.33771658394E+02 -0.57344008642E+02  0.17145680013E+02  0.68722882513E+02  0.00000000000E+00 0.  1.
         11    1    1    2    0    0  0.90046203762E+01  0.98561314570E+01 -0.37941186870E+02  0.40221389540E+02  0.00000000000E+00 0. -1.
</event>
<event>
 7    1  0.2878477E-009  0.1679970E+03  0.7561462E-02  0.1179953E+00
         -2   -1    0    0    0  501 -0.00000000000E+00  0.00000000000E+00  0.84457602814E+02  0.84457602814E+02  0.00000000000E+00 0.  1.
          2   -1    0    0  501    0  0.00000000000E+00 -0.00000000000E+00 -0.40953892348E+03  0.40953892348E+03  0.00000000000E+00 0. -1.
         25    2    1    2    0    0  0.10410126578E+03  0.10766104866E+03 -0.15349696086E+03  0.24826822261E+03  0.12509124043E+03 0.  0.
          5    1    3    3  502    0  0.11176070793E+03  0.46347673645E+02 -0.13962893117E+03  0.18480333739E+03  0.41800000000E+01 0.  1.
         -5    1    3    3    0  502 -0.76594421544E+01  0.61313375011E+02 -0.13868029692E+02  0.63464885227E+02  0.41800000000E+01 0.  1.
        -11    1    1    2    0    0 -0.42222347838E+02 -0.66190269593E+02 -0.26894156113E+02  0.82988999746E+02  0.00000000000E+00 0.  1.
         11    1    1    2    0    0 -0.61878917938E+02 -0.41470779063E+02 -0.14469020369E+03  0.16273930393E+03  0.00000000000E+00 0. -1.
</event>
<event>
 7    1  0.2878477E-009  0.1545981E+03  0.7561462E-02  0.1194934E+00
          2   -1    0    0  501    0  0.00000000000E+00  0.00000000000E+00  0.10276321876E+04  0.10276321876E+04  0.00000000000E+00 0. -1.
         -2   -1    0    0    0  501 -0.00000000000E+00 -0.00000000000E+00 -0.33699585870E+02  0.33699585870E+02  0.00000000000E+00 0.  1.
         25    2    1    2    0    0 -0.13350772375E+03  0.72477797971E+02  0.63528864928E+03  0.66506805415E+03  0.12508599141E+03 0.  0.
          5    1    3    3  502    0 -0.53288692233E+01  0.13190588475E+02  0.31080626067E+03  0.31115975405E+03  0.41800000000E+01 0.  1.
         -5    1    3    3    0  502 -0.12817885453E+03  0.59287209496E+02  0.32448238861E+03  0.35390830009E+03  0.41800000000E+01 0.  1.
        -11    1    1    2    0    0  0.35520864271E+02 -0.10119547523E+02  0.29628881746E+02  0.47349843443E+02  0.00000000000E+00 0.  1.
         11    1    1    2    0    0  0.97986859484E+02 -0.62358250448E+02  0.32901507074E+03  0.34891387591E+03  0.00000000000E+00 0. -1.
</event>
<event>
 7    1  0.2878477E-009  0.1325319E+03  0.7561462E-02  0.1223747E+00
          2   -1    0    0  501    0  0.00000000000E+00  0.00000000000E+00  0.95969265603E+03  0.95969265603E+03  0.00000000000E+00 0. -1.
         -2   -1    0    0    0  501 -0.00000000000E+00 -0.00000000000E+00 -0.24429819646E+02  0.24429819646E+02  0.00000000000E+00 0.  1.
         25    2    1    2    0    0 -0.91362110010E+02  0.33905244961E+02  0.65285858291E+03  0.67184101405E+03  0.12509763426E+03 0.  0.
          5    1    3    3  502    0  0.10866044945E+02  0.46630968560E+02  0.31360586425E+03  0.31726744026E+03  0.41800000000E+01 0.  1.
         -5    1    3    3    0  502 -0.10222815495E+03 -0.12725723599E+02  0.33925271866E+03  0.35457357378E+03  0.41800000000E+01 0.  1.
        -11    1    1    2    0    0  0.55615960510E+02 -0.49916316625E+02  0.25156280590E+03  0.26242831220E+03  0.00000000000E+00 0. -1.
         11    1    1    2    0    0  0.35746149499E+02  0.16011071664E+02  0.30841447570E+02  0.49853149430E+02  0.00000000000E+00 0.  1.
</event>
<event>
 7    1  0.2878477E-009  0.8702673E+02  0.7561462E-02  0.1310216E+00
          2   -1    0    0  501    0  0.00000000000E+00  0.00000000000E+00  0.18351337933E+04  0.18351337933E+04  0.00000000000E+00 0. -1.
         -2   -1    0    0    0  501 -0.00000000000E+00 -0.00000000000E+00 -0.10418255487E+02  0.10418255487E+02  0.00000000000E+00 0.  1.
         25    2    1    2    0    0  0.44416482658E+02 -0.29286815491E+02  0.14446016948E+04  0.14509830179E+04  0.12508844837E+03 0.  0.
          5    1    3    3  502    0  0.31097244484E+02  0.63834014117E+01  0.13252179627E+04  0.13256047327E+04  0.41800000000E+01 0. -1.
         -5    1    3    3    0  502  0.13319238174E+02 -0.35670216903E+02  0.11938373214E+03  0.12537828511E+03  0.41800000000E+01 0. -1.
        -11    1    1    2    0    0  0.10858907430E+01  0.52593836004E+02  0.15363136120E+03  0.16238807188E+03  0.00000000000E+00 0.  1.
         11    1    1    2    0    0 -0.45502373401E+02 -0.23307020513E+02  0.22648248180E+03  0.23218095906E+03  0.00000000000E+00 0. -1.
</event>
<event>
 7    1  0.2878477E-009  0.1916822E+03  0.7561462E-02  0.1156953E+00
          1   -1    0    0  501    0  0.00000000000E+00  0.00000000000E+00  0.79859669482E+03  0.79859669482E+03  0.00000000000E+00 0. -1.
         -1   -1    0    0    0  501 -0.00000000000E+00 -0.00000000000E+00 -0.63396284836E+02  0.63396284836E+02  0.00000000000E+00 0.  1.
         25    2    1    2    0    0  0.10207017489E+03 -0.13933153166E+03  0.19930331328E+03  0.29189180336E+03  0.12508963933E+03 0.  0.
          5    1    3    3  502    0 -0.19053381596E+01 -0.95683118494E+02  0.61734465233E+02  0.11396273986E+03  0.41800000000E+01 0. -1.
         -5    1    3    3    0  502  0.10397551305E+03 -0.43648413166E+02  0.13756884804E+03  0.17792906350E+03  0.41800000000E+01 0. -1.
        -11    1    1    2    0    0 -0.51489473167E+02  0.48352669193E+02  0.34988795533E+03  0.35694639339E+03  0.00000000000E+00 0. -1.
         11    1    1    2    0    0 -0.50580701724E+02  0.90978862466E+02  0.18600914137E+03  0.21315478291E+03  0.00000000000E+00 0.  1.
</event>
<event>
 7    1  0.2878477E-009  0.1701409E+03  0.7561462E-02  0.1177701E+00
          2   -1    0    0  501    0  0.00000000000E+00  0.00000000000E+00  0.68607762249E+03  0.68607762249E+03  0.00000000000E+00 0. -1.
         -2   -1    0    0    0  501 -0.00000000000E+00 -0.00000000000E+00 -0.59220489955E+02  0.59220489955E+02  0.00000000000E+00 0.  1.
         25    2    1    2    0    0 -0.14385620628E+03 -0.27647013003E+02  0.48395311231E+03  0.52088154764E+03  0.12509199155E+03 0.  0.
          5    1    3    3  502    0 -0.82724616065E+02 -0.70327177326E+02  0.36129546889E+03  0.37728127732E+03  0.41800000000E+01 0.  1.
         -5    1    3    3    0  502 -0.61131590218E+02  0.42680164323E+02  0.12265764341E+03  0.14360027032E+03  0.41800000000E+01 0.  1.
        -11    1    1    2    0    0  0.61418896650E+02 -0.16278892775E+02  0.10680043853E+03  0.12427234964E+03  0.00000000000E+00 0. -1.
         11    1    1    2    0    0  0.82437309634E+02  0.43925905778E+02  0.36103581697E+02  0.10014421516E+03  0.00000000000E+00 0.  1.
</event>
<event>
 7    1  0.2878477E-009  0.1334332E+03  0.7561462E-02  0.1222449E+00
         -4   -1    0    0    0  501 -0.00000000000E+00  0.00000000000E+00  0.12707769693E+03  0.12707769693E+03  0.00000000000E+00 0.  1.
          4   -1    0    0  501    0  0.00000000000E+00 -0.00000000000E+00 -0.19068937678E+03  0.19068937678E+03  0.00000000000E+00 0. -1.
         25    2    1    2    0    0 -0.83042705400E+02  0.14246351693E+02 -0.10759270083E+03  0.18527246323E+03  0.12510254554E+03 0.  0.
          5    1    3    3  502    0 -0.99133081692E+02 -0.24059547693E+02 -0.99842839556E+02  0.14280159219E+03  0.41800000000E+01 0.  1.
         -5    1    3    3    0  502  0.16090376292E+02  0.38305899385E+02 -0.77498612753E+01  0.42470871038E+02  0.41800000000E+01 0.  1.
        -11    1    1    2    0    0  0.22432328521E+02  0.37247422353E+02  0.26964964322E+02  0.51163357354E+02  0.00000000000E+00 0.  1.
         11    1    1    2    0    0  0.60610376879E+02 -0.51493774046E+02  0.17016056660E+02  0.81331253126E+02  0.00000000000E+00 0. -1.
</event>
<event>
 7    1  0.2878477E-009  0.2327094E+03  0.7561462E-02  0.1124747E+00
          3   -1    0    0  501    0  0.00000000000E+00  0.00000000000E+00  0.12253214106E+04  0.12253214106E+04  0.00000000000E+00 0. -1.
         -3   -1    0    0    0  501 -0.00000000000E+00 -0.00000000000E+00 -0.52495984834E+02  0.52495984834E+02  0.00000000000E+00 0.  1.
         25    2    1    2    0    0 -0.20887486478E+03  0.74639130955E+02  0.74244205132E+03  0.78489970647E+03  0.12509052980E+03 0.  0.
          5    1    3    3  502    0 -0.23902778349E+02 -0.47395921449E+01  0.27286917890E+03  0.27398698461E+03  0.41800000000E+01 0.  1.
         -5    1    3    3    0  502 -0.18497208643E+03  0.79378723100E+02  0.46957287242E+03  0.51091272186E+03  0.41800000000E+01 0.  1.
        -11    1    1    2    0    0  0.38104486496E+02 -0.55787273287E+02  0.14161033444E+03  0.15690015479E+03  0.00000000000E+00 0.  1.
         11    1    1    2    0    0  0.17077037829E+03 -0.18851857669E+02  0.28877303999E+03  0.33601753416E+03  0.00000000000E+00 0. -1.
</event>
<event>
 7    1  0.3433316E-009  0.1348115E+03  0.7561462E-02  0.1220486E+00
          2   -1    0    0  501    0  0.00000000000E+00  0.00000000000E+00  0.26311626987E+03  0.26311626987E+03  0.00000000000E+00 0. -1.
         -2   -1    0    0    0  501 -0.00000000000E+00 -0.00000000000E+00 -0.12656031826E+03  0.12656031826E+03  0.00000000000E+00 0.  1.
         25    2    1    2    0    0  0.54885747873E+02 -0.11963045525E+03  0.43537545446E+01  0.18163182715E+03  0.12508906552E+03 0.  0.
          5    1    3    3  502    0  0.54753332641E+02 -0.73928092942E+02 -0.54492491853E+02  0.10700558130E+03  0.41800000000E+01 0. -1.
         -5    1    3    3    0  502  0.13241523250E+00 -0.45702362308E+02  0.58846246398E+02  0.74626245848E+02  0.41800000000E+01 0. -1.
        -11    1    1    2    0    0 -0.37149149172E+02  0.83406353920E+02  0.26751298717E+02  0.95143634267E+02  0.00000000000E+00 0.  1.
         11    1    1    2    0    0 -0.17736598701E+02  0.36224101330E+02  0.10545089835E+03  0.11290112671E+03  0.00000000000E+00 0. -1.
</event>
<event>
 7    1  0.2878477E-009  0.1110735E+03  0.7561462E-02  0.1258595E+00
          1   -1    0    0  501    0  0.00000000000E+00  0.00000000000E+00  0.69039433798E+03  0.69039433798E+03  0.00000000000E+00 0. -1.
         -1   -1    0    0    0  501 -0.00000000000E+00 -0.00000000000E+00 -0.33769530389E+02  0.33769530389E+02  0.00000000000E+00 0.  1.
         25    2    1    2    0    0 -0.22551062870E+02  0.10458328611E+03  0.38826510234E+03  0.42171552425E+03  0.12509188434E+03 0.  0.
          5    1    3    3  502    0 -0.20957811855E+02  0.97161823990E+02  0.39708114333E+03  0.40935382826E+03  0.41800000000E+01 0.  1.
         -5    1    3    3    0  502 -0.15932510155E+01  0.74214621248E+01 -0.88160409967E+01  0.12361695989E+02  0.41800000000E+01 0.  1.
        -11    1    1    2    0    0  0.33350742005E+02 -0.66238242374E+02  0.24563441101E+03  0.25658534762E+03  0.00000000000E+00 0.  1.
         11    1    1    2    0    0 -0.10799679135E+02 -0.38345043741E+02  0.22725294246E+02  0.45862996495E+02  0.00000000000E+00 0. -1.
</event>
<event>
 7    1  0.2878477E-009  0.1590186E+03  0.7561462E-02  0.1189809E+00
         -1   -1    0    0    0  501 -0.00000000000E+00  0.00000000000E+00  0.11159240587E+02  0.11159240587E+02  0.00000000000E+00 0.  1.
          1   -1    0    0  501    0  0.00000000000E+00 -0.00000000000E+00 -0.27010995968E+04  0.27010995968E+04  0.00000000000E+00 0. -1.
         25    2    1    2    0    0 -0.11558570000E+03  0.20412935678E+02 -0.19408017708E+04  0.19483679474E+04  0.12509757345E+03 0.  0.
          5    1    3    3  502    0  0.25719015558E+02  0.56522235804E+01 -0.45593652111E+03  0.45671544651E+03  0.41800000000E+01 0.  1.
         -5    1    3    3    0  502 -0.14130471556E+03  0.14760712098E+02 -0.14848652497E+04  0.14916525009E+04  0.41800000000E+01 0.  1.
        -11    1    1    2    0    0  0.96111687297E+02  0.25440928385E+02 -0.51554228221E+03  0.52504146695E+03  0.00000000000E+00 0.  1.
         11    1    1    2    0    0  0.19474012701E+02 -0.45853864063E+02 -0.23359630321E+03  0.23884942305E+03  0.00000000000E+00 0. -1.
</event>
<event>
 7    1  0.2878477E-009  0.2510492E+03  0.7561462E-02  0.1112644E+00
          1   -1    0    0  501    0  0.00000000000E+00  0.00000000000E+00  0.63919738799E+03  0.63919738799E+03  0.00000000000E+00 0. -1.
         -1   -1    0    0    0  501 -0.00000000000E+00 -0.00000000000E+00 -0.11320089341E+03  0.11320089341E+03  0.00000000000E+00 0.  1.
         25    2    1    2    0    0  0.21028461287E+03  0.12699233936E+03  0.24563908510E+03  0.36923239442E+03  0.12508928130E+03 0.  0.
          5    1    3    3  502    0  0.11255857849E+02  0.31505547857E+02  0.97978812588E+02  0.10361763362E+03  0.41800000000E+01 0.  1.
         -5    1    3    3    0  502  0.19902875502E+03  0.95486791499E+02  0.14766027251E+03  0.26561476080E+03  0.41800000000E+01 0.  1.
        -11    1    1    2    0    0 -0.64622871444E+02 -0.56192524455E+02  0.15967546118E+03  0.18119041978E+03  0.00000000000E+00 0. -1.
         11    1    1    2    0    0 -0.14566174142E+03 -0.70799814901E+02  0.12068194830E+03  0.20197546720E+03  0.00000000000E+00 0.  1.
</event>
<event>
 7    1  0.2878477E-009  0.1803174E+03  0.7561462E-02  0.1167496E+00
          2   -1    0    0  501    0  0.00000000000E+00  0.00000000000E+00  0.54443905053E+03  0.54443905053E+03  0.00000000000E+00 0.  1.
         -2   -1    0    0    0  501 -0.00000000000E+00 -0.00000000000E+00 -0.62946710872E+02  0.62946710872E+02  0.00000000000E+00 0. -1.
         25    2    1    2    0    0 -0.74529034376E+01  0.14856588177E+03  0.27799755522E+03  0.33920036657E+03  0.12508749330E+03 0.  0.
          5    1    3    3  502    0  0.43585183520E+02  0.13031119520E+03  0.17305405165E+03  0.22101097939E+03  0.41800000000E+01 0. -1.
         -5    1    3    3    0  502 -0.51038086958E+02  0.18254686564E+02  0.10494350357E+03  0.11818938718E+03  0.41800000000E+01 0. -1.
        -11    1    1    2    0    0  0.28874659894E+02 -0.14403834770E+03  0.14801155579E+03  0.20853827524E+03  0.00000000000E+00 0. -1.
         11    1    1    2    0    0 -0.21421756456E+02 -0.45275340712E+01  0.55483228645E+02  0.59647119589E+02  0.00000000000E+00 0.  1.
</event>
<event>
 7    1  0.2878477E-009  0.6866434E+02  0.7561462E-02  0.1364695E+00
          1   -1    0    0  501    0  0.00000000000E+00  0.00000000000E+00  0.31600077353E+03  0.31600077353E+03  0.00000000000E+00 0. -1.
         -1   -1    0    0    0  501 -0.00000000000E+00 -0.00000000000E+00 -0.43266776158E+02  0.43266776158E+02  0.00000000000E+00 0.  1.
         25    2    1    2    0    0  0.38959439833E+02 -0.14158751909E+02  0.17271275534E+03  0.21724543352E+03  0.12509026468E+03 0.  0.
          5    1    3    3  502    0  0.27668583228E+01  0.37805597133E+01  0.17635998378E+03  0.17647170995E+03  0.41800000000E+01 0.  1.
         -5    1    3    3    0  502  0.36192581510E+02 -0.17939311622E+02 -0.36472284355E+01  0.40773723562E+02  0.41800000000E+01 0.  1.
        -11    1    1    2    0    0 -0.52249117750E+01  0.44657703570E+02  0.18390250677E+02  0.48577891176E+02  0.00000000000E+00 0.  1.
         11    1    1    2    0    0 -0.33734528058E+02 -0.30498951661E+02  0.81630991358E+02  0.93444225000E+02  0.00000000000E+00 0. -1.
</event>
<event>
 7    1  0.2878477E-009  0.1002525E+03  0.7561462E-02  0.1279766E+00
         -2   -1    0    0    0  501 -0.00000000000E+00  0.00000000000E+00  0.21352626172E+02  0.21352626172E+02  0.00000000000E+00 0. -1.
          2   -1    0    0  501    0  0.00000000000E+00 -0.00000000000E+00 -0.57719630863E+03  0.57719630863E+03  0.00000000000E+00 0.  1.
         25    2    1    2    0    0 -0.13534452885E+02 -0.23619796116E+02 -0.30095532143E+03  0.32705148144E+03  0.12508992697E+03 0.  0.
          5    1    3    3  502    0 -0.58064627764E+02  0.94862881323E+01 -0.81205680818E+02  0.10036595866E+03  0.41800000000E+01 0. -1.
         -5    1    3    3    0  502  0.44530174879E+02 -0.33106084248E+02 -0.21974964062E+03  0.22668552278E+03  0.41800000000E+01 0. -1.
        -11    1    1    2    0    0  0.46381824335E+02  0.25585402149E+02 -0.20500760854E+03  0.21174042125E+03  0.00000000000E+00 0.  1.
         11    1    1    2    0    0 -0.32847371450E+02 -0.19656060332E+01 -0.49880752475E+02  0.59757032103E+02  0.00000000000E+00 0. -1.
</event>
<event>
 7    1  0.2878477E-009  0.9357059E+02  0.7561462E-02  0.1294428E+00
          2   -1    0    0  501    0  0.00000000000E+00  0.00000000000E+00  0.65102397162E+03  0.65102397162E+03  0.00000000000E+00 0. -1.
         -2   -1    0    0    0  501 -0.00000000000E+00 -0.00000000000E+00 -0.27042062139E+02  0.27042062139E+02  0.00000000000E+00 0.  1.
         25    2    1    2    0    0  0.69464764195E+02  0.84601154136E+01  0.27133000252E+03  0.30685979133E+03  0.12508410870E+03 0.  0.
          5    1    3    3  502    0  0.77432357042E+02  0.94641672830E+00  0.67850296897E+02  0.10304271353E+03  0.41800000000E+01 0. -1.
         -5    1    3    3    0  502 -0.79675928476E+01  0.75136986853E+01  0.20347970563E+03  0.20381707781E+03  0.41800000000E+01 0. -1.
        -11    1    1    2    0    0 -0.41213867186E+00 -0.26495762847E+02  0.27021424392E+02  0.37846435543E+02  0.00000000000E+00 0.  1.
         11    1    1    2    0    0 -0.69052625523E+02  0.18035647433E+02  0.32563048256E+03  0.33335980688E+03  0.00000000000E+00 0. -1.
</event>
<event>
 7    1  0.2878477E-009  0.1032223E+03  0.7561462E-02  0.1273662E+00
         -2   -1    0    0    0  501 -0.00000000000E+00  0.00000000000E+00  0.19504501917E+03  0.19504501917E+03  0.00000000000E+00 0.  1.
          2   -1    0    0  501    0  0.00000000000E+00 -0.00000000000E+00 -0.10057057064E+03  0.10057057064E+03  0.00000000000E+00 0. -1.
         25    2    1    2    0    0  0.21311221758E+02 -0.49320341377E+02  0.11987328508E+03  0.18139283384E+03  0.12508833457E+03 0.  0.
          5    1    3    3  502    0  0.52726117334E+02 -0.32521733320E+02  0.64394631010E+01  0.62423118091E+02  0.41800000000E+01 0. -1.
         -5    1    3    3    0  502 -0.31414895576E+02 -0.16798608058E+02  0.11343382198E+03  0.11896971575E+03  0.41800000000E+01 0. -1.
        -11    1    1    2    0    0 -0.58967005120E+02  0.29632968079E+02 -0.27918011253E+02  0.71656373354E+02  0.00000000000E+00 0.  1.
         11    1    1    2    0    0  0.37655783363E+02  0.19687373299E+02  0.25191747044E+01  0.42566382619E+02  0.00000000000E+00 0. -1.
</event>
<event>
 7    1  0.2878477E-009  0.1231775E+03  0.7561462E-02  0.1237945E+00
          2   -1    0    0  501    0  0.00000000000E+00  0.00000000000E+00  0.51638509318E+03  0.51638509318E+03  0.00000000000E+00 0.  1.
         -2   -1    0    0    0  501 -0.00000000000E+00 -0.00000000000E+00 -0.34633362991E+02  0.34633362991E+02  0.00000000000E+00 0. -1.
         25    2    1    2    0    0  0.47995963752E+02 -0.45331043349E+02  0.18107166985E+03  0.22976677450E+03  0.12508918823E+03 0.  0.
          5    1    3    3  502    0 -0.34128019897E+02 -0.37133393359E+02  0.10876108944E+03  0.11995856626E+03  0.41800000000E+01 0. -1.
         -5    1    3    3    0  502  0.82123983649E+02 -0.81976499900E+01  0.72310580417E+02  0.10980820824E+03  0.41800000000E+01 0. -1.
        -11    1    1    2    0    0 -0.67652498185E+02  0.58510049167E+02  0.23717103113E+03  0.25347659531E+03  0.00000000000E+00 0. -1.
         11    1    1    2    0    0  0.19656534433E+02 -0.13179005818E+02  0.63509029211E+02  0.67775086364E+02  0.00000000000E+00 0.  1.
</event>
<event>
 7    1  0.2878477E-009  0.9205748E+02  0.7561462E-02  0.1297944E+00
          2   -1    0    0  501    0  0.00000000000E+00  0.00000000000E+00  0.40313578394E+03  0.40313578394E+03  0.00000000000E+00 0. -1.
         -2   -1    0    0    0  501 -0.00000000000E+00 -0.00000000000E+00 -0.40870733894E+02  0.40870733894E+02  0.00000000000E+00 0.  1.
         25    2    1    2    0    0  0.61862176222E+02  0.10578306159E+02  0.21486197705E+03  0.25642193162E+03  0.12509080073E+03 0.  0.
          5    1    3    3  502    0  0.43038829968E+01  0.92314461370E+01 -0.15458090500E+02  0.18978091804E+02  0.41800000000E+01 0. -1.
         -5    1    3    3    0  502  0.57558293225E+02  0.13468600217E+01  0.23032006755E+03  0.23744383982E+03  0.41800000000E+01 0. -1.
        -11    1    1    2    0    0 -0.53379112613E+02 -0.51150280575E+02  0.10365886516E+03  0.12732180171E+03  0.00000000000E+00 0.  1.
         11    1    1    2    0    0 -0.84830636090E+01  0.40571974416E+02  0.43744207842E+02  0.60262784502E+02  0.00000000000E+00 0. -1.
</event>
<event>
 7    1  0.2878477E-009  0.8311205E+02  0.7561462E-02  0.1320445E+00
          1   -1    0    0  501    0  0.00000000000E+00  0.00000000000E+00  0.68539534172E+03  0.68539534172E+03  0.00000000000E+00 0. -1.
         -1   -1    0    0    0  501 -0.00000000000E+00 -0.00000000000E+00 -0.37645610904E+02  0.37645610904E+02  0.00000000000E+00 0.  1.
         25    2    1    2    0    0 -0.27955852841E+02  0.47386077267E+02  0.11354966916E+03  0.17767275048E+03  0.12508840422E+03 0.  0.
          5    1    3    3  502    0 -0.24533398306E+01  0.11260994198E+02 -0.27331695556E+02  0.29955347579E+02  0.41800000000E+01 0.  1.
         -5    1    3    3    0  502 -0.25502513010E+02  0.36125083069E+02  0.14088136471E+03  0.14771740290E+03  0.41800000000E+01 0.  1.
        -11    1    1    2    0    0 -0.14295071924E+02 -0.62925949271E+02  0.29613809981E+03  0.30308711343E+03  0.00000000000E+00 0. -1.
         11    1    1    2    0    0  0.42250924764E+02  0.15539872004E+02  0.23806196186E+03  0.24228108871E+03  0.00000000000E+00 0.  1.
</event>
<event>
 7    1  0.2878477E-009  0.8796395E+02  0.7561462E-02  0.1307859E+00
         -1   -1    0    0    0  501 -0.00000000000E+00  0.00000000000E+00  0.83812762527E+02  0.83812762527E+02  0.00000000000E+00 0.  1.
          1   -1    0    0  501    0  0.00000000000E+00 -0.00000000000E+00 -0.15903649983E+03  0.15903649983E+03  0.00000000000E+00 0. -1.
         25    2    1    2    0    0 -0.16832096729E+02  0.16556153429E+02 -0.84647045350E+01  0.12757724177E+03  0.12508747219E+03 0.  0.
          5    1    3    3  502    0  0.48458989091E+02  0.27668012476E+02 -0.21502724780E+02  0.59946910772E+02  0.41800000000E+01 0.  1.
         -5    1    3    3    0  502 -0.65291085820E+02 -0.11111859047E+02  0.13038020245E+02  0.67630330999E+02  0.41800000000E+01 0.  1.
        -11    1    1    2    0    0 -0.72180633453E+01  0.13383272488E+02  0.17193630674E+02  0.22952850731E+02  0.00000000000E+00 0.  1.
         11    1    1    2    0    0  0.24050160074E+02 -0.29939425917E+02 -0.83952663439E+02  0.92319169853E+02  0.00000000000E+00 0. -1.
</event>
<event>
 7    1  0.2878477E-009  0.1213241E+03  0.7561462E-02  0.1240929E+00
          1   -1    0    0  501    0  0.00000000000E+00  0.00000000000E+00  0.47388787412E+03  0.47388787412E+03  0.00000000000E+00 0. -1.
         -1   -1    0    0    0  501 -0.00000000000E+00 -0.00000000000E+00 -0.54990850812E+02  0.54990850812E+02  0.00000000000E+00 0.  1.
         25    2    1    2    0    0  0.25506049004E+02  0.95016185416E+02  0.11049699387E+03  0.19373973433E+03  0.12508742934E+03 0.  0.
          5    1    3    3  502    0 -0.21047951787E+02  0.65163973355E+02  0.11926523834E+03  0.13759007658E+03  0.41800000000E+01 0.  1.
         -5    1    3    3    0  502  0.46554000791E+02  0.29852212062E+02 -0.87682444677E+01  0.56149657752E+02  0.41800000000E+01 0.  1.
        -11    1    1    2    0    0 -0.44153579377E+02 -0.36887618158E+02  0.22209361455E+03  0.22942495193E+03  0.00000000000E+00 0. -1.
         11    1    1    2    0    0  0.18647530374E+02 -0.58128567258E+02  0.86306414896E+02  0.10571403867E+03  0.00000000000E+00 0.  1.
</event>
<event>
 7    1  0.2878477E-009  0.1200832E+03  0.7561462E-02  0.1242960E+00
          2   -1    0    0  501    0  0.00000000000E+00  0.00000000000E+00  0.12860775632E+03  0.12860775632E+03  0.00000000000E+00 0. -1.
         -2   -1    0    0    0  501 -0.00000000000E+00 -0.00000000000E+00 -0.12095153854E+03  0.12095153854E+03  0.00000000000E+00 0.  1.
         25    2    1    2    0    0  0.54565826151E+02  0.11891830103E+02  0.88195592698E+01  0.13727746860E+03  0.12509385978E+03 0.  0.
          5    1    3    3  502    0  0.19725610790E+02 -0.55185934045E+02 -0.91755892926E+01  0.59466384423E+02  0.41800000000E+01 0.  1.
         -5    1    3    3    0  502  0.34840215361E+02  0.67077764149E+02  0.17995148562E+02  0.77811084181E+02  0.41800000000E+01 0.  1.
        -11    1    1    2    0    0 -0.66739351660E+02  0.21541662598E+02 -0.18748518132E+02  0.72592638880E+02  0.00000000000E+00 0.  1.
         11    1    1    2    0    0  0.12173525509E+02 -0.33433492701E+02  0.17585176637E+02  0.39689187380E+02  0.00000000000E+00 0. -1.
</event>
<event>
 7    1  0.2878477E-009  0.1440775E+03  0.7561462E-02  0.1207945E+00
          2   -1    0    0  501    0  0.00000000000E+00  0.00000000000E+00  0.11260149041E+04  0.11260149041E+04  0.00000000000E+00 0. -1.
         -2   -1    0    0    0  501 -0.00000000000E+00 -0.00000000000E+00 -0.39122755342E+02  0.39122755342E+02  0.00000000000E+00 0.  1.
         25    2    1    2    0    0  0.96921322184E+02  0.57286508054E+02  0.95234503811E+03  0.96709949216E+03  0.12507945246E+03 0.  0.
          5    1    3    3  502    0 -0.22041610539E+02  0.24004268213E+02  0.87474193174E+02  0.93441127771E+02  0.41800000000E+01 0. -1.
         -5    1    3    3    0  502  0.11896293272E+03  0.33282239841E+02  0.86487084493E+03  0.87365836439E+03  0.41800000000E+01 0. -1.
        -11    1    1    2    0    0 -0.65905448242E+02 -0.71793376674E+02  0.56114929939E+02  0.11245755824E+03  0.00000000000E+00 0.  1.
         11    1    1    2    0    0 -0.31015873943E+02  0.14506868620E+02  0.78432180696E+02  0.85580609032E+02  0.00000000000E+00 0. -1.
</event>
<event>
 7    1  0.2878477E-009  0.1045203E+03  0.7561462E-02  0.1271068E+00
         -1   -1    0    0    0  501 -0.00000000000E+00  0.00000000000E+00  0.59915861469E+02  0.59915861469E+02  0.00000000000E+00 0.  1.
          1   -1    0    0  501    0  0.00000000000E+00 -0.00000000000E+00 -0.20394521143E+03  0.20394521143E+03  0.00000000000E+00 0. -1.
         25    2    1    2    0    0 -0.41721678610E+01  0.21966113938E+02 -0.89913852454E+02  0.15566598675E+03  0.12508989336E+03 0.  0.
          5    1    3    3  502    0 -0.34846603523E+02  0.60907681995E+02 -0.77015827025E+02  0.10427339793E+03  0.41800000000E+01 0.  1.
         -5    1    3    3    0  502  0.30674435662E+02 -0.38941568057E+02 -0.12898025429E+02  0.51392588823E+02  0.41800000000E+01 0.  1.
        -11    1    1    2    0    0  0.12050713777E+02 -0.54349324876E+02 -0.49604747078E+02  0.74563394167E+02  0.00000000000E+00 0.  1.
         11    1    1    2    0    0 -0.78785459161E+01  0.32383210938E+02 -0.45107504332E+01  0.33631691987E+02  0.00000000000E+00 0. -1.
</event>
<event>
 7    1  0.2878477E-009  0.1102304E+03  0.7561462E-02  0.1260144E+00
          4   -1    0    0  501    0  0.00000000000E+00  0.00000000000E+00  0.76638696613E+03  0.76638696613E+03  0.00000000000E+00 0. -1.
         -4   -1    0    0    0  501 -0.00000000000E+00 -0.00000000000E+00 -0.16816029225E+02  0.16816029225E+02  0.00000000000E+00 0.  1.
         25    2    1    2    0    0 -0.16737781748E+02 -0.30863422810E+02  0.39692588485E+03  0.41764813628E+03  0.12508838262E+03 0.  0.
          5    1    3    3  502    0 -0.53198587208E+02 -0.61093626486E+02  0.27725186162E+03  0.28887469264E+03  0.41800000000E+01 0. -1.
         -5    1    3    3    0  502  0.36460805460E+02  0.30230203675E+02  0.11967402323E+03  0.12877344363E+03  0.41800000000E+01 0. -1.
        -11    1    1    2    0    0 -0.20664350745E+02  0.46785996133E+02  0.24950147832E+03  0.25468987516E+03  0.00000000000E+00 0.  1.
         11    1    1    2    0    0  0.37402132493E+02 -0.15922573323E+02  0.10314357374E+03  0.11086498392E+03  0.00000000000E+00 0. -1.
</event>
<event>
 7    1  0.2878477E-009  0.2556813E+03  0.7561462E-02  0.1109766E+00
          1   -1    0    0  501    0  0.00000000000E+00  0.00000000000E+00  0.36224080894E+03  0.36224080894E+03  0.00000000000E+00 0. -1.
         -1   -1    0    0    0  501 -0.00000000000E+00 -0.00000000000E+00 -0.19249247682E+03  0.19249247682E+03  0.00000000000E+00 0.  1.
         25    2    1    2    0    0  0.21416197178E+03  0.10710639374E+03  0.11229417350E+03  0.29257434926E+03  0.12511050597E+03 0.  0.
          5    1    3    3  502    0  0.10927181991E+02  0.60274208286E+02  0.21296019104E+02  0.64987508957E+02  0.41800000000E+01 0. -1.
         -5    1    3    3    0  502  0.20323478979E+03  0.46832185458E+02  0.90998154400E+02  0.22758684030E+03  0.41800000000E+01 0. -1.
        -11    1    1    2    0    0 -0.14376663557E+03 -0.55639354881E+02 -0.60612135234E+01  0.15427676955E+03  0.00000000000E+00 0.  1.
         11    1    1    2    0    0 -0.70395336209E+02 -0.51467038863E+02  0.63515372138E+02  0.10788216696E+03  0.00000000000E+00 0. -1.
</event>
<event>
 7    1  0.2878477E-009  0.1540947E+03  0.7561462E-02  0.1195530E+00
         -2   -1    0    0    0  501 -0.00000000000E+00  0.00000000000E+00  0.33011247657E+02  0.33011247657E+02  0.00000000000E+00 0.  1.
          2   -1    0    0  501    0  0.00000000000E+00 -0.00000000000E+00 -0.15446505458E+04  0.15446505458E+04  0.00000000000E+00 0. -1.
         25    2    1    2    0    0 -0.12610498008E+03  0.77059732712E+02 -0.12413081977E+04  0.12563179536E+04  0.12509232789E+03 0.  0.
          5    1    3    3  502    0 -0.11934594476E+02 -0.10380158884E+02 -0.17028508274E+02  0.23614079228E+02  0.41800000000E+01 0.  1.
         -5    1    3    3    0  502 -0.11417038560E+03  0.87439891596E+02 -0.12242796894E+04  0.12327038744E+04  0.41800000000E+01 0.  1.
        -11    1    1    2    0    0  0.27860898603E+02 -0.20594741749E+02 -0.79603145761E+01  0.35549116259E+02  0.00000000000E+00 0.  1.
         11    1    1    2    0    0  0.98244081474E+02 -0.56464990963E+02 -0.26237078583E+03  0.28579472355E+03  0.00000000000E+00 0. -1.
</event>
<event>
 7    1  0.2878477E-009  0.1119054E+03  0.7561462E-02  0.1257082E+00
          1   -1    0    0  501    0  0.00000000000E+00  0.00000000000E+00  0.39985388557E+03  0.39985388557E+03  0.00000000000E+00 0. -1.
         -1   -1    0    0    0  501 -0.00000000000E+00 -0.00000000000E+00 -0.50783162696E+02  0.50783162696E+02  0.00000000000E+00 0.  1.
         25    2    1    2    0    0 -0.68252815517E+02  0.53567519076E+02  0.23571832976E+03  0.28060931277E+03  0.12510207631E+03 0.  0.
          5    1    3    3  502    0  0.80703685558E+00  0.33802878780E+02 -0.87201754449E-01  0.34070015064E+02  0.41800000000E+01 0.  1.
         -5    1    3    3    0  502 -0.69059852372E+02  0.19764640296E+02  0.23580553152E+03  0.24653929770E+03  0.41800000000E+01 0.  1.
        -11    1    1    2    0    0 -0.10805820558E+02  0.11216699012E+02 -0.22302214038E+01  0.15733848295E+02  0.00000000000E+00 0.  1.
         11    1    1    2    0    0  0.79058636075E+02 -0.64784218089E+02  0.11558261452E+03  0.15429388721E+03  0.00000000000E+00 0. -1.
</event>
<event>
 7    1  0.2878477E-009  0.1360451E+03  0.7561462E-02  0.1218752E+00
          3   -1    0    0  501    0  0.00000000000E+00  0.00000000000E+00  0.11075675909E+03  0.11075675909E+03  0.00000000000E+00 0. -1.
         -3   -1    0    0    0  501 -0.00000000000E+00 -0.00000000000E+00 -0.19229707710E+03  0.19229707710E+03  0.00000000000E+00 0.  1.
         25    2    1    2    0    0  0.94399935100E+02  0.26362095117E+01 -0.77468027356E+02  0.17483408224E+03  0.12508942282E+03 0.  0.
          5    1    3    3  502    0  0.60704352891E+02  0.60475258529E+02 -0.62429683343E+02  0.10610001469E+03  0.41800000000E+01 0.  1.
         -5    1    3    3    0  502  0.33695582209E+02 -0.57839049017E+02 -0.15038344013E+02  0.68734067552E+02  0.41800000000E+01 0.  1.
        -11    1    1    2    0    0 -0.10428094789E+03 -0.12792508090E+02 -0.19948508862E+02  0.10693973706E+03  0.00000000000E+00 0.  1.
         11    1    1    2    0    0  0.98810127894E+01  0.10156298579E+02  0.15876218212E+02  0.21280016900E+02  0.00000000000E+00 0. -1.
</event>
<event>
 7    1  0.2878477E-009  0.1027912E+03  0.7561462E-02  0.1274534E+00
         -1   -1    0    0    0  501 -0.00000000000E+00  0.00000000000E+00  0.42173547119E+02  0.42173547119E+02  0.00000000000E+00 0.  1.
          1   -1    0    0  501    0  0.00000000000E+00 -0.00000000000E+00 -0.41506195452E+03  0.41506195452E+03  0.00000000000E+00 0. -1.
         25    2    1    2    0    0 -0.32370652601E+00  0.70133094915E+02 -0.16005642594E+03  0.21490601236E+03  0.12509108233E+03 0.  0.
          5    1    3    3  502    0  0.34811759531E+02  0.48523720779E+02 -0.16269746434E+03  0.17336189715E+03  0.41800000000E+01 0.  1.
         -5    1    3    3    0  502 -0.35135466057E+02  0.21609374136E+02  0.26410384013E+01  0.41544115220E+02  0.41800000000E+01 0.  1.
        -11    1    1    2    0    0 -0.12344731028E+01  0.17032557082E+02 -0.63884410098E+01  0.18233049749E+02  0.00000000000E+00 0.  1.
         11    1    1    2    0    0  0.15581796288E+01 -0.87165651997E+02 -0.20644354045E+03  0.22409643952E+03  0.00000000000E+00 0. -1.
</event>
<event>
 6    1  0.4059093E-009  0.6596358E+02  0.7561462E-02  0.1374383E+00
         -4   -1    0    0    0  501 -0.00000000000E+00  0.00000000000E+00  0.52438249774E+02  0.52438249774E+02  0.00000000000E+00 0.  1.
          4   -1    0    0  501    0  0.00000000000E+00 -0.00000000000E+00 -0.25223997923E+03  0.25223997923E+03  0.00000000000E+00 0. -1.
          5    1    1    2  502    0 -0.12589444254E+02 -0.20816920066E+02  0.12795499146E+02  0.27803515354E+02  0.41800000000E+01 0.  1.
         -5    1    1    2    0  502  0.17760854469E+02  0.14735169161E+02 -0.17696490508E+03  0.17851224941E+03  0.41800000000E+01 0.  1.
        -11    1    1    2    0    0  0.95921222829E+01 -0.37013361828E+02  0.33818333139E+01  0.38385343040E+02  0.00000000000E+00 0.  1.
         11    1    1    2    0    0 -0.14763532498E+02  0.43095112733E+02 -0.39014156839E+02  0.59977121198E+02  0.00000000000E+00 0. -1.
</event>
<event>
 7    1  0.2878477E-009  0.1159246E+03  0.7561462E-02  0.1249976E+00
         -1   -1    0    0    0  501 -0.00000000000E+00  0.00000000000E+00  0.42215488856E+02  0.42215488856E+02  0.00000000000E+00 0.  1.
          1   -1    0    0  501    0  0.00000000000E+00 -0.00000000000E+00 -0.68677395435E+03  0.68677395435E+03  0.00000000000E+00 0. -1.
         25    2    1    2    0    0 -0.38951713041E+01  0.48975902569E+02 -0.60776903066E+03  0.62244664458E+03  0.12507125700E+03 0.  0.
          5    1    3    3  502    0  0.26259353064E+02  0.83917639914E+02 -0.39986256617E+03  0.40943774635E+03  0.41800000000E+01 0.  1.
         -5    1    3    3    0  502 -0.30154524368E+02 -0.34941737345E+02 -0.20790646449E+03  0.21300889823E+03  0.41800000000E+01 0.  1.
        -11    1    1    2    0    0  0.42435616231E+02 -0.12078024668E+02 -0.49212431393E+01  0.44394581188E+02  0.00000000000E+00 0.  1.
         11    1    1    2    0    0 -0.38540444927E+02 -0.36897877901E+02 -0.31868191693E+02  0.62148217436E+02  0.00000000000E+00 0. -1.
</event>
<event>
 7    1  0.2878477E-009  0.5264571E+02  0.7561462E-02  0.1431572E+00
          2   -1    0    0  501    0  0.00000000000E+00  0.00000000000E+00  0.19017787498E+03  0.19017787498E+03  0.00000000000E+00 0. -1.
         -2   -1    0    0    0  501 -0.00000000000E+00 -0.00000000000E+00 -0.66874562279E+02  0.66874562279E+02  0.00000000000E+00 0.  1.
         25    2    1    2    0    0  0.16398454224E+02  0.15166609346E+02  0.88666132496E+02  0.15491879145E+03  0.12505684128E+03 0.  0.
          5    1    3    3  502    0 -0.88305909706E+01  0.96066222043E+00  0.11508397867E+03  0.11550193399E+03  0.41800000000E+01 0.  1.
         -5    1    3    3    0  502  0.25229045195E+02  0.14205947126E+02 -0.26417846176E+02  0.39416857457E+02  0.41800000000E+01 0.  1.
        -11    1    1    2    0    0 -0.30897028504E+02 -0.31675525520E+02 -0.15906342860E+02  0.47021027536E+02  0.00000000000E+00 0.  1.
         11    1    1    2    0    0  0.14498574280E+02  0.16508916174E+02  0.50543523063E+02  0.55112618274E+02  0.00000000000E+00 0. -1.
</event>
<event>
 7    1  0.2878477E-009  0.1116231E+03  0.7561462E-02  0.1257593E+00
         -2   -1    0    0    0  501 -0.00000000000E+00  0.00000000000E+00  0.14193976222E+02  0.14193976222E+02  0.00000000000E+00 0.  1.
          2   -1    0    0  501    0  0.00000000000E+00 -0.00000000000E+00 -0.11422509152E+04  0.11422509152E+04  0.00000000000E+00 0. -1.
         25    2    1    2    0    0 -0.23474801311E+02 -0.36096310913E+02 -0.87630656517E+03  0.88623692910E+03  0.12509471761E+03 0.  0.
          5    1    3    3  502    0 -0.46610385613E+02 -0.74051776712E+02 -0.59203405486E+03  0.59847973081E+03  0.41800000000E+01 0.  1.
         -5    1    3    3    0  502  0.23135584302E+02  0.37955465799E+02 -0.28427251031E+03  0.28775719828E+03  0.41800000000E+01 0.  1.
        -11    1    1    2    0    0  0.28616635911E+02  0.60039631876E+02 -0.13007958837E+03  0.14609712029E+03  0.00000000000E+00 0. -1.
         11    1    1    2    0    0 -0.51418346000E+01 -0.23943320963E+02 -0.12167078547E+03  0.12411084207E+03  0.00000000000E+00 0.  1.
</event>
<event>
 7    1  0.2878477E-009  0.9156937E+02  0.7561462E-02  0.1299095E+00
          1   -1    0    0  501    0  0.00000000000E+00  0.00000000000E+00  0.30271924077E+03  0.30271924077E+03  0.00000000000E+00 0. -1.
         -1   -1    0    0    0  501 -0.00000000000E+00 -0.00000000000E+00 -0.66659288065E+02  0.66659288065E+02  0.00000000000E+00 0.  1.
         25    2    1    2    0    0 -0.63868920643E+01 -0.62462077808E+02  0.21560791963E+03  0.25705444293E+03  0.12509159870E+03 0.  0.
          5    1    3    3  502    0 -0.50936903060E+02 -0.53892234971E+02  0.19173879483E+03  0.20562144569E+03  0.41800000000E+01 0. -1.
         -5    1    3    3    0  502  0.44550010996E+02 -0.85698428366E+01  0.23869124803E+02  0.51432997238E+02  0.41800000000E+01 0. -1.
        -11    1    1    2    0    0 -0.44041517406E+00  0.35217018551E+02  0.56528762084E+02  0.66602802523E+02  0.00000000000E+00 0. -1.
         11    1    1    2    0    0  0.68273072384E+01  0.27245059257E+02 -0.36076729015E+02  0.45721283386E+02  0.00000000000E+00 0.  1.
</event>
<event>
 7    1  0.2878477E-009  0.1050552E+03  0.7561462E-02  0.1270011E+00
          2   -1    0    0  501    0  0.00000000000E+00  0.00000000000E+00  0.35927529258E+03  0.35927529258E+03  0.00000000000E+00 0. -1.
         -2   -1    0    0    0  501 -0.00000000000E+00 -0.00000000000E+00 -0.39461753853E+02  0.39461753853E+02  0.00000000000E+00 0.  1.
         25    2    1    2    0    0 -0.21488011439E+02 -0.43950414354E+02  0.18115001822E+03  0.22551350505E+03  0.12509052043E+03 0.  0.
          5    1    3    3  502    0 -0.25792069246E+02  0.27672268668E+02  0.13461219742E+03  0.13988888942E+03  0.41800000000E+01 0.  1.
         -5    1    3    3    0  502  0.43040578070E+01 -0.71622683022E+02  0.46537820800E+02  0.85624615630E+02  0.41800000000E+01 0.  1.
        -11    1    1    2    0    0 -0.21216998784E+02 -0.15999367723E+02  0.59300458301E+02  0.64982191096E+02  0.00000000000E+00 0.  1.
         11    1    1    2    0    0  0.42705010223E+02  0.59949782077E+02  0.79363062210E+02  0.10824135029E+03  0.00000000000E+00 0. -1.
</event>
<event>
 7    1  0.2878477E-009  0.9950524E+02  0.7561462E-02  0.1281340E+00
          1   -1    0    0  501    0  0.00000000000E+00  0.00000000000E+00  0.10532917293E+04  0.10532917293E+04  0.00000000000E+00 0. -1.
         -1   -1    0    0    0  501 -0.00000000000E+00 -0.00000000000E+00 -0.16162533974E+02  0.16162533974E+02  0.00000000000E+00 0.  1.
         25    2    1    2    0    0  0.69525728417E+02  0.45542868532E+01  0.66138836341E+03  0.67671019980E+03  0.12509020269E+03 0.  0.
          5    1    3    3  502    0  0.80033494191E+02 -0.10737164121E+02  0.64898840651E+03  0.65400617052E+03  0.41800000000E+01 0.  1.
         -5    1    3    3    0  502 -0.10507765774E+02  0.15291450974E+02  0.12399956902E+02  0.22704029282E+02  0.41800000000E+01 0.  1.
        -11    1    1    2    0    0 -0.19124472760E+01 -0.27625732563E+02  0.35183696925E+02  0.44774223428E+02  0.00000000000E+00 0.  1.
         11    1    1    2    0    0 -0.67613281141E+02  0.23071445710E+02  0.34055713502E+03  0.34796984008E+03  0.00000000000E+00 0. -1.
</event>
<event>
 7    1  0.2878477E-009  0.1167624E+03  0.7561462E-02  0.1248536E+00
          2   -1    0    0  501    0  0.00000000000E+00  0.00000000000E+00  0.18822580513E+02  0.18822580513E+02  0.00000000000E+00 0. -1.
         -2   -1    0    0    0  501 -0.00000000000E+00 -0.00000000000E+00 -0.83924761206E+03  0.83924761206E+03  0.00000000000E+00 0.  1.
         25    2    1    2    0    0 -0.56207478827E+02 -0.17088613023E+02 -0.53742075187E+03  0.55490552060E+03  0.12509105039E+03 0.  0.
          5    1    3    3  502    0 -0.24591480693E+02  0.52426364150E+02 -0.29670299251E+03  0.30232995675E+03  0.41800000000E+01 0.  1.
         -5    1    3    3    0  502 -0.31615998133E+02 -0.69514977173E+02 -0.24071775935E+03  0.25257556386E+03  0.41800000000E+01 0.  1.
        -11    1    1    2    0    0 -0.95209098887E+00 -0.26864158691E+02 -0.30921001372E+02  0.40971915080E+02  0.00000000000E+00 0. -1.
         11    1    1    2    0    0  0.57159569816E+02  0.43952771715E+02 -0.25208327831E+03  0.26219275689E+03  0.00000000000E+00 0.  1.
</event>
<event>
 7    1  0.2878477E-009  0.9806980E+02  0.7561462E-02  0.1284408E+00
         -2   -1    0    0    0  501 -0.00000000000E+00  0.00000000000E+00  0.76287075425E+02  0.76287075425E+02  0.00000000000E+00 0.  1.
          2   -1    0    0  501    0  0.00000000000E+00 -0.00000000000E+00 -0.17778687600E+03  0.17778687600E+03  0.00000000000E+00 0. -1.
         25    2    1    2    0    0  0.16142383420E+02  0.34158793664E+02 -0.89930205165E+02  0.15862755888E+03  0.12509141021E+03 0.  0.
          5    1    3    3  502    0  0.68879831301E+02  0.34196953852E+02 -0.61578116397E+02  0.98606285965E+02  0.41800000000E+01 0. -1.
         -5    1    3    3    0  502 -0.52737447881E+02 -0.38160188563E-01 -0.28352088768E+02  0.60021272918E+02  0.41800000000E+01 0. -1.
        -11    1    1    2    0    0 -0.69522566642E+01  0.14829736836E+02  0.27573053274E+02  0.32070675612E+02  0.00000000000E+00 0.  1.
         11    1    1    2    0    0 -0.91901267561E+01 -0.48988530500E+02 -0.39142648689E+02  0.63375716933E+02  0.00000000000E+00 0. -1.
</event>
<event>
 7    1  0.2878477E-009  0.1378213E+03  0.7561462E-02  0.1216291E+00
          2   -1    0    0  501    0  0.00000000000E+00  0.00000000000E+00  0.59131570058E+03  0.59131570058E+03  0.00000000000E+00 0. -1.
         -2   -1    0    0    0  501 -0.00000000000E+00 -0.00000000000E+00 -0.45334680980E+02  0.45334680980E+02  0.00000000000E+00 0.  1.
         25    2    1    2    0    0  0.91880254268E+02  0.79587626146E+02  0.27054893175E+03  0.32190238985E+03  0.12509297646E+03 0.  0.
          5    1    3    3  502    0  0.70768062671E+02  0.70427220360E+02  0.74956223903E+02  0.12491605167E+03  0.41800000000E+01 0.  1.
         -5    1    3    3    0  502  0.21112191597E+02  0.91604057865E+01  0.19559270785E+03  0.19698633819E+03  0.41800000000E+01 0.  1.
        -11    1    1    2    0    0 -0.40978379789E+02 -0.91315573581E+02  0.18010908037E+03  0.20605106751E+03  0.00000000000E+00 0.  1.
         11    1    1    2    0    0 -0.50901874479E+02  0.11727947435E+02  0.95323007471E+02  0.10869692420E+03  0.00000000000E+00 0. -1.
</event>
<event>
 7    1  0.2878477E-009  0.1238127E+03  0.7561462E-02  0.1236937E+00
         -2   -1    0    0    0  501 -0.00000000000E+00  0.00000000000E+00  0.27498721234E+02  0.27498721234E+02  0.00000000000E+00 0.  1.
          2   -1    0    0  501    0  0.00000000000E+00 -0.00000000000E+00 -0.64364216638E+03  0.64364216638E+03  0.00000000000E+00 0. -1.
         25    2    1    2    0    0 -0.27368663143E+02 -0.47115800048E+02 -0.21390871133E+03  0.25371805627E+03  0.12508786096E+03 0.  0.
          5    1    3    3  502    0 -0.69446045910E+02  0.43687385427E+01 -0.10431906595E+03  0.12546624681E+03  0.41800000000E+01 0. -1.
         -5    1    3    3    0  502  0.42077382767E+02 -0.51484538591E+02 -0.10958964538E+03  0.12825180945E+03  0.41800000000E+01 0. -1.
        -11    1    1    2    0    0 -0.32450479232E+02 -0.38878495571E+01 -0.13204498544E+03  0.13602950840E+03  0.00000000000E+00 0.  1.
         11    1    1    2    0    0  0.59819142375E+02  0.51003649605E+02 -0.27018974839E+03  0.28139332295E+03  0.00000000000E+00 0. -1.
</event>
<event>
 7    1  0.2878477E-009  0.9974354E+02  0.7561462E-02  0.1280836E+00
         -1   -1    0    0    0  501 -0.00000000000E+00  0.00000000000E+00  0.19824607165E+02  0.19824607165E+02  0.00000000000E+00 0.  1.
          1   -1    0    0  501    0  0.00000000000E+00 -0.00000000000E+00 -0.73241598816E+03  0.73241598816E+03  0.00000000000E+00 0. -1.
         25    2    1    2    0    0 -0.26041375743E+01  0.39697046079E+02 -0.49815734882E+03  0.51516072176E+03  0.12508872078E+03 0.  0.
          5    1    3    3  502    0  0.67474132744E+01 -0.28438362513E+02 -0.35562232143E+03  0.35684587142E+03  0.41800000000E+01 0. -1.
         -5    1    3    3    0  502 -0.93515508487E+01  0.68135408593E+02 -0.14253502739E+03  0.15831485035E+03  0.41800000000E+01 0. -1.
        -11    1    1    2    0    0 -0.58964848277E+01  0.30138430649E+02 -0.61530513903E+02  0.68768435176E+02  0.00000000000E+00 0. -1.
         11    1    1    2    0    0  0.85006224020E+01 -0.69835476729E+02 -0.15290351827E+03  0.16831143838E+03  0.00000000000E+00 0.  1.
</event>
<event>
 7    1  0.2878477E-009  0.1662886E+03  0.7561462E-02  0.1181774E+00
          2   -1    0    0  501    0  0.00000000000E+00  0.00000000000E+00  0.26972102531E+02  0.26972102531E+02  0.00000000000E+00 0.  1.
         -2   -1    0    0    0  501 -0.00000000000E+00 -0.00000000000E+00 -0.10882997479E+04  0.10882997479E+04  0.00000000000E+00 0. -1.
         25    2    1    2    0    0  0.53366713997E+02  0.11881274178E+03 -0.61438617277E+03  0.64037653357E+03  0.12508901504E+03 0.  0.
          5    1    3    3  502    0 -0.22861432487E+02  0.91950747669E+02 -0.25700595096E+03  0.27394728749E+03  0.41800000000E+01 0.  1.
         -5    1    3    3    0  502  0.76228146483E+02  0.26861994114E+02 -0.35738022181E+03  0.36642924608E+03  0.41800000000E+01 0.  1.
        -11    1    1    2    0    0  0.16409609677E+02 -0.69374713348E+02 -0.25476508135E+03  0.26455126689E+03  0.00000000000E+00 0. -1.
         11    1    1    2    0    0 -0.69776323673E+02 -0.49438028436E+02 -0.19217639124E+03  0.21034404995E+03  0.00000000000E+00 0.  1.
</event>
<event>
 7    1  0.3246567E-009  0.9615660E+02  0.7561462E-02  0.1288592E+00
          2   -1    0    0  501    0  0.00000000000E+00  0.00000000000E+00  0.70025657006E+03  0.70025657006E+03  0.00000000000E+00 0. -1.
         -2   -1    0    0    0  501 -0.00000000000E+00 -0.00000000000E+00 -0.21515904961E+02  0.21515904961E+02  0.00000000000E+00 0.  1.
         25    2    1    2    0    0 -0.34020245317E+02  0.29132564398E+02  0.48280038676E+03  0.50075230336E+03  0.12510224804E+03 0.  0.
          5    1    3    3  502    0 -0.60373498181E+02 -0.12804285543E+02  0.39537434740E+03  0.40018402766E+03  0.41800000000E+01 0. -1.
         -5    1    3    3    0  502  0.26353252865E+02  0.41936849941E+02  0.87426039358E+02  0.10056827570E+03  0.41800000000E+01 0. -1.
        -11    1    1    2    0    0  0.32287707988E+02  0.15686895755E+02  0.23649852700E+02  0.42987094787E+02  0.00000000000E+00 0.  1.
         11    1    1    2    0    0  0.17325373293E+01 -0.44819460153E+02  0.17229042564E+03  0.17803307688E+03  0.00000000000E+00 0. -1.
</event>
<event>
 7    1  0.2878477E-009  0.1928117E+03  0.7561462E-02  0.1155950E+00
          4   -1    0    0  501    0  0.00000000000E+00  0.00000000000E+00  0.64019904739E+03  0.64019904739E+03  0.00000000000E+00 0. -1.
         -4   -1    0    0    0  501 -0.00000000000E+00 -0.00000000000E+00 -0.17396218788E+03  0.17396218788E+03  0.00000000000E+00 0.  1.
         25    2    1    2    0    0  0.75678925646E+02 -0.15578374377E+03 -0.83830719259E+02  0.22950180235E+03  0.12509042002E+03 0.  0.
          5    1    3    3  502    0  0.86189091854E+02 -0.10000234794E+03 -0.10504207777E+03  0.16876119118E+03  0.41800000000E+01 0.  1.
         -5    1    3    3    0  502 -0.10510166208E+02 -0.55781395834E+02  0.21211358510E+02  0.60740611165E+02  0.41800000000E+01 0.  1.
        -11    1    1    2    0    0 -0.76131024685E+02  0.50545983750E+02  0.22012428192E+03  0.23833910481E+03  0.00000000000E+00 0. -1.
         11    1    1    2    0    0  0.45209903959E+00  0.10523776002E+03  0.32994329686E+03  0.34632032812E+03  0.00000000000E+00 0.  1.
</event>
<event>
 7    1  0.2878477E-009  0.1103541E+03  0.7561462E-02  0.1259916E+00
          2   -1    0    0  501    0  0.00000000000E+00  0.00000000000E+00  0.17502566557E+03  0.17502566557E+03  0.00000000000E+00 0.  1.
         -2   -1    0    0    0  501 -0.00000000000E+00 -0.00000000000E+00 -0.15615215065E+03  0.15615215065E+03  0.00000000000E+00 0. -1.
         25    2    1    2    0    0 -0.56260664106E+02  0.18178696592E+02 -0.85387718516E+02  0.16258635800E+03  0.12509010351E+03 0.  0.
          5    1    3    3  502    0 -0.67506361818E+02  0.35149659134E+02 -0.15802168627E+01  0.76240257794E+02  0.41800000000E+01 0.  1.
         -5    1    3    3    0  502  0.11245697712E+02 -0.16970962542E+02 -0.83807501654E+02  0.86346100202E+02  0.41800000000E+01 0.  1.
        -11    1    1    2    0    0  0.50411658337E+02  0.40540847732E+02  0.84375364094E+02  0.10632073033E+03  0.00000000000E+00 0.  1.
         11    1    1    2    0    0  0.58490057688E+01 -0.58719544324E+02  0.19885869342E+02  0.62270727903E+02  0.00000000000E+00 0. -1.
</event>
<event>
 7    1  0.2878477E-009  0.1373879E+03  0.7561462E-02  0.1216888E+00
          2   -1    0    0  501    0  0.00000000000E+00  0.00000000000E+00  0.62073296807E+03  0.62073296807E+03  0.00000000000E+00 0. -1.
         -2   -1    0    0    0  501 -0.00000000000E+00 -0.00000000000E+00 -0.56537097854E+02  0.56537097854E+02  0.00000000000E+00 0.  1.
         25    2    1    2    0    0 -0.44814009881E+02 -0.12177606834E+03  0.15188910696E+03  0.23570219171E+03  0.12509003183E+03 0.  0.
          5    1    3    3  502    0 -0.96283498975E+01 -0.45715221387E+02 -0.14716670461E+02  0.49159326457E+02  0.41800000000E+01 0. -1.
         -5    1    3    3    0  502 -0.35185659984E+02 -0.76060846948E+02  0.16660577742E+03  0.18654286525E+03  0.41800000000E+01 0. -1.
        -11    1    1    2    0    0  0.61670737587E+01  0.98817442055E+02  0.35603628878E+03  0.36954669337E+03  0.00000000000E+00 0. -1.
         11    1    1    2    0    0  0.38646936123E+02  0.22958626281E+02  0.56270474480E+02  0.72021180847E+02  0.00000000000E+00 0.  1.
</event>
<event>
 7    1  0.2878477E-009  0.1810070E+03  0.7561462E-02  0.1166832E+00
          2   -1    0    0  501    0  0.00000000000E+00  0.00000000000E+00  0.13667268745E+03  0.13667268745E+03  0.00000000000E+00 0. -1.
         -2   -1    0    0    0  501 -0.00000000000E+00 -0.00000000000E+00 -0.25310372699E+03  0.25310372699E+03  0.00000000000E+00 0.  1.
         25    2    1    2    0    0  0.14515431035E+03 -0.41130767910E+02 -0.67135247729E+02  0.20716224382E+03  0.12509012709E+03 0.  0.
          5    1    3    3  502    0  0.15782290146E+03 -0.63020934661E+02 -0.62467181936E+02  0.18110584654E+03  0.41800000000E+01 0.  1.
         -5    1    3    3    0  502 -0.12668591112E+02  0.21890166751E+02 -0.46680657934E+01  0.26056397284E+02  0.41800000000E+01 0.  1.
        -11    1    1    2    0    0 -0.12237614781E+03  0.60475257437E+02 -0.62269403218E+02  0.15003551877E+03  0.00000000000E+00 0.  1.
         11    1    1    2    0    0 -0.22778162534E+02 -0.19344489527E+02  0.12973611406E+02  0.32578651850E+02  0.00000000000E+00 0. -1.
</event>
<event>
 7    1  0.2878477E-009  0.8277455E+02  0.7561462E-02  0.1321357E+00
         -1   -1    0    0    0  501 -0.00000000000E+00  0.00000000000E+00  0.32154031669E+03  0.32154031669E+03  0.00000000000E+00 0.  1.
          1   -1    0    0  501    0  0.00000000000E+00 -0.00000000000E+00 -0.10779649519E+03  0.10779649519E+03  0.00000000000E+00 0. -1.
         25    2    1    2    0    0  0.16100031998E+02 -0.69362585277E+02 -0.40141246465E+02  0.14943167126E+03  0.12509246756E+03 0.  0.
          5    1    3    3  502    0 -0.12411736324E+02 -0.30906007192E+02  0.42304300549E+02  0.54003321418E+02  0.41800000000E+01 0. -1.
         -5    1    3    3    0  502  0.28511768323E+02 -0.38456578085E+02 -0.82445547015E+02  0.95428349841E+02  0.41800000000E+01 0. -1.
        -11    1    1    2    0    0 -0.12966659197E+02 -0.14483084260E+01 -0.30277400520E+01  0.13393993350E+02  0.00000000000E+00 0. -1.
         11    1    1    2    0    0 -0.31333728013E+01  0.70810893703E+02  0.25691280802E+03  0.26651114727E+03  0.00000000000E+00 0.  1.
</event>
<event>
 7    1  0.2878477E-009  0.9817542E+02  0.7561462E-02  0.1284180E+00
         -1   -1    0    0    0  501 -0.00000000000E+00  0.00000000000E+00  0.42330153593E+03  0.42330153593E+03  0.00000000000E+00 0.  1.
          1   -1    0    0  501    0  0.00000000000E+00 -0.00000000000E+00 -0.41569003025E+02  0.41569003025E+02  0.00000000000E+00 0. -1.
         25    2    1    2    0    0  0.47394193922E+02  0.21415104026E+02  0.30878175791E+03  0.33719287789E+03  0.12509215238E+03 0.  0.
          5    1    3    3  502    0  0.67601934461E+02 -0.30899268039E+02  0.13038029917E+03  0.15013754067E+03  0.41800000000E+01 0. -1.
         -5    1    3    3    0  502 -0.20207740539E+02  0.52314372065E+02  0.17840145874E+03  0.18705533722E+03  0.41800000000E+01 0. -1.
        -11    1    1    2    0    0 -0.90987649534E+01 -0.25576244186E+02 -0.15459575763E+02  0.31239882732E+02  0.00000000000E+00 0. -1.
         11    1    1    2    0    0 -0.38295428969E+02  0.41611401609E+01  0.88410350763E+02  0.96437778331E+02  0.00000000000E+00 0.  1.
</event>
<event>
 7    1  0.2878477E-009  0.6761395E+02  0.7561462E-02  0.1368400E+00
         -1   -1    0    0    0  501 -0.00000000000E+00  0.00000000000E+00  0.64372209983E+02  0.64372209983E+02  0.00000000000E+00 0.  1.
          1   -1    0    0  501    0  0.00000000000E+00 -0.00000000000E+00 -0.21928482838E+03  0.21928482838E+03  0.00000000000E+00 0. -1.
         25    2    1    2    0    0  0.15718569273E+02 -0.28923452655E+02 -0.44575415186E+02  0.13683194265E+03  0.12510944552E+03 0.  0.
          5    1    3    3  502    0  0.15209647770E+02  0.15736391621E+02  0.37314630154E+02  0.43460573283E+02  0.41800000000E+01 0.  1.
         -5    1    3    3    0  502  0.50892150236E+00 -0.44659844276E+02 -0.81890045340E+02  0.93371369368E+02  0.41800000000E+01 0.  1.
        -11    1    1    2    0    0  0.82819136963E+01 -0.15513031591E+02  0.71187386280E+01  0.18971575667E+02  0.00000000000E+00 0.  1.
         11    1    1    2    0    0 -0.24000482969E+02  0.44436484246E+02 -0.11745594184E+03  0.12785352005E+03  0.00000000000E+00 0. -1.
</event>
<event>
 7    1  0.2878477E-009  0.1329056E+03  0.7561462E-02  0.1223207E+00
         -1   -1    0    0    0  501 -0.00000000000E+00  0.00000000000E+00  0.19448496011E+02  0.19448496011E+02  0.00000000000E+00 0.  1.
          1   -1    0    0  501    0  0.00000000000E+00 -0.00000000000E+00 -0.93533427362E+03  0.93533427362E+03  0.00000000000E+00 0. -1.
         25    2    1    2    0    0 -0.25555048535E+02 -0.74857791481E+02 -0.52996732589E+03  0.55024492391E+03  0.12508940933E+03 0.  0.
          5    1    3    3  502    0 -0.75268293237E+02 -0.53895803843E+02 -0.29944220910E+03  0.31345363713E+03  0.41800000000E+01 0.  1.
         -5    1    3    3    0  502  0.49713244702E+02 -0.20961987637E+02 -0.23052511678E+03  0.23679128678E+03  0.41800000000E+01 0.  1.
        -11    1    1    2    0    0 -0.22620747563E+02 -0.73155961267E+01 -0.11300623016E+03  0.11547997325E+03  0.00000000000E+00 0. -1.
         11    1    1    2    0    0  0.48175796098E+02  0.82173387608E+02 -0.27291222157E+03  0.28905787248E+03  0.00000000000E+00 0.  1.
</event>
<event>
 7    1  0.2878477E-009  0.8573196E+02  0.7561462E-02  0.1313529E+00
          4   -1    0    0  501    0  0.00000000000E+00  0.00000000000E+00  0.14144604006E+03  0.14144604006E+03  0.00000000000E+00 0.  1.
         -4   -1    0    0    0  501 -0.00000000000E+00 -0.00000000000E+00 -0.12462182307E+03  0.12462182307E+03  0.00000000000E+00 0. -1.
         25    2    1    2    0    0  0.23456601911E+02 -0.67624890768E+02 -0.21065325834E+02  0.14566223254E+03  0.12510155879E+03 0.  0.
          5    1    3    3  502    0 -0.19569602470E+02 -0.47811021337E+02 -0.63473127261E+02  0.81946161511E+02  0.41800000000E+01 0. -1.
         -5    1    3    3    0  502  0.43026204381E+02 -0.19813869431E+02  0.42407801427E+02  0.63716071027E+02  0.41800000000E+01 0. -1.
        -11    1    1    2    0    0 -0.45272741602E+01  0.25492583731E+02  0.62799482938E+02  0.67927484083E+02  0.00000000000E+00 0.  1.
         11    1    1    2    0    0 -0.18929327751E+02  0.42132307037E+02 -0.24909940115E+02  0.52478146517E+02  0.00000000000E+00 0. -1.
</event>
<event>
 7    1  0.2878477E-009  0.1357237E+03  0.7561462E-02  0.1219202E+00
         -1   -1    0    0    0  501 -0.00000000000E+00  0.00000000000E+00  0.65521038016E+02  0.65521038016E+02  0.00000000000E+00 0.  1.
          1   -1    0    0  501    0  0.00000000000E+00 -0.00000000000E+00 -0.39367332838E+03  0.39367332838E+03  0.00000000000E+00 0. -1.
         25    2    1    2    0    0  0.93090851654E+02  0.32691786989E+01 -0.72463012080E+02  0.17197481594E+03  0.12509138663E+03 0.  0.
          5    1    3    3  502    0  0.34728825974E+02 -0.50355164298E+02 -0.69321255313E+02  0.92545355169E+02  0.41800000000E+01 0.  1.
         -5    1    3    3    0  502  0.58362025679E+02  0.53624342997E+02 -0.31417567666E+01  0.79429460774E+02  0.41800000000E+01 0.  1.
        -11    1    1    2    0    0 -0.66421630135E+02  0.41742068039E+02 -0.15790912941E+03  0.17632222306E+03  0.00000000000E+00 0.  1.
         11    1    1    2    0    0 -0.26669221519E+02 -0.45011246738E+02 -0.97780148880E+02  0.11089732740E+03  0.00000000000E+00 0. -1.
</event>
<event>
 7    1  0.2878477E-009  0.8451734E+02  0.7561462E-02  0.1316700E+00
          2   -1    0    0  501    0  0.00000000000E+00  0.00000000000E+00  0.82181781429E+03  0.82181781429E+03  0.00000000000E+00 0.  1.
         -2   -1    0    0    0  501 -0.00000000000E+00 -0.00000000000E+00 -0.26960004701E+02  0.26960004701E+02  0.00000000000E+00 0. -1.
         25    2    1    2    0    0  0.27630836003E+02  0.31638820605E+02  0.69613021289E+03  0.70852723620E+03  0.12509633517E+03 0.  0.
          5    1    3    3  502    0 -0.14178994290E+02 -0.46346240877E+01  0.57582446778E+03  0.57603282347E+03  0.41800000000E+01 0.  1.
         -5    1    3    3    0  502  0.41809830293E+02  0.36273444692E+02  0.12030574511E+03  0.13249441273E+03  0.41800000000E+01 0.  1.
        -11    1    1    2    0    0 -0.44246639890E+02  0.16410851561E+02  0.60020753047E+02  0.76351633819E+02  0.00000000000E+00 0. -1.
         11    1    1    2    0    0  0.16615803887E+02 -0.48049672166E+02  0.38706843650E+02  0.63898948969E+02  0.00000000000E+00 0.  1.
</event>
<event>
 7    1  0.2878477E-009  0.7062286E+02  0.7561462E-02  0.1357988E+00
         -3   -1    0    0    0  501 -0.00000000000E+00  0.00000000000E+00  0.10286386696E+03  0.10286386696E+03  0.00000000000E+00 0.  1.
          3   -1    0    0  501    0  0.00000000000E+00 -0.00000000000E+00 -0.12867998146E+03  0.12867998146E+03  0.00000000000E+00 0. -1.
         25    2    1    2    0    0 -0.42779300311E+02 -0.22999069031E+02 -0.20773671549E+02  0.13579542204E+03  0.12509926261E+03 0.  0.
          5    1    3    3  502    0 -0.59535101804E+02 -0.30249410685E+01  0.38376224435E+02  0.71019614313E+02  0.41800000000E+01 0. -1.
         -5    1    3    3    0  502  0.16755801493E+02 -0.19974127963E+02 -0.59149895985E+02  0.64775807726E+02  0.41800000000E+01 0. -1.
        -11    1    1    2    0    0  0.25973266834E+02 -0.75580431504E+00  0.36637106424E+02  0.44916137382E+02  0.00000000000E+00 0.  1.
         11    1    1    2    0    0  0.16806033477E+02  0.23754873346E+02 -0.41679549375E+02  0.50832289000E+02  0.00000000000E+00 0. -1.
</event>
<event>
 7    1  0.2878477E-009  0.1061236E+03  0.7561462E-02  0.1267922E+00
          1   -1    0    0  501    0  0.00000000000E+00  0.00000000000E+00  0.41545457181E+03  0.41545457181E+03  0.00000000000E+00 0. -1.
         -1   -1    0    0    0  501 -0.00000000000E+00 -0.00000000000E+00 -0.49423898203E+02  0.49423898203E+02  0.00000000000E+00 0.  1.
         25    2    1    2    0    0 -0.50331606985E+02 -0.33458770860E+02  0.84218160614E+02  0.16246026390E+03  0.12509148157E+03 0.  0.
          5    1    3    3  502    0  0.94026543872E+01  0.19862196798E+02 -0.20655897612E+02  0.30447582455E+02  0.41800000000E+01 0. -1.
         -5    1    3    3    0  502 -0.59734261372E+02 -0.53320967658E+02  0.10487405823E+03  0.13201268145E+03  0.41800000000E+01 0. -1.
        -11    1    1    2    0    0  0.49367223172E+02 -0.22130349114E+02  0.14200612905E+03  0.15196254724E+03  0.00000000000E+00 0.  1.
         11    1    1    2    0    0  0.96438381272E+00  0.55589119974E+02  0.13980638394E+03  0.15045565887E+03  0.00000000000E+00 0. -1.
</event>
<event>
 7    1  0.2878477E-009  0.1046236E+03  0.7561462E-02  0.1270863E+00
          1   -1    0    0  501    0  0.00000000000E+00  0.00000000000E+00  0.49581937176E+03  0.49581937176E+03  0.00000000000E+00 0. -1.
         -1   -1    0    0    0  501 -0.00000000000E+00 -0.00000000000E+00 -0.33402454032E+02  0.33402454032E+02  0.00000000000E+00 0.  1.
         25    2    1    2    0    0 -0.45593093356E+02  0.20189126847E+02  0.35530162910E+03  0.37996494301E+03  0.12509108389E+03 0.  0.
          5    1    3    3  502    0 -0.34140898959E+02  0.71510271778E+02  0.24822968565E+03  0.26060462235E+03  0.41800000000E+01 0.  1.
         -5    1    3    3    0  502 -0.11452194397E+02 -0.51321144931E+02  0.10707194345E+03  0.11936032066E+03  0.41800000000E+01 0.  1.
        -11    1    1    2    0    0  0.39297930082E+02 -0.40170546776E+02  0.19985832554E+02  0.59644225537E+02  0.00000000000E+00 0.  1.
         11    1    1    2    0    0  0.62951632733E+01  0.19981419929E+02  0.87129456078E+02  0.89612657250E+02  0.00000000000E+00 0. -1.
</event>
<event>
 7    1  0.2878477E-009  0.8050130E+02  0.7561462E-02  0.1327635E+00
         -1   -1    0    0    0  501 -0.00000000000E+00  0.00000000000E+00  0.51846312356E+02  0.51846312356E+02  0.00000000000E+00 0.  1.
          1   -1    0    0  501    0  0.00000000000E+00 -0.00000000000E+00 -0.32602499912E+03  0.32602499912E+03  0.00000000000E+00 0. -1.
         25    2    1    2    0    0  0.42192887357E+02 -0.58861264915E+02 -0.14648808473E+03  0.20582118580E+03  0.12513478057E+03 0.  0.
          5    1    3    3  502    0  0.10869940856E+02 -0.74970406417E+01  0.22485195275E+02  0.26408665986E+02  0.41800000000E+01 0.  1.
         -5    1    3    3    0  502  0.31322946501E+02 -0.51364224273E+02 -0.16897328000E+03  0.17941251982E+03  0.41800000000E+01 0.  1.
        -11    1    1    2    0    0 -0.29045940474E+02  0.65839232872E+02 -0.38474948629E+02  0.81601427164E+02  0.00000000000E+00 0.  1.
         11    1    1    2    0    0 -0.13146946883E+02 -0.69779679569E+01 -0.89215653409E+02  0.90448698511E+02  0.00000000000E+00 0. -1.
</event>
<event>
 7    1  0.2878477E-009  0.1457464E+03  0.7561462E-02  0.1205799E+00
          2   -1    0    0  501    0  0.00000000000E+00  0.00000000000E+00  0.10294135656E+04  0.10294135656E+04  0.00000000000E+00 0. -1.
         -2   -1    0    0    0  501 -0.00000000000E+00 -0.00000000000E+00 -0.29532612944E+02  0.29532612944E+02  0.00000000000E+00 0.  1.
         25    2    1    2    0    0  0.12621197450E+03  0.21587627613E+02  0.67741159957E+03  0.70066481947E+03  0.12509686583E+03 0.  0.
          5    1    3    3  502    0 -0.60733667906E+01  0.83058583794E+00 -0.23848428476E+01  0.77933004828E+01  0.41800000000E+01 0.  1.
         -5    1    3    3    0  502  0.13228534129E+03  0.20757041775E+02  0.67979644241E+03  0.69287151899E+03  0.41800000000E+01 0.  1.
        -11    1    1    2    0    0 -0.62172708077E+02 -0.50252581566E+02  0.12172251151E+03  0.14562670563E+03  0.00000000000E+00 0.  1.
         11    1    1    2    0    0 -0.64039266423E+02  0.28664953953E+02  0.20074684160E+03  0.21265465347E+03  0.00000000000E+00 0. -1.
</event>
<event>
 7    1  0.2878477E-009  0.1546071E+03  0.7561462E-02  0.1194923E+00
          1   -1    0    0  501    0  0.00000000000E+00  0.00000000000E+00  0.11828499643E+04  0.11828499643E+04  0.00000000000E+00 0. -1.
         -1   -1    0    0    0  501 -0.00000000000E+00 -0.00000000000E+00 -0.97219704470E+02  0.97219704470E+02  0.00000000000E+00 0.  1.
         25    2    1    2    0    0 -0.13693575366E+03 -0.11816233507E+02  0.10967832853E+04  0.11124173844E+04  0.12509131923E+03 0.  0.
          5    1    3    3  502    0 -0.90732409478E+02 -0.56411047234E+02  0.87434032228E+03  0.88085359053E+03  0.41800000000E+01 0.  1.
         -5    1    3    3    0  502 -0.46203344187E+02  0.44594813727E+02  0.22244296302E+03  0.23156379385E+03  0.41800000000E+01 0.  1.
        -11    1    1    2    0    0  0.16525830389E+02 -0.23927476055E+01 -0.39719803718E+02  0.43087017982E+02  0.00000000000E+00 0.  1.
         11    1    1    2    0    0  0.12040992328E+03  0.14208981112E+02  0.28566778203E+02  0.12456526636E+03  0.00000000000E+00 0. -1.
</event>
<event>
 7    1  0.2878477E-009  0.1019808E+03  0.7561462E-02  0.1276185E+00
          3   -1    0    0  501    0  0.00000000000E+00  0.00000000000E+00  0.11795732415E+03  0.11795732415E+03  0.00000000000E+00 0. -1.
         -3   -1    0    0    0  501 -0.00000000000E+00 -0.00000000000E+00 -0.14762992706E+03  0.14762992706E+03  0.00000000000E+00 0.  1.
         25    2    1    2    0    0 -0.57384341571E+02  0.51812282903E+02 -0.15344335962E+02  0.14785739578E+03  0.12509550561E+03 0.  0.
          5    1    3    3  502    0 -0.54179660181E+02 -0.17485991206E+02  0.30381192453E+02  0.64665947149E+02  0.41800000000E+01 0.  1.
         -5    1    3    3    0  502 -0.32046813896E+01  0.69298274109E+02 -0.45725528415E+02  0.83191448636E+02  0.41800000000E+01 0.  1.
        -11    1    1    2    0    0  0.28194538772E+02 -0.23329822356E+02 -0.51075921559E+02  0.62832813011E+02  0.00000000000E+00 0.  1.
         11    1    1    2    0    0  0.29189802799E+02 -0.28482460547E+02  0.36747654610E+02  0.54897042412E+02  0.00000000000E+00 0. -1.
</event>
<event>
 7    1  0.2878477E-009  0.8237630E+02  0.7561462E-02  0.1322440E+00
         -1   -1    0    0    0  501 -0.00000000000E+00  0.00000000000E+00  0.28489774775E+03  0.28489774775E+03  0.00000000000E+00 0.  1.
          1   -1    0    0  501    0  0.00000000000E+00 -0.00000000000E+00 -0.45840739445E+02  0.45840739445E+02  0.00000000000E+00 0. -1.
         25    2    1    2    0    0  0.19034292225E+02 -0.23350577942E+02  0.13893948518E+03  0.18937181567E+03  0.12509976122E+03 0.  0.
          5    1    3    3  502    0  0.47017496335E+02 -0.18074186238E+02  0.32345632697E+01  0.50648356037E+02  0.41800000000E+01 0.  1.
         -5    1    3    3    0  502 -0.27983204109E+02 -0.52763917040E+01  0.13570492191E+03  0.13872345963E+03  0.41800000000E+01 0.  1.
        -11    1    1    2    0    0  0.30091837505E+02  0.20110640384E+02  0.82245230762E+01  0.37116025123E+02  0.00000000000E+00 0. -1.
         11    1    1    2    0    0 -0.49126129730E+02  0.32399375583E+01  0.91893000049E+02  0.10425064640E+03  0.00000000000E+00 0.  1.
</event>
<event>
 7    1  0.2878477E-009  0.1279986E+03  0.7561462E-02  0.1230456E+00
          2   -1    0    0  501    0  0.00000000000E+00  0.00000000000E+00  0.38308443980E+03  0.38308443980E+03  0.00000000000E+00 0. -1.
         -2   -1    0    0    0  501 -0.00000000000E+00 -0.00000000000E+00 -0.56996593314E+02  0.56996593314E+02  0.00000000000E+00 0.  1.
         25    2    1    2    0    0  0.77894104017E+01  0.77874799273E+02  0.85045951525E+02  0.17030839784E+03  0.12508787801E+03 0.  0.
          5    1    3    3  502    0  0.36018100129E+02  0.10180734736E+03  0.49662800206E+02  0.11893656140E+03  0.41800000000E+01 0. -1.
         -5    1    3    3    0  502 -0.28228689727E+02 -0.23932548086E+02  0.35383151319E+02  0.51371836436E+02  0.41800000000E+01 0. -1.
        -11    1    1    2    0    0  0.28194881483E+02 -0.67622958584E+02  0.20548682601E+03  0.21815740082E+03  0.00000000000E+00 0. -1.
         11    1    1    2    0    0 -0.35984291885E+02 -0.10251840689E+02  0.35555068953E+02  0.51615234459E+02  0.00000000000E+00 0.  1.
</event>
<event>
 7    1  0.2878477E-009  0.1388614E+03  0.7561462E-02  0.1214869E+00
         -1   -1    0    0    0  501 -0.00000000000E+00  0.00000000000E+00  0.28736301951E+02  0.28736301951E+02  0.00000000000E+00 0.  1.
          1   -1    0    0  501    0  0.00000000000E+00 -0.00000000000E+00 -0.90911502411E+03  0.90911502411E+03  0.00000000000E+00 0. -1.
         25    2    1    2    0    0  0.10879571865E+03 -0.46347289423E+02 -0.41186444777E+03  0.44639175426E+03  0.12509474530E+03 0.  0.
          5    1    3    3  502    0  0.46197319637E+02  0.70885572412E+01 -0.31817000261E+03  0.32161166482E+03  0.41800000000E+01 0. -1.
         -5    1    3    3    0  502  0.62598399011E+02 -0.53435846664E+02 -0.93694445162E+02  0.12478008944E+03  0.41800000000E+01 0. -1.
        -11    1    1    2    0    0 -0.71632711949E+02  0.73292819235E+02 -0.31927074661E+03  0.33531610819E+03  0.00000000000E+00 0. -1.
         11    1    1    2    0    0 -0.37163006699E+02 -0.26945529813E+02 -0.14924352778E+03  0.15614346361E+03  0.00000000000E+00 0.  1.
</event>
<event>
 7    1  0.2878477E-009  0.1160284E+03  0.7561462E-02  0.1249797E+00
         -1   -1    0    0    0  501 -0.00000000000E+00  0.00000000000E+00  0.90059467770E+03  0.90059467770E+03  0.00000000000E+00 0. -1.
          1   -1    0    0  501    0  0.00000000000E+00 -0.00000000000E+00 -0.22017355590E+02  0.22017355590E+02  0.00000000000E+00 0.  1.
         25    2    1    2    0    0 -0.18963383645E+02  0.66804765753E+02  0.65060922063E+03  0.66615470463E+03  0.12508895186E+03 0.  0.
          5    1    3    3  502    0  0.19408629559E+02 -0.16040922151E+02  0.37331613560E+03  0.37418767428E+03  0.41800000000E+01 0.  1.
         -5    1    3    3    0  502 -0.38372013204E+02  0.82845687905E+02  0.27729308504E+03  0.29196703035E+03  0.41800000000E+01 0.  1.
        -11    1    1    2    0    0 -0.45174792256E+01 -0.85192716425E+02  0.14429935172E+03  0.16763206572E+03  0.00000000000E+00 0.  1.
         11    1    1    2    0    0  0.23480862871E+02  0.18387950671E+02  0.83668749750E+02  0.88825262937E+02  0.00000000000E+00 0. -1.
</event>
<event>
 7    1  0.2878477E-009  0.9789393E+02  0.7561462E-02  0.1284788E+00
         -2   -1    0    0    0  501 -0.00000000000E+00  0.00000000000E+00  0.89212153764E+02  0.89212153764E+02  0.00000000000E+00 0.  1.
          2   -1    0    0  501    0  0.00000000000E+00 -0.00000000000E+00 -0.21131168081E+03  0.21131168081E+03  0.00000000000E+00 0. -1.
         25    2    1    2    0    0 -0.72744016444E+02  0.30338642218E+02 -0.10563726314E+03  0.18171072536E+03  0.12508969265E+03 0.  0.
          5    1    3    3  502    0 -0.24646960863E+02  0.29736554636E+02 -0.12408511280E+03  0.13002431688E+03  0.41800000000E+01 0. -1.
         -5    1    3    3    0  502 -0.48097055581E+02  0.60208758140E+00  0.18447849657E+02  0.51686408484E+02  0.41800000000E+01 0. -1.
        -11    1    1    2    0    0 -0.15795894341E+02 -0.46065223624E+01 -0.20783936948E+02  0.26508533746E+02  0.00000000000E+00 0. -1.
         11    1    1    2    0    0  0.88539910785E+02 -0.25732119855E+02  0.43216730418E+01  0.92304575466E+02  0.00000000000E+00 0.  1.
</event>
<event>
 7    1  0.2878477E-009  0.1877892E+03  0.7561462E-02  0.1160471E+00
         -2   -1    0    0    0  501 -0.00000000000E+00  0.00000000000E+00  0.14174206658E+03  0.14174206658E+03  0.00000000000E+00 0.  1.
          2   -1    0    0  501    0  0.00000000000E+00 -0.00000000000E+00 -0.28157701283E+03  0.28157701283E+03  0.00000000000E+00 0. -1.
         25    2    1    2    0    0 -0.11616415271E+03  0.10797705981E+03 -0.11547658799E+02  0.20232011068E+03  0.12508766103E+03 0.  0.
          5    1    3    3  502    0 -0.10419944885E+01 -0.22466091480E+02 -0.16525621453E+02  0.28220198144E+02  0.41800000000E+01 0. -1.
         -5    1    3    3    0  502 -0.11512215823E+03  0.13044315129E+03  0.49779626537E+01  0.17409991254E+03  0.41800000000E+01 0. -1.
        -11    1    1    2    0    0  0.87617124466E+02 -0.25283976785E+02 -0.78601628402E+02  0.12039209264E+03  0.00000000000E+00 0.  1.
         11    1    1    2    0    0  0.28547028248E+02 -0.82693083025E+02 -0.49685659050E+02  0.10060687609E+03  0.00000000000E+00 0. -1.
</event>
<event>
 7    1  0.2878477E-009  0.1889863E+03  0.7561462E-02  0.1159379E+00
          1   -1    0    0  501    0  0.00000000000E+00  0.00000000000E+00  0.12435596020E+04  0.12435596020E+04  0.00000000000E+00 0. -1.
         -1   -1    0    0    0  501 -0.00000000000E+00 -0.00000000000E+00 -0.30681900190E+02  0.30681900190E+02  0.00000000000E+00 0.  1.
         25    2    1    2    0    0 -0.32627706443E+02 -0.15786804348E+03  0.62477980382E+03  0.65725486005E+03  0.12508901395E+03 0.  0.
          5    1    3    3  502    0 -0.69899558809E+02 -0.13010911718E+03  0.54651339441E+03  0.56613487206E+03  0.41800000000E+01 0. -1.
         -5    1    3    3    0  502  0.37271852367E+02 -0.27758926302E+02  0.78266409416E+02  0.91119987989E+02  0.41800000000E+01 0. -1.
        -11    1    1    2    0    0 -0.28864791536E+02  0.75014967689E+02  0.31362799474E+03  0.32376371114E+03  0.00000000000E+00 0.  1.
         11    1    1    2    0    0  0.61492497979E+02  0.82853075796E+02  0.27446990328E+03  0.29322293103E+03  0.00000000000E+00 0. -1.
</event>
<event>
 7    1  0.2878477E-009  0.1035701E+03  0.7561462E-02  0.1272963E+00
          2   -1    0    0  501    0  0.00000000000E+00  0.00000000000E+00  0.33285672320E+02  0.33285672320E+02  0.00000000000E+00 0. -1.
         -2   -1    0    0    0  501 -0.00000000000E+00 -0.00000000000E+00 -0.61775759469E+03  0.61775759469E+03  0.00000000000E+00 0.  1.
         25    2    1    2    0    0  0.22282139032E+02 -0.89498898646E+02 -0.30107918676E+03  0.33884786538E+03  0.12515051975E+03 0.  0.
          5    1    3    3  502    0 -0.24380457437E+02 -0.34008621105E+02 -0.16542836045E+02  0.45189941786E+02  0.41800000000E+01 0. -1.
         -5    1    3    3    0  502  0.46662596468E+02 -0.55490277542E+02 -0.28453635071E+03  0.29365792359E+03  0.41800000000E+01 0. -1.
        -11    1    1    2    0    0 -0.11094071171E+02  0.57647745388E+02 -0.26928062116E+03  0.27560550411E+03  0.00000000000E+00 0.  1.
         11    1    1    2    0    0 -0.11188067861E+02  0.31851153259E+02 -0.14112114453E+02  0.36589897522E+02  0.00000000000E+00 0. -1.
</event>
<event>
 7    1  0.2878477E-009  0.8334105E+02  0.7561462E-02  0.1319829E+00
          2   -1    0    0  501    0  0.00000000000E+00  0.00000000000E+00  0.33466369961E+03  0.33466369961E+03  0.00000000000E+00 0. -1.
         -2   -1    0    0    0  501 -0.00000000000E+00 -0.00000000000E+00 -0.48550432541E+02  0.48550432541E+02  0.00000000000E+00 0.  1.
         25    2    1    2    0    0 -0.28597324486E+02  0.51372394421E+02  0.11276280560E+03  0.17837719386E+03  0.12508414403E+03 0.  0.
          5    1    3    3  502    0  0.27517020873E+02  0.30065089460E+02 -0.95477309195E+01  0.42068130546E+02  0.41800000000E+01 0. -1.
         -5    1    3    3    0  502 -0.56114345359E+02  0.21307304961E+02  0.12231053652E+03  0.13630906332E+03  0.41800000000E+01 0. -1.
        -11    1    1    2    0    0  0.23806852722E+01 -0.34021302954E+02  0.16980875004E+03  0.17319967756E+03  0.00000000000E+00 0. -1.
         11    1    1    2    0    0  0.26216639214E+02 -0.17351091468E+02  0.35417114393E+01  0.31637260734E+02  0.00000000000E+00 0.  1.
</event>
<event>
 7    1  0.2878477E-009  0.2087234E+03  0.7561462E-02  0.1142581E+00
          3   -1    0    0  501    0  0.00000000000E+00  0.00000000000E+00  0.34672893517E+02  0.34672893517E+02  0.00000000000E+00 0. -1.
         -3   -1    0    0    0  501 -0.00000000000E+00 -0.00000000000E+00 -0.20849491285E+04  0.20849491285E+04  0.00000000000E+00 0.  1.
         25    2    1    2    0    0  0.10368686514E+03  0.15292942199E+03 -0.16911170252E+04  0.17057735296E+04  0.12509263448E+03 0.  0.
          5    1    3    3  502    0  0.85153311539E+02  0.18907890016E+02 -0.61160243121E+03  0.61780547184E+03  0.41800000000E+01 0.  1.
         -5    1    3    3    0  502  0.18533553601E+02  0.13402153197E+03 -0.10795145940E+04  0.10879680578E+04  0.41800000000E+01 0.  1.
        -11    1    1    2    0    0 -0.10651842667E+03 -0.11511034852E+03 -0.33206977933E+03  0.36724229863E+03  0.00000000000E+00 0.  1.
         11    1    1    2    0    0  0.28315615302E+01 -0.37819073473E+02 -0.27089430459E+02  0.46606193812E+02  0.00000000000E+00 0. -1.
</event>
<event>
 7    1  0.2878477E-009  0.2333572E+03  0.7561462E-02  0.1124299E+00
          2   -1    0    0  501    0  0.00000000000E+00  0.00000000000E+00  0.13536200538E+03  0.13536200538E+03  0.00000000000E+00 0. -1.
         -2   -1    0    0    0  501 -0.00000000000E+00 -0.00000000000E+00 -0.49486166792E+03  0.49486166792E+03  0.00000000000E+00 0.  1.
         25    2    1    2    0    0  0.58481557136E+02  0.22372305118E+03 -0.24334000747E+03  0.35823713163E+03  0.12508951628E+03 0.  0.
          5    1    3    3  502    0  0.46931175073E+02  0.14708434787E+03 -0.72550847683E+02  0.17063832653E+03  0.41800000000E+01 0. -1.
         -5    1    3    3    0  502  0.11550382063E+02  0.76638703312E+02 -0.17078915979E+03  0.18759880509E+03  0.41800000000E+01 0. -1.
        -11    1    1    2    0    0 -0.74059138047E+01 -0.10682840315E+03 -0.94043025447E+02  0.14251752845E+03  0.00000000000E+00 0.  1.
         11    1    1    2    0    0 -0.51075643331E+02 -0.11689464803E+03 -0.22116629624E+02  0.12946901323E+03  0.00000000000E+00 0. -1.
</event>
<event>
 7    1  0.2878477E-009  0.1200820E+03  0.7561462E-02  0.1242962E+00
         -2   -1    0    0    0  501 -0.00000000000E+00  0.00000000000E+00  0.12519510510E+02  0.12519510510E+02  0.00000000000E+00 0.  1.
          2   -1    0    0  501    0  0.00000000000E+00 -0.00000000000E+00 -0.18166419697E+04  0.18166419697E+04  0.00000000000E+00 0. -1.
         25    2    1    2    0    0  0.85652975706E+02 -0.23075305599E+02 -0.14371845748E+04  0.14453436908E+04  0.12509988272E+03 0.  0.
          5    1    3    3  502    0  0.23938489443E+02 -0.69055926957E+02 -0.55682096792E+03  0.56161270912E+03  0.41800000000E+01 0. -1.
         -5    1    3    3    0  502  0.61714486263E+02  0.45980621358E+02 -0.88036360685E+03  0.88373098170E+03  0.41800000000E+01 0. -1.
        -11    1    1    2    0    0 -0.25132294854E+02  0.13752067585E+02 -0.30469724588E+02  0.41822909080E+02  0.00000000000E+00 0.  1.
         11    1    1    2    0    0 -0.60520680852E+02  0.93232380144E+01 -0.33646815979E+03  0.34199488027E+03  0.00000000000E+00 0. -1.
</event>
<event>
 7    1  0.2878477E-009  0.7812210E+02  0.7561462E-02  0.1334467E+00
          2   -1    0    0  501    0  0.00000000000E+00  0.00000000000E+00  0.61791195719E+03  0.61791195719E+03  0.00000000000E+00 0. -1.
         -2   -1    0    0    0  501 -0.00000000000E+00 -0.00000000000E+00 -0.21154411962E+02  0.21154411962E+02  0.00000000000E+00 0.  1.
         25    2    1    2    0    0 -0.14220119348E+01  0.30144050342E+02  0.40276752650E+03  0.42282292616E+03  0.12508741182E+03 0.  0.
          5    1    3    3  502    0 -0.19101932172E+02  0.42047727440E+02  0.45737451349E+02  0.65132803190E+02  0.41800000000E+01 0. -1.
         -5    1    3    3    0  502  0.17679920237E+02 -0.11903677098E+02  0.35703007515E+03  0.35769012297E+03  0.41800000000E+01 0. -1.
        -11    1    1    2    0    0 -0.38424964909E+02 -0.39802287600E+00  0.45000340021E+02  0.59174884474E+02  0.00000000000E+00 0.  1.
         11    1    1    2    0    0  0.39846976844E+02 -0.29746027466E+02  0.14898967871E+03  0.15706855852E+03  0.00000000000E+00 0. -1.
</event>
<event>
 7    1  0.2878477E-009  0.1152710E+03  0.7561462E-02  0.1251109E+00
          2   -1    0    0  501    0  0.00000000000E+00  0.00000000000E+00  0.12443037162E+04  0.12443037162E+04  0.00000000000E+00 0. -1.
         -2   -1    0    0    0  501 -0.00000000000E+00 -0.00000000000E+00 -0.17025970184E+02  0.17025970184E+02  0.00000000000E+00 0.  1.
         25    2    1    2    0    0 -0.51661417235E+02 -0.47458143632E+02  0.96447751748E+03  0.97508240573E+03  0.12509052247E+03 0.  0.
          5    1    3    3  502    0 -0.16305699805E+02  0.39470417059E+02  0.45487261804E+03  0.45689206680E+03  0.41800000000E+01 0.  1.
         -5    1    3    3    0  502 -0.35355717430E+02 -0.86928560691E+02  0.50960489944E+03  0.51819033892E+03  0.41800000000E+01 0.  1.
        -11    1    1    2    0    0 -0.11297399293E+02  0.23968566551E+02  0.17130014745E+02  0.31552508909E+02  0.00000000000E+00 0.  1.
         11    1    1    2    0    0  0.62958816528E+02  0.23489577081E+02  0.24567021379E+03  0.25469477175E+03  0.00000000000E+00 0. -1.
</event>
<event>
 7    1  0.2878477E-009  0.1015525E+03  0.7561462E-02  0.1277065E+00
         -2   -1    0    0    0  501 -0.00000000000E+00  0.00000000000E+00  0.15324480402E+03  0.15324480402E+03  0.00000000000E+00 0.  1.
          2   -1    0    0  501    0  0.00000000000E+00 -0.00000000000E+00 -0.10507948194E+03  0.10507948194E+03  0.00000000000E+00 0. -1.
         25    2    1    2    0    0 -0.59524755165E+02  0.24567972002E+02  0.17278954354E+02  0.14174648121E+03  0.12508685361E+03 0.  0.
          5    1    3    3  502    0 -0.48959335377E+02  0.63614192945E+02 -0.23912609670E+02  0.83863385132E+02  0.41800000000E+01 0.  1.
         -5    1    3    3    0  502 -0.10565419788E+02 -0.39046220943E+02  0.41191564024E+02  0.57883096081E+02  0.41800000000E+01 0.  1.
        -11    1    1    2    0    0  0.48964967662E+02  0.63599518920E+01  0.56514869382E+02  0.75046302424E+02  0.00000000000E+00 0.  1.
         11    1    1    2    0    0  0.10559787503E+02 -0.30927923894E+02 -0.25628501648E+02  0.41531502323E+02  0.00000000000E+00 0. -1.
</event>
<event>
 7    1  0.2878477E-009  0.1107369E+03  0.7561462E-02  0.1259211E+00
         -2   -1    0    0    0  501 -0.00000000000E+00  0.00000000000E+00  0.25887003602E+03  0.25887003602E+03  0.00000000000E+00 0.  1.
          2   -1    0    0  501    0  0.00000000000E+00 -0.00000000000E+00 -0.52876783506E+02  0.52876783506E+02  0.00000000000E+00 0. -1.
         25    2    1    2    0    0  0.34948846546E+02  0.78330834127E+01  0.13986935836E+03  0.19103271272E+03  0.12508909165E+03 0.  0.
          5    1    3    3  502    0 -0.16434217178E+02 -0.48497029224E+02  0.74598573477E+02  0.90578501326E+02  0.41800000000E+01 0. -1.
         -5    1    3    3    0  502  0.51383063724E+02  0.56330112636E+02  0.65270784885E+02  0.10045421139E+03  0.41800000000E+01 0. -1.
        -11    1    1    2    0    0  0.26972216529E+02  0.10830490361E+02  0.12222556316E+01  0.29091130861E+02  0.00000000000E+00 0.  1.
         11    1    1    2    0    0 -0.61921063075E+02 -0.18663573773E+02  0.64901638522E+02  0.91622975946E+02  0.00000000000E+00 0. -1.
</event>
<event>
 7    1  0.2878477E-009  0.8587417E+02  0.7561462E-02  0.1313162E+00
          2   -1    0    0  501    0  0.00000000000E+00  0.00000000000E+00  0.97885685633E+02  0.97885685633E+02  0.00000000000E+00 0. -1.
         -2   -1    0    0    0  501 -0.00000000000E+00 -0.00000000000E+00 -0.31843709411E+03  0.31843709411E+03  0.00000000000E+00 0.  1.
         25    2    1    2    0    0  0.13858664809E+02 -0.38116858388E+02 -0.27511998459E+03  0.30493101805E+03  0.12508781860E+03 0.  0.
          5    1    3    3  502    0  0.51942385571E+02 -0.53084470317E+02 -0.23859634974E+03  0.24992331407E+03  0.41800000000E+01 0.  1.
         -5    1    3    3    0  502 -0.38083720762E+02  0.14967611928E+02 -0.36523634848E+02  0.55007703974E+02  0.41800000000E+01 0.  1.
        -11    1    1    2    0    0 -0.22327736683E+02  0.61501444649E+01 -0.19500428061E+02  0.30275712987E+02  0.00000000000E+00 0.  1.
         11    1    1    2    0    0  0.84690718747E+01  0.31966713923E+02  0.74069004178E+02  0.81116048705E+02  0.00000000000E+00 0. -1.
</event>
<event>
 7    1  0.2878477E-009  0.1446456E+03  0.7561462E-02  0.1207211E+00
          2   -1    0    0  501    0  0.00000000000E+00  0.00000000000E+00  0.26457717595E+03  0.26457717595E+03  0.00000000000E+00 0. -1.
         -2   -1    0    0    0  501 -0.00000000000E+00 -0.00000000000E+00 -0.90461049084E+02  0.90461049084E+02  0.00000000000E+00 0.  1.
         25    2    1    2    0    0  0.43315535224E+02 -0.97964319534E+02  0.12067443935E+03  0.20416285724E+03  0.12508760318E+03 0.  0.
          5    1    3    3  502    0  0.11692671348E+01  0.26933384019E+02  0.43534679346E+02  0.51376211092E+02  0.41800000000E+01 0. -1.
         -5    1    3    3    0  502  0.42146268089E+02 -0.12489770355E+03  0.77139760005E+02  0.15278664615E+03  0.41800000000E+01 0. -1.
        -11    1    1    2    0    0 -0.37730498950E+02  0.11030595673E+03  0.24796224576E+02  0.11918828548E+03  0.00000000000E+00 0.  1.
         11    1    1    2    0    0 -0.55850362739E+01 -0.12341637199E+02  0.28645462939E+02  0.31687082320E+02  0.00000000000E+00 0. -1.
</event>
<event>
 7    1  0.2878477E-009  0.1127253E+03  0.7561462E-02  0.1255605E+00
         -4   -1    0    0    0  501 -0.00000000000E+00  0.00000000000E+00  0.11887407253E+03  0.11887407253E+03  0.00000000000E+00 0.  1.
          4   -1    0    0  501    0  0.00000000000E+00 -0.00000000000E+00 -0.15922898107E+03  0.15922898107E+03  0.00000000000E+00 0. -1.
         25    2    1    2    0    0 -0.60976140177E+02  0.36432804458E+02 -0.67856079946E+02  0.15904912622E+03  0.12508692200E+03 0.  0.
          5    1    3    3  502    0  0.23459986431E+02  0.23525276785E+02 -0.65423861907E+02  0.73495331267E+02  0.41800000000E+01 0. -1.
         -5    1    3    3    0  502 -0.84436126608E+02  0.12907527672E+02 -0.24322180389E+01  0.85553794958E+02  0.41800000000E+01 0. -1.
        -11    1    1    2    0    0 -0.76601215931E+01  0.17533869114E+02 -0.12665457241E+02  0.22946194369E+02  0.00000000000E+00 0. -1.
         11    1    1    2    0    0  0.68636261770E+02 -0.53966673571E+02  0.40166628648E+02  0.96107733003E+02  0.00000000000E+00 0.  1.
</event>
<event>
 7    1  0.2878477E-009  0.1168456E+03  0.7561462E-02  0.1248393E+00
          4   -1    0    0  501    0  0.00000000000E+00  0.00000000000E+00  0.16599775097E+03  0.16599775097E+03  0.00000000000E+00 0. -1.
         -4   -1    0    0    0  501 -0.00000000000E+00 -0.00000000000E+00 -0.11915981761E+03  0.11915981761E+03  0.00000000000E+00 0.  1.
         25    2    1    2    0    0 -0.26978162111E+02  0.69267595250E+02 -0.23712733569E+02  0.14742617400E+03  0.12508541907E+03 0.  0.
          5    1    3    3  502    0  0.16433464065E+02 -0.14913989191E+02  0.30701688580E+02  0.38112358841E+02  0.41800000000E+01 0. -1.
         -5    1    3    3    0  502 -0.43411626175E+02  0.84181584440E+02 -0.54414422150E+02  0.10931381516E+03  0.41800000000E+01 0. -1.
        -11    1    1    2    0    0  0.40131193397E+02 -0.86067898215E+02  0.47019430201E+02  0.10596708264E+03  0.00000000000E+00 0. -1.
         11    1    1    2    0    0 -0.13153031286E+02  0.16800302965E+02  0.23531236723E+02  0.31764311947E+02  0.00000000000E+00 0.  1.
</event>
<event>
 7    1  0.2878477E-009  0.1419308E+03  0.7561462E-02  0.1210754E+00
          1   -1    0    0  501    0  0.00000000000E+00  0.00000000000E+00  0.53278457620E+03  0.53278457620E+03  0.00000000000E+00 0. -1.
         -1   -1    0    0    0  501 -0.00000000000E+00 -0.00000000000E+00 -0.40360253636E+02  0.40360253636E+02  0.00000000000E+00 0.  1.
         25    2    1    2    0    0 -0.95186808693E+02 -0.81934209655E+01  0.24094458748E+03  0.28779979297E+03  0.12508703330E+03 0.  0.
          5    1    3    3  502    0 -0.11852575549E+03  0.19711083600E+02  0.19447147470E+03  0.22863400535E+03  0.41800000000E+01 0. -1.
         -5    1    3    3    0  502  0.23338946799E+02 -0.27904504565E+02  0.46473112784E+02  0.59165787619E+02  0.41800000000E+01 0. -1.
        -11    1    1    2    0    0  0.62897618037E+02  0.45536457994E+02  0.10378793116E+03  0.12962104002E+03  0.00000000000E+00 0.  1.
         11    1    1    2    0    0  0.32289190656E+02 -0.37343037029E+02  0.14769180392E+03  0.15572399684E+03  0.00000000000E+00 0. -1.
</event>
<event>
 7    1  0.2878477E-009  0.1229201E+03  0.7561462E-02  0.1238356E+00
          2   -1    0    0  501    0  0.00000000000E+00  0.00000000000E+00  0.12793260650E+03  0.12793260650E+03  0.00000000000E+00 0. -1.
         -2   -1    0    0    0  501 -0.00000000000E+00 -0.00000000000E+00 -0.16012969783E+03  0.16012969783E+03  0.00000000000E+00 0.  1.
         25    2    1    2    0    0 -0.55587809757E+02 -0.68369651959E+02 -0.36200573285E+02  0.15723106330E+03  0.12508681729E+03 0.  0.
          5    1    3    3  502    0  0.13799939006E+02 -0.35219897347E+02  0.35473015596E+02  0.52025827444E+02  0.41800000000E+01 0.  1.
         -5    1    3    3    0  502 -0.69387748763E+02 -0.33149754612E+02 -0.71673588881E+02  0.10520523586E+03  0.41800000000E+01 0.  1.
        -11    1    1    2    0    0  0.73237424820E+02  0.15268338835E+02  0.24234580856E+01  0.74851290664E+02  0.00000000000E+00 0. -1.
         11    1    1    2    0    0 -0.17649615063E+02  0.53101313124E+02  0.15800238695E+01  0.55979950365E+02  0.00000000000E+00 0.  1.
</event>
<event>
 7    1  0.2878477E-009  0.1423696E+03  0.7561462E-02  0.1210176E+00
          2   -1    0    0  501    0  0.00000000000E+00  0.00000000000E+00  0.35509978529E+03  0.35509978529E+03  0.00000000000E+00 0. -1.
         -2   -1    0    0    0  501 -0.00000000000E+00 -0.00000000000E+00 -0.69217780600E+02  0.69217780600E+02  0.00000000000E+00 0.  1.
         25    2    1    2    0    0 -0.10679863196E+03  0.36631258485E+02  0.14627592911E+03  0.22314106010E+03  0.12508992116E+03 0.  0.
          5    1    3    3  502    0 -0.84883232592E+02 -0.23604074863E+02  0.12961771188E+03  0.15678182024E+03  0.41800000000E+01 0.  1.
         -5    1    3    3    0  502 -0.21915399370E+02  0.60235333348E+02  0.16658217235E+02  0.66359239858E+02  0.41800000000E+01 0.  1.
        -11    1    1    2    0    0  0.71647124126E+02 -0.57106829504E+02  0.53885053235E+02  0.10629251777E+03  0.00000000000E+00 0.  1.
         11    1    1    2    0    0  0.35151507836E+02  0.20475571019E+02  0.85721022336E+02  0.94883988017E+02  0.00000000000E+00 0. -1.
</event>
<event>
 7    1  0.2878477E-009  0.9890336E+02  0.7561462E-02  0.1282619E+00
         -3   -1    0    0    0  501 -0.00000000000E+00  0.00000000000E+00  0.83530026574E+02  0.83530026574E+02  0.00000000000E+00 0.  1.
          3   -1    0    0  501    0  0.00000000000E+00 -0.00000000000E+00 -0.20873182670E+03  0.20873182670E+03  0.00000000000E+00 0. -1.
         25    2    1    2    0    0 -0.42275946722E+02  0.23253648290E+02 -0.51981206270E+01  0.13415543023E+03  0.12507066472E+03 0.  0.
          5    1    3    3  502    0 -0.95392182050E+01 -0.31109735288E+02 -0.47533949248E+02  0.57756047689E+02  0.41800000000E+01 0. -1.
         -5    1    3    3    0  502 -0.32736728517E+02  0.54363383577E+02  0.42335828621E+02  0.76399382543E+02  0.41800000000E+01 0. -1.
        -11    1    1    2    0    0 -0.23750093761E+02 -0.26134940324E+02 -0.29343095772E+02  0.45914260626E+02  0.00000000000E+00 0.  1.
         11    1    1    2    0    0  0.66026040483E+02  0.28812920344E+01 -0.90660583726E+02  0.11219216241E+03  0.00000000000E+00 0. -1.
</event>
<event>
 7    1  0.2918338E-009  0.1031666E+03  0.7561462E-02  0.1273775E+00
         -1   -1    0    0    0  501 -0.00000000000E+00  0.00000000000E+00  0.32613458268E+02  0.32613458268E+02  0.00000000000E+00 0.  1.
          1   -1    0    0  501    0  0.00000000000E+00 -0.00000000000E+00 -0.50894752580E+03  0.50894752580E+03  0.00000000000E+00 0. -1.
         25    2    1    2    0    0 -0.34730019676E+02 -0.35526974132E+01 -0.39078203240E+03  0.41179711406E+03  0.12508984922E+03 0.  0.
          5    1    3    3  502    0 -0.22777282641E+02 -0.57646819949E+02 -0.29132358920E+03  0.29787391037E+03  0.41800000000E+01 0.  1.
         -5    1    3    3    0  502 -0.11952737035E+02  0.54094122536E+02 -0.99458443199E+02  0.11392320369E+03  0.41800000000E+01 0.  1.
        -11    1    1    2    0    0  0.44566178092E+02 -0.29976816850E+02 -0.23662221175E+02  0.58691178972E+02  0.00000000000E+00 0.  1.
         11    1    1    2    0    0 -0.98361584166E+01  0.33529514263E+02 -0.61889813961E+02  0.71072691037E+02  0.00000000000E+00 0. -1.
</event>
<event>
 7    1  0.2878477E-009  0.9056371E+02  0.7561462E-02  0.1301492E+00
         -2   -1    0    0    0  501 -0.00000000000E+00  0.00000000000E+00  0.94164170479E+02  0.94164170479E+02  0.00000000000E+00 0.  1.
          2   -1    0    0  501    0  0.00000000000E+00 -0.00000000000E+00 -0.12902737086E+03  0.12902737086E+03  0.00000000000E+00 0. -1.
         25    2    1    2    0    0 -0.18249421862E+01 -0.29436392893E+00  0.43111007661E+00  0.12509863174E+03  0.12508423059E+03 0.  0.
          5    1    3    3  502    0  0.11476859088E+02 -0.43998064095E+02  0.42849499638E+02  0.62618686970E+02  0.41800000000E+01 0.  1.
         -5    1    3    3    0  502 -0.13301801274E+02  0.43703700166E+02 -0.42418389561E+02  0.62479944769E+02  0.41800000000E+01 0.  1.
        -11    1    1    2    0    0 -0.36972500116E+02  0.24042987801E+02 -0.73622941913E+01  0.44712799096E+02  0.00000000000E+00 0.  1.
         11    1    1    2    0    0  0.38797442302E+02 -0.23748623872E+02 -0.27932016270E+02  0.53380110509E+02  0.00000000000E+00 0. -1.
</event>
<event>
 7    1  0.2878477E-009  0.1330886E+03  0.7561462E-02  0.1222943E+00
          1   -1    0    0  501    0  0.00000000000E+00  0.00000000000E+00  0.92402437405E+03  0.92402437405E+03  0.00000000000E+00 0. -1.
         -1   -1    0    0    0  501 -0.00000000000E+00 -0.00000000000E+00 -0.27860629356E+02  0.27860629356E+02  0.00000000000E+00 0.  1.
         25    2    1    2    0    0  0.34592989151E+02 -0.82606496630E+02  0.70288494550E+03  0.71952462558E+03  0.12509169445E+03 0.  0.
          5    1    3    3  502    0 -0.43039511283E+02 -0.43943780403E+02  0.38885353743E+03  0.39371055528E+03  0.41800000000E+01 0. -1.
         -5    1    3    3    0  502  0.77632500434E+02 -0.38662716226E+02  0.31403140807E+03  0.32581407030E+03  0.41800000000E+01 0. -1.
        -11    1    1    2    0    0  0.56266444896E+01 -0.12896922906E+02  0.12137816444E+01  0.14123137560E+02  0.00000000000E+00 0.  1.
         11    1    1    2    0    0 -0.40219633640E+02  0.95503419536E+02  0.19206501755E+03  0.21823724027E+03  0.00000000000E+00 0. -1.
</event>
<event>
 7    1  0.2878477E-009  0.7252098E+02  0.7561462E-02  0.1351724E+00
         -2   -1    0    0    0  501 -0.00000000000E+00  0.00000000000E+00  0.49484425002E+03  0.49484425002E+03  0.00000000000E+00 0.  1.
          2   -1    0    0  501    0  0.00000000000E+00 -0.00000000000E+00 -0.29383600565E+02  0.29383600565E+02  0.00000000000E+00 0. -1.
         25    2    1    2    0    0  0.49075960062E+02 -0.90817233808E+00  0.21734835927E+03  0.25553232448E+03  0.12508870829E+03 0.  0.
          5    1    3    3  502    0  0.62015023857E+01  0.11562499654E+02 -0.14141513088E+02  0.19738409827E+02  0.41800000000E+01 0.  1.
         -5    1    3    3    0  502  0.42874457677E+02 -0.12470671992E+02  0.23148987236E+03  0.23579391465E+03  0.41800000000E+01 0.  1.
        -11    1    1    2    0    0 -0.77870127953E+01  0.33141569996E+02  0.33422846940E+02  0.47708363288E+02  0.00000000000E+00 0. -1.
         11    1    1    2    0    0 -0.41288947267E+02 -0.32233397658E+02  0.21468944325E+03  0.22098716283E+03  0.00000000000E+00 0.  1.
</event>
<event>
 7    1  0.2878477E-009  0.9668130E+02  0.7561462E-02  0.1287434E+00
         -2   -1    0    0    0  501 -0.00000000000E+00  0.00000000000E+00  0.44701725459E+02  0.44701725459E+02  0.00000000000E+00 0.  1.
          2   -1    0    0  501    0  0.00000000000E+00 -0.00000000000E+00 -0.37242352758E+03  0.37242352758E+03  0.00000000000E+00 0. -1.
         25    2    1    2    0    0 -0.57721216515E+02  0.13221211821E+00 -0.21486348964E+03  0.25523980623E+03  0.12509709504E+03 0.  0.
          5    1    3    3  502    0 -0.50645955623E+01  0.28354560944E+02 -0.18688481813E+03  0.18913761895E+03  0.41800000000E+01 0. -1.
         -5    1    3    3    0  502 -0.52656620953E+02 -0.28222348826E+02 -0.27978671512E+02  0.66102187278E+02  0.41800000000E+01 0. -1.
        -11    1    1    2    0    0  0.61157834373E+02  0.34060981163E+02 -0.10570530514E+03  0.12678344796E+03  0.00000000000E+00 0. -1.
         11    1    1    2    0    0 -0.34366178580E+01 -0.34193193281E+02 -0.71530073408E+01  0.35101998848E+02  0.00000000000E+00 0.  1.
</event>
<event>
 7    1  0.2878477E-009  0.1711350E+03  0.7561462E-02  0.1176669E+00
         -2   -1    0    0    0  501 -0.00000000000E+00  0.00000000000E+00  0.15426025114E+03  0.15426025114E+03  0.00000000000E+00 0.  1.
          2   -1    0    0  501    0  0.00000000000E+00 -0.00000000000E+00 -0.24446544344E+03  0.24446544344E+03  0.00000000000E+00 0. -1.
         25    2    1    2    0    0  0.87621071566E+00 -0.14684385325E+03  0.17920035237E+02  0.19373136867E+03  0.12508729177E+03 0.  0.
          5    1    3    3  502    0 -0.26017933180E+02  0.13578552378E+02  0.80482022853E+01  0.30717354893E+02  0.41800000000E+01 0. -1.
         -5    1    3    3    0  502  0.26894143896E+02 -0.16042240563E+03  0.98718329517E+01  0.16301401378E+03  0.41800000000E+01 0. -1.
        -11    1    1    2    0    0  0.11072857329E+02  0.12021557296E+03 -0.12290512646E+03  0.17227902443E+03  0.00000000000E+00 0. -1.
         11    1    1    2    0    0 -0.11949068045E+02  0.26628280293E+02  0.14779898919E+02  0.32715301474E+02  0.00000000000E+00 0.  1.
</event>
<event>
 7    1  0.2878477E-009  0.1128897E+03  0.7561462E-02  0.1255310E+00
         -1   -1    0    0    0  501 -0.00000000000E+00  0.00000000000E+00  0.85604548631E+02  0.85604548631E+02  0.00000000000E+00 0.  1.
          1   -1    0    0  501    0  0.00000000000E+00 -0.00000000000E+00 -0.35127082305E+03  0.35127082305E+03  0.00000000000E+00 0. -1.
         25    2    1    2    0    0  0.70262020854E+01 -0.75551645104E+02 -0.28007406923E+03  0.31598438104E+03  0.12508887325E+03 0.  0.
          5    1    3    3  502    0 -0.22547651368E+02  0.19417367610E+02 -0.16599567189E+02  0.34328541740E+02  0.41800000000E+01 0. -1.
         -5    1    3    3    0  502  0.29573853453E+02 -0.94969012714E+02 -0.26347450204E+03  0.28165583930E+03  0.41800000000E+01 0. -1.
        -11    1    1    2    0    0  0.19677862038E+02  0.43798834012E+01  0.36527746667E+02  0.41721432257E+02  0.00000000000E+00 0.  1.
         11    1    1    2    0    0 -0.26704064123E+02  0.71171761703E+02 -0.22119951851E+02  0.79169558382E+02  0.00000000000E+00 0. -1.
</event>
<event>
 7    1  0.2878477E-009  0.6809540E+02  0.7561462E-02  0.1366692E+00
          1   -1    0    0  501    0  0.00000000000E+00  0.00000000000E+00  0.55747315777E+03  0.55747315777E+03  0.00000000000E+00 0. -1.
         -1   -1    0    0    0  501 -0.00000000000E+00 -0.00000000000E+00 -0.25498252783E+02  0.25498252783E+02  0.00000000000E+00 0.  1.
         25    2    1    2    0    0 -0.12392277029E+02 -0.21675829373E+02  0.39949570499E+03  0.41936981566E+03  0.12510321288E+03 0.  0.
          5    1    3    3  502    0 -0.27057971486E+02  0.13503643763E+02  0.16970585282E+02  0.34927859663E+02  0.41800000000E+01 0. -1.
         -5    1    3    3    0  502  0.14665694457E+02 -0.35179473136E+02  0.38252511971E+03  0.38444195600E+03  0.41800000000E+01 0. -1.
        -11    1    1    2    0    0 -0.24228706569E+02 -0.99633420013E+00  0.11431213501E+03  0.11685583903E+03  0.00000000000E+00 0. -1.
         11    1    1    2    0    0  0.36620983597E+02  0.22672163573E+02  0.18167064977E+02  0.46745755856E+02  0.00000000000E+00 0.  1.
</event>
<event>
 7    1  0.2878477E-009  0.7198365E+02  0.7561462E-02  0.1353475E+00
         -1   -1    0    0    0  501 -0.00000000000E+00  0.00000000000E+00  0.51160593943E+02  0.51160593943E+02  0.00000000000E+00 0.  1.
          1   -1    0    0  501    0  0.00000000000E+00 -0.00000000000E+00 -0.25374829220E+03  0.25374829220E+03  0.00000000000E+00 0. -1.
         25    2    1    2    0    0  0.11038190123E+02 -0.31170331704E+02 -0.13336946053E+03  0.18581853673E+03  0.12509070457E+03 0.  0.
          5    1    3    3  502    0 -0.47614448359E+01  0.10387997882E+02  0.21464481001E+02  0.24673431086E+02  0.41800000000E+01 0.  1.
         -5    1    3    3    0  502  0.15799634959E+02 -0.41558329586E+02 -0.15483394153E+03  0.16114510564E+03  0.41800000000E+01 0.  1.
        -11    1    1    2    0    0  0.24520613432E+02  0.43141698515E+02 -0.12649987429E+02  0.51210241317E+02  0.00000000000E+00 0.  1.
         11    1    1    2    0    0 -0.35558803555E+02 -0.11971366811E+02 -0.56568250306E+02  0.67880108104E+02  0.00000000000E+00 0. -1.
</event>
<event>
 7    1  0.2878477E-009  0.1059995E+03  0.7561462E-02  0.1268163E+00
          2   -1    0    0  501    0  0.00000000000E+00  0.00000000000E+00  0.11147297396E+04  0.11147297396E+04  0.00000000000E+00 0. -1.
         -2   -1    0    0    0  501 -0.00000000000E+00 -0.00000000000E+00 -0.11063375150E+02  0.11063375150E+02  0.00000000000E+00 0.  1.
         25    2    1    2    0    0 -0.93067095701E+01  0.51986731776E+01  0.75828193072E+03  0.76860359974E+03  0.12508543497E+03 0.  0.
          5    1    3    3  502    0  0.49585393900E+02  0.30430169906E+02  0.44530260406E+03  0.44910643295E+03  0.41800000000E+01 0.  1.
         -5    1    3    3    0  502 -0.58892103471E+02 -0.25231496728E+02  0.31297932666E+03  0.31949716680E+03  0.41800000000E+01 0.  1.
        -11    1    1    2    0    0 -0.26560577092E+02  0.29406198847E+02  0.18684898626E+03  0.19100453516E+03  0.00000000000E+00 0.  1.
         11    1    1    2    0    0  0.35867286662E+02 -0.34604872024E+02  0.15853544746E+03  0.16618497983E+03  0.00000000000E+00 0. -1.
</event>
<event>
 7    1  0.2878477E-009  0.1111293E+03  0.7561462E-02  0.1258493E+00
          2   -1    0    0  501    0  0.00000000000E+00  0.00000000000E+00  0.16628553586E+03  0.16628553586E+03  0.00000000000E+00 0.  1.
         -2   -1    0    0    0  501 -0.00000000000E+00 -0.00000000000E+00 -0.76598440301E+02  0.76598440301E+02  0.00000000000E+00 0. -1.
         25    2    1    2    0    0  0.22983036703E+02  0.17556443666E+02  0.65429048912E+02  0.14409969747E+03  0.12508922288E+03 0.  0.
          5    1    3    3  502    0 -0.51756367323E+02  0.91404697422E+01  0.32113140828E+02  0.61733264610E+02  0.41800000000E+01 0.  1.
         -5    1    3    3    0  502  0.74739404026E+02  0.84159739234E+01  0.33315908084E+02  0.82366432864E+02  0.41800000000E+01 0.  1.
        -11    1    1    2    0    0  0.34098232809E+02  0.12123861292E+01  0.36872949743E+00  0.34121771969E+02  0.00000000000E+00 0.  1.
         11    1    1    2    0    0 -0.57081269513E+02 -0.18768829795E+02  0.23889317149E+02  0.64662506716E+02  0.00000000000E+00 0. -1.
</event>
<event>
 7    1  0.2878477E-009  0.9605439E+02  0.7561462E-02  0.1288819E+00
          1   -1    0    0  501    0  0.00000000000E+00  0.00000000000E+00  0.10723109395E+03  0.10723109395E+03  0.00000000000E+00 0. -1.
         -1   -1    0    0    0  501 -0.00000000000E+00 -0.00000000000E+00 -0.12265587911E+03  0.12265587911E+03  0.00000000000E+00 0.  1.
         25    2    1    2    0    0  0.11067314946E+02  0.27987256345E+02 -0.32494258373E+02  0.13269736045E+03  0.12508773188E+03 0.  0.
          5    1    3    3  502    0  0.10065214901E+02  0.77065468847E+02 -0.29851174361E+02  0.83360422566E+02  0.41800000000E+01 0.  1.
         -5    1    3    3    0  502  0.10021000443E+01 -0.49078212502E+02 -0.26430840123E+01  0.49336937886E+02  0.41800000000E+01 0.  1.
        -11    1    1    2    0    0 -0.24573042553E+02 -0.39993562630E+02 -0.23708311330E+02  0.52587103916E+02  0.00000000000E+00 0.  1.
         11    1    1    2    0    0  0.13505727607E+02  0.12006306285E+02  0.40777784548E+02  0.44602508690E+02  0.00000000000E+00 0. -1.
</event>
<event>
 7    1  0.2878477E-009  0.9253548E+02  0.7561462E-02  0.1296825E+00
         -1   -1    0    0    0  501 -0.00000000000E+00  0.00000000000E+00  0.40115201205E+02  0.40115201205E+02  0.00000000000E+00 0.  1.
          1   -1    0    0  501    0  0.00000000000E+00 -0.00000000000E+00 -0.35477135715E+03  0.35477135715E+03  0.00000000000E+00 0. -1.
         25    2    1    2    0    0 -0.14757971870E+02  0.26040352532E+01 -0.10160939772E+03  0.16185613992E+03  0.12509341147E+03 0.  0.
          5    1    3    3  502    0  0.26610985318E+02 -0.28533373522E+02 -0.10265536378E+03  0.10989947250E+03  0.41800000000E+01 0. -1.
         -5    1    3    3    0  502 -0.41368957188E+02  0.31137408775E+02  0.10459660619E+01  0.51956667417E+02  0.41800000000E+01 0. -1.
        -11    1    1    2    0    0  0.11939772649E+02 -0.47460848088E+02 -0.12332683229E+03  0.13268231923E+03  0.00000000000E+00 0.  1.
         11    1    1    2    0    0  0.28181992209E+01  0.44856812835E+02 -0.89719925936E+02  0.10034809921E+03  0.00000000000E+00 0. -1.
</event>
<event>
 7    1  0.2878477E-009  0.7484872E+02  0.7561462E-02  0.1344340E+00
          1   -1    0    0  501    0  0.00000000000E+00  0.00000000000E+00  0.50463610353E+03  0.50463610353E+03  0.00000000000E+00 0.  1.
         -1   -1    0    0    0  501 -0.00000000000E+00 -0.00000000000E+00 -0.40318638313E+02  0.40318638313E+02  0.00000000000E+00 0. -1.
         25    2    1    2    0    0  0.30002951350E+02 -0.91422735527E+01  0.41570701722E+03  0.43525136624E+03  0.12509064470E+03 0.  0.
          5    1    3    3  502    0 -0.14745837132E+02  0.33336668684E+02  0.31459194274E+03  0.31672438496E+03  0.41800000000E+01 0. -1.
         -5    1    3    3    0  502  0.44748788482E+02 -0.42478942236E+02  0.10111507448E+03  0.11852698128E+03  0.41800000000E+01 0. -1.
        -11    1    1    2    0    0  0.97324289183E+01  0.57039064432E+01  0.65446528339E+02  0.66411616401E+02  0.00000000000E+00 0.  1.
         11    1    1    2    0    0 -0.39735380269E+02  0.34383671095E+01 -0.16836080343E+02  0.43291759202E+02  0.00000000000E+00 0. -1.
</event>
<event>
 7    1  0.2878477E-009  0.7545578E+02  0.7561462E-02  0.1342465E+00
         -1   -1    0    0    0  501 -0.00000000000E+00  0.00000000000E+00  0.48905140159E+02  0.48905140159E+02  0.00000000000E+00 0.  1.
          1   -1    0    0  501    0  0.00000000000E+00 -0.00000000000E+00 -0.29949184548E+03  0.29949184548E+03  0.00000000000E+00 0. -1.
         25    2    1    2    0    0 -0.15393903736E+02  0.42549154402E+02 -0.98860906382E+02  0.16573594785E+03  0.12509005870E+03 0.  0.
          5    1    3    3  502    0  0.13048891103E+01  0.22665093388E+02 -0.12590999206E+03  0.12800862352E+03  0.41800000000E+01 0. -1.
         -5    1    3    3    0  502 -0.16698792847E+02  0.19884061014E+02  0.27049085682E+02  0.37727324331E+02  0.41800000000E+01 0. -1.
        -11    1    1    2    0    0  0.61385976868E+01  0.28867674066E+02 -0.49151004760E+02  0.57331023508E+02  0.00000000000E+00 0. -1.
         11    1    1    2    0    0  0.92553060496E+01 -0.71416828468E+02 -0.10257479418E+03  0.12533001428E+03  0.00000000000E+00 0.  1.
</event>
<event>
 7    1  0.2878477E-009  0.1142983E+03  0.7561462E-02  0.1252811E+00
          1   -1    0    0  501    0  0.00000000000E+00  0.00000000000E+00  0.38522940810E+02  0.38522940810E+02  0.00000000000E+00 0. -1.
         -1   -1    0    0    0  501 -0.00000000000E+00 -0.00000000000E+00 -0.41138855160E+03  0.41138855160E+03  0.00000000000E+00 0.  1.
         25    2    1    2    0    0  0.23490286800E+02 -0.58958804010E+02 -0.23306325640E+03  0.27201852551E+03  0.12509061753E+03 0.  0.
          5    1    3    3  502    0  0.44280817361E+02 -0.78953316248E+02 -0.96496568750E+02  0.13237627096E+03  0.41800000000E+01 0. -1.
         -5    1    3    3    0  502 -0.20790530561E+02  0.19994512238E+02 -0.13656668765E+03  0.13964225455E+03  0.41800000000E+01 0. -1.
        -11    1    1    2    0    0  0.24948476760E+02 -0.79898934034E+01 -0.45548230986E+02  0.52544326384E+02  0.00000000000E+00 0.  1.
         11    1    1    2    0    0 -0.48438763560E+02  0.66948697413E+02 -0.94254123411E+02  0.12534864052E+03  0.00000000000E+00 0. -1.
</event>
<event>
 7    1  0.2878477E-009  0.1100729E+03  0.7561462E-02  0.1260435E+00
          2   -1    0    0  501    0  0.00000000000E+00  0.00000000000E+00  0.16537897609E+03  0.16537897609E+03  0.00000000000E+00 0.  1.
         -2   -1    0    0    0  501 -0.00000000000E+00 -0.00000000000E+00 -0.84551868366E+02  0.84551868366E+02  0.00000000000E+00 0. -1.
         25    2    1    2    0    0 -0.39587235352E+02 -0.31241257046E+00  0.76821202066E+02  0.15203665411E+03  0.12508557192E+03 0.  0.
          5    1    3    3  502    0 -0.47830886291E+01  0.57172675621E+02  0.12387584892E+02  0.58843159619E+02  0.41800000000E+01 0. -1.
         -5    1    3    3    0  502 -0.34804146723E+02 -0.57485088191E+02  0.64433617174E+02  0.93193494492E+02  0.41800000000E+01 0. -1.
        -11    1    1    2    0    0  0.67123787187E+02  0.51973048349E+01 -0.73197667430E+01  0.67721442461E+02  0.00000000000E+00 0. -1.
         11    1    1    2    0    0 -0.27536551834E+02 -0.48848922645E+01  0.11325672396E+02  0.30172747879E+02  0.00000000000E+00 0.  1.
</event>
<event>
 7    1  0.2878477E-009  0.1126857E+03  0.7561462E-02  0.1255676E+00
         -3   -1    0    0    0  501 -0.00000000000E+00  0.00000000000E+00  0.22771359883E+02  0.22771359883E+02  0.00000000000E+00 0.  1.
          3   -1    0    0  501    0  0.00000000000E+00 -0.00000000000E+00 -0.59812767109E+03  0.59812767109E+03  0.00000000000E+00 0. -1.
         25    2    1    2    0    0 -0.22203293183E+02 -0.20156823861E+02 -0.39814836666E+03  0.41842524079E+03  0.12513303513E+03 0.  0.
          5    1    3    3  502    0 -0.97037198316E+00 -0.72095962736E+02 -0.21258003267E+03  0.22451394646E+03  0.41800000000E+01 0.  1.
         -5    1    3    3    0  502 -0.21232921200E+02  0.51939138876E+02 -0.18556833399E+03  0.19391129433E+03  0.41800000000E+01 0.  1.
        -11    1    1    2    0    0  0.57533491951E+02  0.30172182974E+01 -0.90407133340E+02  0.10720380619E+03  0.00000000000E+00 0.  1.
         11    1    1    2    0    0 -0.35330198768E+02  0.17139605563E+02 -0.86800811209E+02  0.95269983995E+02  0.00000000000E+00 0. -1.
</event>
<event>
 7    1  0.2878477E-009  0.1137602E+03  0.7561462E-02  0.1253761E+00
          2   -1    0    0  501    0  0.00000000000E+00  0.00000000000E+00  0.16110904544E+03  0.16110904544E+03  0.00000000000E+00 0. -1.
         -2   -1    0    0    0  501 -0.00000000000E+00 -0.00000000000E+00 -0.12557603797E+03  0.12557603797E+03  0.00000000000E+00 0.  1.
         25    2    1    2    0    0 -0.45670726058E+02  0.50637216580E+02  0.81342705582E+02  0.16405451888E+03  0.12508919414E+03 0.  0.
          5    1    3    3  502    0  0.19841426153E+01 -0.29606484222E+02 -0.11733102675E+02  0.32181032120E+02  0.41800000000E+01 0. -1.
         -5    1    3    3    0  502 -0.47654868673E+02  0.80243700802E+02  0.93075808257E+02  0.13187348676E+03  0.41800000000E+01 0. -1.
        -11    1    1    2    0    0 -0.18664815215E+02 -0.32182356812E+02  0.63944875892E+01  0.37748760092E+02  0.00000000000E+00 0. -1.
         11    1    1    2    0    0  0.64335541273E+02 -0.18454859768E+02 -0.52204185703E+02  0.84881804440E+02  0.00000000000E+00 0.  1.
</event>
<event>
 7    1  0.2878477E-009  0.7621408E+02  0.7561462E-02  0.1340152E+00
         -1   -1    0    0    0  501 -0.00000000000E+00  0.00000000000E+00  0.28600728259E+02  0.28600728259E+02  0.00000000000E+00 0.  1.
          1   -1    0    0  501    0  0.00000000000E+00 -0.00000000000E+00 -0.48603856942E+03  0.48603856942E+03  0.00000000000E+00 0. -1.
         25    2    1    2    0    0 -0.26582484843E+02 -0.36435428376E+02 -0.22642903571E+03  0.26258238472E+03  0.12508090026E+03 0.  0.
          5    1    3    3  502    0 -0.12788994548E+02 -0.45675052329E+02 -0.23747918131E+03  0.24220570336E+03  0.41800000000E+01 0.  1.
         -5    1    3    3    0  502 -0.13793490295E+02  0.92396239522E+01  0.11050145599E+02  0.20376681355E+02  0.41800000000E+01 0.  1.
        -11    1    1    2    0    0 -0.26141735939E+02  0.60266425416E+01 -0.14015807084E+03  0.14270247229E+03  0.00000000000E+00 0. -1.
         11    1    1    2    0    0  0.52724220782E+02  0.30408785835E+02 -0.90850734611E+02  0.10935444066E+03  0.00000000000E+00 0.  1.
</event>
<event>
 7    1  0.2878477E-009  0.2513513E+03  0.7561462E-02  0.1112454E+00
         -1   -1    0    0    0  501 -0.00000000000E+00  0.00000000000E+00  0.17706990028E+03  0.17706990028E+03  0.00000000000E+00 0.  1.
          1   -1    0    0  501    0  0.00000000000E+00 -0.00000000000E+00 -0.39512428106E+03  0.39512428106E+03  0.00000000000E+00 0. -1.
         25    2    1    2    0    0  0.21765816920E+03  0.99961113777E+02 -0.14030577256E+03  0.30446770434E+03  0.12509024856E+03 0.  0.
          5    1    3    3  502    0  0.11634592163E+03 -0.50840892305E+01 -0.98542049658E+02  0.15261136719E+03  0.41800000000E+01 0. -1.
         -5    1    3    3    0  502  0.10131224757E+03  0.10504520301E+03 -0.41763722901E+02  0.15185633715E+03  0.41800000000E+01 0. -1.
        -11    1    1    2    0    0 -0.17631887228E+02 -0.13735825369E+02  0.19049296345E+02  0.29367193210E+02  0.00000000000E+00 0.  1.
         11    1    1    2    0    0 -0.20002628197E+03 -0.86225288407E+02 -0.96797904572E+02  0.23835928379E+03  0.00000000000E+00 0. -1.
</event>
<event>
 7    1  0.2878477E-009  0.1132916E+03  0.7561462E-02  0.1254593E+00
         -1   -1    0    0    0  501 -0.00000000000E+00  0.00000000000E+00  0.15980782498E+03  0.15980782498E+03  0.00000000000E+00 0.  1.
          1   -1    0    0  501    0  0.00000000000E+00 -0.00000000000E+00 -0.11355606268E+03  0.11355606268E+03  0.00000000000E+00 0. -1.
         25    2    1    2    0    0 -0.18599315749E+02  0.35692766870E+02  0.11248084067E+02  0.13188575435E+03  0.12508966645E+03 0.  0.
          5    1    3    3  502    0  0.11394948408E+01  0.68405078117E+02 -0.30603281604E+02  0.75063882164E+02  0.41800000000E+01 0. -1.
         -5    1    3    3    0  502 -0.19738810590E+02 -0.32712311247E+02  0.41851365671E+02  0.56821872190E+02  0.41800000000E+01 0. -1.
        -11    1    1    2    0    0 -0.19238661941E+02 -0.67492408541E+02  0.53975112487E+02  0.88536230391E+02  0.00000000000E+00 0.  1.
         11    1    1    2    0    0  0.37837977691E+02  0.31799641671E+02 -0.18971434258E+02  0.52941902912E+02  0.00000000000E+00 0. -1.
</event>
<event>
 7    1  0.2878477E-009  0.1140138E+03  0.7561462E-02  0.1253312E+00
         -1   -1    0    0    0  501 -0.00000000000E+00  0.00000000000E+00  0.10629211617E+03  0.10629211617E+03  0.00000000000E+00 0.  1.
          1   -1    0    0  501    0  0.00000000000E+00 -0.00000000000E+00 -0.17499040913E+03  0.17499040913E+03  0.00000000000E+00 0. -1.
         25    2    1    2    0    0  0.79075212573E+02 -0.82919442158E+01 -0.68555407980E+02  0.16330819508E+03  0.12509227409E+03 0.  0.
          5    1    3    3  502    0  0.96709769358E+02 -0.40493169716E+02 -0.70324421433E+02  0.12631497509E+03  0.41800000000E+01 0.  1.
         -5    1    3    3    0  502 -0.17634556785E+02  0.32201225500E+02  0.17690134530E+01  0.36993219991E+02  0.41800000000E+01 0.  1.
        -11    1    1    2    0    0 -0.35313322104E+02 -0.12809420015E+02 -0.40190470834E+02  0.55012597694E+02  0.00000000000E+00 0. -1.
         11    1    1    2    0    0 -0.43761890469E+02  0.21101364231E+02  0.40047585847E+02  0.62961732520E+02  0.00000000000E+00 0.  1.
</event>
<event>
 7    1  0.2878477E-009  0.8506046E+02  0.7561462E-02  0.1315274E+00
          2   -1    0    0  501    0  0.00000000000E+00  0.00000000000E+00  0.85139333933E+02  0.85139333933E+02  0.00000000000E+00 0. -1.
         -2   -1    0    0    0  501 -0.00000000000E+00 -0.00000000000E+00 -0.18130866989E+03  0.18130866989E+03  0.00000000000E+00 0.  1.
         25    2    1    2    0    0  0.34237311985E+02 -0.16948785826E+01 -0.10606173037E+03  0.16753089569E+03  0.12506975740E+03 0.  0.
          5    1    3    3  502    0  0.32447897345E+01  0.32923717384E+02 -0.11525429383E+03  0.11998135053E+03  0.41800000000E+01 0. -1.
         -5    1    3    3    0  502  0.30992522250E+02 -0.34618595967E+02  0.91925634678E+01  0.47549545164E+02  0.41800000000E+01 0. -1.
        -11    1    1    2    0    0 -0.29011412818E+02 -0.39270658796E+02  0.25112338986E+02  0.54904246515E+02  0.00000000000E+00 0. -1.
         11    1    1    2    0    0 -0.52258991670E+01  0.40965537379E+02 -0.15219944574E+02  0.44012861617E+02  0.00000000000E+00 0.  1.
</event>
<event>
 7    1  0.2878477E-009  0.1300229E+03  0.7561462E-02  0.1227422E+00
          2   -1    0    0  501    0  0.00000000000E+00  0.00000000000E+00  0.60721509874E+02  0.60721509874E+02  0.00000000000E+00 0. -1.
         -2   -1    0    0    0  501 -0.00000000000E+00 -0.00000000000E+00 -0.39063567459E+03  0.39063567459E+03  0.00000000000E+00 0.  1.
         25    2    1    2    0    0  0.68173911527E+02  0.68760579827E+02 -0.25091552357E+03  0.29661599117E+03  0.12508695654E+03 0.  0.
          5    1    3    3  502    0 -0.58964201850E+01  0.65720936013E+02 -0.51444042214E+02  0.83773331560E+02  0.41800000000E+01 0. -1.
         -5    1    3    3    0  502  0.74070331712E+02  0.30396438145E+01 -0.19947148136E+03  0.21284265961E+03  0.41800000000E+01 0. -1.
        -11    1    1    2    0    0 -0.60677131656E+02 -0.11287400360E+02 -0.74301586863E+02  0.96591125489E+02  0.00000000000E+00 0.  1.
         11    1    1    2    0    0 -0.74967798714E+01 -0.57473179467E+02 -0.46970542780E+01  0.58150067802E+02  0.00000000000E+00 0. -1.
</event>
<event>
 7    1  0.2878477E-009  0.7076835E+02  0.7561462E-02  0.1357500E+00
          2   -1    0    0  501    0  0.00000000000E+00  0.00000000000E+00  0.10053680454E+03  0.10053680454E+03  0.00000000000E+00 0. -1.
         -2   -1    0    0    0  501 -0.00000000000E+00 -0.00000000000E+00 -0.11824952251E+03  0.11824952251E+03  0.00000000000E+00 0.  1.
         25    2    1    2    0    0  0.13435857060E+02  0.44902826060E+01 -0.12203724391E+02  0.12649628333E+03  0.12510673009E+03 0.  0.
          5    1    3    3  502    0  0.25581357250E+02 -0.11958858897E+02  0.51816899329E+02  0.59159814071E+02  0.41800000000E+01 0.  1.
         -5    1    3    3    0  502 -0.12145500190E+02  0.16449141503E+02 -0.64020623720E+02  0.67336469261E+02  0.41800000000E+01 0.  1.
        -11    1    1    2    0    0 -0.49179276270E+02 -0.20085597869E+02 -0.26942630604E+01  0.53191084870E+02  0.00000000000E+00 0. -1.
         11    1    1    2    0    0  0.35743419210E+02  0.15595315263E+02 -0.28147305214E+01  0.39098958847E+02  0.00000000000E+00 0.  1.
</event>
<event>
 7    1  0.2878477E-009  0.7501826E+02  0.7561462E-02  0.1343814E+00
         -1   -1    0    0    0  501 -0.00000000000E+00  0.00000000000E+00  0.25255518876E+02  0.25255518876E+02  0.00000000000E+00 0.  1.
          1   -1    0    0  501    0  0.00000000000E+00 -0.00000000000E+00 -0.56003181548E+03  0.56003181548E+03  0.00000000000E+00 0. -1.
         25    2    1    2    0    0 -0.60265773374E+01  0.44655204968E+02 -0.35876539092E+03  0.38261241310E+03  0.12509694629E+03 0.  0.
          5    1    3    3  502    0 -0.22897944168E+02  0.22485506836E+02 -0.11711776369E+02  0.34417320792E+02  0.41800000000E+01 0.  1.
         -5    1    3    3    0  502  0.16871366830E+02  0.22169698132E+02 -0.34705361455E+03  0.34819509230E+03  0.41800000000E+01 0.  1.
        -11    1    1    2    0    0 -0.21683910153E+02 -0.55622867161E+02 -0.15530930061E+03  0.16638832341E+03  0.00000000000E+00 0. -1.
         11    1    1    2    0    0  0.27710487491E+02  0.10967662193E+02 -0.20701605078E+02  0.36286597853E+02  0.00000000000E+00 0.  1.
</event>
<event>
 7    1  0.2878477E-009  0.8383906E+02  0.7561462E-02  0.1318497E+00
          1   -1    0    0  501    0  0.00000000000E+00  0.00000000000E+00  0.27855997570E+03  0.27855997570E+03  0.00000000000E+00 0. -1.
         -1   -1    0    0    0  501 -0.00000000000E+00 -0.00000000000E+00 -0.59410340223E+02  0.59410340223E+02  0.00000000000E+00 0.  1.
         25    2    1    2    0    0 -0.45764590599E+02  0.10573397679E+02  0.56520845797E+02  0.14508464720E+03  0.12509498133E+03 0.  0.
          5    1    3    3  502    0 -0.30274480036E+02  0.32084837100E+02  0.91105401071E+02  0.10130966103E+03  0.41800000000E+01 0. -1.
         -5    1    3    3    0  502 -0.15490110563E+02 -0.21511439421E+02 -0.34584555273E+02  0.43774986176E+02  0.41800000000E+01 0. -1.
        -11    1    1    2    0    0  0.28203204717E+02  0.36593898454E+02  0.11354050882E+03  0.12258050947E+03  0.00000000000E+00 0. -1.
         11    1    1    2    0    0  0.17561385882E+02 -0.47167296133E+02  0.49088280865E+02  0.70305159248E+02  0.00000000000E+00 0.  1.
</event>
<event>
 7    1  0.2878477E-009  0.9730056E+02  0.7561462E-02  0.1286077E+00
         -2   -1    0    0    0  501 -0.00000000000E+00  0.00000000000E+00  0.11828811038E+02  0.11828811038E+02  0.00000000000E+00 0.  1.
          2   -1    0    0  501    0  0.00000000000E+00 -0.00000000000E+00 -0.14103152765E+04  0.14103152765E+04  0.00000000000E+00 0. -1.
         25    2    1    2    0    0  0.41454160499E+02  0.44419495948E+02 -0.95157383521E+03  0.96168229312E+03  0.12509408461E+03 0.  0.
          5    1    3    3  502    0  0.44485229738E+02  0.57680138410E+02 -0.26221570342E+03  0.27217729801E+03  0.41800000000E+01 0. -1.
         -5    1    3    3    0  502 -0.30310692394E+01 -0.13260642462E+02 -0.68935813179E+03  0.68950499511E+03  0.41800000000E+01 0. -1.
        -11    1    1    2    0    0 -0.10477958519E+02 -0.67796686436E+02 -0.33666719127E+03  0.34358547115E+03  0.00000000000E+00 0. -1.
         11    1    1    2    0    0 -0.30976201980E+02  0.23377190488E+02 -0.11024543897E+03  0.11687632325E+03  0.00000000000E+00 0.  1.
</event>
<event>
 7    1  0.2878477E-009  0.1004924E+03  0.7561462E-02  0.1279264E+00
         -3   -1    0    0    0  501 -0.00000000000E+00  0.00000000000E+00  0.82392190932E+02  0.82392190932E+02  0.00000000000E+00 0.  1.
          3   -1    0    0  501    0  0.00000000000E+00 -0.00000000000E+00 -0.30958327816E+03  0.30958327816E+03  0.00000000000E+00 0. -1.
         25    2    1    2    0    0  0.35447652113E+02  0.75171428842E+01  0.11087330367E+02  0.13072764605E+03  0.12511492745E+03 0.  0.
          5    1    3    3  502    0  0.12088952355E+02  0.53283035139E+02  0.43386162495E+02  0.69893176339E+02  0.41800000000E+01 0.  1.
         -5    1    3    3    0  502  0.23358699758E+02 -0.45765892255E+02 -0.32298832128E+02  0.60834469712E+02  0.41800000000E+01 0.  1.
        -11    1    1    2    0    0 -0.45778232812E+02  0.30652490444E+02 -0.73876689996E+02  0.92157403906E+02  0.00000000000E+00 0.  1.
         11    1    1    2    0    0  0.10330580699E+02 -0.38169633329E+02 -0.16440172760E+03  0.16909041914E+03  0.00000000000E+00 0. -1.
</event>
<event>
 7    1  0.2878477E-009  0.1728668E+03  0.7561462E-02  0.1174891E+00
         -1   -1    0    0    0  501 -0.00000000000E+00  0.00000000000E+00  0.32643564914E+02  0.32643564914E+02  0.00000000000E+00 0.  1.
          1   -1    0    0  501    0  0.00000000000E+00 -0.00000000000E+00 -0.12197980634E+04  0.12197980634E+04  0.00000000000E+00 0. -1.
         25    2    1    2    0    0  0.13149257497E+03  0.43272731918E+02 -0.90589790048E+03  0.92491180335E+03  0.12509201122E+03 0.  0.
          5    1    3    3  502    0  0.12364715098E+03 -0.15643371240E+02 -0.67680082814E+03  0.68819340769E+03  0.41800000000E+01 0. -1.
         -5    1    3    3    0  502  0.78454239941E+01  0.58916103159E+02 -0.22909707234E+03  0.23671839566E+03  0.41800000000E+01 0. -1.
        -11    1    1    2    0    0 -0.35894354462E+02  0.25200156297E+02 -0.12141874581E+03  0.12909672495E+03  0.00000000000E+00 0.  1.
         11    1    1    2    0    0 -0.95598220512E+02 -0.68472888215E+02 -0.15983785217E+03  0.19843309999E+03  0.00000000000E+00 0. -1.
</event>
<event>
 7    1  0.2878477E-009  0.1046475E+03  0.7561462E-02  0.1270816E+00
         -1   -1    0    0    0  501 -0.00000000000E+00  0.00000000000E+00  0.73495582136E+03  0.73495582136E+03  0.00000000000E+00 0. -1.
          1   -1    0    0  501    0  0.00000000000E+00 -0.00000000000E+00 -0.45129551364E+02  0.45129551364E+02  0.00000000000E+00 0.  1.
         25    2    1    2    0    0  0.61137826988E+02  0.34361360499E+02  0.62388161876E+03  0.64015367070E+03  0.12509960394E+03 0.  0.
          5    1    3    3  502    0  0.44127956585E+02  0.52225669217E+02  0.14236519006E+03  0.15798771097E+03  0.41800000000E+01 0. -1.
         -5    1    3    3    0  502  0.17009870403E+02 -0.17864308718E+02  0.48151642870E+03  0.48216595973E+03  0.41800000000E+01 0. -1.
        -11    1    1    2    0    0 -0.39660261466E+02  0.28831780805E+02  0.45461362858E+01  0.49243022643E+02  0.00000000000E+00 0.  1.
         11    1    1    2    0    0 -0.21477565522E+02 -0.63193141305E+02  0.61398514951E+02  0.90688679376E+02  0.00000000000E+00 0. -1.
</event>
<event>
 7    1  0.2878477E-009  0.2526816E+03  0.7561462E-02  0.1111622E+00
         -2   -1    0    0    0  501 -0.00000000000E+00  0.00000000000E+00  0.49037839784E+02  0.49037839784E+02  0.00000000000E+00 0.  1.
          2   -1    0    0  501    0  0.00000000000E+00 -0.00000000000E+00 -0.13886870351E+04  0.13886870351E+04  0.00000000000E+00 0. -1.
         25    2    1    2    0    0  0.18203925458E+03 -0.14757836985E+03 -0.58667665149E+03  0.64401470260E+03  0.12509108004E+03 0.  0.
          5    1    3    3  502    0  0.16760139355E+03 -0.16442885393E+03 -0.56828533058E+03  0.61489248205E+03  0.41800000000E+01 0.  1.
         -5    1    3    3    0  502  0.14437861025E+02  0.16850484086E+02 -0.18391320906E+02  0.29122220547E+02  0.41800000000E+01 0.  1.
        -11    1    1    2    0    0 -0.51626678796E+02  0.93434212840E+02 -0.38662908698E+03  0.40109514706E+03  0.00000000000E+00 0. -1.
         11    1    1    2    0    0 -0.13041257578E+03  0.54144157008E+02 -0.36634345684E+03  0.39261502522E+03  0.00000000000E+00 0.  1.
</event>
<event>
 7    1  0.2878477E-009  0.1177774E+03  0.7561462E-02  0.1246809E+00
         -2   -1    0    0    0  501 -0.00000000000E+00  0.00000000000E+00  0.65548622582E+02  0.65548622582E+02  0.00000000000E+00 0.  1.
          2   -1    0    0  501    0  0.00000000000E+00 -0.00000000000E+00 -0.49258529112E+03  0.49258529112E+03  0.00000000000E+00 0. -1.
         25    2    1    2    0    0  0.43912888148E+02  0.29570338632E+02 -0.43207841177E+03  0.45292619362E+03  0.12509051234E+03 0.  0.
          5    1    3    3  502    0 -0.33606789638E+02 -0.21154661473E+02 -0.89218420927E+02  0.97746278929E+02  0.41800000000E+01 0. -1.
         -5    1    3    3    0  502  0.77519677787E+02  0.50725000105E+02 -0.34285999084E+03  0.35517991469E+03  0.41800000000E+01 0. -1.
        -11    1    1    2    0    0 -0.67843332932E+02 -0.37701794916E+02  0.13029247536E+02  0.78701362470E+02  0.00000000000E+00 0.  1.
         11    1    1    2    0    0  0.23930444784E+02  0.81314562847E+01 -0.79875043053E+01  0.26506357613E+02  0.00000000000E+00 0. -1.
</event>
<event>
 7    1  0.2878477E-009  0.1920342E+03  0.7561462E-02  0.1156639E+00
         -2   -1    0    0    0  501 -0.00000000000E+00  0.00000000000E+00  0.27661500388E+02  0.27661500388E+02  0.00000000000E+00 0.  1.
          2   -1    0    0  501    0  0.00000000000E+00 -0.00000000000E+00 -0.16713985430E+04  0.16713985430E+04  0.00000000000E+00 0. -1.
         25    2    1    2    0    0  0.16069739694E+03  0.31452011766E+02 -0.12100099731E+04  0.12274299861E+04  0.12508938149E+03 0.  0.
          5    1    3    3  502    0 -0.46523440481E+01 -0.28751137984E+02 -0.20923189259E+03  0.21129062808E+03  0.41800000000E+01 0. -1.
         -5    1    3    3    0  502  0.16534974098E+03  0.60203149751E+02 -0.10007780805E+04  0.10161393580E+04  0.41800000000E+01 0. -1.
        -11    1    1    2    0    0 -0.23773198666E+02 -0.34228324187E+02 -0.55733671597E+02  0.69591560560E+02  0.00000000000E+00 0. -1.
         11    1    1    2    0    0 -0.13692419827E+03  0.27763124209E+01 -0.37799339796E+03  0.40203849677E+03  0.00000000000E+00 0.  1.
</event>
<event>
 7    1  0.2878477E-009  0.1499161E+03  0.7561462E-02  0.1200576E+00
          1   -1    0    0  501    0  0.00000000000E+00  0.00000000000E+00  0.24910262254E+03  0.24910262254E+03  0.00000000000E+00 0. -1.
         -1   -1    0    0    0  501 -0.00000000000E+00 -0.00000000000E+00 -0.10107067764E+03  0.10107067764E+03  0.00000000000E+00 0.  1.
         25    2    1    2    0    0  0.71310344991E+02  0.83833808518E+02  0.11929049343E+03  0.20491771951E+03  0.12509107560E+03 0.  0.
          5    1    3    3  502    0  0.75567910068E+02  0.19402825290E+01  0.90303299275E+02  0.11784070599E+03  0.41800000000E+01 0. -1.
         -5    1    3    3    0  502 -0.42575650769E+01  0.81893525989E+02  0.28987194152E+02  0.87077013523E+02  0.41800000000E+01 0. -1.
        -11    1    1    2    0    0 -0.33029691937E+02  0.14813123484E+02  0.27966964986E+01  0.36307171304E+02  0.00000000000E+00 0. -1.
         11    1    1    2    0    0 -0.38280653054E+02 -0.98646932002E+02  0.25944754973E+02  0.10894840936E+03  0.00000000000E+00 0.  1.
</event>
<event>
 7    1  0.2878477E-009  0.2015617E+03  0.7561462E-02  0.1148428E+00
         -2   -1    0    0    0  501 -0.00000000000E+00  0.00000000000E+00  0.51581245744E+02  0.51581245744E+02  0.00000000000E+00 0.  1.
          2   -1    0    0  501    0  0.00000000000E+00 -0.00000000000E+00 -0.95951133649E+03  0.95951133649E+03  0.00000000000E+00 0. -1.
         25    2    1    2    0    0  0.14998651554E+03  0.11584342080E+03 -0.55416438644E+03  0.59888316851E+03  0.12508888573E+03 0.  0.
          5    1    3    3  502    0  0.68473888132E+02  0.32186105665E+02 -0.39041704296E+03  0.39770285212E+03  0.41800000000E+01 0.  1.
         -5    1    3    3    0  502  0.81512627410E+02  0.83657315131E+02 -0.16374734349E+03  0.20118031639E+03  0.41800000000E+01 0.  1.
        -11    1    1    2    0    0  0.11396343961E+02 -0.19299779635E+02 -0.26006113457E+02  0.34331852365E+02  0.00000000000E+00 0.  1.
         11    1    1    2    0    0 -0.16138285950E+03 -0.96543641161E+02 -0.32775959085E+03  0.37787756136E+03  0.00000000000E+00 0. -1.
</event>
<event>
 7    1  0.2878477E-009  0.1310816E+03  0.7561462E-02  0.1225860E+00
         -1   -1    0    0    0  501 -0.00000000000E+00  0.00000000000E+00  0.14673993362E+02  0.14673993362E+02  0.00000000000E+00 0.  1.
          1   -1    0    0  501    0  0.00000000000E+00 -0.00000000000E+00 -0.15038402142E+04  0.15038402142E+04  0.00000000000E+00 0. -1.
         25    2    1    2    0    0  0.37439875632E+02 -0.72326019669E+02 -0.10983296931E+04  0.11084262487E+04  0.12509131351E+03 0.  0.
          5    1    3    3  502    0 -0.38540226868E+02 -0.60593352976E+02 -0.49324125060E+03  0.49845893231E+03  0.41800000000E+01 0. -1.
         -5    1    3    3    0  502  0.75980102500E+02 -0.11732666694E+02 -0.60508844247E+03  0.60996731639E+03  0.41800000000E+01 0. -1.
        -11    1    1    2    0    0 -0.39129536131E+02 -0.17231433856E+01 -0.64579000005E+02  0.75528385807E+02  0.00000000000E+00 0.  1.
         11    1    1    2    0    0  0.16896604986E+01  0.74049163055E+02 -0.32625752771E+03  0.33455957301E+03  0.00000000000E+00 0. -1.
</event>
<event>
 7    1  0.2878477E-009  0.1264554E+03  0.7561462E-02  0.1232812E+00
         -1   -1    0    0    0  501 -0.00000000000E+00  0.00000000000E+00  0.39351734625E+02  0.39351734625E+02  0.00000000000E+00 0.  1.
          1   -1    0    0  501    0  0.00000000000E+00 -0.00000000000E+00 -0.87866135406E+03  0.87866135406E+03  0.00000000000E+00 0. -1.
         25    2    1    2    0    0  0.91244579185E+02 -0.29261252949E+02 -0.72828520388E+03  0.74513667853E+03  0.12509011686E+03 0.  0.
          5    1    3    3  502    0  0.54834316533E+02  0.37372271538E+02 -0.50269865834E+03  0.50707682105E+03  0.41800000000E+01 0.  1.
         -5    1    3    3    0  502  0.36410262652E+02 -0.66633524486E+02 -0.22558654554E+03  0.23805985747E+03  0.41800000000E+01 0.  1.
        -11    1    1    2    0    0 -0.70504363988E+02  0.45603941513E+02 -0.32511473591E+02  0.90042105361E+02  0.00000000000E+00 0.  1.
         11    1    1    2    0    0 -0.20740215196E+02 -0.16342688564E+02 -0.78512941963E+02  0.82834304799E+02  0.00000000000E+00 0. -1.
</event>
<event>
 7    1  0.2878477E-009  0.1170979E+03  0.7561462E-02  0.1247963E+00
          1   -1    0    0  501    0  0.00000000000E+00  0.00000000000E+00  0.21831357034E+03  0.21831357034E+03  0.00000000000E+00 0. -1.
         -1   -1    0    0    0  501 -0.00000000000E+00 -0.00000000000E+00 -0.74199601237E+02  0.74199601237E+02  0.00000000000E+00 0.  1.
         25    2    1    2    0    0 -0.31174482455E+02  0.36424316810E+02  0.32169247323E+02  0.13777264117E+03  0.12509141046E+03 0.  0.
          5    1    3    3  502    0 -0.79196678764E+02  0.30048145379E+02  0.14505740065E+02  0.86040071263E+02  0.41800000000E+01 0.  1.
         -5    1    3    3    0  502  0.48022196309E+02  0.63761714311E+01  0.17663507258E+02  0.51732569906E+02  0.41800000000E+01 0.  1.
        -11    1    1    2    0    0 -0.14924739899E+02  0.21849558312E+02  0.55312398554E+02  0.61315679017E+02  0.00000000000E+00 0. -1.
         11    1    1    2    0    0  0.46099222354E+02 -0.58273875123E+02  0.56632323227E+02  0.93424851392E+02  0.00000000000E+00 0.  1.
</event>
<event>
 7    1  0.2878477E-009  0.7827764E+02  0.7561462E-02  0.1334012E+00
          1   -1    0    0  501    0  0.00000000000E+00  0.00000000000E+00  0.42747929539E+03  0.42747929539E+03  0.00000000000E+00 0. -1.
         -1   -1    0    0    0  501 -0.00000000000E+00 -0.00000000000E+00 -0.26740846820E+02  0.26740846820E+02  0.00000000000E+00 0.  1.
         25    2    1    2    0    0  0.21949696837E+02  0.61997452924E+01  0.24367513199E+03  0.27486026361E+03  0.12510143295E+03 0.  0.
          5    1    3    3  502    0  0.10466402408E+02  0.50616640290E+02  0.21369439933E+03  0.21989624498E+03  0.41800000000E+01 0.  1.
         -5    1    3    3    0  502  0.11483294429E+02 -0.44416894998E+02  0.29980732665E+02  0.54964018624E+02  0.41800000000E+01 0.  1.
        -11    1    1    2    0    0 -0.39075181281E+02  0.30027476583E+01  0.15492060949E+03  0.15980075572E+03  0.00000000000E+00 0. -1.
         11    1    1    2    0    0  0.17125484444E+02 -0.92024929507E+01  0.21427070827E+01  0.19559122874E+02  0.00000000000E+00 0.  1.
</event>
<event>
 7    1  0.2878477E-009  0.2099745E+03  0.7561462E-02  0.1141586E+00
         -1   -1    0    0    0  501 -0.00000000000E+00  0.00000000000E+00  0.66534559693E+02  0.66534559693E+02  0.00000000000E+00 0.  1.
          1   -1    0    0  501    0  0.00000000000E+00 -0.00000000000E+00 -0.76016856705E+03  0.76016856705E+03  0.00000000000E+00 0. -1.
         25    2    1    2    0    0  0.11273990879E+03 -0.14838747367E+03 -0.26076079009E+03  0.34405593170E+03  0.12509662312E+03 0.  0.
          5    1    3    3  502    0  0.63974998789E+02 -0.15645393795E+03 -0.23079904137E+03  0.28610540901E+03  0.41800000000E+01 0. -1.
         -5    1    3    3    0  502  0.48764910004E+02  0.80664642803E+01 -0.29961748723E+02  0.57950522692E+02  0.41800000000E+01 0. -1.
        -11    1    1    2    0    0 -0.11386671472E+03  0.96196514209E+02 -0.38069930335E+03  0.40884148228E+03  0.00000000000E+00 0. -1.
         11    1    1    2    0    0  0.11268059286E+01  0.52190959464E+02 -0.52173913926E+02  0.73805712758E+02  0.00000000000E+00 0.  1.
</event>
<event>
 7    1  0.2878477E-009  0.1758933E+03  0.7561462E-02  0.1171838E+00
          1   -1    0    0  501    0  0.00000000000E+00  0.00000000000E+00  0.52263948227E+03  0.52263948227E+03  0.00000000000E+00 0. -1.
         -1   -1    0    0    0  501 -0.00000000000E+00 -0.00000000000E+00 -0.85055416605E+02  0.85055416605E+02  0.00000000000E+00 0.  1.
         25    2    1    2    0    0  0.52276837291E+02  0.13509374534E+03  0.73225979204E+02  0.20492079066E+03  0.12508916287E+03 0.  0.
          5    1    3    3  502    0 -0.23667989883E+01  0.13537338684E+03  0.41876430074E+02  0.14178386156E+03  0.41800000000E+01 0.  1.
         -5    1    3    3    0  502  0.54643636279E+02 -0.27964150604E+00  0.31349549130E+02  0.63136929097E+02  0.41800000000E+01 0.  1.
        -11    1    1    2    0    0 -0.17984583822E+02  0.38660363099E+01  0.10770778536E+02  0.21316687413E+02  0.00000000000E+00 0.  1.
         11    1    1    2    0    0 -0.34292253469E+02 -0.13895978165E+03  0.35358730792E+03  0.38145742080E+03  0.00000000000E+00 0. -1.
</event>
<event>
 7    1  0.2878477E-009  0.1194969E+03  0.7561462E-02  0.1243929E+00
         -1   -1    0    0    0  501 -0.00000000000E+00  0.00000000000E+00  0.26159816796E+02  0.26159816796E+02  0.00000000000E+00 0.  1.
          1   -1    0    0  501    0  0.00000000000E+00 -0.00000000000E+00 -0.10064016202E+04  0.10064016202E+04  0.00000000000E+00 0. -1.
         25    2    1    2    0    0  0.71411054161E+02  0.38544512629E+02 -0.80703122152E+03  0.82069034216E+03  0.12509207446E+03 0.  0.
          5    1    3    3  502    0  0.23610782376E+02  0.62220551187E+02 -0.67417229418E+03  0.67746189611E+03  0.41800000000E+01 0.  1.
         -5    1    3    3    0  502  0.47800271785E+02 -0.23676038559E+02 -0.13285892734E+03  0.14322844605E+03  0.41800000000E+01 0.  1.
        -11    1    1    2    0    0 -0.16694329897E+01 -0.48350481654E+02 -0.47634762712E+02  0.67894231723E+02  0.00000000000E+00 0.  1.
         11    1    1    2    0    0 -0.69741621171E+02  0.98059690258E+01 -0.12557581918E+03  0.14397686312E+03  0.00000000000E+00 0. -1.
</event>
<event>
 7    1  0.2878477E-009  0.8887578E+02  0.7561462E-02  0.1305597E+00
         -1   -1    0    0    0  501 -0.00000000000E+00  0.00000000000E+00  0.26503197371E+03  0.26503197371E+03  0.00000000000E+00 0.  1.
          1   -1    0    0  501    0  0.00000000000E+00 -0.00000000000E+00 -0.48559234380E+02  0.48559234380E+02  0.00000000000E+00 0. -1.
         25    2    1    2    0    0 -0.11444606025E+02 -0.31821446157E+02  0.12532381113E+03  0.18027254956E+03  0.12509416872E+03 0.  0.
          5    1    3    3  502    0 -0.53846099830E+02  0.13058892312E+02  0.21851619796E+02  0.59706807175E+02  0.41800000000E+01 0. -1.
         -5    1    3    3    0  502  0.42401493805E+02 -0.44880338468E+02  0.10347219133E+03  0.12056574239E+03  0.41800000000E+01 0. -1.
        -11    1    1    2    0    0 -0.19437855116E+02  0.69228861906E+01  0.91347283234E+02  0.93648719794E+02  0.00000000000E+00 0.  1.
         11    1    1    2    0    0  0.30882461142E+02  0.24898559966E+02 -0.19835503253E+00  0.39669938735E+02  0.00000000000E+00 0. -1.
</event>
<event>
 7    1  0.2878477E-009  0.1558868E+03  0.7561462E-02  0.1193420E+00
         -2   -1    0    0    0  501 -0.00000000000E+00  0.00000000000E+00  0.36232204632E+02  0.36232204632E+02  0.00000000000E+00 0.  1.
          2   -1    0    0  501    0  0.00000000000E+00 -0.00000000000E+00 -0.72647335638E+03  0.72647335638E+03  0.00000000000E+00 0. -1.
         25    2    1    2    0    0  0.69226011769E+02 -0.93504688634E+02 -0.29431239775E+03  0.34029844179E+03  0.12509146459E+03 0.  0.
          5    1    3    3  502    0 -0.29194068952E+02 -0.47956688308E+02 -0.61179044043E+02  0.83141358213E+02  0.41800000000E+01 0.  1.
         -5    1    3    3    0  502  0.98420080722E+02 -0.45548000325E+02 -0.23313335371E+03  0.25715708358E+03  0.41800000000E+01 0.  1.
        -11    1    1    2    0    0  0.10309089911E+02  0.59599741558E+02 -0.15083232179E+03  0.16250783312E+03  0.00000000000E+00 0. -1.
         11    1    1    2    0    0 -0.79535101680E+02  0.33904947076E+02 -0.24509643221E+03  0.25989928611E+03  0.00000000000E+00 0.  1.
</event>
<event>
 7    1  0.2878477E-009  0.1372167E+03  0.7561462E-02  0.1217124E+00
         -2   -1    0    0    0  501 -0.00000000000E+00  0.00000000000E+00  0.23988306641E+02  0.23988306641E+02  0.00000000000E+00 0. -1.
          2   -1    0    0  501    0  0.00000000000E+00 -0.00000000000E+00 -0.85970001666E+03  0.85970001666E+03  0.00000000000E+00 0.  1.
         25    2    1    2    0    0 -0.31500556615E+02  0.90747945864E+02 -0.46513172908E+03  0.49114416123E+03  0.12509031524E+03 0.  0.
          5    1    3    3  502    0  0.15521497173E+02 -0.26127605621E+02 -0.11472528644E+03  0.11875576785E+03  0.41800000000E+01 0.  1.
         -5    1    3    3    0  502 -0.47022053787E+02  0.11687555149E+03 -0.35040644264E+03  0.37238839338E+03  0.41800000000E+01 0.  1.
        -11    1    1    2    0    0 -0.19739394509E+02 -0.44505566633E+02 -0.23954532874E+03  0.24444294565E+03  0.00000000000E+00 0.  1.
         11    1    1    2    0    0  0.51239951124E+02 -0.46242379232E+02 -0.13103465220E+03  0.14810121642E+03  0.00000000000E+00 0. -1.
</event>
<event>
 7    1  0.2878477E-009  0.5853217E+02  0.7561462E-02  0.1404097E+00
          1   -1    0    0  501    0  0.00000000000E+00  0.00000000000E+00  0.56754242730E+02  0.56754242730E+02  0.00000000000E+00 0. -1.
         -1   -1    0    0    0  501 -0.00000000000E+00 -0.00000000000E+00 -0.26873232918E+03  0.26873232918E+03  0.00000000000E+00 0.  1.
         25    2    1    2    0    0  0.47449827839E+02  0.12397518661E+02 -0.83174945539E+02  0.15801876849E+03  0.12508666995E+03 0.  0.
          5    1    3    3  502    0  0.20955006364E+02 -0.17668475660E+02 -0.10745665685E+03  0.11097609123E+03  0.41800000000E+01 0.  1.
         -5    1    3    3    0  502  0.26494821476E+02  0.30065994321E+02  0.24281711309E+02  0.47042677259E+02  0.41800000000E+01 0.  1.
        -11    1    1    2    0    0 -0.24554849240E+02 -0.61106768273E+01 -0.13924874264E+03  0.14152912534E+03  0.00000000000E+00 0.  1.
         11    1    1    2    0    0 -0.22894978599E+02 -0.62868418336E+01  0.10445601726E+02  0.25938678084E+02  0.00000000000E+00 0. -1.
</event>
<event>
 7    1  0.2878477E-009  0.7290861E+02  0.7561462E-02  0.1350472E+00
         -1   -1    0    0    0  501 -0.00000000000E+00  0.00000000000E+00  0.66449784999E+02  0.66449784999E+02  0.00000000000E+00 0.  1.
          1   -1    0    0  501    0  0.00000000000E+00 -0.00000000000E+00 -0.24249979125E+03  0.24249979125E+03  0.00000000000E+00 0. -1.
         25    2    1    2    0    0 -0.20666850589E+02 -0.19577895246E+02 -0.18123691985E+03  0.22204572855E+03  0.12508825588E+03 0.  0.
          5    1    3    3  502    0  0.46140008732E+01  0.32847728947E+02 -0.19361459624E+01  0.33488555690E+02  0.41800000000E+01 0.  1.
         -5    1    3    3    0  502 -0.25280851462E+02 -0.52425624193E+02 -0.17930077389E+03  0.18855717286E+03  0.41800000000E+01 0.  1.
        -11    1    1    2    0    0  0.35400184057E+02  0.16123349901E+02 -0.29657453079E+02  0.48915232458E+02  0.00000000000E+00 0. -1.
         11    1    1    2    0    0 -0.14733333468E+02  0.34545453443E+01  0.34844366675E+02  0.37988615237E+02  0.00000000000E+00 0.  1.
</event>
<event>
 7    1  0.2878477E-009  0.1011872E+03  0.7561462E-02  0.1277819E+00
          1   -1    0    0  501    0  0.00000000000E+00  0.00000000000E+00  0.13306321958E+03  0.13306321958E+03  0.00000000000E+00 0. -1.
         -1   -1    0    0    0  501 -0.00000000000E+00 -0.00000000000E+00 -0.11628411197E+03  0.11628411197E+03  0.00000000000E+00 0.  1.
         25    2    1    2    0    0  0.84146543376E+01  0.93392686395E+01  0.72054274694E+02  0.14490501121E+03  0.12509042900E+03 0.  0.
          5    1    3    3  502    0  0.59942352621E+02 -0.22819563762E+02  0.30153282341E+02  0.70996556001E+02  0.41800000000E+01 0.  1.
         -5    1    3    3    0  502 -0.51527698283E+02  0.32158832401E+02  0.41900992353E+02  0.73908455213E+02  0.41800000000E+01 0.  1.
        -11    1    1    2    0    0  0.65147016305E+01  0.32316092507E+02  0.84291444529E+00  0.32976987082E+02  0.00000000000E+00 0. -1.
         11    1    1    2    0    0 -0.14929355968E+02 -0.41655361147E+02 -0.56118081527E+02  0.71465333247E+02  0.00000000000E+00 0.  1.
</event>
<event>
 7    1  0.3128178E-009  0.2249021E+03  0.7561462E-02  0.1130280E+00
         -2   -1    0    0    0  501 -0.00000000000E+00  0.00000000000E+00  0.25474457572E+02  0.25474457572E+02  0.00000000000E+00 0.  1.
          2   -1    0    0  501    0  0.00000000000E+00 -0.00000000000E+00 -0.22359365658E+04  0.22359365658E+04  0.00000000000E+00 0. -1.
         25    2    1    2    0    0  0.20539996843E+03 -0.41248877684E+02 -0.13043261128E+04  0.13269530464E+04  0.12508861567E+03 0.  0.
          5    1    3    3  502    0  0.38979021474E+02  0.30899609513E+02 -0.14125253620E+03  0.14981288785E+03  0.41800000000E+01 0.  1.
         -5    1    3    3    0  502  0.16642094696E+03 -0.72148487197E+02 -0.11630735766E+04  0.11771401586E+04  0.41800000000E+01 0.  1.
        -11    1    1    2    0    0 -0.14010498036E+03  0.57046750683E+02 -0.73904233698E+03  0.75436550368E+03  0.00000000000E+00 0.  1.
         11    1    1    2    0    0 -0.65294988071E+02 -0.15797872998E+02 -0.16709365841E+03  0.18009247330E+03  0.00000000000E+00 0. -1.
</event>
<event>
 7    1  0.2878477E-009  0.1193035E+03  0.7561462E-02  0.1244251E+00
          2   -1    0    0  501    0  0.00000000000E+00  0.00000000000E+00  0.90311675608E+03  0.90311675608E+03  0.00000000000E+00 0. -1.
         -2   -1    0    0    0  501 -0.00000000000E+00 -0.00000000000E+00 -0.20860189870E+02  0.20860189870E+02  0.00000000000E+00 0.  1.
         25    2    1    2    0    0  0.72284783992E+02  0.24230983340E+02  0.60718502619E+03  0.62460647103E+03  0.12508939633E+03 0.  0.
          5    1    3    3  502    0  0.54533256976E+02 -0.47237945223E+02  0.32532599836E+03  0.33325632356E+03  0.41800000000E+01 0. -1.
         -5    1    3    3    0  502  0.17751527016E+02  0.71468928563E+02  0.28185902783E+03  0.29135014747E+03  0.41800000000E+01 0. -1.
        -11    1    1    2    0    0 -0.40402971089E+02 -0.40136277014E+02  0.24845184803E+03  0.25489535420E+03  0.00000000000E+00 0. -1.
         11    1    1    2    0    0 -0.31881812903E+02  0.15905293674E+02  0.26619691990E+02  0.44475120714E+02  0.00000000000E+00 0.  1.
</event>
<event>
 7    1  0.2878477E-009  0.1399332E+03  0.7561462E-02  0.1213419E+00
          1   -1    0    0  501    0  0.00000000000E+00  0.00000000000E+00  0.27867000817E+03  0.27867000817E+03  0.00000000000E+00 0. -1.
         -1   -1    0    0    0  501 -0.00000000000E+00 -0.00000000000E+00 -0.84807861046E+02  0.84807861046E+02  0.00000000000E+00 0.  1.
         25    2    1    2    0    0  0.10408011144E+03  0.28635217290E+02  0.96188270992E+02  0.19119447340E+03  0.12510195008E+03 0.  0.
          5    1    3    3  502    0 -0.30765261978E+01 -0.21252031320E+02  0.65424225270E+02  0.68984893280E+02  0.41800000000E+01 0. -1.
         -5    1    3    3    0  502  0.10715663763E+03  0.49887248610E+02  0.30764045722E+02  0.12220958012E+03  0.41800000000E+01 0. -1.
        -11    1    1    2    0    0 -0.82328087351E+02 -0.59768861122E+02  0.56923397205E+02  0.11657831649E+03  0.00000000000E+00 0. -1.
         11    1    1    2    0    0 -0.21752024086E+02  0.31133643832E+02  0.40750478924E+02  0.55705079325E+02  0.00000000000E+00 0.  1.
</event>
<event>
 7    1  0.2878477E-009  0.1688676E+03  0.7561462E-02  0.1179034E+00
          1   -1    0    0  501    0  0.00000000000E+00  0.00000000000E+00  0.70761744264E+03  0.70761744264E+03  0.00000000000E+00 0. -1.
         -1   -1    0    0    0  501 -0.00000000000E+00 -0.00000000000E+00 -0.46309104948E+02  0.46309104948E+02  0.00000000000E+00 0.  1.
         25    2    1    2    0    0  0.21040679414E+02 -0.14272388574E+03  0.37795445265E+03  0.42344969731E+03  0.12508900879E+03 0.  0.
          5    1    3    3  502    0 -0.27017890755E+02 -0.11678687016E+03  0.16770499038E+03  0.20618335447E+03  0.41800000000E+01 0.  1.
         -5    1    3    3    0  502  0.48058570170E+02 -0.25937015575E+02  0.21024946227E+03  0.21726634283E+03  0.41800000000E+01 0.  1.
        -11    1    1    2    0    0  0.41028776900E+00  0.14153581626E+03  0.20417493049E+03  0.24843501738E+03  0.00000000000E+00 0.  1.
         11    1    1    2    0    0 -0.21450967183E+02  0.11880694776E+01  0.79178954550E+02  0.82041832901E+02  0.00000000000E+00 0. -1.
</event>
<event>
 7    1  0.2878477E-009  0.9722873E+02  0.7561462E-02  0.1286234E+00
         -3   -1    0    0    0  501 -0.00000000000E+00  0.00000000000E+00  0.61278531308E+03  0.61278531308E+03  0.00000000000E+00 0.  1.
          3   -1    0    0  501    0  0.00000000000E+00 -0.00000000000E+00 -0.19671013837E+02  0.19671013837E+02  0.00000000000E+00 0. -1.
         25    2    1    2    0    0  0.12796771337E+02 -0.15411607041E+02  0.33465599392E+03  0.35783191324E+03  0.12509104238E+03 0.  0.
          5    1    3    3  502    0 -0.39322276768E+02  0.13615087643E+02  0.42532352274E+02  0.59649689452E+02  0.41800000000E+01 0.  1.
         -5    1    3    3    0  502  0.52119048106E+02 -0.29026694684E+02  0.29212364164E+03  0.29818222379E+03  0.41800000000E+01 0.  1.
        -11    1    1    2    0    0 -0.29960846064E+02  0.47663213036E+02  0.15643178905E+03  0.16625383845E+03  0.00000000000E+00 0.  1.
         11    1    1    2    0    0  0.17164074727E+02 -0.32251605995E+02  0.10202651628E+03  0.10837057522E+03  0.00000000000E+00 0. -1.
</event>
<event>
 7    1  0.2878477E-009  0.1144165E+03  0.7561462E-02  0.1252603E+00
         -2   -1    0    0    0  501 -0.00000000000E+00  0.00000000000E+00  0.42106707053E+02  0.42106707053E+02  0.00000000000E+00 0.  1.
          2   -1    0    0  501    0  0.00000000000E+00 -0.00000000000E+00 -0.55688476990E+03  0.55688476990E+03  0.00000000000E+00 0. -1.
         25    2    1    2    0    0  0.95591187831E+02  0.12520248268E+02 -0.32575909165E+03  0.36202384249E+03  0.12509134635E+03 0.  0.
          5    1    3    3  502    0  0.44378234467E+02  0.11309943522E+02 -0.17019810376E+02  0.49035587711E+02  0.41800000000E+01 0. -1.
         -5    1    3    3    0  502  0.51212953364E+02  0.12103047459E+01 -0.30873928127E+03  0.31298825478E+03  0.41800000000E+01 0. -1.
        -11    1    1    2    0    0 -0.10249203665E+03  0.14543413236E+02 -0.10101512551E+03  0.14463811402E+03  0.00000000000E+00 0.  1.
         11    1    1    2    0    0  0.69008488232E+01 -0.27063661504E+02 -0.88003845696E+02  0.92329520446E+02  0.00000000000E+00 0. -1.
</event>
<event>
 7    1  0.2878477E-009  0.1358906E+03  0.7561462E-02  0.1218968E+00
         -1   -1    0    0    0  501 -0.00000000000E+00  0.00000000000E+00  0.14247226909E+03  0.14247226909E+03  0.00000000000E+00 0.  1.
          1   -1    0    0  501    0  0.00000000000E+00 -0.00000000000E+00 -0.20186315046E+03  0.20186315046E+03  0.00000000000E+00 0. -1.
         25    2    1    2    0    0 -0.10001702410E+03  0.76139472418E+02  0.15063486670E+01  0.17734638638E+03  0.12509535285E+03 0.  0.
          5    1    3    3  502    0 -0.19446865183E+02  0.42188004324E+02 -0.55798586984E+02  0.72725256849E+02  0.41800000000E+01 0. -1.
         -5    1    3    3    0  502 -0.80570158916E+02  0.33951468094E+02  0.57304935651E+02  0.10462112953E+03  0.41800000000E+01 0. -1.
        -11    1    1    2    0    0  0.81639350499E+02 -0.28374994049E+02  0.13041216527E+01  0.86439716395E+02  0.00000000000E+00 0.  1.
         11    1    1    2    0    0  0.18377673601E+02 -0.47764478369E+02 -0.62201351691E+02  0.80549316775E+02  0.00000000000E+00 0. -1.
</event>
<event>
 7    1  0.2878477E-009  0.8134377E+02  0.7561462E-02  0.1325281E+00
         -4   -1    0    0    0  501 -0.00000000000E+00  0.00000000000E+00  0.13798417201E+03  0.13798417201E+03  0.00000000000E+00 0.  1.
          4   -1    0    0  501    0  0.00000000000E+00 -0.00000000000E+00 -0.94829366198E+02  0.94829366198E+02  0.00000000000E+00 0. -1.
         25    2    1    2    0    0  0.11350844061E+01  0.33209900188E+02  0.41444221986E+02  0.13590527216E+03  0.12509369919E+03 0.  0.
          5    1    3    3  502    0 -0.45859721538E+02 -0.26258505262E+02  0.11135342594E+02  0.54167254064E+02  0.41800000000E+01 0. -1.
         -5    1    3    3    0  502  0.46994805944E+02  0.59468405449E+02  0.30308879392E+02  0.81738018097E+02  0.41800000000E+01 0. -1.
        -11    1    1    2    0    0 -0.36014140470E+01 -0.21484620372E+02 -0.44298211799E+02  0.49364872777E+02  0.00000000000E+00 0. -1.
         11    1    1    2    0    0  0.24663296409E+01 -0.11725279815E+02  0.46008795629E+02  0.47543393273E+02  0.00000000000E+00 0.  1.
</event>
<event>
 6    1  0.2878477E-009  0.9873695E+02  0.7561462E-02  0.1282975E+00
         -1   -1    0    0    0  501 -0.00000000000E+00  0.00000000000E+00  0.99368951682E+02  0.99368951682E+02  0.00000000000E+00 0.  1.
          1   -1    0    0  501    0  0.00000000000E+00 -0.00000000000E+00 -0.14046391886E+03  0.14046391886E+03  0.00000000000E+00 0. -1.
          5    1    1    2  502    0 -0.35304463772E+01 -0.58726712909E+02  0.19988051240E+00  0.58981380222E+02  0.41800000000E+01 0. -1.
         -5    1    1    2    0  502  0.26606306631E+02  0.47633756924E+02 -0.62312161178E+02  0.82928572771E+02  0.41800000000E+01 0. -1.
        -11    1    1    2    0    0 -0.16773773773E+02 -0.34174046947E+02  0.33321590054E+02  0.50592028374E+02  0.00000000000E+00 0.  1.
         11    1    1    2    0    0 -0.63020864811E+01  0.45267002932E+02 -0.12304276570E+02  0.47330889178E+02  0.00000000000E+00 0. -1.
</event>
<event>
 7    1  0.2878477E-009  0.1170343E+03  0.7561462E-02  0.1248071E+00
          1   -1    0    0  501    0  0.00000000000E+00  0.00000000000E+00  0.21494373241E+03  0.21494373241E+03  0.00000000000E+00 0.  1.
         -1   -1    0    0    0  501 -0.00000000000E+00 -0.00000000000E+00 -0.10329192638E+03  0.10329192638E+03  0.00000000000E+00 0. -1.
         25    2    1    2    0    0  0.65139282770E+02 -0.15937538253E+02 -0.23425922464E+02  0.14385172382E+03  0.12508962115E+03 0.  0.
          5    1    3    3  502    0  0.10048882571E+03  0.28023343751E+01 -0.24707082298E+02  0.10360390671E+03  0.41800000000E+01 0.  1.
         -5    1    3    3    0  502 -0.35349542937E+02 -0.18739872628E+02  0.12811598337E+01  0.40247817114E+02  0.41800000000E+01 0.  1.
        -11    1    1    2    0    0 -0.64314928366E+02  0.35624469164E+02  0.13606146235E+03  0.15465521120E+03  0.00000000000E+00 0.  1.
         11    1    1    2    0    0 -0.82435440460E+00 -0.19686930912E+02 -0.98373385650E+00  0.19728723760E+02  0.00000000000E+00 0. -1.
</event>
<event>
 7    1  0.2878477E-009  0.1584712E+03  0.7561462E-02  0.1190434E+00
          2   -1    0    0  501    0  0.00000000000E+00  0.00000000000E+00  0.19702422651E+04  0.19702422651E+04  0.00000000000E+00 0. -1.
         -2   -1    0    0    0  501 -0.00000000000E+00 -0.00000000000E+00 -0.19619873689E+02  0.19619873689E+02  0.00000000000E+00 0.  1.
         25    2    1    2    0    0 -0.12429472300E+03  0.45004999555E+02  0.15051970205E+04  0.15161597010E+04  0.12509012871E+03 0.  0.
          5    1    3    3  502    0  0.29870420820E+01 -0.14793572745E+02  0.59035243901E+03  0.59056011282E+03  0.41800000000E+01 0. -1.
         -5    1    3    3    0  502 -0.12728176508E+03  0.59798572301E+02  0.91484458148E+03  0.92559958818E+03  0.41800000000E+01 0. -1.
        -11    1    1    2    0    0  0.13921304264E+03 -0.41490196550E+02  0.38920036352E+03  0.41542584250E+03  0.00000000000E+00 0.  1.
         11    1    1    2    0    0 -0.14918319645E+02 -0.35148030048E+01  0.56225007383E+02  0.58276595272E+02  0.00000000000E+00 0. -1.
</event>
<event>
 7    1  0.3738281E-009  0.2009594E+03  0.7561462E-02  0.1148932E+00
         -1   -1    0    0    0  501 -0.00000000000E+00  0.00000000000E+00  0.41426408342E+02  0.41426408342E+02  0.00000000000E+00 0.  1.
          1   -1    0    0  501    0  0.00000000000E+00 -0.00000000000E+00 -0.10487813554E+04  0.10487813554E+04  0.00000000000E+00 0. -1.
         25    2    1    2    0    0 -0.13374545085E+03 -0.11128320397E+03 -0.43115714878E+03  0.48147270040E+03  0.12509067583E+03 0.  0.
          5    1    3    3  502    0  0.15040608423E+01 -0.73150556421E+02 -0.13372959708E+03  0.15249374951E+03  0.41800000000E+01 0.  1.
         -5    1    3    3    0  502 -0.13524951169E+03 -0.38132647550E+02 -0.29742755170E+03  0.32897895090E+03  0.41800000000E+01 0.  1.
        -11    1    1    2    0    0  0.30523400355E+02  0.70931129048E+02 -0.15458511998E+03  0.17279890728E+03  0.00000000000E+00 0.  1.
         11    1    1    2    0    0  0.10322205050E+03  0.40352074923E+02 -0.42161267833E+03  0.43593615610E+03  0.00000000000E+00 0. -1.
</event>
<event>
 7    1  0.2878477E-009  0.1081552E+03  0.7561462E-02  0.1264025E+00
          2   -1    0    0  501    0  0.00000000000E+00  0.00000000000E+00  0.35535058016E+02  0.35535058016E+02  0.00000000000E+00 0. -1.
         -2   -1    0    0    0  501 -0.00000000000E+00 -0.00000000000E+00 -0.46680735264E+03  0.46680735264E+03  0.00000000000E+00 0.  1.
         25    2    1    2    0    0  0.36842900040E+02 -0.58619765873E+02 -0.23738921102E+03  0.27711947397E+03  0.12509152295E+03 0.  0.
          5    1    3    3  502    0 -0.20305696091E+02 -0.78773279495E+02 -0.12153015290E+03  0.14630311453E+03  0.41800000000E+01 0. -1.
         -5    1    3    3    0  502  0.57148596131E+02  0.20153513622E+02 -0.11585905812E+03  0.13081635945E+03  0.41800000000E+01 0. -1.
        -11    1    1    2    0    0 -0.14058519700E+02  0.45928700188E+02 -0.19325533468E+03  0.19913490869E+03  0.00000000000E+00 0.  1.
         11    1    1    2    0    0 -0.22784380340E+02  0.12691065685E+02 -0.62774892326E+00  0.26088027990E+02  0.00000000000E+00 0. -1.
</event>
<event>
 7    1  0.2878477E-009  0.1273910E+03  0.7561462E-02  0.1231379E+00
          2   -1    0    0  501    0  0.00000000000E+00  0.00000000000E+00  0.23008482115E+03  0.23008482115E+03  0.00000000000E+00 0. -1.
         -2   -1    0    0    0  501 -0.00000000000E+00 -0.00000000000E+00 -0.77065539985E+02  0.77065539985E+02  0.00000000000E+00 0.  1.
         25    2    1    2    0    0 -0.12009473083E+02  0.73045603912E+02  0.67062901446E+02  0.16007826772E+03  0.12509089236E+03 0.  0.
          5    1    3    3  502    0 -0.36216342808E+02 -0.23879935406E+02  0.32193211762E+02  0.54182562554E+02  0.41800000000E+01 0. -1.
         -5    1    3    3    0  502  0.24206869725E+02  0.96925539318E+02  0.34869689684E+02  0.10589570517E+03  0.41800000000E+01 0. -1.
        -11    1    1    2    0    0 -0.32621853847E+02 -0.53111274030E+02  0.20987239769E+02  0.65768206685E+02  0.00000000000E+00 0.  1.
         11    1    1    2    0    0  0.44631326931E+02 -0.19934329882E+02  0.64969139954E+02  0.81303886732E+02  0.00000000000E+00 0. -1.
</event>
<event>
 7    1  0.2878477E-009  0.1034542E+03  0.7561462E-02  0.1273195E+00
         -2   -1    0    0    0  501 -0.00000000000E+00  0.00000000000E+00  0.19213391816E+03  0.19213391816E+03  0.00000000000E+00 0.  1.
          2   -1    0    0  501    0  0.00000000000E+00 -0.00000000000E+00 -0.75659024032E+02  0.75659024032E+02  0.00000000000E+00 0. -1.
         25    2    1    2    0    0 -0.15186597245E+02 -0.49149658330E+02  0.60815756744E+02  0.14829961849E+03  0.12509156217E+03 0.  0.
          5    1    3    3  502    0 -0.14872673129E+02  0.25192252446E+02 -0.22067257669E+02  0.36882004424E+02  0.41800000000E+01 0.  1.
         -5    1    3    3    0  502 -0.31392411560E+00 -0.74341910776E+02  0.82883014413E+02  0.11141761407E+03  0.41800000000E+01 0.  1.
        -11    1    1    2    0    0 -0.35851258608E+02  0.66113992202E+01  0.69548077306E+01  0.37113241491E+02  0.00000000000E+00 0. -1.
         11    1    1    2    0    0  0.51037855852E+02  0.42538259110E+02  0.48704329656E+02  0.82380082213E+02  0.00000000000E+00 0.  1.
</event>
<event>
 7    1  0.2878477E-009  0.8918083E+02  0.7561462E-02  0.1304848E+00
          3   -1    0    0  501    0  0.00000000000E+00  0.00000000000E+00  0.26341540670E+03  0.26341540670E+03  0.00000000000E+00 0. -1.
         -3   -1    0    0    0  501 -0.00000000000E+00 -0.00000000000E+00 -0.49501586814E+02  0.49501586814E+02  0.00000000000E+00 0.  1.
         25    2    1    2    0    0  0.32807616213E+01  0.88486257274E+01  0.16944836758E+03  0.21083062110E+03  0.12509092670E+03 0.  0.
          5    1    3    3  502    0 -0.31042779292E+02  0.35553981744E+02  0.14072502944E+02  0.49429217100E+02  0.41800000000E+01 0. -1.
         -5    1    3    3    0  502  0.34323540913E+02 -0.26705356017E+02  0.15537586464E+03  0.16140140400E+03  0.41800000000E+01 0. -1.
        -11    1    1    2    0    0  0.24163015274E+02 -0.39401218042E+02  0.74861286727E+01  0.46822531039E+02  0.00000000000E+00 0.  1.
         11    1    1    2    0    0 -0.27443776896E+02  0.30552592315E+02  0.36979323635E+02  0.55263841379E+02  0.00000000000E+00 0. -1.
</event>
<event>
 7    1  0.2878477E-009  0.7442874E+02  0.7561462E-02  0.1345649E+00
          1   -1    0    0  501    0  0.00000000000E+00  0.00000000000E+00  0.74906283756E+03  0.74906283756E+03  0.00000000000E+00 0. -1.
         -1   -1    0    0    0  501 -0.00000000000E+00 -0.00000000000E+00 -0.16211871453E+02  0.16211871453E+02  0.00000000000E+00 0.  1.
         25    2    1    2    0    0  0.16524297595E+02  0.17549782265E+02  0.38897964535E+03  0.40930893838E+03  0.12509034845E+03 0.  0.
          5    1    3    3  502    0  0.34145553858E+02  0.93317068260E+00  0.20594547538E+02  0.40104830683E+02  0.41800000000E+01 0.  1.
         -5    1    3    3    0  502 -0.17621256263E+02  0.16616611582E+02  0.36838509781E+03  0.36920410770E+03  0.41800000000E+01 0.  1.
        -11    1    1    2    0    0 -0.62071948467E+01 -0.52786408578E+02  0.23944109479E+03  0.24526918289E+03  0.00000000000E+00 0.  1.
         11    1    1    2    0    0 -0.10317102749E+02  0.35236626313E+02  0.10443022596E+03  0.11069658774E+03  0.00000000000E+00 0. -1.
</event>
<event>
 7    1  0.2878477E-009  0.9751186E+02  0.7561462E-02  0.1285617E+00
          1   -1    0    0  501    0  0.00000000000E+00  0.00000000000E+00  0.77164273933E+02  0.77164273933E+02  0.00000000000E+00 0. -1.
         -1   -1    0    0    0  501 -0.00000000000E+00 -0.00000000000E+00 -0.17600123681E+03  0.17600123681E+03  0.00000000000E+00 0.  1.
         25    2    1    2    0    0  0.18109736967E+02  0.30690123679E+02 -0.29373225410E+02  0.13334230708E+03  0.12509012040E+03 0.  0.
          5    1    3    3  502    0  0.44016439899E+01  0.76078763293E+02  0.19802473335E+01  0.76346227631E+02  0.41800000000E+01 0.  1.
         -5    1    3    3    0  502  0.13708092977E+02 -0.45388639614E+02 -0.31353472743E+02  0.56996079445E+02  0.41800000000E+01 0.  1.
        -11    1    1    2    0    0 -0.34095793183E+02  0.25810760381E+01 -0.75067101095E+02  0.82487906587E+02  0.00000000000E+00 0.  1.
         11    1    1    2    0    0  0.15986056217E+02 -0.33271199717E+02  0.56033636294E+01  0.37335297078E+02  0.00000000000E+00 0. -1.
</event>
<event>
 7    1  0.2878477E-009  0.9273103E+02  0.7561462E-02  0.1296370E+00
          1   -1    0    0  501    0  0.00000000000E+00  0.00000000000E+00  0.42285260678E+02  0.42285260678E+02  0.00000000000E+00 0. -1.
         -1   -1    0    0    0  501 -0.00000000000E+00 -0.00000000000E+00 -0.31875729543E+03  0.31875729543E+03  0.00000000000E+00 0.  1.
         25    2    1    2    0    0  0.22755301750E+02  0.33372038184E+02 -0.15022259041E+03  0.19961146512E+03  0.12508562527E+03 0.  0.
          5    1    3    3  502    0 -0.28511801450E+02 -0.28019223068E+02 -0.15900508894E+02  0.43223815962E+02  0.41800000000E+01 0. -1.
         -5    1    3    3    0  502  0.51267103199E+02  0.61391261252E+02 -0.13432208151E+03  0.15638764916E+03  0.41800000000E+01 0. -1.
        -11    1    1    2    0    0 -0.36388231813E+02 -0.93721316240E+01 -0.12836188967E+03  0.13374870087E+03  0.00000000000E+00 0.  1.
         11    1    1    2    0    0  0.13632930063E+02 -0.23999906560E+02  0.21124453252E+01  0.27682390111E+02  0.00000000000E+00 0. -1.
</event>
<event>
 7    1  0.2878477E-009  0.2028087E+03  0.7561462E-02  0.1147391E+00
         -2   -1    0    0    0  501 -0.00000000000E+00  0.00000000000E+00  0.62807283227E+03  0.62807283227E+03  0.00000000000E+00 0.  1.
          2   -1    0    0  501    0  0.00000000000E+00 -0.00000000000E+00 -0.99009182860E+02  0.99009182860E+02  0.00000000000E+00 0. -1.
         25    2    1    2    0    0 -0.18186369593E+03  0.68735247911E+01  0.46322547190E+03  0.51317442870E+03  0.12509399351E+03 0.  0.
          5    1    3    3  502    0 -0.95105922414E+02  0.49405320583E+02  0.14357001575E+03  0.17920893952E+03  0.41800000000E+01 0. -1.
         -5    1    3    3    0  502 -0.86757773518E+02 -0.42531795792E+02  0.31965545615E+03  0.33396548918E+03  0.41800000000E+01 0. -1.
        -11    1    1    2    0    0  0.15189034502E+03  0.29281054576E+02  0.37899507891E+02  0.15926214166E+03  0.00000000000E+00 0.  1.
         11    1    1    2    0    0  0.29973350911E+02 -0.36154579367E+02  0.27938669621E+02  0.54645444771E+02  0.00000000000E+00 0. -1.
</event>
<event>
 7    1  0.2878477E-009  0.1092856E+03  0.7561462E-02  0.1261899E+00
          2   -1    0    0  501    0  0.00000000000E+00  0.00000000000E+00  0.70416580572E+02  0.70416580572E+02  0.00000000000E+00 0. -1.
         -2   -1    0    0    0  501 -0.00000000000E+00 -0.00000000000E+00 -0.19967936702E+03  0.19967936702E+03  0.00000000000E+00 0.  1.
         25    2    1    2    0    0 -0.14456352837E+02 -0.35077335345E+02 -0.91253772537E+02  0.15941872790E+03  0.12509066397E+03 0.  0.
          5    1    3    3  502    0 -0.28058229247E+01 -0.78507940394E+02 -0.81387591723E+02  0.11319355915E+03  0.41800000000E+01 0. -1.
         -5    1    3    3    0  502 -0.11650529912E+02  0.43430605048E+02 -0.98661808146E+01  0.46225168750E+02  0.41800000000E+01 0. -1.
        -11    1    1    2    0    0 -0.27546155783E+02  0.43896511772E+02  0.21940642016E+01  0.51870110487E+02  0.00000000000E+00 0. -1.
         11    1    1    2    0    0  0.42002508620E+02 -0.88191764269E+01 -0.40203078114E+02  0.58807109205E+02  0.00000000000E+00 0.  1.
</event>
<event>
 7    1  0.2878477E-009  0.1238091E+03  0.7561462E-02  0.1236942E+00
         -4   -1    0    0    0  501 -0.00000000000E+00  0.00000000000E+00  0.70117510307E+02  0.70117510307E+02  0.00000000000E+00 0.  1.
          4   -1    0    0  501    0  0.00000000000E+00 -0.00000000000E+00 -0.31772059304E+03  0.31772059304E+03  0.00000000000E+00 0. -1.
         25    2    1    2    0    0  0.74506255910E+02 -0.59273533450E+02 -0.87184316936E+02  0.17975914891E+03  0.12509081725E+03 0.  0.
          5    1    3    3  502    0 -0.26490845397E+02 -0.33972614263E+02 -0.56422091643E+02  0.71111379083E+02  0.41800000000E+01 0.  1.
         -5    1    3    3    0  502  0.10099710131E+03 -0.25300919187E+02 -0.30762225293E+02  0.10864776983E+03  0.41800000000E+01 0.  1.
        -11    1    1    2    0    0 -0.50360882996E+02  0.20323887666E+02 -0.16076759951E+02  0.56636923968E+02  0.00000000000E+00 0.  1.
         11    1    1    2    0    0 -0.24145372914E+02  0.38949645784E+02 -0.14434200584E+03  0.15144203046E+03  0.00000000000E+00 0. -1.
</event>
<event>
 7    1  0.2878477E-009  0.7925980E+02  0.7561462E-02  0.1331165E+00
         -2   -1    0    0    0  501 -0.00000000000E+00  0.00000000000E+00  0.18141640781E+02  0.18141640781E+02  0.00000000000E+00 0. -1.
          2   -1    0    0  501    0  0.00000000000E+00 -0.00000000000E+00 -0.14521165253E+04  0.14521165253E+04  0.00000000000E+00 0.  1.
         25    2    1    2    0    0  0.37152031928E+02 -0.28764869077E+02 -0.12739225297E+04  0.12809127505E+04  0.12510464300E+03 0.  0.
          5    1    3    3  502    0  0.25480587582E+02 -0.56115462150E+02 -0.28878028566E+03  0.29531293779E+03  0.41800000000E+01 0.  1.
         -5    1    3    3    0  502  0.11671444346E+02  0.27350593073E+02 -0.98514224400E+03  0.98559981274E+03  0.41800000000E+01 0.  1.
        -11    1    1    2    0    0 -0.21951975144E+02 -0.10705486324E+02 -0.14074975913E+03  0.14285304107E+03  0.00000000000E+00 0.  1.
         11    1    1    2    0    0 -0.15200056784E+02  0.39470355401E+02 -0.19302595702E+02  0.46492374456E+02  0.00000000000E+00 0. -1.
</event>
<event>
 7    1  0.2878477E-009  0.1133034E+03  0.7561462E-02  0.1254572E+00
          2   -1    0    0  501    0  0.00000000000E+00  0.00000000000E+00  0.75646315984E+03  0.75646315984E+03  0.00000000000E+00 0. -1.
         -2   -1    0    0    0  501 -0.00000000000E+00 -0.00000000000E+00 -0.18498872003E+02  0.18498872003E+02  0.00000000000E+00 0.  1.
         25    2    1    2    0    0  0.54645736119E+02 -0.12171627744E+01  0.46231606623E+03  0.48204851212E+03  0.12508790900E+03 0.  0.
          5    1    3    3  502    0 -0.72324596171E+01  0.50220339080E+02  0.24601502089E+03  0.25122749418E+03  0.41800000000E+01 0. -1.
         -5    1    3    3    0  502  0.61878195736E+02 -0.51437501855E+02  0.21630104535E+03  0.23082101794E+03  0.41800000000E+01 0. -1.
        -11    1    1    2    0    0 -0.74452296257E+02  0.61648664238E+01  0.24460322598E+03  0.25575747917E+03  0.00000000000E+00 0. -1.
         11    1    1    2    0    0  0.19806560138E+02 -0.49477036494E+01  0.31044995634E+02  0.37156040556E+02  0.00000000000E+00 0.  1.
</event>
<event>
 7    1  0.2878477E-009  0.9720552E+02  0.7561462E-02  0.1286285E+00
         -1   -1    0    0    0  501 -0.00000000000E+00  0.00000000000E+00  0.19861330819E+02  0.19861330819E+02  0.00000000000E+00 0.  1.
          1   -1    0    0  501    0  0.00000000000E+00 -0.00000000000E+00 -0.12090237792E+04  0.12090237792E+04  0.00000000000E+00 0. -1.
         25    2    1    2    0    0 -0.19310052762E+02 -0.68121437364E+02 -0.97995917762E+03  0.99044480258E+03  0.12509000280E+03 0.  0.
          5    1    3    3  502    0 -0.30201710849E+02 -0.35298990211E+02 -0.10620195115E+03  0.11599348635E+03  0.41800000000E+01 0.  1.
         -5    1    3    3    0  502  0.10891658086E+02 -0.32822447153E+02 -0.87375722647E+03  0.87445131623E+03  0.41800000000E+01 0.  1.
        -11    1    1    2    0    0 -0.26566052599E+02 -0.45893691410E+01 -0.35023404440E+02  0.44197922104E+02  0.00000000000E+00 0.  1.
         11    1    1    2    0    0  0.45876105362E+02  0.72710806505E+02 -0.17417986631E+03  0.19424238532E+03  0.00000000000E+00 0. -1.
</event>
<event>
 7    1  0.2878477E-009  0.1023777E+03  0.7561462E-02  0.1275374E+00
          1   -1    0    0  501    0  0.00000000000E+00  0.00000000000E+00  0.26842825381E+03  0.26842825381E+03  0.00000000000E+00 0. -1.
         -1   -1    0    0    0  501 -0.00000000000E+00 -0.00000000000E+00 -0.50729373190E+02  0.50729373190E+02  0.00000000000E+00 0.  1.
         25    2    1    2    0    0  0.42956221101E+02 -0.67851236979E+01  0.13801892297E+03  0.19127964796E+03  0.12508959107E+03 0.  0.
          5    1    3    3  502    0  0.65071274276E+02 -0.49743699769E+02  0.70509706762E+02  0.10815635696E+03  0.41800000000E+01 0.  1.
         -5    1    3    3    0  502 -0.22115053175E+02  0.42958576071E+02  0.67509216205E+02  0.83123291005E+02  0.41800000000E+01 0.  1.
        -11    1    1    2    0    0 -0.45759237599E+02  0.27469691631E+02  0.89301687939E+01  0.54113211867E+02  0.00000000000E+00 0.  1.
         11    1    1    2    0    0  0.28030164976E+01 -0.20684567933E+02  0.70749788864E+02  0.73764767175E+02  0.00000000000E+00 0. -1.
</event>
<event>
 7    1  0.2878477E-009  0.1028609E+03  0.7561462E-02  0.1274392E+00
          2   -1    0    0  501    0  0.00000000000E+00  0.00000000000E+00  0.11238306179E+04  0.11238306179E+04  0.00000000000E+00 0. -1.
         -2   -1    0    0    0  501 -0.00000000000E+00 -0.00000000000E+00 -0.15775911037E+02  0.15775911037E+02  0.00000000000E+00 0.  1.
         25    2    1    2    0    0 -0.29617281982E+02  0.31221713486E+02  0.91107127991E+03  0.92062496644E+03  0.12508985958E+03 0.  0.
          5    1    3    3  502    0  0.38472057634E+02  0.42574157209E+01  0.58990723834E+03  0.59119053363E+03  0.41800000000E+01 0. -1.
         -5    1    3    3    0  502 -0.68089339616E+02  0.26964297765E+02  0.32116404157E+03  0.32943443281E+03  0.41800000000E+01 0. -1.
        -11    1    1    2    0    0  0.91135487806E+01  0.28695646505E+02  0.87080807581E+02  0.92138829755E+02  0.00000000000E+00 0. -1.
         11    1    1    2    0    0  0.20503733201E+02 -0.59917359991E+02  0.10990261933E+03  0.12684273270E+03  0.00000000000E+00 0.  1.
</event>
<event>
 7    1  0.2878477E-009  0.2294497E+03  0.7561462E-02  0.1127028E+00
          2   -1    0    0  501    0  0.00000000000E+00  0.00000000000E+00  0.10424244680E+04  0.10424244680E+04  0.00000000000E+00 0. -1.
         -2   -1    0    0    0  501 -0.00000000000E+00 -0.00000000000E+00 -0.55086564015E+02  0.55086564015E+02  0.00000000000E+00 0.  1.
         25    2    1    2    0    0 -0.14437796056E+03  0.14652377042E+03  0.38793510770E+03  0.45657340860E+03  0.12510563081E+03 0.  0.
          5    1    3    3  502    0 -0.16061133088E+03  0.11990153684E+03  0.28152313401E+03  0.34560834123E+03  0.41800000000E+01 0.  1.
         -5    1    3    3    0  502  0.16233370315E+02  0.26622233580E+02  0.10641197369E+03  0.11096506738E+03  0.41800000000E+01 0.  1.
        -11    1    1    2    0    0  0.49077578252E+02 -0.11750911106E+03  0.33348531892E+03  0.35697262893E+03  0.00000000000E+00 0.  1.
         11    1    1    2    0    0  0.95300382308E+02 -0.29014659359E+02  0.26591747739E+03  0.28396499451E+03  0.00000000000E+00 0. -1.
</event>
<event>
 7    1  0.2878477E-009  0.1103845E+03  0.7561462E-02  0.1259860E+00
          2   -1    0    0  501    0  0.00000000000E+00  0.00000000000E+00  0.41372550273E+03  0.41372550273E+03  0.00000000000E+00 0. -1.
         -2   -1    0    0    0  501 -0.00000000000E+00 -0.00000000000E+00 -0.50021058387E+02  0.50021058387E+02  0.00000000000E+00 0.  1.
         25    2    1    2    0    0  0.64393781149E+02 -0.51062668866E+02  0.25882734143E+03  0.29898459910E+03  0.12508494164E+03 0.  0.
          5    1    3    3  502    0  0.73532818303E+02 -0.57440555379E+02  0.26809501230E+03  0.28389945542E+03  0.41800000000E+01 0.  1.
         -5    1    3    3    0  502 -0.91390371543E+01  0.63778865130E+01 -0.92676708670E+01  0.15085143678E+02  0.41800000000E+01 0.  1.
        -11    1    1    2    0    0 -0.77601085998E+02  0.17716438678E+02  0.10113390242E+03  0.12870068751E+03  0.00000000000E+00 0. -1.
         11    1    1    2    0    0  0.13207304849E+02  0.33346230189E+02  0.37432004949E+01  0.36061274508E+02  0.00000000000E+00 0.  1.
</event>
<event>
 7    1  0.2878477E-009  0.1220346E+03  0.7561462E-02  0.1239778E+00
         -1   -1    0    0    0  501 -0.00000000000E+00  0.00000000000E+00  0.16831516674E+02  0.16831516674E+02  0.00000000000E+00 0.  1.
          1   -1    0    0  501    0  0.00000000000E+00 -0.00000000000E+00 -0.11550995151E+04  0.11550995151E+04  0.00000000000E+00 0. -1.
         25    2    1    2    0    0 -0.77233511811E+02 -0.37167309180E+02 -0.71918420702E+03  0.73499416791E+03  0.12507629280E+03 0.  0.
          5    1    3    3  502    0  0.74679831632E+01 -0.37712773174E+02 -0.47366136553E+03  0.47523739923E+03  0.41800000000E+01 0.  1.
         -5    1    3    3    0  502 -0.84701494974E+02  0.54546399405E+00 -0.24552284149E+03  0.25975676868E+03  0.41800000000E+01 0.  1.
        -11    1    1    2    0    0  0.19641574227E+02  0.56519286177E+02 -0.15993507590E+03  0.17076138220E+03  0.00000000000E+00 0.  1.
         11    1    1    2    0    0  0.57591937584E+02 -0.19351976997E+02 -0.25914871550E+03  0.26617548166E+03  0.00000000000E+00 0. -1.
</event>
<event>
 6    1  0.2878477E-009  0.1683475E+03  0.7561462E-02  0.1179582E+00
          1   -1    0    0  501    0  0.00000000000E+00  0.00000000000E+00  0.23278776861E+03  0.23278776861E+03  0.00000000000E+00 0. -1.
         -1   -1    0    0    0  501 -0.00000000000E+00 -0.00000000000E+00 -0.22812739194E+03  0.22812739194E+03  0.00000000000E+00 0.  1.
          5    1    1    2  502    0 -0.40713304236E+01 -0.44693358252E+02 -0.53635205323E+02  0.70059115419E+02  0.41800000000E+01 0.  1.
         -5    1    1    2    0  502 -0.14131037945E+03  0.26881601254E+02 -0.84655562053E+02  0.16695891834E+03  0.41800000000E+01 0.  1.
        -11    1    1    2    0    0  0.96429377587E+02  0.20896869162E+02  0.14432490971E+03  0.17482844038E+03  0.00000000000E+00 0. -1.
         11    1    1    2    0    0  0.48952332291E+02 -0.30851121639E+01 -0.13737656555E+01  0.49068686409E+02  0.00000000000E+00 0.  1.
</event>
<event>
 7    1  0.2878477E-009  0.1803530E+03  0.7561462E-02  0.1167462E+00
          1   -1    0    0  501    0  0.00000000000E+00  0.00000000000E+00  0.72586213971E+02  0.72586213971E+02  0.00000000000E+00 0. -1.
         -1   -1    0    0    0  501 -0.00000000000E+00 -0.00000000000E+00 -0.51097710218E+03  0.51097710218E+03  0.00000000000E+00 0.  1.
         25    2    1    2    0    0 -0.12804442526E+03 -0.70956030137E+02 -0.32656215279E+03  0.37910527312E+03  0.12509130831E+03 0.  0.
          5    1    3    3  502    0 -0.70828661855E+02 -0.10320664690E+03 -0.19081130880E+03  0.22824272009E+03  0.41800000000E+01 0. -1.
         -5    1    3    3    0  502 -0.57215763409E+02  0.32250616763E+02 -0.13575084399E+03  0.15086255303E+03  0.41800000000E+01 0. -1.
        -11    1    1    2    0    0  0.34354392616E+02 -0.19430349723E+02 -0.38046901376E+02  0.54820885497E+02  0.00000000000E+00 0.  1.
         11    1    1    2    0    0  0.93690032648E+02  0.90386379859E+02 -0.73781834047E+02  0.14963715754E+03  0.00000000000E+00 0. -1.
</event>
<event>
 7    1  0.2878477E-009  0.8909457E+02  0.7561462E-02  0.1305059E+00
         -1   -1    0    0    0  501 -0.00000000000E+00  0.00000000000E+00  0.17600465529E+02  0.17600465529E+02  0.00000000000E+00 0.  1.
          1   -1    0    0  501    0  0.00000000000E+00 -0.00000000000E+00 -0.92044405147E+03  0.92044405147E+03  0.00000000000E+00 0. -1.
         25    2    1    2    0    0 -0.10810728860E+02 -0.61093603046E+02 -0.59071897212E+03  0.60699442452E+03  0.12507608558E+03 0.  0.
          5    1    3    3  502    0  0.29758656353E+02 -0.58959148607E+01 -0.44359015812E+03  0.44464597178E+03  0.41800000000E+01 0.  1.
         -5    1    3    3    0  502 -0.40569385212E+02 -0.55197688185E+02 -0.14712881400E+03  0.16234845274E+03  0.41800000000E+01 0.  1.
        -11    1    1    2    0    0 -0.17588249849E+02  0.93712325880E+01 -0.83664999054E+01  0.21613996707E+02  0.00000000000E+00 0.  1.
         11    1    1    2    0    0  0.28398978709E+02  0.51722370458E+02 -0.30375811391E+03  0.30943609577E+03  0.00000000000E+00 0. -1.
</event>
<event>
 7    1  0.2878477E-009  0.1272682E+03  0.7561462E-02  0.1231566E+00
          2   -1    0    0  501    0  0.00000000000E+00  0.00000000000E+00  0.65712575177E+03  0.65712575177E+03  0.00000000000E+00 0. -1.
         -2   -1    0    0    0  501 -0.00000000000E+00 -0.00000000000E+00 -0.42203892850E+02  0.42203892850E+02  0.00000000000E+00 0.  1.
         25    2    1    2    0    0 -0.45185515101E+02 -0.82546603406E+02  0.15121393284E+03  0.21764434905E+03  0.12509091365E+03 0.  0.
          5    1    3    3  502    0 -0.54515776196E+02 -0.16131677238E+02  0.13779383995E+03  0.14912013812E+03  0.41800000000E+01 0. -1.
         -5    1    3    3    0  502  0.93302610949E+01 -0.66414926168E+02  0.13420092887E+02  0.68524210927E+02  0.41800000000E+01 0. -1.
        -11    1    1    2    0    0 -0.27100069244E+02  0.32979915258E+02  0.14673556111E+03  0.15281823666E+03  0.00000000000E+00 0.  1.
         11    1    1    2    0    0  0.72285584345E+02  0.49566688148E+02  0.31697236497E+03  0.32886705891E+03  0.00000000000E+00 0. -1.
</event>
<event>
 7    1  0.2878477E-009  0.2057284E+03  0.7561462E-02  0.1144994E+00
         -1   -1    0    0    0  501 -0.00000000000E+00  0.00000000000E+00  0.52790041845E+03  0.52790041845E+03  0.00000000000E+00 0.  1.
          1   -1    0    0  501    0  0.00000000000E+00 -0.00000000000E+00 -0.87559516808E+02  0.87559516808E+02  0.00000000000E+00 0. -1.
         25    2    1    2    0    0 -0.98431382276E+02 -0.99543900512E+02  0.24394425751E+03  0.30782070517E+03  0.12508821133E+03 0.  0.
          5    1    3    3  502    0 -0.12094459883E+03 -0.77365814838E+02  0.14595425657E+03  0.20477593292E+03  0.41800000000E+01 0.  1.
         -5    1    3    3    0  502  0.22513216558E+02 -0.22178085674E+02  0.97990000943E+02  0.10304477225E+03  0.41800000000E+01 0.  1.
        -11    1    1    2    0    0  0.18188571170E+02 -0.57109886332E+02  0.38912358675E+02  0.71460023060E+02  0.00000000000E+00 0. -1.
         11    1    1    2    0    0  0.80242811106E+02  0.15665378684E+03  0.15748428546E+03  0.23617920703E+03  0.00000000000E+00 0.  1.
</event>
<event>
 7    1  0.2878477E-009  0.1155232E+03  0.7561462E-02  0.1250671E+00
         -2   -1    0    0    0  501 -0.00000000000E+00  0.00000000000E+00  0.50024439370E+02  0.50024439370E+02  0.00000000000E+00 0.  1.
          2   -1    0    0  501    0  0.00000000000E+00 -0.00000000000E+00 -0.43962347721E+03  0.43962347721E+03  0.00000000000E+00 0. -1.
         25    2    1    2    0    0 -0.65975169155E+02  0.69997410731E+02 -0.16231926116E+03  0.22637847214E+03  0.12508920678E+03 0.  0.
          5    1    3    3  502    0 -0.24645736882E+02  0.61091694459E+02 -0.17075111901E+03  0.18306562900E+03  0.41800000000E+01 0. -1.
         -5    1    3    3    0  502 -0.41329432273E+02  0.89057162722E+01  0.84318578515E+01  0.43312843143E+02  0.41800000000E+01 0. -1.
        -11    1    1    2    0    0 -0.64570261370E+01 -0.45701932936E+02 -0.40261189660E+02  0.61248046936E+02  0.00000000000E+00 0.  1.
         11    1    1    2    0    0  0.72432195292E+02 -0.24295477795E+02 -0.18701858703E+03  0.20202139750E+03  0.00000000000E+00 0. -1.
</event>
<event>
 7    1  0.2878477E-009  0.1763900E+03  0.7561462E-02  0.1171343E+00
          1   -1    0    0  501    0  0.00000000000E+00  0.00000000000E+00  0.50981357506E+03  0.50981357506E+03  0.00000000000E+00 0. -1.
         -1   -1    0    0    0  501 -0.00000000000E+00 -0.00000000000E+00 -0.91789190538E+02  0.91789190538E+02  0.00000000000E+00 0.  1.
         25    2    1    2    0    0  0.95392293229E+02 -0.11213833116E+03  0.56919816641E+02  0.20140040421E+03  0.12509021691E+03 0.  0.
          5    1    3    3  502    0 -0.18990663607E+02 -0.54721407878E+02  0.43675017410E+02  0.72664002988E+02  0.41800000000E+01 0.  1.
         -5    1    3    3    0  502  0.11438295684E+03 -0.57416923286E+02  0.13244799231E+02  0.12873640123E+03  0.41800000000E+01 0.  1.
        -11    1    1    2    0    0 -0.10589610583E+03  0.79644317310E+02  0.23744614435E+03  0.27191519630E+03  0.00000000000E+00 0.  1.
         11    1    1    2    0    0  0.10503812606E+02  0.32494013854E+02  0.12365842354E+03  0.12828716509E+03  0.00000000000E+00 0. -1.
</event>
<event>
 7    1  0.2878477E-009  0.1113922E+03  0.7561462E-02  0.1258013E+00
          1   -1    0    0  501    0  0.00000000000E+00  0.00000000000E+00  0.16124111612E+02  0.16124111612E+02  0.00000000000E+00 0. -1.
         -1   -1    0    0    0  501 -0.00000000000E+00 -0.00000000000E+00 -0.84779915347E+03  0.84779915347E+03  0.00000000000E+00 0.  1.
         25    2    1    2    0    0 -0.27558679726E+02 -0.37566166586E+02 -0.40521255157E+03  0.42663294391E+03  0.12509100359E+03 0.  0.
          5    1    3    3  502    0 -0.74661443883E+02 -0.26943418243E+02 -0.30686030622E+03  0.31698737975E+03  0.41800000000E+01 0.  1.
         -5    1    3    3    0  502  0.47102764158E+02 -0.10622748343E+02 -0.98352245352E+02  0.10964556416E+03  0.41800000000E+01 0.  1.
        -11    1    1    2    0    0 -0.25277580504E+02 -0.64250731723E+01 -0.82522462223E+02  0.86545909278E+02  0.00000000000E+00 0. -1.
         11    1    1    2    0    0  0.52836260229E+02  0.43991239758E+02 -0.34394002806E+03  0.35074441189E+03  0.00000000000E+00 0.  1.
</event>
<event>
 7    1  0.2878477E-009  0.1569269E+03  0.7561462E-02  0.1192211E+00
          1   -1    0    0  501    0  0.00000000000E+00  0.00000000000E+00  0.18534347305E+04  0.18534347305E+04  0.00000000000E+00 0. -1.
         -1   -1    0    0    0  501 -0.00000000000E+00 -0.00000000000E+00 -0.17318785218E+02  0.17318785218E+02  0.00000000000E+00 0.  1.
         25    2    1    2    0    0  0.84803123315E+02 -0.89869141130E+02  0.14109844057E+04  0.14218937704E+04  0.12504746618E+03 0.  0.
          5    1    3    3  502    0  0.22193864121E+02  0.31076249122E+02  0.38218327617E+03  0.38410913793E+03  0.41800000000E+01 0.  1.
         -5    1    3    3    0  502  0.62609259194E+02 -0.12094539025E+03  0.10288011295E+04  0.10377846324E+04  0.41800000000E+01 0.  1.
        -11    1    1    2    0    0  0.99485328878E+01  0.16822242676E+02  0.11117828732E+03  0.11288300459E+03  0.00000000000E+00 0. -1.
         11    1    1    2    0    0 -0.94751656203E+02  0.73046898454E+02  0.31395325222E+03  0.33597674073E+03  0.00000000000E+00 0.  1.
</event>
<event>
 7    1  0.2878477E-009  0.8169642E+02  0.7561462E-02  0.1324305E+00
          3   -1    0    0  501    0  0.00000000000E+00  0.00000000000E+00  0.71538129388E+03  0.71538129388E+03  0.00000000000E+00 0. -1.
         -3   -1    0    0    0  501 -0.00000000000E+00 -0.00000000000E+00 -0.21830612833E+02  0.21830612833E+02  0.00000000000E+00 0.  1.
         25    2    1    2    0    0  0.21890579003E+02 -0.49774028274E+02  0.29556979662E+03  0.32552349882E+03  0.12508953702E+03 0.  0.
          5    1    3    3  502    0  0.93744761938E+01 -0.30995812106E+01 -0.10870361131E+02  0.15268443231E+02  0.41800000000E+01 0.  1.
         -5    1    3    3    0  502  0.12516102809E+02 -0.46674447063E+02  0.30644015775E+03  0.31025505559E+03  0.41800000000E+01 0.  1.
        -11    1    1    2    0    0  0.34137356360E+02  0.27644922279E+02  0.19891147577E+03  0.20370413844E+03  0.00000000000E+00 0. -1.
         11    1    1    2    0    0 -0.56027935363E+02  0.22129105995E+02  0.19906940866E+03  0.20798426945E+03  0.00000000000E+00 0.  1.
</event>
<event>
 7    1  0.2878477E-009  0.9104915E+02  0.7561462E-02  0.1300331E+00
         -2   -1    0    0    0  501 -0.00000000000E+00  0.00000000000E+00  0.10105267417E+04  0.10105267417E+04  0.00000000000E+00 0.  1.
          2   -1    0    0  501    0  0.00000000000E+00 -0.00000000000E+00 -0.17641249753E+02  0.17641249753E+02  0.00000000000E+00 0. -1.
         25    2    1    2    0    0 -0.24790053156E+02 -0.32511955409E+02  0.80279388854E+03  0.81350940632E+03  0.12509177716E+03 0.  0.
          5    1    3    3  502    0  0.25555236315E+02 -0.21057361591E+02  0.58009344450E+02  0.66925623074E+02  0.41800000000E+01 0.  1.
         -5    1    3    3    0  502 -0.50345289471E+02 -0.11454593818E+02  0.74478454408E+03  0.74658378324E+03  0.41800000000E+01 0.  1.
        -11    1    1    2    0    0 -0.31777958579E+02  0.23764561713E+02  0.10361989968E+03  0.11095799500E+03  0.00000000000E+00 0. -1.
         11    1    1    2    0    0  0.56568011735E+02  0.87473936956E+01  0.86471703713E+02  0.10370059012E+03  0.00000000000E+00 0.  1.
</event>
<event>
 7    1  0.2878477E-009  0.1678738E+03  0.7561462E-02  0.1180083E+00
          1   -1    0    0  501    0  0.00000000000E+00  0.00000000000E+00  0.23921863459E+03  0.23921863459E+03  0.00000000000E+00 0. -1.
         -1   -1    0    0    0  501 -0.00000000000E+00 -0.00000000000E+00 -0.16100836407E+03  0.16100836407E+03  0.00000000000E+00 0.  1.
         25    2    1    2    0    0  0.40752156120E+02 -0.14951681922E+03  0.93497416579E+02  0.22000874996E+03  0.12508423440E+03 0.  0.
          5    1    3    3  502    0  0.20764660726E+02 -0.12987219936E+03  0.12227042118E+03  0.17962596582E+03  0.41800000000E+01 0. -1.
         -5    1    3    3    0  502  0.19987495394E+02 -0.19644619862E+02 -0.28773004598E+02  0.40382784144E+02  0.41800000000E+01 0. -1.
        -11    1    1    2    0    0 -0.28267863818E+02  0.15814314614E+03 -0.29753861590E+01  0.16067725327E+03  0.00000000000E+00 0. -1.
         11    1    1    2    0    0 -0.12484292301E+02 -0.86263269230E+01 -0.12311759898E+02  0.19540995426E+02  0.00000000000E+00 0.  1.
</event>
<event>
 7    1  0.2878477E-009  0.9400209E+02  0.7561462E-02  0.1293440E+00
         -1   -1    0    0    0  501 -0.00000000000E+00  0.00000000000E+00  0.57488380195E+02  0.57488380195E+02  0.00000000000E+00 0.  1.
          1   -1    0    0  501    0  0.00000000000E+00 -0.00000000000E+00 -0.22343371961E+03  0.22343371961E+03  0.00000000000E+00 0. -1.
         25    2    1    2    0    0  0.30428170055E+02  0.12737583287E+02 -0.95587076292E+02  0.16085669901E+03  0.12509943606E+03 0.  0.
          5    1    3    3  502    0 -0.33884780213E+02 -0.27228045898E+01  0.10451667428E+02  0.35809241083E+02  0.41800000000E+01 0.  1.
         -5    1    3    3    0  502  0.64312950268E+02  0.15460387877E+02 -0.10603874372E+03  0.12504745793E+03  0.41800000000E+01 0.  1.
        -11    1    1    2    0    0 -0.54307320577E+02 -0.25947383567E+02 -0.70601900257E+02  0.92774889394E+02  0.00000000000E+00 0. -1.
         11    1    1    2    0    0  0.23879150522E+02  0.13209800280E+02  0.24363713682E+00  0.27290511393E+02  0.00000000000E+00 0.  1.
</event>
<event>
 7    1  0.2878477E-009  0.2012151E+03  0.7561462E-02  0.1148718E+00
          2   -1    0    0  501    0  0.00000000000E+00  0.00000000000E+00  0.56488865896E+03  0.56488865896E+03  0.00000000000E+00 0.  1.
         -2   -1    0    0    0  501 -0.00000000000E+00 -0.00000000000E+00 -0.86820773616E+02  0.86820773616E+02  0.00000000000E+00 0. -1.
         25    2    1    2    0    0 -0.10512582486E+02  0.17926398315E+03  0.33945902916E+03  0.40389149335E+03  0.12509922410E+03 0.  0.
          5    1    3    3  502    0  0.32281666593E+02  0.60769105647E-01  0.33449712429E+02  0.46674032957E+02  0.41800000000E+01 0.  1.
         -5    1    3    3    0  502 -0.42794249079E+02  0.17920321404E+03  0.30600931673E+03  0.35721746039E+03  0.41800000000E+01 0.  1.
        -11    1    1    2    0    0  0.28612462380E+02 -0.12984940813E+03  0.44895188261E+02  0.14033930214E+03  0.00000000000E+00 0. -1.
         11    1    1    2    0    0 -0.18099879894E+02 -0.49414575018E+02  0.93713667922E+02  0.10747863710E+03  0.00000000000E+00 0.  1.
</event>
<event>
 7    1  0.2878477E-009  0.1979655E+03  0.7561462E-02  0.1151467E+00
         -2   -1    0    0    0  501 -0.00000000000E+00  0.00000000000E+00  0.59680352934E+02  0.59680352934E+02  0.00000000000E+00 0.  1.
          2   -1    0    0  501    0  0.00000000000E+00 -0.00000000000E+00 -0.12380158926E+04  0.12380158926E+04  0.00000000000E+00 0. -1.
         25    2    1    2    0    0  0.28334530746E+02 -0.16653596810E+03 -0.10390280006E+04  0.10600778687E+04  0.12509527370E+03 0.  0.
          5    1    3    3  502    0 -0.30971858158E+02 -0.13443170254E+03 -0.58567625594E+03  0.60171861182E+03  0.41800000000E+01 0.  1.
         -5    1    3    3    0  502  0.59306388904E+02 -0.32104265558E+02 -0.45335174464E+03  0.45835925692E+03  0.41800000000E+01 0.  1.
        -11    1    1    2    0    0 -0.59220820038E+02  0.89178142944E+02 -0.95735631294E+02  0.14361461557E+03  0.00000000000E+00 0. -1.
         11    1    1    2    0    0  0.30886289292E+02  0.77357825154E+02 -0.43571907818E+02  0.94003761253E+02  0.00000000000E+00 0.  1.
</event>
<event>
 7    1  0.2878477E-009  0.9652921E+02  0.7561462E-02  0.1287769E+00
         -2   -1    0    0    0  501 -0.00000000000E+00  0.00000000000E+00  0.15793205054E+02  0.15793205054E+02  0.00000000000E+00 0.  1.
          2   -1    0    0  501    0  0.00000000000E+00 -0.00000000000E+00 -0.87181338171E+03  0.87181338171E+03  0.00000000000E+00 0. -1.
         25    2    1    2    0    0  0.48420811545E+02 -0.61117038158E+01 -0.37462615993E+03  0.39796337675E+03  0.12509261214E+03 0.  0.
          5    1    3    3  502    0 -0.27232796833E+02 -0.32454495782E+01 -0.17329525405E+02  0.32709983446E+02  0.41800000000E+01 0.  1.
         -5    1    3    3    0  502  0.75653608378E+02 -0.28662542376E+01 -0.35729663453E+03  0.36525339330E+03  0.41800000000E+01 0.  1.
        -11    1    1    2    0    0  0.10153056095E+02 -0.22217962673E+02 -0.13417044059E+03  0.13637605926E+03  0.00000000000E+00 0. -1.
         11    1    1    2    0    0 -0.58573867640E+02  0.28329666488E+02 -0.34722357614E+03  0.35326715075E+03  0.00000000000E+00 0.  1.
</event>
<event>
 7    1  0.2878477E-009  0.1279785E+03  0.7561462E-02  0.1230487E+00
         -2   -1    0    0    0  501 -0.00000000000E+00  0.00000000000E+00  0.30821350009E+03  0.30821350009E+03  0.00000000000E+00 0.  1.
          2   -1    0    0  501    0  0.00000000000E+00 -0.00000000000E+00 -0.68620412755E+02  0.68620412755E+02  0.00000000000E+00 0. -1.
         25    2    1    2    0    0  0.43939238007E+02 -0.68257116200E+02  0.61619003486E+02  0.16135181961E+03  0.12509123692E+03 0.  0.
          5    1    3    3  502    0  0.83451290034E+02 -0.30775769536E+02  0.16619415844E+02  0.90581141425E+02  0.41800000000E+01 0. -1.
         -5    1    3    3    0  502 -0.39512052027E+02 -0.37481346663E+02  0.44999587642E+02  0.70770678187E+02  0.41800000000E+01 0. -1.
        -11    1    1    2    0    0  0.20441318202E+02  0.33191763041E+02  0.10517442816E+03  0.11216595278E+03  0.00000000000E+00 0.  1.
         11    1    1    2    0    0 -0.64380556209E+02  0.35065353159E+02  0.72799655685E+02  0.10331614045E+03  0.00000000000E+00 0. -1.
</event>
<event>
 7    1  0.2878477E-009  0.1315266E+03  0.7561462E-02  0.1225208E+00
         -1   -1    0    0    0  501 -0.00000000000E+00  0.00000000000E+00  0.35319299700E+02  0.35319299700E+02  0.00000000000E+00 0.  1.
          1   -1    0    0  501    0  0.00000000000E+00 -0.00000000000E+00 -0.64828582293E+03  0.64828582293E+03  0.00000000000E+00 0. -1.
         25    2    1    2    0    0  0.91765219069E+02  0.12427893104E+02 -0.45091810197E+03  0.47702084920E+03  0.12508576229E+03 0.  0.
          5    1    3    3  502    0  0.11982006956E+03  0.21674105851E+02 -0.39848381664E+03  0.41669346102E+03  0.41800000000E+01 0.  1.
         -5    1    3    3    0  502 -0.28054850491E+02 -0.92462127467E+01 -0.52434285338E+02  0.60327388184E+02  0.41800000000E+01 0.  1.
        -11    1    1    2    0    0 -0.62449041136E+02  0.21957885789E+02 -0.42208796406E+02  0.78508687298E+02  0.00000000000E+00 0.  1.
         11    1    1    2    0    0 -0.29316177934E+02 -0.34385778894E+02 -0.11983962485E+03  0.12807558613E+03  0.00000000000E+00 0. -1.
</event>
<event>
 7    1  0.2878477E-009  0.1059133E+03  0.7561462E-02  0.1268331E+00
         -2   -1    0    0    0  501 -0.00000000000E+00  0.00000000000E+00  0.32909377610E+02  0.32909377610E+02  0.00000000000E+00 0.  1.
          2   -1    0    0  501    0  0.00000000000E+00 -0.00000000000E+00 -0.48411430565E+03  0.48411430565E+03  0.00000000000E+00 0. -1.
         25    2    1    2    0    0  0.49602440576E+02  0.30549011562E+01 -0.16706225792E+03  0.21454002642E+03  0.12509152802E+03 0.  0.
          5    1    3    3  502    0 -0.10491695944E+02  0.42174873642E+02 -0.12241339465E+03  0.12996656201E+03  0.41800000000E+01 0.  1.
         -5    1    3    3    0  502  0.60094136520E+02 -0.39119972486E+02 -0.44648863274E+02  0.84573464414E+02  0.41800000000E+01 0.  1.
        -11    1    1    2    0    0 -0.43465301251E+02 -0.39890216725E+02 -0.22443949104E+03  0.23206367001E+03  0.00000000000E+00 0. -1.
         11    1    1    2    0    0 -0.61371393257E+01  0.36835315569E+02 -0.59703179079E+02  0.70419986824E+02  0.00000000000E+00 0.  1.
</event>
<event>
 7    1  0.2878477E-009  0.8354907E+02  0.7561462E-02  0.1319271E+00
         -1   -1    0    0    0  501 -0.00000000000E+00  0.00000000000E+00  0.26149927960E+02  0.26149927960E+02  0.00000000000E+00 0.  1.
          1   -1    0    0  501    0  0.00000000000E+00 -0.00000000000E+00 -0.51761228393E+03  0.51761228393E+03  0.00000000000E+00 0. -1.
         25    2    1    2    0    0 -0.22029807168E+02 -0.25821784532E+02 -0.21561864335E+03  0.25157555270E+03  0.12508709925E+03 0.  0.
          5    1    3    3  502    0 -0.45954904472E+02 -0.16740344306E+02 -0.18031653084E+02  0.52294409696E+02  0.41800000000E+01 0.  1.
         -5    1    3    3    0  502  0.23925097303E+02 -0.90814402268E+01 -0.19758699026E+03  0.19928114301E+03  0.41800000000E+01 0.  1.
        -11    1    1    2    0    0 -0.24579564099E+02 -0.16107612565E+02 -0.52004027651E+02  0.59732981222E+02  0.00000000000E+00 0. -1.
         11    1    1    2    0    0  0.46609371267E+02  0.41929397097E+02 -0.22383968498E+03  0.23245367797E+03  0.00000000000E+00 0.  1.
</event>
<event>
 7    1  0.2878477E-009  0.1208826E+03  0.7561462E-02  0.1241648E+00
         -2   -1    0    0    0  501 -0.00000000000E+00  0.00000000000E+00  0.33429108764E+02  0.33429108764E+02  0.00000000000E+00 0.  1.
          2   -1    0    0  501    0  0.00000000000E+00 -0.00000000000E+00 -0.63437263464E+03  0.63437263464E+03  0.00000000000E+00 0. -1.
         25    2    1    2    0    0  0.47931375509E+02 -0.32648909535E+02 -0.15664389370E+03  0.20868104631E+03  0.12508837517E+03 0.  0.
          5    1    3    3  502    0  0.27072530198E+02  0.43144404586E+02 -0.97969365995E+02  0.11049810230E+03  0.41800000000E+01 0.  1.
         -5    1    3    3    0  502  0.20858845311E+02 -0.75793314120E+02 -0.58674527703E+02  0.98182944009E+02  0.41800000000E+01 0.  1.
        -11    1    1    2    0    0  0.95634108474E+01  0.50763021149E+02 -0.26414231480E+03  0.26914588165E+03  0.00000000000E+00 0.  1.
         11    1    1    2    0    0 -0.57494786356E+02 -0.18114111614E+02 -0.18015731738E+03  0.18997481545E+03  0.00000000000E+00 0. -1.
</event>
<event>
 7    1  0.2878477E-009  0.1109295E+03  0.7561462E-02  0.1258858E+00
         -1   -1    0    0    0  501 -0.00000000000E+00  0.00000000000E+00  0.10597077957E+02  0.10597077957E+02  0.00000000000E+00 0.  1.
          1   -1    0    0  501    0  0.00000000000E+00 -0.00000000000E+00 -0.13126590019E+04  0.13126590019E+04  0.00000000000E+00 0. -1.
         25    2    1    2    0    0 -0.29326597900E+02 -0.22337007331E+02 -0.85849806098E+03  0.86834717566E+03  0.12509558558E+03 0.  0.
          5    1    3    3  502    0  0.43655279631E+02 -0.23345166147E+02 -0.21275148263E+03  0.21847527545E+03  0.41800000000E+01 0. -1.
         -5    1    3    3    0  502 -0.72981877531E+02  0.10081588159E+01 -0.64574657835E+03  0.64987190021E+03  0.41800000000E+01 0. -1.
        -11    1    1    2    0    0 -0.31906099821E+02  0.20272190248E+02 -0.21383163208E+03  0.21714724908E+03  0.00000000000E+00 0. -1.
         11    1    1    2    0    0  0.61232697721E+02  0.20648170827E+01 -0.22973223093E+03  0.23776165516E+03  0.00000000000E+00 0.  1.
</event>
<event>
 7    1  0.2878477E-009  0.1379770E+03  0.7561462E-02  0.1216077E+00
         -3   -1    0    0    0  501 -0.00000000000E+00  0.00000000000E+00  0.87532390992E+03  0.87532390992E+03  0.00000000000E+00 0.  1.
          3   -1    0    0  501    0  0.00000000000E+00 -0.00000000000E+00 -0.23090795481E+02  0.23090795481E+02  0.00000000000E+00 0. -1.
         25    2    1    2    0    0 -0.83063356165E+02  0.10621483333E+02  0.54470992046E+03  0.56512663627E+03  0.12508749149E+03 0.  0.
          5    1    3    3  502    0 -0.82473619910E+02  0.59131758851E+02  0.38365223777E+03  0.39686896431E+03  0.41800000000E+01 0.  1.
         -5    1    3    3    0  502 -0.58973625487E+00 -0.48510275518E+02  0.16105768269E+03  0.16825767196E+03  0.41800000000E+01 0.  1.
        -11    1    1    2    0    0  0.28167101441E+02 -0.50511534990E+02  0.17651984126E+03  0.18575267193E+03  0.00000000000E+00 0.  1.
         11    1    1    2    0    0  0.54896254724E+02  0.39890051657E+02  0.13100335272E+03  0.14753539720E+03  0.00000000000E+00 0. -1.
</event>
<event>
 7    1  0.2878477E-009  0.1883740E+03  0.7561462E-02  0.1159936E+00
         -3   -1    0    0    0  501 -0.00000000000E+00  0.00000000000E+00  0.46339547747E+02  0.46339547747E+02  0.00000000000E+00 0.  1.
          3   -1    0    0  501    0  0.00000000000E+00 -0.00000000000E+00 -0.88409052692E+03  0.88409052692E+03  0.00000000000E+00 0. -1.
         25    2    1    2    0    0 -0.11943764455E+03 -0.11341412341E+03 -0.37019176504E+03  0.42404750786E+03  0.12508489796E+03 0.  0.
          5    1    3    3  502    0 -0.78232824934E+02 -0.12582341584E+03 -0.20298244804E+03  0.25133892154E+03  0.41800000000E+01 0. -1.
         -5    1    3    3    0  502 -0.41204819611E+02  0.12409292424E+02 -0.16720931700E+03  0.17270858632E+03  0.41800000000E+01 0. -1.
        -11    1    1    2    0    0 -0.99148028192E+00  0.48445806643E+02 -0.64125013735E+02  0.80374104044E+02  0.00000000000E+00 0.  1.
         11    1    1    2    0    0  0.12042912483E+03  0.64968316771E+02 -0.40343420040E+03  0.42600846276E+03  0.00000000000E+00 0. -1.
</event>
<event>
 7    1  0.2878477E-009  0.9913510E+02  0.7561462E-02  0.1282125E+00
          2   -1    0    0  501    0  0.00000000000E+00  0.00000000000E+00  0.39533006867E+02  0.39533006867E+02  0.00000000000E+00 0.  1.
         -2   -1    0    0    0  501 -0.00000000000E+00 -0.00000000000E+00 -0.32458802560E+03  0.32458802560E+03  0.00000000000E+00 0. -1.
         25    2    1    2    0    0  0.48235762261E+01  0.31632968107E+02 -0.18135207101E+03  0.22262100127E+03  0.12509046721E+03 0.  0.
          5    1    3    3  502    0  0.23969133593E+02  0.63158955781E+02 -0.44929834711E+02  0.81238756192E+02  0.41800000000E+01 0. -1.
         -5    1    3    3    0  502 -0.19145557367E+02 -0.31525987674E+02 -0.13642223630E+03  0.14138224508E+03  0.41800000000E+01 0. -1.
        -11    1    1    2    0    0  0.39143968803E+01  0.30485869205E+02 -0.19134340593E+02  0.36205437631E+02  0.00000000000E+00 0.  1.
         11    1    1    2    0    0 -0.87379731064E+01 -0.62118837312E+02 -0.84568607133E+02  0.10529459357E+03  0.00000000000E+00 0. -1.
</event>
<event>
 7    1  0.2878477E-009  0.1287454E+03  0.7561462E-02  0.1229329E+00
         -1   -1    0    0    0  501 -0.00000000000E+00  0.00000000000E+00  0.11812859085E+03  0.11812859085E+03  0.00000000000E+00 0.  1.
          1   -1    0    0  501    0  0.00000000000E+00 -0.00000000000E+00 -0.22004331921E+03  0.22004331921E+03  0.00000000000E+00 0. -1.
         25    2    1    2    0    0 -0.92057273589E+02 -0.75237517762E+02 -0.42524442665E+02  0.17773837761E+03  0.12508947578E+03 0.  0.
          5    1    3    3  502    0 -0.61467906483E+02 -0.86003339569E+02 -0.76523126253E+02  0.13056852299E+03  0.41800000000E+01 0. -1.
         -5    1    3    3    0  502 -0.30589367107E+02  0.10765821807E+02  0.33998683587E+02  0.47169854620E+02  0.41800000000E+01 0. -1.
        -11    1    1    2    0    0  0.59246644703E+02  0.51529398738E+02 -0.82441181208E+02  0.11385074528E+03  0.00000000000E+00 0. -1.
         11    1    1    2    0    0  0.32810628886E+02  0.23708119023E+02  0.23050895513E+02  0.46582787159E+02  0.00000000000E+00 0.  1.
</event>
<event>
 7    1  0.2878477E-009  0.1079705E+03  0.7561462E-02  0.1264375E+00
         -2   -1    0    0    0  501 -0.00000000000E+00  0.00000000000E+00  0.14106641576E+02  0.14106641576E+02  0.00000000000E+00 0.  1.
          2   -1    0    0  501    0  0.00000000000E+00 -0.00000000000E+00 -0.89199146096E+03  0.89199146096E+03  0.00000000000E+00 0. -1.
         25    2    1    2    0    0  0.23616091862E+02  0.29634753744E+01 -0.49974420039E+03  0.51571217082E+03  0.12509306667E+03 0.  0.
          5    1    3    3  502    0 -0.38029612634E+02  0.35501891900E+02 -0.28970047830E+03  0.29436452791E+03  0.41800000000E+01 0. -1.
         -5    1    3    3    0  502  0.61645704496E+02 -0.32538416525E+02 -0.21004372209E+03  0.22134764291E+03  0.41800000000E+01 0. -1.
        -11    1    1    2    0    0 -0.58721163578E+02 -0.32401508710E+01 -0.28120955372E+03  0.28729338094E+03  0.00000000000E+00 0. -1.
         11    1    1    2    0    0  0.35105071716E+02  0.27667549659E+00 -0.96931065274E+02  0.10309255077E+03  0.00000000000E+00 0.  1.
</event>
<event>
 7    1  0.2878477E-009  0.8318467E+02  0.7561462E-02  0.1320249E+00
          1   -1    0    0  501    0  0.00000000000E+00  0.00000000000E+00  0.22691132876E+02  0.22691132876E+02  0.00000000000E+00 0. -1.
         -1   -1    0    0    0  501 -0.00000000000E+00 -0.00000000000E+00 -0.70271374029E+03  0.70271374029E+03  0.00000000000E+00 0.  1.
         25    2    1    2    0    0  0.10358701826E+02  0.54083432690E+02 -0.47739582458E+03  0.49657521835E+03  0.12509138162E+03 0.  0.
          5    1    3    3  502    0  0.34889178012E+02  0.23990861405E+02 -0.43225831182E+02  0.60652790988E+02  0.41800000000E+01 0. -1.
         -5    1    3    3    0  502 -0.24530476186E+02  0.30092571285E+02 -0.43416999340E+03  0.43592242737E+03  0.41800000000E+01 0. -1.
        -11    1    1    2    0    0  0.27460738551E+02 -0.22831963726E+02 -0.22658917860E+02  0.42294412018E+02  0.00000000000E+00 0. -1.
         11    1    1    2    0    0 -0.37819440377E+02 -0.31251468965E+02 -0.17996786497E+03  0.18653524280E+03  0.00000000000E+00 0.  1.
</event>
<event>
 7    1  0.2878477E-009  0.1563507E+03  0.7561462E-02  0.1192879E+00
         -2   -1    0    0    0  501 -0.00000000000E+00  0.00000000000E+00  0.89078254380E+02  0.89078254380E+02  0.00000000000E+00 0.  1.
          2   -1    0    0  501    0  0.00000000000E+00 -0.00000000000E+00 -0.29042190368E+03  0.29042190368E+03  0.00000000000E+00 0. -1.
         25    2    1    2    0    0 -0.41852809307E+02 -0.11136428272E+03 -0.11619663993E+03  0.20809582817E+03  0.12509417836E+03 0.  0.
          5    1    3    3  502    0  0.39812798798E+02 -0.81060536451E+01 -0.30109909113E+02  0.50742941190E+02  0.41800000000E+01 0. -1.
         -5    1    3    3    0  502 -0.81665608105E+02 -0.10325822907E+03 -0.86086730815E+02  0.15735288698E+03  0.41800000000E+01 0. -1.
        -11    1    1    2    0    0  0.63139371068E+02  0.75346793518E+02 -0.31202626932E+02  0.10313740059E+03  0.00000000000E+00 0.  1.
         11    1    1    2    0    0 -0.21286561761E+02  0.36017489200E+02 -0.53944382441E+02  0.68266929306E+02  0.00000000000E+00 0. -1.
</event>
<event>
 7    1  0.2878477E-009  0.1259163E+03  0.7561462E-02  0.1233644E+00
          1   -1    0    0  501    0  0.00000000000E+00  0.00000000000E+00  0.52507541881E+02  0.52507541881E+02  0.00000000000E+00 0. -1.
         -1   -1    0    0    0  501 -0.00000000000E+00 -0.00000000000E+00 -0.49776189032E+03  0.49776189032E+03  0.00000000000E+00 0.  1.
         25    2    1    2    0    0  0.99366015849E+02  0.58622430731E+02 -0.19189982720E+03  0.25648255623E+03  0.12509022137E+03 0.  0.
          5    1    3    3  502    0  0.26580957651E+02 -0.79456889710E+01 -0.14408078852E+03  0.14678701340E+03  0.41800000000E+01 0.  1.
         -5    1    3    3    0  502  0.72785058198E+02  0.66568119702E+02 -0.47819038680E+02  0.10969554283E+03  0.41800000000E+01 0.  1.
        -11    1    1    2    0    0 -0.72640323588E+02 -0.15431616051E+02 -0.64953366593E+02  0.98659470994E+02  0.00000000000E+00 0. -1.
         11    1    1    2    0    0 -0.26725692261E+02 -0.43190814680E+02 -0.18840115465E+03  0.19512740498E+03  0.00000000000E+00 0.  1.
</event>
<event>
 7    1  0.2878477E-009  0.1302087E+03  0.7561462E-02  0.1227146E+00
         -2   -1    0    0    0  501 -0.00000000000E+00  0.00000000000E+00  0.30233230897E+02  0.30233230897E+02  0.00000000000E+00 0.  1.
          2   -1    0    0  501    0  0.00000000000E+00 -0.00000000000E+00 -0.58728303783E+03  0.58728303783E+03  0.00000000000E+00 0. -1.
         25    2    1    2    0    0 -0.65277981865E+02  0.30897448727E+02 -0.37072108594E+03  0.39786619718E+03  0.12509004774E+03 0.  0.
          5    1    3    3  502    0  0.25818804898E+02 -0.26040606808E+02 -0.98028652405E+02  0.10474642229E+03  0.41800000000E+01 0. -1.
         -5    1    3    3    0  502 -0.91096786763E+02  0.56938055535E+02 -0.27269243353E+03  0.29311977489E+03  0.41800000000E+01 0. -1.
        -11    1    1    2    0    0  0.44493897212E+01 -0.51565575408E+02 -0.75250981207E+02  0.91331899185E+02  0.00000000000E+00 0. -1.
         11    1    1    2    0    0  0.60828592143E+02  0.20668126681E+02 -0.11107773979E+03  0.12831817236E+03  0.00000000000E+00 0.  1.
</event>
<event>
 7    1  0.2878477E-009  0.1250600E+03  0.7561462E-02  0.1234976E+00
         -1   -1    0    0    0  501 -0.00000000000E+00  0.00000000000E+00  0.24268669167E+02  0.24268669167E+02  0.00000000000E+00 0.  1.
          1   -1    0    0  501    0  0.00000000000E+00 -0.00000000000E+00 -0.76153614678E+03  0.76153614678E+03  0.00000000000E+00 0. -1.
         25    2    1    2    0    0 -0.59768787064E+02 -0.26450428360E+02 -0.55579191896E+03  0.57343977285E+03  0.12512626756E+03 0.  0.
          5    1    3    3  502    0  0.31558333507E+02 -0.36044753001E+02 -0.15753472941E+03  0.16471131110E+03  0.41800000000E+01 0.  1.
         -5    1    3    3    0  502 -0.91327120571E+02  0.95943246404E+01 -0.39825718955E+03  0.40872846175E+03  0.41800000000E+01 0.  1.
        -11    1    1    2    0    0  0.83321786079E+02  0.20123120635E+02 -0.13589726931E+03  0.16067211278E+03  0.00000000000E+00 0.  1.
         11    1    1    2    0    0 -0.23552999015E+02  0.63273077253E+01 -0.45578289352E+02  0.51692930328E+02  0.00000000000E+00 0. -1.
</event>
<event>
 7    1  0.2878477E-009  0.2183769E+03  0.7561462E-02  0.1135099E+00
          1   -1    0    0  501    0  0.00000000000E+00  0.00000000000E+00  0.47750639884E+03  0.47750639884E+03  0.00000000000E+00 0. -1.
         -1   -1    0    0    0  501 -0.00000000000E+00 -0.00000000000E+00 -0.13206572836E+03  0.13206572836E+03  0.00000000000E+00 0.  1.
         25    2    1    2    0    0  0.19224901442E+03 -0.21790279485E+02  0.31957590816E+03  0.39396777594E+03  0.12508935838E+03 0.  0.
          5    1    3    3  502    0  0.15590916290E+03 -0.65032610545E+02  0.27092106792E+03  0.31930018001E+03  0.41800000000E+01 0. -1.
         -5    1    3    3    0  502  0.36339851515E+02  0.43242331059E+02  0.48654840240E+02  0.74667595932E+02  0.41800000000E+01 0. -1.
        -11    1    1    2    0    0 -0.85304490789E+02  0.52127082088E+02  0.29964943367E+02  0.10436468113E+03  0.00000000000E+00 0.  1.
         11    1    1    2    0    0 -0.10694452363E+03 -0.30336802603E+02 -0.41001810536E+01  0.11123967013E+03  0.00000000000E+00 0. -1.
</event>
<event>
 7    1  0.2878477E-009  0.9909616E+02  0.7561462E-02  0.1282208E+00
          2   -1    0    0  501    0  0.00000000000E+00  0.00000000000E+00  0.78750095709E+03  0.78750095709E+03  0.00000000000E+00 0. -1.
         -2   -1    0    0    0  501 -0.00000000000E+00 -0.00000000000E+00 -0.23103390296E+02  0.23103390296E+02  0.00000000000E+00 0.  1.
         25    2    1    2    0    0 -0.45841376082E+02  0.33744486258E+00  0.63404605472E+03  0.64789158300E+03  0.12509020019E+03 0.  0.
          5    1    3    3  502    0 -0.67375262449E+02  0.32492570482E+02  0.22819779834E+03  0.24018097488E+03  0.41800000000E+01 0. -1.
         -5    1    3    3    0  502  0.21533886367E+02 -0.32155125620E+02  0.40584825638E+03  0.40771060812E+03  0.41800000000E+01 0. -1.
        -11    1    1    2    0    0 -0.11720426711E+02  0.20100019837E+02  0.57847749895E+01  0.23975879992E+02  0.00000000000E+00 0.  1.
         11    1    1    2    0    0  0.57561802793E+02 -0.20437464699E+02  0.12456673708E+03  0.13873688439E+03  0.00000000000E+00 0. -1.
</event>
<event>
 7    1  0.2878477E-009  0.3296573E+03  0.7561462E-02  0.1071289E+00
         -2   -1    0    0    0  501 -0.00000000000E+00  0.00000000000E+00  0.36472794380E+03  0.36472794380E+03  0.00000000000E+00 0.  1.
          2   -1    0    0  501    0  0.00000000000E+00 -0.00000000000E+00 -0.35004154612E+03  0.35004154612E+03  0.00000000000E+00 0. -1.
         25    2    1    2    0    0  0.30852213598E+03  0.75809040453E+02 -0.11423798665E+03  0.36004343921E+03  0.12509213214E+03 0.  0.
          5    1    3    3  502    0  0.54280861457E+02 -0.33939143025E+02 -0.15307914387E+02  0.65955151373E+02  0.41800000000E+01 0. -1.
         -5    1    3    3    0  502  0.25424127452E+03  0.10974818348E+03 -0.98930072264E+02  0.29408828784E+03  0.41800000000E+01 0. -1.
        -11    1    1    2    0    0 -0.10591971052E+03 -0.17242353597E+02  0.90449924611E+02  0.14034768504E+03  0.00000000000E+00 0.  1.
         11    1    1    2    0    0 -0.20260242546E+03 -0.58566686856E+02  0.38474459720E+02  0.21437836566E+03  0.00000000000E+00 0. -1.
</event>
<event>
 7    1  0.2878477E-009  0.9933168E+02  0.7561462E-02  0.1281708E+00
         -2   -1    0    0    0  501 -0.00000000000E+00  0.00000000000E+00  0.80005493686E+02  0.80005493686E+02  0.00000000000E+00 0.  1.
          2   -1    0    0  501    0  0.00000000000E+00 -0.00000000000E+00 -0.15605133979E+03  0.15605133979E+03  0.00000000000E+00 0. -1.
         25    2    1    2    0    0  0.16860236745E+01  0.92015457974E+01 -0.96189735378E+02  0.15807675558E+03  0.12509310270E+03 0.  0.
          5    1    3    3  502    0 -0.53418150305E+02 -0.24178389264E+02 -0.60293268827E+02  0.84207149074E+02  0.41800000000E+01 0. -1.
         -5    1    3    3    0  502  0.55104173979E+02  0.33379935061E+02 -0.35896466551E+02  0.73869606507E+02  0.41800000000E+01 0. -1.
        -11    1    1    2    0    0  0.30939706495E+02  0.15300436131E+02  0.10016710516E+02  0.35940273696E+02  0.00000000000E+00 0. -1.
         11    1    1    2    0    0 -0.32625730170E+02 -0.24501981928E+02  0.10127178757E+02  0.42039804199E+02  0.00000000000E+00 0.  1.
</event>
<event>
 7    1  0.2878477E-009  0.1273803E+03  0.7561462E-02  0.1231395E+00
         -1   -1    0    0    0  501 -0.00000000000E+00  0.00000000000E+00  0.21952182060E+02  0.21952182060E+02  0.00000000000E+00 0.  1.
          1   -1    0    0  501    0  0.00000000000E+00 -0.00000000000E+00 -0.10273292236E+04  0.10273292236E+04  0.00000000000E+00 0. -1.
         25    2    1    2    0    0 -0.52551874888E+02 -0.44938109434E+02 -0.81681063316E+03  0.82922143640E+03  0.12508975543E+03 0.  0.
          5    1    3    3  502    0 -0.12411071935E+02 -0.84384117622E+02 -0.54081270361E+03  0.54751307455E+03  0.41800000000E+01 0.  1.
         -5    1    3    3    0  502 -0.40140802954E+02  0.39446008187E+02 -0.27599792954E+03  0.28170836185E+03  0.41800000000E+01 0.  1.
        -11    1    1    2    0    0 -0.25046390919E+02  0.45610860993E+01 -0.51691798555E+02  0.57620892411E+02  0.00000000000E+00 0.  1.
         11    1    1    2    0    0  0.77598265807E+02  0.40377023335E+02 -0.13687460978E+03  0.16243907680E+03  0.00000000000E+00 0. -1.
</event>
<event>
 7    1  0.2878477E-009  0.3415628E+03  0.7561462E-02  0.1066132E+00
         -1   -1    0    0    0  501 -0.00000000000E+00  0.00000000000E+00  0.93611465690E+02  0.93611465690E+02  0.00000000000E+00 0.  1.
          1   -1    0    0  501    0  0.00000000000E+00 -0.00000000000E+00 -0.18877658269E+04  0.18877658269E+04  0.00000000000E+00 0. -1.
         25    2    1    2    0    0  0.10639826695E+02  0.33041125717E+03 -0.14607932691E+04  0.15029469051E+04  0.12509044691E+03 0.  0.
          5    1    3    3  502    0  0.49370225504E+02  0.78089490147E+02 -0.28037727423E+03  0.29523596654E+03  0.41800000000E+01 0. -1.
         -5    1    3    3    0  502 -0.38730398809E+02  0.25232176702E+03 -0.11804159948E+04  0.12077109386E+04  0.41800000000E+01 0. -1.
        -11    1    1    2    0    0 -0.32073176143E+02 -0.13538237411E+03 -0.18971825070E+03  0.23526599945E+03  0.00000000000E+00 0.  1.
         11    1    1    2    0    0  0.21433349448E+02 -0.19502888306E+03 -0.14364284142E+03  0.24316438799E+03  0.00000000000E+00 0. -1.
</event>
<event>
 7    1  0.2878477E-009  0.1008606E+03  0.7561462E-02  0.1278497E+00
         -3   -1    0    0    0  501 -0.00000000000E+00  0.00000000000E+00  0.27911175804E+03  0.27911175804E+03  0.00000000000E+00 0.  1.
          3   -1    0    0  501    0  0.00000000000E+00 -0.00000000000E+00 -0.74357110445E+02  0.74357110445E+02  0.00000000000E+00 0. -1.
         25    2    1    2    0    0  0.64516493776E+02  0.33367532414E+02  0.17859630828E+03  0.22982556336E+03  0.12508948019E+03 0.  0.
          5    1    3    3  502    0  0.76829418024E+02  0.25968194051E+02  0.19279492465E+03  0.20919957445E+03  0.41800000000E+01 0. -1.
         -5    1    3    3    0  502 -0.12312924247E+02  0.73993383633E+01 -0.14198616375E+02  0.20625988914E+02  0.41800000000E+01 0.  1.
        -11    1    1    2    0    0 -0.14565293813E+02  0.24874264211E+02 -0.19083885929E+02  0.34569806278E+02  0.00000000000E+00 0. -1.
         11    1    1    2    0    0 -0.49951199963E+02 -0.58241796625E+02  0.45242225247E+02  0.89073498849E+02  0.00000000000E+00 0.  1.
</event>
<event>
 7    1  0.2878477E-009  0.1110401E+03  0.7561462E-02  0.1258656E+00
          2   -1    0    0  501    0  0.00000000000E+00  0.00000000000E+00  0.20610571798E+03  0.20610571798E+03  0.00000000000E+00 0.  1.
         -2   -1    0    0    0  501 -0.00000000000E+00 -0.00000000000E+00 -0.83051018466E+02  0.83051018466E+02  0.00000000000E+00 0. -1.
         25    2    1    2    0    0  0.83997068364E+02 -0.16180863911E+02  0.10666472921E+03  0.18531673292E+03  0.12509036410E+03 0.  0.
          5    1    3    3  502    0  0.86477547836E+02 -0.49202276225E+02  0.33785141400E+02  0.10515768372E+03  0.41800000000E+01 0. -1.
         -5    1    3    3    0  502 -0.24804794711E+01  0.33021412315E+02  0.72879587808E+02  0.80159049200E+02  0.41800000000E+01 0. -1.
        -11    1    1    2    0    0 -0.51018246809E+02  0.22126570343E+02 -0.15344281426E+02  0.57687898168E+02  0.00000000000E+00 0. -1.
         11    1    1    2    0    0 -0.32978821556E+02 -0.59457064329E+01  0.31734251737E+02  0.46152105364E+02  0.00000000000E+00 0.  1.
</event>
<event>
 7    1  0.2878477E-009  0.1372841E+03  0.7561462E-02  0.1217031E+00
          2   -1    0    0  501    0  0.00000000000E+00  0.00000000000E+00  0.49264218706E+03  0.49264218706E+03  0.00000000000E+00 0. -1.
         -2   -1    0    0    0  501 -0.00000000000E+00 -0.00000000000E+00 -0.39543219203E+02  0.39543219203E+02  0.00000000000E+00 0.  1.
         25    2    1    2    0    0  0.45651367439E+02  0.74374435913E+02  0.24175977747E+03  0.28585205599E+03  0.12509198154E+03 0.  0.
          5    1    3    3  502    0 -0.31059373267E+02 -0.12184670138E+02  0.81564924675E+02  0.88223920744E+02  0.41800000000E+01 0. -1.
         -5    1    3    3    0  502  0.76710740706E+02  0.86559106051E+02  0.16019485279E+03  0.19762813525E+03  0.41800000000E+01 0. -1.
        -11    1    1    2    0    0 -0.35769378069E+01  0.20823073759E+02  0.23617163364E+02  0.31688567184E+02  0.00000000000E+00 0.  1.
         11    1    1    2    0    0 -0.42074429633E+02 -0.95197509672E+02  0.18772202702E+03  0.21464478308E+03  0.00000000000E+00 0. -1.
</event>
<event>
 7    1  0.2878477E-009  0.1230589E+03  0.7561462E-02  0.1238134E+00
          2   -1    0    0  501    0  0.00000000000E+00  0.00000000000E+00  0.12123123472E+03  0.12123123472E+03  0.00000000000E+00 0. -1.
         -2   -1    0    0    0  501 -0.00000000000E+00 -0.00000000000E+00 -0.16360831215E+03  0.16360831215E+03  0.00000000000E+00 0.  1.
         25    2    1    2    0    0  0.89191946489E+02 -0.13818605372E+02 -0.14260338931E+02  0.15489380969E+03  0.12507029160E+03 0.  0.
          5    1    3    3  502    0  0.57210728709E+02 -0.68967847134E+02 -0.13589997339E+01  0.89715944503E+02  0.41800000000E+01 0.  1.
         -5    1    3    3    0  502  0.31981217780E+02  0.55149241762E+02 -0.12901339197E+02  0.65177865190E+02  0.41800000000E+01 0.  1.
        -11    1    1    2    0    0 -0.69132190194E+02  0.18336868822E+01  0.23699184184E+02  0.73104537886E+02  0.00000000000E+00 0. -1.
         11    1    1    2    0    0 -0.20059756295E+02  0.11984918490E+02 -0.51815922682E+02  0.56841199295E+02  0.00000000000E+00 0.  1.
</event>
<event>
 7    1  0.2878477E-009  0.1262362E+03  0.7561462E-02  0.1233150E+00
         -2   -1    0    0    0  501 -0.00000000000E+00  0.00000000000E+00  0.90407886192E+02  0.90407886192E+02  0.00000000000E+00 0.  1.
          2   -1    0    0  501    0  0.00000000000E+00 -0.00000000000E+00 -0.22065051223E+03  0.22065051223E+03  0.00000000000E+00 0. -1.
         25    2    1    2    0    0 -0.72140281243E+02 -0.56970157172E+02 -0.52489717052E+02  0.16391096068E+03  0.12514716796E+03 0.  0.
          5    1    3    3  502    0 -0.15052822186E+02 -0.85918130217E+02 -0.12229482617E+02  0.88179051939E+02  0.41800000000E+01 0.  1.
         -5    1    3    3    0  502 -0.57087459058E+02  0.28947973045E+02 -0.40260234435E+02  0.75731908743E+02  0.41800000000E+01 0.  1.
        -11    1    1    2    0    0 -0.67572709068E+00  0.18754356859E+02  0.14387123253E+02  0.23646814242E+02  0.00000000000E+00 0.  1.
         11    1    1    2    0    0  0.72816008334E+02  0.38215800314E+02 -0.92140032236E+02  0.12350062350E+03  0.00000000000E+00 0. -1.
</event>
<event>
 7    1  0.2878477E-009  0.1314656E+03  0.7561462E-02  0.1225297E+00
          2   -1    0    0  501    0  0.00000000000E+00  0.00000000000E+00  0.56120956538E+03  0.56120956538E+03  0.00000000000E+00 0.  1.
         -2   -1    0    0    0  501 -0.00000000000E+00 -0.00000000000E+00 -0.39856208705E+02  0.39856208705E+02  0.00000000000E+00 0. -1.
         25    2    1    2    0    0  0.69010830846E+02 -0.36174393513E+02  0.41445543307E+03  0.43987693571E+03  0.12508929230E+03 0.  0.
          5    1    3    3  502    0  0.25216083533E+02 -0.80431416608E+02  0.25719987349E+03  0.27069228096E+03  0.41800000000E+01 0. -1.
         -5    1    3    3    0  502  0.43794747313E+02  0.44257023095E+02  0.15725555958E+03  0.16918465475E+03  0.41800000000E+01 0. -1.
        -11    1    1    2    0    0  0.15797951969E+02  0.26396059023E+02  0.49625247299E+02  0.58386577120E+02  0.00000000000E+00 0. -1.
         11    1    1    2    0    0 -0.84808782815E+02  0.97783344899E+01  0.57272676310E+02  0.10280226126E+03  0.00000000000E+00 0.  1.
</event>
<event>
 7    1  0.2878477E-009  0.1107606E+03  0.7561462E-02  0.1259168E+00
          2   -1    0    0  501    0  0.00000000000E+00  0.00000000000E+00  0.32057691213E+02  0.32057691213E+02  0.00000000000E+00 0. -1.
         -2   -1    0    0    0  501 -0.00000000000E+00 -0.00000000000E+00 -0.38866551445E+03  0.38866551445E+03  0.00000000000E+00 0.  1.
         25    2    1    2    0    0  0.25548880586E+02  0.28420662923E+01 -0.21598407585E+03  0.25091118305E+03  0.12508588298E+03 0.  0.
          5    1    3    3  502    0  0.73339158453E+01  0.63298173579E+02 -0.96715624190E+02  0.11589576982E+03  0.41800000000E+01 0. -1.
         -5    1    3    3    0  502  0.18214964741E+02 -0.60456107287E+02 -0.11926845166E+03  0.13501541323E+03  0.41800000000E+01 0. -1.
        -11    1    1    2    0    0 -0.40270880207E+02  0.35266797275E+02 -0.68670240340E+02  0.87069470488E+02  0.00000000000E+00 0.  1.
         11    1    1    2    0    0  0.14721999621E+02 -0.38108863568E+02 -0.71953507055E+02  0.82742552129E+02  0.00000000000E+00 0. -1.
</event>
<event>
 6    1  0.2878477E-009  0.9629267E+02  0.7561462E-02  0.1288291E+00
          1   -1    0    0  501    0  0.00000000000E+00  0.00000000000E+00  0.18943994841E+03  0.18943994841E+03  0.00000000000E+00 0. -1.
         -1   -1    0    0    0  501 -0.00000000000E+00 -0.00000000000E+00 -0.75674299754E+02  0.75674299754E+02  0.00000000000E+00 0.  1.
          5    1    1    2  502    0 -0.38587172458E+02  0.40303267363E+02  0.63792965959E+02  0.84854806253E+02  0.41800000000E+01 0.  1.
         -5    1    1    2    0  502  0.64203778617E+02 -0.29276207700E+02  0.51165486436E+02  0.87261680755E+02  0.41800000000E+01 0.  1.
        -11    1    1    2    0    0 -0.10892396271E+02  0.24866911476E+02 -0.33069269490E+02  0.42785326544E+02  0.00000000000E+00 0.  1.
         11    1    1    2    0    0 -0.14724209889E+02 -0.35893971139E+02  0.31876465751E+02  0.50212434613E+02  0.00000000000E+00 0. -1.
</event>
<event>
 7    1  0.2878477E-009  0.1248669E+03  0.7561462E-02  0.1235277E+00
          1   -1    0    0  501    0  0.00000000000E+00  0.00000000000E+00  0.81123807805E+03  0.81123807805E+03  0.00000000000E+00 0. -1.
         -1   -1    0    0    0  501 -0.00000000000E+00 -0.00000000000E+00 -0.36527211613E+02  0.36527211613E+02  0.00000000000E+00 0.  1.
         25    2    1    2    0    0 -0.20459192407E+02 -0.10681601020E+03  0.60020999714E+03  0.62267805035E+03  0.12509066764E+03 0.  0.
          5    1    3    3  502    0  0.17395937470E+02 -0.26687146444E+02  0.25116710191E+02  0.40781662014E+02  0.41800000000E+01 0.  1.
         -5    1    3    3    0  502 -0.37855129877E+02 -0.80128863756E+02  0.57509328694E+03  0.58189638833E+03  0.41800000000E+01 0.  1.
        -11    1    1    2    0    0  0.71127039331E+01  0.11366269832E+03  0.10812529954E+03  0.15703782966E+03  0.00000000000E+00 0.  1.
         11    1    1    2    0    0  0.13346488474E+02 -0.68466881154E+01  0.66375569763E+02  0.68049409652E+02  0.00000000000E+00 0. -1.
</event>
<event>
 7    1  0.2878477E-009  0.1350683E+03  0.7561462E-02  0.1220123E+00
          1   -1    0    0  501    0  0.00000000000E+00  0.00000000000E+00  0.51599863917E+03  0.51599863917E+03  0.00000000000E+00 0. -1.
         -1   -1    0    0    0  501 -0.00000000000E+00 -0.00000000000E+00 -0.56883248691E+02  0.56883248691E+02  0.00000000000E+00 0.  1.
         25    2    1    2    0    0 -0.12653896338E+03  0.36402785175E+02  0.23147260145E+03  0.29421832579E+03  0.12509031132E+03 0.  0.
          5    1    3    3  502    0 -0.61302107063E+02  0.12038151911E+02  0.21305470024E+03  0.22206450218E+03  0.41800000000E+01 0. -1.
         -5    1    3    3    0  502 -0.65236856318E+02  0.24364633264E+02  0.18417901201E+02  0.72153823606E+02  0.41800000000E+01 0. -1.
        -11    1    1    2    0    0  0.22939958179E+02 -0.24364275722E+02  0.13525188119E+03  0.13933029454E+03  0.00000000000E+00 0. -1.
         11    1    1    2    0    0  0.10359900520E+03 -0.12038509453E+02  0.92390907844E+02  0.13933326753E+03  0.00000000000E+00 0.  1.
</event>
<event>
 7    1  0.2878477E-009  0.1334205E+03  0.7561462E-02  0.1222467E+00
         -2   -1    0    0    0  501 -0.00000000000E+00  0.00000000000E+00  0.76855045765E+02  0.76855045765E+02  0.00000000000E+00 0.  1.
          2   -1    0    0  501    0  0.00000000000E+00 -0.00000000000E+00 -0.25651910466E+03  0.25651910466E+03  0.00000000000E+00 0. -1.
         25    2    1    2    0    0  0.79894037069E+02 -0.13772936244E+02 -0.14273802876E+03  0.20638298710E+03  0.12508813524E+03 0.  0.
          5    1    3    3  502    0  0.81340537498E+02 -0.59242755438E+02 -0.11529524372E+03  0.15308968853E+03  0.41800000000E+01 0.  1.
         -5    1    3    3    0  502 -0.14465004284E+01  0.45469819194E+02 -0.27442785045E+02  0.53293298566E+02  0.41800000000E+01 0.  1.
        -11    1    1    2    0    0 -0.87125784452E+02 -0.17053036365E+02 -0.34460129361E+02  0.95232394074E+02  0.00000000000E+00 0.  1.
         11    1    1    2    0    0  0.72317473825E+01  0.30825972609E+02 -0.24659007712E+01  0.31758769247E+02  0.00000000000E+00 0. -1.
</event>
<event>
 7    1  0.2878477E-009  0.9763467E+02  0.7561462E-02  0.1285350E+00
         -2   -1    0    0    0  501 -0.00000000000E+00  0.00000000000E+00  0.45440205317E+02  0.45440205317E+02  0.00000000000E+00 0.  1.
          2   -1    0    0  501    0  0.00000000000E+00 -0.00000000000E+00 -0.35246909799E+03  0.35246909799E+03  0.00000000000E+00 0. -1.
         25    2    1    2    0    0 -0.52382816463E+02  0.30804382227E+02 -0.13906779003E+03  0.19667379749E+03  0.12509141845E+03 0.  0.
          5    1    3    3  502    0  0.24899235135E+02 -0.22280249454E+02 -0.65743537946E+01  0.34308540539E+02  0.41800000000E+01 0. -1.
         -5    1    3    3    0  502 -0.77282051598E+02  0.53084631682E+02 -0.13249343623E+03  0.16236525695E+03  0.41800000000E+01 0. -1.
        -11    1    1    2    0    0  0.33344631808E+02 -0.34903543483E+02 -0.17421708823E+03  0.18078084979E+03  0.00000000000E+00 0. -1.
         11    1    1    2    0    0  0.19038184654E+02  0.40991612555E+01  0.62559855803E+01  0.20454656035E+02  0.00000000000E+00 0.  1.
</event>
<event>
 7    1  0.5600124E-009  0.1204161E+03  0.7561462E-02  0.1242412E+00
         -2   -1    0    0    0  501 -0.00000000000E+00  0.00000000000E+00  0.46918066549E+02  0.46918066549E+02  0.00000000000E+00 0.  1.
          2   -1    0    0  501    0  0.00000000000E+00 -0.00000000000E+00 -0.33576994584E+03  0.33576994584E+03  0.00000000000E+00 0. -1.
         25    2    1    2    0    0  0.29749655769E+02  0.43921459571E+02 -0.21282956756E+03  0.25250236195E+03  0.12508749471E+03 0.  0.
          5    1    3    3  502    0  0.22826123290E+02  0.87679545931E+02 -0.15422742670E+03  0.17891983184E+03  0.41800000000E+01 0.  1.
         -5    1    3    3    0  502  0.69235324794E+01 -0.43758086360E+02 -0.58602140863E+02  0.73582530112E+02  0.41800000000E+01 0.  1.
        -11    1    1    2    0    0 -0.29701585012E+02  0.23709022823E+02 -0.25465544269E+02  0.45747085813E+02  0.00000000000E+00 0.  1.
         11    1    1    2    0    0 -0.48070757368E-01 -0.67630482394E+02 -0.50556767457E+02  0.84438564622E+02  0.00000000000E+00 0. -1.
</event>
<event>
 7    1  0.2878477E-009  0.1188354E+03  0.7561462E-02  0.1245031E+00
          2   -1    0    0  501    0  0.00000000000E+00  0.00000000000E+00  0.81685247195E+02  0.81685247195E+02  0.00000000000E+00 0. -1.
         -2   -1    0    0    0  501 -0.00000000000E+00 -0.00000000000E+00 -0.20607151510E+03  0.20607151510E+03  0.00000000000E+00 0.  1.
         25    2    1    2    0    0 -0.58430744909E+02  0.16817541901E+02 -0.11248533340E+03  0.17887879041E+03  0.12509072613E+03 0.  0.
          5    1    3    3  502    0  0.26661094615E+02  0.40766148681E+02 -0.27060967705E+02  0.55878987263E+02  0.41800000000E+01 0.  1.
         -5    1    3    3    0  502 -0.85091839523E+02 -0.23948606781E+02 -0.85424365699E+02  0.12299980315E+03  0.41800000000E+01 0.  1.
        -11    1    1    2    0    0  0.13438038738E+02 -0.45154934389E+02 -0.26077426188E+02  0.53847758926E+02  0.00000000000E+00 0.  1.
         11    1    1    2    0    0  0.44992706170E+02  0.28337392488E+02  0.14176491685E+02  0.55030212957E+02  0.00000000000E+00 0. -1.
</event>
<event>
 7    1  0.2878477E-009  0.1053767E+03  0.7561462E-02  0.1269379E+00
          3   -1    0    0  501    0  0.00000000000E+00  0.00000000000E+00  0.64539701060E+02  0.64539701060E+02  0.00000000000E+00 0. -1.
         -3   -1    0    0    0  501 -0.00000000000E+00 -0.00000000000E+00 -0.29491753851E+03  0.29491753851E+03  0.00000000000E+00 0.  1.
         25    2    1    2    0    0  0.29700165674E+02  0.65012863573E+02 -0.14682426582E+03  0.20570122208E+03  0.12508739130E+03 0.  0.
          5    1    3    3  502    0  0.19193186578E+00  0.94570295947E+02 -0.12922190913E+03  0.16018536735E+03  0.41800000000E+01 0.  1.
         -5    1    3    3    0  502  0.29508233808E+02 -0.29557432374E+02 -0.17602356691E+02  0.45515854733E+02  0.41800000000E+01 0.  1.
        -11    1    1    2    0    0 -0.28639755945E+01 -0.29322785962E+02 -0.10145592829E+03  0.10564721255E+03  0.00000000000E+00 0.  1.
         11    1    1    2    0    0 -0.26836190079E+02 -0.35690077611E+02  0.17902356673E+02  0.48108804935E+02  0.00000000000E+00 0. -1.
</event>
<event>
 7    1  0.2878477E-009  0.1362927E+03  0.7561462E-02  0.1218406E+00
          1   -1    0    0  501    0  0.00000000000E+00  0.00000000000E+00  0.29285262965E+03  0.29285262965E+03  0.00000000000E+00 0. -1.
         -1   -1    0    0    0  501 -0.00000000000E+00 -0.00000000000E+00 -0.83881996447E+02  0.83881996447E+02  0.00000000000E+00 0.  1.
         25    2    1    2    0    0  0.89255413790E+02 -0.12409630619E+01  0.19636621956E+03  0.24934789779E+03  0.12508642239E+03 0.  0.
          5    1    3    3  502    0  0.11779071285E+03  0.11119744753E+02  0.12934306058E+03  0.17534366392E+03  0.41800000000E+01 0.  1.
         -5    1    3    3    0  502 -0.28535299062E+02 -0.12360707815E+02  0.67023158988E+02  0.74004233872E+02  0.41800000000E+01 0.  1.
        -11    1    1    2    0    0 -0.24238877596E+02  0.40260078397E+02  0.20260025181E+02  0.51174854372E+02  0.00000000000E+00 0. -1.
         11    1    1    2    0    0 -0.65016536194E+02 -0.39019115335E+02 -0.76556115437E+01  0.76211873932E+02  0.00000000000E+00 0.  1.
</event>
<event>
 7    1  0.2878477E-009  0.8658828E+02  0.7561462E-02  0.1311331E+00
          2   -1    0    0  501    0  0.00000000000E+00  0.00000000000E+00  0.23163835481E+03  0.23163835481E+03  0.00000000000E+00 0. -1.
         -2   -1    0    0    0  501 -0.00000000000E+00 -0.00000000000E+00 -0.67425961465E+02  0.67425961465E+02  0.00000000000E+00 0.  1.
         25    2    1    2    0    0  0.23959416087E+02 -0.43861588731E+01  0.22819990580E+02  0.12946380368E+03  0.12508729945E+03 0.  0.
          5    1    3    3  502    0  0.54384607790E+02 -0.23904426206E+02  0.54867122238E+02  0.80975185455E+02  0.41800000000E+01 0.  1.
         -5    1    3    3    0  502 -0.30425191703E+02  0.19518267333E+02 -0.32047131658E+02  0.48488618225E+02  0.41800000000E+01 0.  1.
        -11    1    1    2    0    0  0.20690712762E+02  0.21106633429E+02  0.12352308259E+02  0.32033967732E+02  0.00000000000E+00 0.  1.
         11    1    1    2    0    0 -0.44650128849E+02 -0.16720474556E+02  0.12904009451E+03  0.13756654486E+03  0.00000000000E+00 0. -1.
</event>
<event>
 7    1  0.2878477E-009  0.1029304E+03  0.7561462E-02  0.1274252E+00
         -2   -1    0    0    0  501 -0.00000000000E+00  0.00000000000E+00  0.19643641852E+02  0.19643641852E+02  0.00000000000E+00 0.  1.
          2   -1    0    0  501    0  0.00000000000E+00 -0.00000000000E+00 -0.16903941012E+04  0.16903941012E+04  0.00000000000E+00 0. -1.
         25    2    1    2    0    0  0.62463072251E+02  0.79673142431E+02 -0.12789923910E+04  0.12890767352E+04  0.12509135807E+03 0.  0.
          5    1    3    3  502    0  0.35095422690E+02  0.46441281814E+02 -0.17981445298E+03  0.18904811888E+03  0.41800000000E+01 0. -1.
         -5    1    3    3    0  502  0.27367649561E+02  0.33231860616E+02 -0.10991779381E+04  0.11000286163E+04  0.41800000000E+01 0. -1.
        -11    1    1    2    0    0 -0.34304284195E+02 -0.24025711419E+02 -0.24657645852E+02  0.48600598991E+02  0.00000000000E+00 0.  1.
         11    1    1    2    0    0 -0.28158788056E+02 -0.55647431012E+02 -0.36710042247E+03  0.37236040888E+03  0.00000000000E+00 0. -1.
</event>
<event>
 7    1  0.2878477E-009  0.1074644E+03  0.7561462E-02  0.1265339E+00
         -2   -1    0    0    0  501 -0.00000000000E+00  0.00000000000E+00  0.15319250628E+03  0.15319250628E+03  0.00000000000E+00 0.  1.
          2   -1    0    0  501    0  0.00000000000E+00 -0.00000000000E+00 -0.17961864636E+03  0.17961864636E+03  0.00000000000E+00 0. -1.
         25    2    1    2    0    0 -0.83676505622E+01 -0.69773583495E+02  0.90331018709E+02  0.16954543395E+03  0.12509033017E+03 0.  0.
          5    1    3    3  502    0 -0.24162505706E+02  0.21017600556E+02  0.67020647502E+02  0.74396275489E+02  0.41800000000E+01 0. -1.
         -5    1    3    3    0  502  0.15794855143E+02 -0.90791184051E+02  0.23310371207E+02  0.95149158463E+02  0.41800000000E+01 0. -1.
        -11    1    1    2    0    0  0.31728408613E+02  0.52449709829E+02 -0.23619429404E+02  0.65692780575E+02  0.00000000000E+00 0.  1.
         11    1    1    2    0    0 -0.23360758051E+02  0.17323873666E+02 -0.93137729393E+02  0.97572938113E+02  0.00000000000E+00 0. -1.
</event>
<event>
 7    1  0.2878477E-009  0.1390398E+03  0.7561462E-02  0.1214627E+00
         -2   -1    0    0    0  501 -0.00000000000E+00  0.00000000000E+00  0.24110815059E+03  0.24110815059E+03  0.00000000000E+00 0.  1.
          2   -1    0    0  501    0  0.00000000000E+00 -0.00000000000E+00 -0.97840284090E+02  0.97840284090E+02  0.00000000000E+00 0. -1.
         25    2    1    2    0    0  0.23106165799E+02  0.10573185850E+03  0.70784173340E+02  0.17991745233E+03  0.12508704832E+03 0.  0.
          5    1    3    3  502    0  0.62408826649E+02  0.90143412076E+02  0.80806661151E+02  0.13626402779E+03  0.41800000000E+01 0. -1.
         -5    1    3    3    0  502 -0.39302660850E+02  0.15588446421E+02 -0.10022487811E+02  0.43653424535E+02  0.41800000000E+01 0. -1.
        -11    1    1    2    0    0 -0.43621868515E+02 -0.49299957189E+02  0.12150944957E+01  0.65839423192E+02  0.00000000000E+00 0. -1.
         11    1    1    2    0    0  0.20515702715E+02 -0.56431901307E+02  0.71268598669E+02  0.93191559163E+02  0.00000000000E+00 0.  1.
</event>
<event>
 7    1  0.2878477E-009  0.2433877E+03  0.7561462E-02  0.1117556E+00
          3   -1    0    0  501    0  0.00000000000E+00  0.00000000000E+00  0.24511191728E+04  0.24511191728E+04  0.00000000000E+00 0. -1.
         -3   -1    0    0    0  501 -0.00000000000E+00 -0.00000000000E+00 -0.65814651473E+02  0.65814651473E+02  0.00000000000E+00 0.  1.
         25    2    1    2    0    0  0.77563432679E+02 -0.21219856680E+03  0.21887445008E+04  0.22039273852E+04  0.12509640947E+03 0.  0.
          5    1    3    3  502    0 -0.25549437536E+02 -0.10992594946E+03  0.94162100444E+03  0.94836916679E+03  0.41800000000E+01 0. -1.
         -5    1    3    3    0  502  0.10311287022E+03 -0.10227261734E+03  0.12471234963E+04  0.12555582184E+04  0.41800000000E+01 0. -1.
        -11    1    1    2    0    0 -0.33088638123E+02  0.47059234006E+02  0.74097990006E+01  0.58002884405E+02  0.00000000000E+00 0.  1.
         11    1    1    2    0    0 -0.44474794556E+02  0.16513933280E+03  0.18915022156E+03  0.25500355469E+03  0.00000000000E+00 0. -1.
</event>
<event>
 7    1  0.2878477E-009  0.7527180E+02  0.7561462E-02  0.1343031E+00
         -1   -1    0    0    0  501 -0.00000000000E+00  0.00000000000E+00  0.58177204625E+03  0.58177204625E+03  0.00000000000E+00 0. -1.
          1   -1    0    0  501    0  0.00000000000E+00 -0.00000000000E+00 -0.28467166121E+02  0.28467166121E+02  0.00000000000E+00 0.  1.
         25    2    1    2    0    0 -0.49056839071E+02 -0.31614946224E+02  0.22649685841E+03  0.26524308014E+03  0.12508791470E+03 0.  0.
          5    1    3    3  502    0 -0.40583349355E+02 -0.14464296627E+02  0.23842002345E+03  0.24231756871E+03  0.41800000000E+01 0.  1.
         -5    1    3    3    0  502 -0.84734897164E+01 -0.17150649597E+02 -0.11923165041E+02  0.22925511427E+02  0.41800000000E+01 0.  1.
        -11    1    1    2    0    0  0.54232753923E+02 -0.14072055179E+01  0.29099196058E+03  0.29600590020E+03  0.00000000000E+00 0. -1.
         11    1    1    2    0    0 -0.51759148520E+01  0.33022151742E+02  0.35816061129E+02  0.48990232037E+02  0.00000000000E+00 0.  1.
</event>
<event>
 7    1  0.2878477E-009  0.9584326E+02  0.7561462E-02  0.1289288E+00
         -1   -1    0    0    0  501 -0.00000000000E+00  0.00000000000E+00  0.12752956156E+02  0.12752956156E+02  0.00000000000E+00 0.  1.
          1   -1    0    0  501    0  0.00000000000E+00 -0.00000000000E+00 -0.12411444075E+04  0.12411444075E+04  0.00000000000E+00 0. -1.
         25    2    1    2    0    0  0.20894802616E+02 -0.56636131732E+02 -0.59892407644E+03  0.61481853621E+03  0.12509012326E+03 0.  0.
          5    1    3    3  502    0 -0.18341169668E+02 -0.13264263263E+02 -0.49468239374E+03  0.49521761102E+03  0.41800000000E+01 0.  1.
         -5    1    3    3    0  502  0.39235972284E+02 -0.43371868469E+02 -0.10424168270E+03  0.11960092519E+03  0.41800000000E+01 0.  1.
        -11    1    1    2    0    0  0.75064059758E+01  0.75543037274E+02 -0.45815919636E+03  0.46440601398E+03  0.00000000000E+00 0.  1.
         11    1    1    2    0    0 -0.28401208592E+02 -0.18906905542E+02 -0.17130817850E+03  0.17467281342E+03  0.00000000000E+00 0. -1.
</event>
<event>
 7    1  0.2878477E-009  0.1486309E+03  0.7561462E-02  0.1202165E+00
          2   -1    0    0  501    0  0.00000000000E+00  0.00000000000E+00  0.45425533208E+03  0.45425533208E+03  0.00000000000E+00 0.  1.
         -2   -1    0    0    0  501 -0.00000000000E+00 -0.00000000000E+00 -0.55682208779E+02  0.55682208779E+02  0.00000000000E+00 0. -1.
         25    2    1    2    0    0  0.81835037165E+02 -0.76550252633E+02  0.25512281042E+03  0.30543969074E+03  0.12509533083E+03 0.  0.
          5    1    3    3  502    0 -0.22860477689E+02 -0.31296734785E+02  0.19406004752E+02  0.43544832860E+02  0.41800000000E+01 0. -1.
         -5    1    3    3    0  502  0.10469551485E+03 -0.45253517849E+02  0.23571680567E+03  0.26189485788E+03  0.41800000000E+01 0. -1.
        -11    1    1    2    0    0 -0.56348504589E+02 -0.70128672948E+01  0.71602742464E+02  0.91385376322E+02  0.00000000000E+00 0.  1.
         11    1    1    2    0    0 -0.25486532576E+02  0.83563119928E+02  0.71847570420E+02  0.11311247380E+03  0.00000000000E+00 0. -1.
</event>
<event>
 7    1  0.2878477E-009  0.9205444E+02  0.7561462E-02  0.1297951E+00
          1   -1    0    0  501    0  0.00000000000E+00  0.00000000000E+00  0.15067938354E+03  0.15067938354E+03  0.00000000000E+00 0. -1.
         -1   -1    0    0    0  501 -0.00000000000E+00 -0.00000000000E+00 -0.84192329487E+02  0.84192329487E+02  0.00000000000E+00 0.  1.
         25    2    1    2    0    0 -0.28654376495E+02  0.12818219941E+01  0.51223945678E+02  0.13818337328E+03  0.12509210879E+03 0.  0.
          5    1    3    3  502    0 -0.56293313944E+02 -0.43158409526E+02  0.47663650761E+02  0.85562149993E+02  0.41800000000E+01 0. -1.
         -5    1    3    3    0  502  0.27638937449E+02  0.44440231520E+02  0.35602949165E+01  0.52621223292E+02  0.41800000000E+01 0. -1.
        -11    1    1    2    0    0  0.38221467366E+02  0.15491505504E+02 -0.27635118891E+02  0.49644406598E+02  0.00000000000E+00 0.  1.
         11    1    1    2    0    0 -0.95670908708E+01 -0.16773327498E+02  0.42898227266E+02  0.47043933144E+02  0.00000000000E+00 0. -1.
</event>
<event>
 7    1  0.2878477E-009  0.1408855E+03  0.7561462E-02  0.1212142E+00
          1   -1    0    0  501    0  0.00000000000E+00  0.00000000000E+00  0.26556699267E+03  0.26556699267E+03  0.00000000000E+00 0. -1.
         -1   -1    0    0    0  501 -0.00000000000E+00 -0.00000000000E+00 -0.10431568331E+03  0.10431568331E+03  0.00000000000E+00 0.  1.
         25    2    1    2    0    0  0.37438253819E+01  0.12378781302E+03  0.61496147357E+02  0.18645941096E+03  0.12509155413E+03 0.  0.
          5    1    3    3  502    0  0.13724786695E+02  0.10660065674E+03  0.97465720816E+02  0.14515202004E+03  0.41800000000E+01 0. -1.
         -5    1    3    3    0  502 -0.99809613127E+01  0.17187156278E+02 -0.35969573459E+02  0.41307390918E+02  0.41800000000E+01 0. -1.
        -11    1    1    2    0    0 -0.45835800928E+02 -0.85439804035E+02  0.61216664336E+02  0.11466630173E+03  0.00000000000E+00 0.  1.
         11    1    1    2    0    0  0.42091975546E+02 -0.38348008985E+02  0.38538497667E+02  0.68756963290E+02  0.00000000000E+00 0. -1.
</event>
<event>
 7    1  0.2878477E-009  0.2404113E+03  0.7561462E-02  0.1119519E+00
         -1   -1    0    0    0  501 -0.00000000000E+00  0.00000000000E+00  0.12231271651E+03  0.12231271651E+03  0.00000000000E+00 0.  1.
          1   -1    0    0  501    0  0.00000000000E+00 -0.00000000000E+00 -0.53421968846E+03  0.53421968846E+03  0.00000000000E+00 0. -1.
         25    2    1    2    0    0  0.20921713881E+03 -0.97803695641E+02 -0.21275199650E+03  0.33800563354E+03  0.12508805793E+03 0.  0.
          5    1    3    3  502    0  0.84375651913E+01 -0.27942786548E+02 -0.84957886872E+02  0.89929454397E+02  0.41800000000E+01 0.  1.
         -5    1    3    3    0  502  0.20077957362E+03 -0.69860909092E+02 -0.12779410963E+03  0.24807617914E+03  0.41800000000E+01 0.  1.
        -11    1    1    2    0    0 -0.10426560996E+03  0.81842526403E+02 -0.65524480322E+02  0.14786133392E+03  0.00000000000E+00 0.  1.
         11    1    1    2    0    0 -0.10495152885E+03  0.15961169238E+02 -0.13363049513E+03  0.17066543752E+03  0.00000000000E+00 0. -1.
</event>
<event>
 7    1  0.2977251E-009  0.4348621E+03  0.7561462E-02  0.1032335E+00
          2   -1    0    0  501    0  0.00000000000E+00  0.00000000000E+00  0.84854224387E+03  0.84854224387E+03  0.00000000000E+00 0. -1.
         -2   -1    0    0    0  501 -0.00000000000E+00 -0.00000000000E+00 -0.22608722786E+03  0.22608722786E+03  0.00000000000E+00 0.  1.
         25    2    1    2    0    0 -0.39782980103E+03  0.14703093562E+03  0.32263637209E+03  0.54738343801E+03  0.12509097888E+03 0.  0.
          5    1    3    3  502    0 -0.31578408459E+03  0.69605455523E+02  0.19785468984E+03  0.37911536267E+03  0.41800000000E+01 0. -1.
         -5    1    3    3    0  502 -0.82045716435E+02  0.77425480095E+02  0.12478168225E+03  0.16826807534E+03  0.41800000000E+01 0. -1.
        -11    1    1    2    0    0  0.20816902142E+03 -0.12422620872E+03  0.15865533448E+03  0.28972056808E+03  0.00000000000E+00 0.  1.
         11    1    1    2    0    0  0.18966077961E+03 -0.22804726902E+02  0.14116330945E+03  0.23752546564E+03  0.00000000000E+00 0. -1.
</event>
<event>
 7    1  0.2878477E-009  0.1101469E+03  0.7561462E-02  0.1260298E+00
         -2   -1    0    0    0  501 -0.00000000000E+00  0.00000000000E+00  0.97550143879E+01  0.97550143879E+01  0.00000000000E+00 0. -1.
          2   -1    0    0  501    0  0.00000000000E+00 -0.00000000000E+00 -0.16136414477E+04  0.16136414477E+04  0.00000000000E+00 0.  1.
         25    2    1    2    0    0  0.43936268201E+02 -0.36524079667E+02 -0.10686051380E+04  0.10774177976E+04  0.12509102921E+03 0.  0.
          5    1    3    3  502    0  0.23270403541E+02 -0.70152880173E+02 -0.93794296039E+03  0.94085992987E+03  0.41800000000E+01 0.  1.
         -5    1    3    3    0  502  0.20665864660E+02  0.33628800506E+02 -0.13066217760E+03  0.13655786773E+03  0.41800000000E+01 0. -1.
        -11    1    1    2    0    0  0.97077292600E+01  0.50266906103E+02 -0.29400129506E+03  0.29842547371E+03  0.00000000000E+00 0. -1.
         11    1    1    2    0    0 -0.53643997461E+02 -0.13742826436E+02 -0.24128000025E+03  0.24755319077E+03  0.00000000000E+00 0.  1.
</event>
<event>
 7    1  0.2878477E-009  0.1243029E+03  0.7561462E-02  0.1236163E+00
         -2   -1    0    0    0  501 -0.00000000000E+00  0.00000000000E+00  0.55413986423E+02  0.55413986423E+02  0.00000000000E+00 0. -1.
          2   -1    0    0  501    0  0.00000000000E+00 -0.00000000000E+00 -0.32634892482E+03  0.32634892482E+03  0.00000000000E+00 0.  1.
         25    2    1    2    0    0  0.50434993624E+02 -0.35944725255E+02 -0.92601559112E+02  0.16750572928E+03  0.12508960284E+03 0.  0.
          5    1    3    3  502    0  0.68495782461E+02  0.21222645849E+02 -0.22722714938E+02  0.75338350698E+02  0.41800000000E+01 0.  1.
         -5    1    3    3    0  502 -0.18060788837E+02 -0.57167371104E+02 -0.69878844174E+02  0.92167378587E+02  0.41800000000E+01 0.  1.
        -11    1    1    2    0    0 -0.14614398453E+02 -0.34599967064E+02 -0.77208478929E+02  0.85859697074E+02  0.00000000000E+00 0.  1.
         11    1    1    2    0    0 -0.35820595171E+02  0.70544692319E+02 -0.10112490036E+03  0.12839748489E+03  0.00000000000E+00 0. -1.
</event>
<event>
 7    1  0.2878477E-009  0.1383269E+03  0.7561462E-02  0.1215598E+00
         -1   -1    0    0    0  501 -0.00000000000E+00  0.00000000000E+00  0.21743449673E+02  0.21743449673E+02  0.00000000000E+00 0.  1.
          1   -1    0    0  501    0  0.00000000000E+00 -0.00000000000E+00 -0.11341936030E+04  0.11341936030E+04  0.00000000000E+00 0. -1.
         25    2    1    2    0    0 -0.62651285003E+02 -0.94164908046E+02 -0.54586256555E+03  0.57132034163E+03  0.12509507932E+03 0.  0.
          5    1    3    3  502    0 -0.17018481513E+02 -0.92849773689E+02 -0.18674878147E+03  0.20929235287E+03  0.41800000000E+01 0.  1.
         -5    1    3    3    0  502 -0.45632803490E+02 -0.13151343569E+01 -0.35911378408E+03  0.36202798876E+03  0.41800000000E+01 0.  1.
        -11    1    1    2    0    0 -0.17044712485E+02  0.27813841922E+02 -0.68795464122E+02  0.76137690468E+02  0.00000000000E+00 0.  1.
         11    1    1    2    0    0  0.79695997489E+02  0.66351066125E+02 -0.49779212367E+03  0.50847902059E+03  0.00000000000E+00 0. -1.
</event>
<event>
 7    1  0.2878477E-009  0.1803944E+03  0.7561462E-02  0.1167422E+00
          1   -1    0    0  501    0  0.00000000000E+00  0.00000000000E+00  0.12174709199E+04  0.12174709199E+04  0.00000000000E+00 0. -1.
         -1   -1    0    0    0  501 -0.00000000000E+00 -0.00000000000E+00 -0.45700817539E+02  0.45700817539E+02  0.00000000000E+00 0.  1.
         25    2    1    2    0    0 -0.84028311301E+02  0.15706526328E+03  0.89889271036E+03  0.92487182036E+03  0.12509806289E+03 0.  0.
          5    1    3    3  502    0 -0.63608368901E+02  0.81850744768E+02  0.74630507120E+03  0.75348145346E+03  0.41800000000E+01 0.  1.
         -5    1    3    3    0  502 -0.20419942400E+02  0.75214518510E+02  0.15258763916E+03  0.17139036690E+03  0.41800000000E+01 0.  1.
        -11    1    1    2    0    0  0.11789453308E+02 -0.37412426775E+02  0.98510873304E+01  0.40444094848E+02  0.00000000000E+00 0.  1.
         11    1    1    2    0    0  0.72238857993E+02 -0.11965283650E+03  0.26302630471E+03  0.29785582226E+03  0.00000000000E+00 0. -1.
</event>
<event>
 7    1  0.2878477E-009  0.8395382E+02  0.7561462E-02  0.1318191E+00
          1   -1    0    0  501    0  0.00000000000E+00  0.00000000000E+00  0.33662163490E+03  0.33662163490E+03  0.00000000000E+00 0. -1.
         -1   -1    0    0    0  501 -0.00000000000E+00 -0.00000000000E+00 -0.34132367145E+02  0.34132367145E+02  0.00000000000E+00 0.  1.
         25    2    1    2    0    0 -0.17346514669E+02  0.53709073624E+01  0.17839746134E+03  0.21862862120E+03  0.12507226543E+03 0.  0.
          5    1    3    3  502    0  0.17826873634E+02  0.47311227161E+02  0.14673149282E+03  0.15525383417E+03  0.41800000000E+01 0.  1.
         -5    1    3    3    0  502 -0.35173388302E+02 -0.41940319799E+02  0.31665968522E+02  0.63374787037E+02  0.41800000000E+01 0.  1.
        -11    1    1    2    0    0 -0.17184811206E+02  0.14460518562E+02  0.10606042998E+03  0.10841235696E+03  0.00000000000E+00 0. -1.
         11    1    1    2    0    0  0.34531325875E+02 -0.19831425924E+02  0.18031376432E+02  0.43713023882E+02  0.00000000000E+00 0.  1.
</event>
<event>
 7    1  0.2878477E-009  0.1195021E+03  0.7561462E-02  0.1243921E+00
          2   -1    0    0  501    0  0.00000000000E+00  0.00000000000E+00  0.16048057040E+04  0.16048057040E+04  0.00000000000E+00 0. -1.
         -2   -1    0    0    0  501 -0.00000000000E+00 -0.00000000000E+00 -0.10426520518E+02  0.10426520518E+02  0.00000000000E+00 0.  1.
         25    2    1    2    0    0  0.41295688572E+02  0.30587679572E+02  0.11759300262E+04  0.11836807435E+04  0.12509091031E+03 0.  0.
          5    1    3    3  502    0  0.13975798198E+02 -0.48631315576E+02  0.39227338316E+03  0.39554545545E+03  0.41800000000E+01 0.  1.
         -5    1    3    3    0  502  0.27319890374E+02  0.79218995147E+02  0.78365664309E+03  0.78813528804E+03  0.41800000000E+01 0.  1.
        -11    1    1    2    0    0 -0.29671584038E+01 -0.57449603993E+02  0.19794055495E+03  0.20613035759E+03  0.00000000000E+00 0.  1.
         11    1    1    2    0    0 -0.38328530168E+02  0.26861924422E+02  0.22050860230E+03  0.22542112345E+03  0.00000000000E+00 0. -1.
</event>
<event>
 7    1  0.2878477E-009  0.1345800E+03  0.7561462E-02  0.1220814E+00
          1   -1    0    0  501    0  0.00000000000E+00  0.00000000000E+00  0.53018654830E+03  0.53018654830E+03  0.00000000000E+00 0. -1.
         -1   -1    0    0    0  501 -0.00000000000E+00 -0.00000000000E+00 -0.44768258645E+02  0.44768258645E+02  0.00000000000E+00 0.  1.
         25    2    1    2    0    0 -0.44898521372E+02 -0.84599577683E+02  0.16673629565E+03  0.22939354627E+03  0.12508973187E+03 0.  0.
          5    1    3    3  502    0  0.22346236580E+02 -0.64945667659E+02  0.28729767182E+02  0.74566520365E+02  0.41800000000E+01 0.  1.
         -5    1    3    3    0  502 -0.67244757952E+02 -0.19653910024E+02  0.13800652847E+03  0.15482702591E+03  0.41800000000E+01 0.  1.
        -11    1    1    2    0    0 -0.27008890762E+02  0.23951996978E+02  0.56840453430E+02  0.67335098467E+02  0.00000000000E+00 0. -1.
         11    1    1    2    0    0  0.71907412134E+02  0.60647580706E+02  0.26184154058E+03  0.27822616221E+03  0.00000000000E+00 0.  1.
</event>
<event>
 6    1  0.2878477E-009  0.1060456E+03  0.7561462E-02  0.1268073E+00
         -2   -1    0    0    0  501 -0.00000000000E+00  0.00000000000E+00  0.71573313049E+02  0.71573313049E+02  0.00000000000E+00 0.  1.
          2   -1    0    0  501    0  0.00000000000E+00 -0.00000000000E+00 -0.19547874286E+03  0.19547874286E+03  0.00000000000E+00 0. -1.
          5    1    1    2  502    0  0.93795665175E+01  0.50860636115E+02  0.13941942457E+02  0.53727374155E+02  0.41800000000E+01 0.  1.
         -5    1    1    2    0  502  0.29501437210E+02 -0.55863280997E+02 -0.53862150567E+02  0.83124272177E+02  0.41800000000E+01 0.  1.
        -11    1    1    2    0    0  0.94554735156E+01  0.37482016132E+02 -0.48442663736E+02  0.61975795134E+02  0.00000000000E+00 0. -1.
         11    1    1    2    0    0 -0.48336477243E+02 -0.32479371250E+02 -0.35542557962E+02  0.68224614441E+02  0.00000000000E+00 0.  1.
</event>
<event>
 7    1  0.2878477E-009  0.1831641E+03  0.7561462E-02  0.1164775E+00
          2   -1    0    0  501    0  0.00000000000E+00  0.00000000000E+00  0.67293152867E+02  0.67293152867E+02  0.00000000000E+00 0.  1.
         -2   -1    0    0    0  501 -0.00000000000E+00 -0.00000000000E+00 -0.60318084784E+03  0.60318084784E+03  0.00000000000E+00 0. -1.
         25    2    1    2    0    0 -0.12247472353E+03  0.11289988845E+03 -0.22461637893E+03  0.30634373930E+03  0.12509007237E+03 0.  0.
          5    1    3    3  502    0 -0.13329568351E+03  0.11076441526E+03 -0.14542703517E+03  0.22628077666E+03  0.41800000000E+01 0. -1.
         -5    1    3    3    0  502  0.10820959972E+02  0.21354731894E+01 -0.79189343759E+02  0.80062962632E+02  0.41800000000E+01 0. -1.
        -11    1    1    2    0    0  0.75896264864E+02 -0.11111263402E+03 -0.17934745032E+03  0.22421366683E+03  0.00000000000E+00 0. -1.
         11    1    1    2    0    0  0.46578458669E+02 -0.17872544307E+01 -0.13192386572E+03  0.13991659457E+03  0.00000000000E+00 0.  1.
</event>
<event>
 7    1  0.2878477E-009  0.1076839E+03  0.7561462E-02  0.1264920E+00
         -1   -1    0    0    0  501 -0.00000000000E+00  0.00000000000E+00  0.10672137542E+03  0.10672137542E+03  0.00000000000E+00 0.  1.
          1   -1    0    0  501    0  0.00000000000E+00 -0.00000000000E+00 -0.11902793952E+03  0.11902793952E+03  0.00000000000E+00 0. -1.
         25    2    1    2    0    0 -0.32732773993E+02  0.10069163157E+02 -0.22682724382E+02  0.13166172156E+03  0.12508988928E+03 0.  0.
          5    1    3    3  502    0 -0.47844696718E+02  0.55870029379E+02  0.83680822548E+01  0.74148987771E+02  0.41800000000E+01 0.  1.
         -5    1    3    3    0  502  0.15111922726E+02 -0.45800866223E+02 -0.31050806637E+02  0.57512733790E+02  0.41800000000E+01 0.  1.
        -11    1    1    2    0    0  0.10562534433E+02 -0.48108058330E+02  0.21736297932E+01  0.49301897290E+02  0.00000000000E+00 0.  1.
         11    1    1    2    0    0  0.22170239560E+02  0.38038895173E+02  0.82025304898E+01  0.44785696093E+02  0.00000000000E+00 0. -1.
</event>
<event>
 6    1  0.2878477E-009  0.9912678E+02  0.7561462E-02  0.1282143E+00
          2   -1    0    0  501    0  0.00000000000E+00  0.00000000000E+00  0.48421780662E+03  0.48421780662E+03  0.00000000000E+00 0. -1.
         -2   -1    0    0    0  501 -0.00000000000E+00 -0.00000000000E+00 -0.42131181186E+02  0.42131181186E+02  0.00000000000E+00 0.  1.
          5    1    1    2  502    0 -0.14780996723E+02 -0.14172072522E+02 -0.13458429920E+02  0.24858142320E+02  0.41800000000E+01 0. -1.
         -5    1    1    2    0  502  0.32272657028E+02  0.83769581897E+02  0.14327428739E+03  0.16912676036E+03  0.41800000000E+01 0. -1.
        -11    1    1    2    0    0 -0.28602663735E+02 -0.70751718621E+02  0.31199195277E+03  0.32118981406E+03  0.00000000000E+00 0. -1.
         11    1    1    2    0    0  0.11111003430E+02  0.11542092455E+01  0.27881520379E+00  0.11174271078E+02  0.00000000000E+00 0.  1.
</event>
<event>
 7    1  0.2878477E-009  0.1432231E+03  0.7561462E-02  0.1209057E+00
         -2   -1    0    0    0  501 -0.00000000000E+00  0.00000000000E+00  0.21090783411E+03  0.21090783411E+03  0.00000000000E+00 0.  1.
          2   -1    0    0  501    0  0.00000000000E+00 -0.00000000000E+00 -0.11874789762E+03  0.11874789762E+03  0.00000000000E+00 0. -1.
         25    2    1    2    0    0  0.10503531053E+03 -0.42963116455E+02  0.28881933394E+02  0.17133423707E+03  0.12507201479E+03 0.  0.
          5    1    3    3  502    0 -0.73651690274E+01 -0.53123035200E+02  0.22218605334E+02  0.58201730271E+02  0.41800000000E+01 0. -1.
         -5    1    3    3    0  502  0.11240047956E+03  0.10159918745E+02  0.66633280600E+01  0.11313250680E+03  0.41800000000E+01 0. -1.
        -11    1    1    2    0    0 -0.32377185773E+02  0.33253797369E+02 -0.17168805365E+02  0.49486008888E+02  0.00000000000E+00 0. -1.
         11    1    1    2    0    0 -0.72658124761E+02  0.97093190859E+01  0.80446808464E+02  0.10883548577E+03  0.00000000000E+00 0.  1.
</event>
<event>
 7    1  0.2878477E-009  0.1930707E+03  0.7561462E-02  0.1155721E+00
          4   -1    0    0  501    0  0.00000000000E+00  0.00000000000E+00  0.71719472524E+02  0.71719472524E+02  0.00000000000E+00 0. -1.
         -4   -1    0    0    0  501 -0.00000000000E+00 -0.00000000000E+00 -0.62224364026E+03  0.62224364026E+03  0.00000000000E+00 0.  1.
         25    2    1    2    0    0 -0.10373472934E+03 -0.14125293156E+03 -0.35676090719E+03  0.41669999814E+03  0.12508900353E+03 0.  0.
          5    1    3    3  502    0 -0.95059450393E+02 -0.30794731235E+02 -0.12758244353E+03  0.16210912028E+03  0.41800000000E+01 0.  1.
         -5    1    3    3    0  502 -0.86752789489E+01 -0.11045820032E+03 -0.22917846366E+03  0.25459087786E+03  0.41800000000E+01 0.  1.
        -11    1    1    2    0    0  0.77410324573E+02  0.10483927295E+03 -0.19230955046E+03  0.23230711290E+03  0.00000000000E+00 0.  1.
         11    1    1    2    0    0  0.26324404769E+02  0.36413658606E+02 -0.14537100766E+01  0.44956001741E+02  0.00000000000E+00 0. -1.
</event>
<event>
 7    1  0.2878477E-009  0.2023923E+03  0.7561462E-02  0.1147736E+00
         -2   -1    0    0    0  501 -0.00000000000E+00  0.00000000000E+00  0.15919916206E+03  0.15919916206E+03  0.00000000000E+00 0.  1.
          2   -1    0    0  501    0  0.00000000000E+00 -0.00000000000E+00 -0.39065335500E+03  0.39065335500E+03  0.00000000000E+00 0. -1.
         25    2    1    2    0    0 -0.19151836700E+02  0.19788207216E+03 -0.41915206418E+01  0.23492542787E+03  0.12509308728E+03 0.  0.
          5    1    3    3  502    0 -0.21449730904E+02  0.18515436556E+03  0.38282720237E+02  0.19032937007E+03  0.41800000000E+01 0. -1.
         -5    1    3    3    0  502  0.22978942039E+01  0.12727706594E+02 -0.42474240879E+02  0.44596057798E+02  0.41800000000E+01 0. -1.
        -11    1    1    2    0    0 -0.11616488819E+02 -0.12636818790E+03 -0.19033697639E+03  0.22876194244E+03  0.00000000000E+00 0.  1.
         11    1    1    2    0    0  0.30768325519E+02 -0.71513884254E+02 -0.36925695906E+02  0.86165146750E+02  0.00000000000E+00 0. -1.
</event>
<event>
 7    1  0.2878477E-009  0.1125798E+03  0.7561462E-02  0.1255866E+00
         -1   -1    0    0    0  501 -0.00000000000E+00  0.00000000000E+00  0.29272581101E+03  0.29272581101E+03  0.00000000000E+00 0.  1.
          1   -1    0    0  501    0  0.00000000000E+00 -0.00000000000E+00 -0.70311609294E+02  0.70311609294E+02  0.00000000000E+00 0. -1.
         25    2    1    2    0    0  0.20853603808E+02 -0.70837018996E+02  0.47279058173E+02  0.15276088699E+03  0.12509125949E+03 0.  0.
          5    1    3    3  502    0  0.59672961155E+02 -0.73989658544E+02  0.52243217139E+01  0.95289547181E+02  0.41800000000E+01 0. -1.
         -5    1    3    3    0  502 -0.38819357347E+02  0.31526395480E+01  0.42054736459E+02  0.57471339811E+02  0.41800000000E+01 0. -1.
        -11    1    1    2    0    0 -0.29630095076E+02  0.13022365619E+02  0.13627312379E+03  0.14006387403E+03  0.00000000000E+00 0.  1.
         11    1    1    2    0    0  0.87764912676E+01  0.57814653377E+02  0.38862019748E+02  0.70212659279E+02  0.00000000000E+00 0. -1.
</event>
<event>
 7    1  0.2878477E-009  0.1126372E+03  0.7561462E-02  0.1255763E+00
         -3   -1    0    0    0  501 -0.00000000000E+00  0.00000000000E+00  0.82257276986E+02  0.82257276986E+02  0.00000000000E+00 0.  1.
          3   -1    0    0  501    0  0.00000000000E+00 -0.00000000000E+00 -0.22803030084E+03  0.22803030084E+03  0.00000000000E+00 0. -1.
         25    2    1    2    0    0 -0.61384513467E+02  0.70844595453E+01 -0.13903345352E+03  0.19694039247E+03  0.12504786655E+03 0.  0.
          5    1    3    3  502    0  0.37631623305E+02  0.11142791063E+02 -0.49599434146E+02  0.63386726787E+02  0.41800000000E+01 0. -1.
         -5    1    3    3    0  502 -0.99016136772E+02 -0.40583315176E+01 -0.89434019373E+02  0.13355366568E+03  0.41800000000E+01 0. -1.
        -11    1    1    2    0    0 -0.24434126256E+00 -0.22972975529E+02 -0.36468714790E+02  0.43102023917E+02  0.00000000000E+00 0. -1.
         11    1    1    2    0    0  0.61628854730E+02  0.15888515983E+02  0.29729144456E+02  0.70245161439E+02  0.00000000000E+00 0.  1.
</event>
<event>
 6    1  0.4170112E-009  0.7803508E+02  0.7561462E-02  0.1334722E+00
         -2   -1    0    0    0  501 -0.00000000000E+00  0.00000000000E+00  0.41839440368E+02  0.41839440368E+02  0.00000000000E+00 0.  1.
          2   -1    0    0  501    0  0.00000000000E+00 -0.00000000000E+00 -0.34944909227E+03  0.34944909227E+03  0.00000000000E+00 0. -1.
          5    1    1    2  502    0 -0.11101582438E+02  0.30884231029E+02 -0.60443970019E+01  0.33631651669E+02  0.41800000000E+01 0. -1.
         -5    1    1    2    0  502  0.23337700506E+02 -0.19908055731E+02 -0.24846674133E+03  0.25038804463E+03  0.41800000000E+01 0. -1.
        -11    1    1    2    0    0  0.35567683847E+02 -0.23475441145E+02 -0.16161965727E+02  0.45578126413E+02  0.00000000000E+00 0. -1.
         11    1    1    2    0    0 -0.47803801914E+02  0.12499265848E+02 -0.36936547840E+02  0.61690709921E+02  0.00000000000E+00 0.  1.
</event>
<event>
 7    1  0.2878477E-009  0.1547918E+03  0.7561462E-02  0.1194706E+00
         -2   -1    0    0    0  501 -0.00000000000E+00  0.00000000000E+00  0.47207223566E+02  0.47207223566E+02  0.00000000000E+00 0.  1.
          2   -1    0    0  501    0  0.00000000000E+00 -0.00000000000E+00 -0.67164326739E+03  0.67164326739E+03  0.00000000000E+00 0. -1.
         25    2    1    2    0    0 -0.27425348319E+02  0.13599869851E+03 -0.38481254006E+03  0.42775616463E+03  0.12508736813E+03 0.  0.
          5    1    3    3  502    0 -0.58384429295E+02  0.71737129861E+02 -0.31318037278E+03  0.32657981517E+03  0.41800000000E+01 0. -1.
         -5    1    3    3    0  502  0.30959080976E+02  0.64261568650E+02 -0.71632167281E+02  0.10117634946E+03  0.41800000000E+01 0. -1.
        -11    1    1    2    0    0 -0.10124642426E+02 -0.59163385112E+02 -0.35393125423E+02  0.69681330709E+02  0.00000000000E+00 0. -1.
         11    1    1    2    0    0  0.37549990745E+02 -0.76835313398E+02 -0.20423037834E+03  0.22141299561E+03  0.00000000000E+00 0.  1.
</event>
<event>
 7    1  0.3079606E-009  0.1000185E+03  0.7561462E-02  0.1280257E+00
          4   -1    0    0  501    0  0.00000000000E+00  0.00000000000E+00  0.15549835941E+03  0.15549835941E+03  0.00000000000E+00 0. -1.
         -4   -1    0    0    0  501 -0.00000000000E+00 -0.00000000000E+00 -0.90716951432E+02  0.90716951432E+02  0.00000000000E+00 0.  1.
         25    2    1    2    0    0  0.13505346902E+02 -0.28525835415E+02 -0.88626969583E+00  0.12899724292E+03  0.12507352049E+03 0.  0.
          5    1    3    3  502    0  0.56121193587E+02 -0.21947220027E+02 -0.38494442827E+02  0.71627951004E+02  0.41800000000E+01 0. -1.
         -5    1    3    3    0  502 -0.42615846685E+02 -0.65786153885E+01  0.37608173131E+02  0.57369291920E+02  0.41800000000E+01 0. -1.
        -11    1    1    2    0    0  0.27189571129E+02 -0.19426669710E+02  0.30045003036E+02  0.44937406262E+02  0.00000000000E+00 0. -1.
         11    1    1    2    0    0 -0.40694918030E+02  0.47952505125E+02  0.35622674639E+02  0.72280661658E+02  0.00000000000E+00 0.  1.
</event>
<event>
 7    1  0.2878477E-009  0.1307235E+03  0.7561462E-02  0.1226386E+00
          1   -1    0    0  501    0  0.00000000000E+00  0.00000000000E+00  0.28061880702E+03  0.28061880702E+03  0.00000000000E+00 0. -1.
         -1   -1    0    0    0  501 -0.00000000000E+00 -0.00000000000E+00 -0.10035831975E+03  0.10035831975E+03  0.00000000000E+00 0.  1.
         25    2    1    2    0    0  0.81550240687E+02 -0.65274398243E+02  0.17806193158E+03  0.24138471912E+03  0.12509733142E+03 0.  0.
          5    1    3    3  502    0 -0.20979090312E+02 -0.11931802700E+02 -0.48578333032E+01  0.24971205225E+02  0.41800000000E+01 0.  1.
         -5    1    3    3    0  502  0.10252933100E+03 -0.53342595543E+02  0.18291976488E+03  0.21641351390E+03  0.41800000000E+01 0.  1.
        -11    1    1    2    0    0 -0.72583224295E+02  0.20196441356E+02  0.35053070136E+02  0.83095959099E+02  0.00000000000E+00 0.  1.
         11    1    1    2    0    0 -0.89670163916E+01  0.45077956887E+02 -0.32854514441E+02  0.56496448555E+02  0.00000000000E+00 0. -1.
</event>
<event>
 7    1  0.2878477E-009  0.1103814E+03  0.7561462E-02  0.1259865E+00
         -1   -1    0    0    0  501 -0.00000000000E+00  0.00000000000E+00  0.22201458385E+02  0.22201458385E+02  0.00000000000E+00 0.  1.
          1   -1    0    0  501    0  0.00000000000E+00 -0.00000000000E+00 -0.60414802868E+03  0.60414802868E+03  0.00000000000E+00 0. -1.
         25    2    1    2    0    0  0.43927819424E+02  0.51202366058E+01 -0.33331660009E+03  0.35875351442E+03  0.12509299769E+03 0.  0.
          5    1    3    3  502    0  0.42686362639E+02  0.56148689449E+02 -0.25924232540E+03  0.26869844913E+03  0.41800000000E+01 0. -1.
         -5    1    3    3    0  502  0.12414567843E+01 -0.51028452843E+02 -0.74074274690E+02  0.90055065296E+02  0.41800000000E+01 0. -1.
        -11    1    1    2    0    0 -0.67068088902E+02  0.14425456191E+02 -0.17656729053E+03  0.18942605529E+03  0.00000000000E+00 0.  1.
         11    1    1    2    0    0  0.23140269478E+02 -0.19545692797E+02 -0.72062679669E+02  0.78169917357E+02  0.00000000000E+00 0. -1.
</event>
<event>
 7    1  0.2878477E-009  0.2098051E+03  0.7561462E-02  0.1141720E+00
         -1   -1    0    0    0  501 -0.00000000000E+00  0.00000000000E+00  0.46097422095E+03  0.46097422095E+03  0.00000000000E+00 0.  1.
          1   -1    0    0  501    0  0.00000000000E+00 -0.00000000000E+00 -0.11021463536E+03  0.11021463536E+03  0.00000000000E+00 0. -1.
         25    2    1    2    0    0 -0.17345114281E+03  0.92520285699E+02  0.18856905009E+03  0.29975173730E+03  0.12509002819E+03 0.  0.
          5    1    3    3  502    0 -0.15989086340E+03  0.11442310798E+03  0.19021796395E+03  0.27360205052E+03  0.41800000000E+01 0. -1.
         -5    1    3    3    0  502 -0.13560279408E+02 -0.21902822284E+02 -0.16489138575E+01  0.26149686777E+02  0.41800000000E+01 0. -1.
        -11    1    1    2    0    0  0.15884734387E+03 -0.87841221070E+02  0.99706657345E+02  0.20709895290E+03  0.00000000000E+00 0. -1.
         11    1    1    2    0    0  0.14603798940E+02 -0.46790646285E+01  0.62483878156E+02  0.64338166112E+02  0.00000000000E+00 0.  1.
</event>
<event>
 7    1  0.2878477E-009  0.1904622E+03  0.7561462E-02  0.1158045E+00
          2   -1    0    0  501    0  0.00000000000E+00  0.00000000000E+00  0.14430443169E+04  0.14430443169E+04  0.00000000000E+00 0. -1.
         -2   -1    0    0    0  501 -0.00000000000E+00 -0.00000000000E+00 -0.27532779770E+02  0.27532779770E+02  0.00000000000E+00 0.  1.
         25    2    1    2    0    0 -0.65383541101E+01  0.16668117420E+03  0.73921231589E+03  0.76805539194E+03  0.12509545644E+03 0.  0.
          5    1    3    3  502    0  0.88339227136E+01  0.18308193624E+03  0.61464088844E+03  0.64140309299E+03  0.41800000000E+01 0.  1.
         -5    1    3    3    0  502 -0.15372276824E+02 -0.16400762042E+02  0.12457142746E+03  0.12665229895E+03  0.41800000000E+01 0.  1.
        -11    1    1    2    0    0  0.29015681361E+02 -0.77679932238E+02  0.18519393996E+03  0.20291100767E+03  0.00000000000E+00 0.  1.
         11    1    1    2    0    0 -0.22477327251E+02 -0.89001241958E+02  0.49110528133E+03  0.49961069710E+03  0.00000000000E+00 0. -1.
</event>
<event>
 7    1  0.2878477E-009  0.2337474E+03  0.7561462E-02  0.1124030E+00
         -2   -1    0    0    0  501 -0.00000000000E+00  0.00000000000E+00  0.84841607062E+02  0.84841607062E+02  0.00000000000E+00 0.  1.
          2   -1    0    0  501    0  0.00000000000E+00 -0.00000000000E+00 -0.74683588802E+03  0.74683588802E+03  0.00000000000E+00 0. -1.
         25    2    1    2    0    0 -0.19500559496E+03  0.11372918181E+03 -0.38241869006E+03  0.46136058545E+03  0.12509207184E+03 0.  0.
          5    1    3    3  502    0 -0.19683315421E+03  0.11855384650E+03 -0.38912537326E+03  0.45192292887E+03  0.41800000000E+01 0.  1.
         -5    1    3    3    0  502  0.18275592528E+01 -0.48246646884E+01  0.67066832033E+01  0.94376565824E+01  0.41800000000E+01 0.  1.
        -11    1    1    2    0    0  0.15242876706E+03 -0.63328952436E+02 -0.24611378487E+03  0.29633946809E+03  0.00000000000E+00 0. -1.
         11    1    1    2    0    0  0.42576827899E+02 -0.50400229376E+02 -0.33461806031E+02  0.73977441548E+02  0.00000000000E+00 0.  1.
</event>
<event>
 7    1  0.3049013E-009  0.1840486E+03  0.7561462E-02  0.1163941E+00
          1   -1    0    0  501    0  0.00000000000E+00  0.00000000000E+00  0.58854757416E+03  0.58854757416E+03  0.00000000000E+00 0. -1.
         -1   -1    0    0    0  501 -0.00000000000E+00 -0.00000000000E+00 -0.90104586653E+02  0.90104586653E+02  0.00000000000E+00 0.  1.
         25    2    1    2    0    0  0.10734101867E+03  0.10794005648E+03  0.60568759208E+02  0.20612974250E+03  0.12509095119E+03 0.  0.
          5    1    3    3  502    0  0.10302910228E+03  0.23164555907E+02  0.59190918095E+02  0.12113063094E+03  0.41800000000E+01 0. -1.
         -5    1    3    3    0  502  0.43119163892E+01  0.84775500574E+02  0.13778411137E+01  0.84999111564E+02  0.41800000000E+01 0. -1.
        -11    1    1    2    0    0 -0.12740974940E+01 -0.61707085044E+02  0.14233110868E+03  0.15513713987E+03  0.00000000000E+00 0. -1.
         11    1    1    2    0    0 -0.10606692117E+03 -0.46232971437E+02  0.29554311962E+03  0.31738527844E+03  0.00000000000E+00 0.  1.
</event>
<event>
 7    1  0.2929672E-009  0.1009329E+03  0.7561462E-02  0.1278346E+00
         -2   -1    0    0    0  501 -0.00000000000E+00  0.00000000000E+00  0.10452779611E+03  0.10452779611E+03  0.00000000000E+00 0.  1.
          2   -1    0    0  501    0  0.00000000000E+00 -0.00000000000E+00 -0.15151406066E+03  0.15151406066E+03  0.00000000000E+00 0. -1.
         25    2    1    2    0    0 -0.10613248976E+02 -0.27061922058E+02  0.31949964296E+02  0.13233475516E+03  0.12508676399E+03 0.  0.
          5    1    3    3  502    0  0.55037928664E+02 -0.30604032538E+01  0.28569757710E+02  0.62227350220E+02  0.41800000000E+01 0.  1.
         -5    1    3    3    0  502 -0.65651177641E+02 -0.24001518805E+02  0.33802065858E+01  0.70107404938E+02  0.41800000000E+01 0.  1.
        -11    1    1    2    0    0  0.23678310120E+02  0.47054132540E+02 -0.13980022705E+02  0.54499493521E+02  0.00000000000E+00 0.  1.
         11    1    1    2    0    0 -0.13065061144E+02 -0.19992210481E+02 -0.64956206141E+02  0.69207608099E+02  0.00000000000E+00 0. -1.
</event>
<event>
 7    1  0.2878477E-009  0.1556702E+03  0.7561462E-02  0.1193674E+00
          2   -1    0    0  501    0  0.00000000000E+00  0.00000000000E+00  0.11483609364E+04  0.11483609364E+04  0.00000000000E+00 0. -1.
         -2   -1    0    0    0  501 -0.00000000000E+00 -0.00000000000E+00 -0.21256829220E+02  0.21256829220E+02  0.00000000000E+00 0.  1.
         25    2    1    2    0    0  0.85422523964E+02 -0.73107771981E+02  0.59053205586E+03  0.61401743172E+03  0.12509014162E+03 0.  0.
          5    1    3    3  502    0  0.11451949999E+03 -0.34935273967E+02  0.40688932758E+03  0.42415985966E+03  0.41800000000E+01 0.  1.
         -5    1    3    3    0  502 -0.29096976030E+02 -0.38172498014E+02  0.18364272828E+03  0.18985757206E+03  0.41800000000E+01 0.  1.
        -11    1    1    2    0    0 -0.74454813584E+02  0.52712607166E+01  0.25001853851E+03  0.26092254609E+03  0.00000000000E+00 0.  1.
         11    1    1    2    0    0 -0.10967710380E+02  0.67836511264E+02  0.28655351285E+03  0.29467778786E+03  0.00000000000E+00 0. -1.
</event>
<event>
 7    1  0.2878477E-009  0.8913235E+02  0.7561462E-02  0.1304967E+00
         -2   -1    0    0    0  501 -0.00000000000E+00  0.00000000000E+00  0.66260741017E+02  0.66260741017E+02  0.00000000000E+00 0.  1.
          2   -1    0    0  501    0  0.00000000000E+00 -0.00000000000E+00 -0.21405510992E+03  0.21405510992E+03  0.00000000000E+00 0. -1.
         25    2    1    2    0    0 -0.23575476729E+02 -0.68802238023E+01 -0.13466390207E+03  0.18544816079E+03  0.12511400096E+03 0.  0.
          5    1    3    3  502    0 -0.56058434954E+02 -0.16162633157E+02 -0.13931057463E+03  0.15109165246E+03  0.41800000000E+01 0.  1.
         -5    1    3    3    0  502  0.32482958226E+02  0.92824093548E+01  0.46466725589E+01  0.34356508327E+02  0.41800000000E+01 0.  1.
        -11    1    1    2    0    0 -0.20477961036E+02  0.29734267482E+02  0.13500446904E+02  0.38545241179E+02  0.00000000000E+00 0.  1.
         11    1    1    2    0    0  0.44053437764E+02 -0.22854043680E+02 -0.26630913735E+02  0.56322448968E+02  0.00000000000E+00 0. -1.
</event>
<event>
 7    1  0.2878477E-009  0.1275242E+03  0.7561462E-02  0.1231176E+00
          2   -1    0    0  501    0  0.00000000000E+00  0.00000000000E+00  0.11856715370E+03  0.11856715370E+03  0.00000000000E+00 0. -1.
         -2   -1    0    0    0  501 -0.00000000000E+00 -0.00000000000E+00 -0.15933876793E+03  0.15933876793E+03  0.00000000000E+00 0.  1.
         25    2    1    2    0    0 -0.80797775538E+02 -0.12005841104E+02 -0.43163091548E+00  0.14939967870E+03  0.12509059493E+03 0.  0.
          5    1    3    3  502    0  0.32800583443E+02  0.65158101262E+01 -0.53335088425E+01  0.34121148462E+02  0.41800000000E+01 0. -1.
         -5    1    3    3    0  502 -0.11359835898E+03 -0.18521651230E+02  0.49018779271E+01  0.11527853024E+03  0.41800000000E+01 0. -1.
        -11    1    1    2    0    0  0.33390430403E+02  0.39220482882E+02  0.11931673157E+02  0.52872790208E+02  0.00000000000E+00 0. -1.
         11    1    1    2    0    0  0.47407345135E+02 -0.27214641779E+02 -0.52271656477E+02  0.75633452722E+02  0.00000000000E+00 0.  1.
</event>
<event>
 7    1  0.2878477E-009  0.8303623E+02  0.7561462E-02  0.1320649E+00
          1   -1    0    0  501    0  0.00000000000E+00  0.00000000000E+00  0.30240348654E+03  0.30240348654E+03  0.00000000000E+00 0. -1.
         -1   -1    0    0    0  501 -0.00000000000E+00 -0.00000000000E+00 -0.48702859505E+02  0.48702859505E+02  0.00000000000E+00 0.  1.
         25    2    1    2    0    0 -0.84166125966E+01  0.49137647233E+02  0.10278051596E+03  0.16939687076E+03  0.12508444196E+03 0.  0.
          5    1    3    3  502    0  0.13170496341E+02 -0.14268734582E+02 -0.20805717876E+02  0.28764718958E+02  0.41800000000E+01 0. -1.
         -5    1    3    3    0  502 -0.21587108937E+02  0.63406381815E+02  0.12358623384E+03  0.14063215180E+03  0.41800000000E+01 0. -1.
        -11    1    1    2    0    0  0.11135661774E+02  0.12877353671E+02  0.99951628103E+02  0.10139110987E+03  0.00000000000E+00 0. -1.
         11    1    1    2    0    0 -0.27190491776E+01 -0.62015000904E+02  0.50968482967E+02  0.80318365406E+02  0.00000000000E+00 0.  1.
</event>
<event>
 7    1  0.2878477E-009  0.1109114E+03  0.7561462E-02  0.1258891E+00
          1   -1    0    0  501    0  0.00000000000E+00  0.00000000000E+00  0.48290929694E+02  0.48290929694E+02  0.00000000000E+00 0. -1.
         -1   -1    0    0    0  501 -0.00000000000E+00 -0.00000000000E+00 -0.29027257175E+03  0.29027257175E+03  0.00000000000E+00 0.  1.
         25    2    1    2    0    0 -0.26550573330E+02  0.39600880259E+02 -0.11440781325E+03  0.17609741139E+03  0.12509191782E+03 0.  0.
          5    1    3    3  502    0 -0.32134611461E+02 -0.40583768074E+02 -0.57754420931E+02  0.77670593032E+02  0.41800000000E+01 0.  1.
         -5    1    3    3    0  502  0.55840381306E+01  0.80184648333E+02 -0.56653392318E+02  0.98426818354E+02  0.41800000000E+01 0.  1.
        -11    1    1    2    0    0  0.42875706144E+01  0.22773118556E+02 -0.73188245753E+02  0.76769248445E+02  0.00000000000E+00 0.  1.
         11    1    1    2    0    0  0.22263002716E+02 -0.62373998815E+02 -0.54385583051E+02  0.85696841609E+02  0.00000000000E+00 0. -1.
</event>
<event>
 7    1  0.2878477E-009  0.1084291E+03  0.7561462E-02  0.1263507E+00
          2   -1    0    0  501    0  0.00000000000E+00  0.00000000000E+00  0.22524550685E+03  0.22524550685E+03  0.00000000000E+00 0. -1.
         -2   -1    0    0    0  501 -0.00000000000E+00 -0.00000000000E+00 -0.93949619684E+02  0.93949619684E+02  0.00000000000E+00 0.  1.
         25    2    1    2    0    0 -0.81043608170E+02  0.31539243531E+02  0.24097858443E+02  0.15424539442E+03  0.12509254419E+03 0.  0.
          5    1    3    3  502    0 -0.59651161461E+02  0.86102961871E+01 -0.46923672251E+02  0.76496416136E+02  0.41800000000E+01 0.  1.
         -5    1    3    3    0  502 -0.21392446709E+02  0.22928947344E+02  0.71021530694E+02  0.77748978286E+02  0.41800000000E+01 0.  1.
        -11    1    1    2    0    0  0.23568386330E+02  0.31603474131E+02  0.26795086181E+02  0.47667861866E+02  0.00000000000E+00 0.  1.
         11    1    1    2    0    0  0.57475221840E+02 -0.63142717662E+02  0.80402942546E+02  0.11728187025E+03  0.00000000000E+00 0. -1.
</event>
<event>
 7    1  0.2878477E-009  0.1307224E+03  0.7561462E-02  0.1226388E+00
          2   -1    0    0  501    0  0.00000000000E+00  0.00000000000E+00  0.55061974116E+02  0.55061974116E+02  0.00000000000E+00 0. -1.
         -2   -1    0    0    0  501 -0.00000000000E+00 -0.00000000000E+00 -0.35048963550E+03  0.35048963550E+03  0.00000000000E+00 0.  1.
         25    2    1    2    0    0  0.87265515169E+01 -0.84282644401E+02 -0.14208505676E+03  0.20740229585E+03  0.12509129514E+03 0.  0.
          5    1    3    3  502    0 -0.29108082644E+02 -0.95766422382E+02 -0.13319017272E+03  0.16666008112E+03  0.41800000000E+01 0. -1.
         -5    1    3    3    0  502  0.37834634161E+02  0.11483777981E+02 -0.88948840397E+01  0.40742214727E+02  0.41800000000E+01 0. -1.
        -11    1    1    2    0    0 -0.29318062777E+02  0.94195349216E+02 -0.10175571507E+03  0.14172698462E+03  0.00000000000E+00 0. -1.
         11    1    1    2    0    0  0.20591511260E+02 -0.99127048146E+01 -0.51586889553E+02  0.56422329148E+02  0.00000000000E+00 0.  1.
</event>
<event>
 7    1  0.2878477E-009  0.1773447E+03  0.7561462E-02  0.1170398E+00
         -1   -1    0    0    0  501 -0.00000000000E+00  0.00000000000E+00  0.92799968708E+02  0.92799968708E+02  0.00000000000E+00 0.  1.
          1   -1    0    0  501    0  0.00000000000E+00 -0.00000000000E+00 -0.38292652182E+03  0.38292652182E+03  0.00000000000E+00 0. -1.
         25    2    1    2    0    0  0.14530397912E+03 -0.47442618489E+02 -0.14916918575E+03  0.24751470447E+03  0.12509210428E+03 0.  0.
          5    1    3    3  502    0  0.11062916132E+03 -0.86502854688E+02 -0.83252879277E+02  0.16330973490E+03  0.41800000000E+01 0. -1.
         -5    1    3    3    0  502  0.34674817798E+02  0.39060236199E+02 -0.65916306472E+02  0.84204969569E+02  0.41800000000E+01 0. -1.
        -11    1    1    2    0    0 -0.11005411215E+03  0.58780135582E+02 -0.14462036776E+03  0.19100278195E+03  0.00000000000E+00 0. -1.
         11    1    1    2    0    0 -0.35249866970E+02 -0.11337517093E+02  0.36630004014E+01  0.37209004114E+02  0.00000000000E+00 0.  1.
</event>
<event>
 7    1  0.2878477E-009  0.7566293E+02  0.7561462E-02  0.1341830E+00
          1   -1    0    0  501    0  0.00000000000E+00  0.00000000000E+00  0.50185050752E+03  0.50185050752E+03  0.00000000000E+00 0. -1.
         -1   -1    0    0    0  501 -0.00000000000E+00 -0.00000000000E+00 -0.91759221069E+02  0.91759221069E+02  0.00000000000E+00 0.  1.
         25    2    1    2    0    0  0.45650878626E+02  0.13173494822E+02 -0.33596497899E+02  0.13795736340E+03  0.12508383493E+03 0.  0.
          5    1    3    3  502    0  0.30967471187E+02  0.49720121084E+01  0.46368658075E+02  0.56135817691E+02  0.41800000000E+01 0.  1.
         -5    1    3    3    0  502  0.14683407439E+02  0.82014827139E+01 -0.79965155974E+02  0.81821545712E+02  0.41800000000E+01 0.  1.
        -11    1    1    2    0    0 -0.61653872865E+02  0.20581010529E+02  0.31584094492E+03  0.32245973473E+03  0.00000000000E+00 0. -1.
         11    1    1    2    0    0  0.16002994239E+02 -0.33754505352E+02  0.12784683942E+03  0.13319263045E+03  0.00000000000E+00 0.  1.
</event>
<event>
 7    1  0.2878477E-009  0.1092536E+03  0.7561462E-02  0.1261958E+00
         -2   -1    0    0    0  501 -0.00000000000E+00  0.00000000000E+00  0.16692913583E+03  0.16692913583E+03  0.00000000000E+00 0. -1.
          2   -1    0    0  501    0  0.00000000000E+00 -0.00000000000E+00 -0.11332274256E+03  0.11332274256E+03  0.00000000000E+00 0.  1.
         25    2    1    2    0    0 -0.36536489223E+02  0.35825622537E+02 -0.38984758133E+02  0.14066159426E+03  0.12508989751E+03 0.  0.
          5    1    3    3  502    0  0.37824786806E+02 -0.49136116354E+01 -0.40452841436E+02  0.55756280870E+02  0.41800000000E+01 0. -1.
         -5    1    3    3    0  502 -0.74361276030E+02  0.40739234173E+02  0.14680833025E+01  0.84905313393E+02  0.41800000000E+01 0. -1.
        -11    1    1    2    0    0 -0.22890645535E+02 -0.26618625720E+02  0.83495728572E+01  0.36086676975E+02  0.00000000000E+00 0.  1.
         11    1    1    2    0    0  0.59427134758E+02 -0.92069968175E+01  0.84241578548E+02  0.10350360715E+03  0.00000000000E+00 0. -1.
</event>
<event>
 7    1  0.2878477E-009  0.8492985E+02  0.7561462E-02  0.1315616E+00
          2   -1    0    0  501    0  0.00000000000E+00  0.00000000000E+00  0.66082856862E+03  0.66082856862E+03  0.00000000000E+00 0. -1.
         -2   -1    0    0    0  501 -0.00000000000E+00 -0.00000000000E+00 -0.17935813803E+02  0.17935813803E+02  0.00000000000E+00 0.  1.
         25    2    1    2    0    0 -0.38662563266E+01 -0.15790433202E+00  0.29938536733E+03  0.32449108840E+03  0.12509154810E+03 0.  0.
          5    1    3    3  502    0  0.15337372002E+02  0.37625644520E+02  0.27384841502E+02  0.49176478620E+02  0.41800000000E+01 0. -1.
         -5    1    3    3    0  502 -0.19203628328E+02 -0.37783548852E+02  0.27200052583E+03  0.27531460978E+03  0.41800000000E+01 0. -1.
        -11    1    1    2    0    0  0.70524325484E+01  0.42944296467E+02  0.15955658409E+03  0.16538516539E+03  0.00000000000E+00 0.  1.
         11    1    1    2    0    0 -0.31861762218E+01 -0.42786392135E+02  0.18395080340E+03  0.18888812864E+03  0.00000000000E+00 0. -1.
</event>
<event>
 7    1  0.2878477E-009  0.1005296E+03  0.7561462E-02  0.1279186E+00
          2   -1    0    0  501    0  0.00000000000E+00  0.00000000000E+00  0.12705477829E+03  0.12705477829E+03  0.00000000000E+00 0. -1.
         -2   -1    0    0    0  501 -0.00000000000E+00 -0.00000000000E+00 -0.12872005545E+03  0.12872005545E+03  0.00000000000E+00 0.  1.
         25    2    1    2    0    0 -0.45069868202E+02 -0.50637053526E+02 -0.70496302449E+01  0.14245479252E+03  0.12509303104E+03 0.  0.
          5    1    3    3  502    0 -0.51726300792E+02 -0.74286347714E+02  0.32024425776E+02  0.96109874085E+02  0.41800000000E+01 0. -1.
         -5    1    3    3    0  502  0.66564325899E+01  0.23649294188E+02 -0.39074056021E+02  0.46344918431E+02  0.41800000000E+01 0. -1.
        -11    1    1    2    0    0 -0.55037755078E+01  0.30650249603E+02  0.38602435434E+02  0.49597150795E+02  0.00000000000E+00 0. -1.
         11    1    1    2    0    0  0.50573643710E+02  0.19986803923E+02 -0.33218082350E+02  0.63722890426E+02  0.00000000000E+00 0.  1.
</event>
<event>
 7    1  0.2878477E-009  0.1635274E+03  0.7561462E-02  0.1184771E+00
          1   -1    0    0  501    0  0.00000000000E+00  0.00000000000E+00  0.17464477685E+04  0.17464477685E+04  0.00000000000E+00 0. -1.
         -1   -1    0    0    0  501 -0.00000000000E+00 -0.00000000000E+00 -0.42603398370E+02  0.42603398370E+02  0.00000000000E+00 0.  1.
         25    2    1    2    0    0 -0.12455723920E+03 -0.55612716047E+02  0.15587415478E+04  0.15696908241E+04  0.12508713129E+03 0.  0.
          5    1    3    3  502    0 -0.10283962842E+03 -0.94216850181E+02  0.12490398079E+04  0.12568097382E+04  0.41800000000E+01 0.  1.
         -5    1    3    3    0  502 -0.21717610778E+02  0.38604134134E+02  0.30970173993E+03  0.31288108589E+03  0.41800000000E+01 0.  1.
        -11    1    1    2    0    0  0.37538888112E+02  0.39570622454E+02  0.11256377018E+03  0.12508239141E+03  0.00000000000E+00 0. -1.
         11    1    1    2    0    0  0.87018351086E+02  0.16042093593E+02  0.32539052103E+02  0.94277951316E+02  0.00000000000E+00 0.  1.
</event>
<event>
 7    1  0.2878477E-009  0.1421784E+03  0.7561462E-02  0.1210428E+00
         -2   -1    0    0    0  501 -0.00000000000E+00  0.00000000000E+00  0.73592917652E+02  0.73592917652E+02  0.00000000000E+00 0.  1.
          2   -1    0    0  501    0  0.00000000000E+00 -0.00000000000E+00 -0.42600760728E+03  0.42600760728E+03  0.00000000000E+00 0. -1.
         25    2    1    2    0    0  0.11416885005E+03 -0.89772893839E+01 -0.79321587741E+02  0.18722815906E+03  0.12508937292E+03 0.  0.
          5    1    3    3  502    0  0.16057506571E+02 -0.46609043216E+02  0.85217099805E+01  0.50202971702E+02  0.41800000000E+01 0. -1.
         -5    1    3    3    0  502  0.98111343480E+02  0.37631753832E+02 -0.87843297722E+02  0.13702518736E+03  0.41800000000E+01 0. -1.
        -11    1    1    2    0    0 -0.54493034301E+02  0.34840728974E+02 -0.21716826474E+03  0.22659528325E+03  0.00000000000E+00 0. -1.
         11    1    1    2    0    0 -0.59675815750E+02 -0.25863439590E+02 -0.55924837149E+02  0.85777082621E+02  0.00000000000E+00 0.  1.
</event>
<event>
 7    1  0.2878477E-009  0.1040772E+03  0.7561462E-02  0.1271948E+00
         -1   -1    0    0    0  501 -0.00000000000E+00  0.00000000000E+00  0.56485770944E+02  0.56485770944E+02  0.00000000000E+00 0.  1.
          1   -1    0    0  501    0  0.00000000000E+00 -0.00000000000E+00 -0.33176657531E+03  0.33176657531E+03  0.00000000000E+00 0. -1.
         25    2    1    2    0    0 -0.67522988159E+02 -0.89982337922E+01 -0.81728484638E+02  0.16421834466E+03  0.12509115629E+03 0.  0.
          5    1    3    3  502    0 -0.78980614898E+02  0.12774311529E+02 -0.10364875648E+03  0.13100251022E+03  0.41800000000E+01 0.  1.
         -5    1    3    3    0  502  0.11457626739E+02 -0.21772545322E+02  0.21920271838E+02  0.33215834442E+02  0.41800000000E+01 0.  1.
        -11    1    1    2    0    0  0.55979500201E+02  0.40787194823E+02 -0.81330111298E+02  0.10682643263E+03  0.00000000000E+00 0.  1.
         11    1    1    2    0    0  0.11543487958E+02 -0.31788961031E+02 -0.11222220843E+03  0.11720756896E+03  0.00000000000E+00 0. -1.
</event>
<event>
 7    1  0.2878477E-009  0.1424343E+03  0.7561462E-02  0.1210090E+00
          2   -1    0    0  501    0  0.00000000000E+00  0.00000000000E+00  0.66466303431E+02  0.66466303431E+02  0.00000000000E+00 0. -1.
         -2   -1    0    0    0  501 -0.00000000000E+00 -0.00000000000E+00 -0.38784841029E+03  0.38784841029E+03  0.00000000000E+00 0.  1.
         25    2    1    2    0    0 -0.59654720220E+02  0.10189312072E+03 -0.19425941343E+03  0.25947125494E+03  0.12509084195E+03 0.  0.
          5    1    3    3  502    0  0.23088378157E+02  0.60817882550E+02 -0.31781961436E+02  0.72522089852E+02  0.41800000000E+01 0. -1.
         -5    1    3    3    0  502 -0.82743098377E+02  0.41075238169E+02 -0.16247745200E+03  0.18694916509E+03  0.41800000000E+01 0. -1.
        -11    1    1    2    0    0  0.13430743590E+02 -0.69449113753E+02 -0.11808621086E+03  0.13765143468E+03  0.00000000000E+00 0.  1.
         11    1    1    2    0    0  0.46223976630E+02 -0.32444006966E+02 -0.90364825647E+01  0.57192024100E+02  0.00000000000E+00 0. -1.
</event>
<event>
 7    1  0.2878477E-009  0.1153121E+03  0.7561462E-02  0.1251037E+00
          2   -1    0    0  501    0  0.00000000000E+00  0.00000000000E+00  0.17931656188E+02  0.17931656188E+02  0.00000000000E+00 0. -1.
         -2   -1    0    0    0  501 -0.00000000000E+00 -0.00000000000E+00 -0.94054769637E+03  0.94054769637E+03  0.00000000000E+00 0.  1.
         25    2    1    2    0    0 -0.62726616662E+02  0.35949143491E+02 -0.49515483523E+03  0.51580225023E+03  0.12508669445E+03 0.  0.
          5    1    3    3  502    0 -0.46677554131E+02 -0.29001780441E+02 -0.93038130037E+02  0.10813631846E+03  0.41800000000E+01 0. -1.
         -5    1    3    3    0  502 -0.16049062531E+02  0.64950923933E+02 -0.40211670520E+03  0.40766593177E+03  0.41800000000E+01 0. -1.
        -11    1    1    2    0    0  0.22339228969E+02 -0.58218235748E+02 -0.31524379512E+03  0.32135191688E+03  0.00000000000E+00 0.  1.
         11    1    1    2    0    0  0.40387387694E+02  0.22269092257E+02 -0.11221740983E+03  0.12132518545E+03  0.00000000000E+00 0. -1.
</event>
<event>
 7    1  0.2878477E-009  0.8765885E+02  0.7561462E-02  0.1308622E+00
          2   -1    0    0  501    0  0.00000000000E+00  0.00000000000E+00  0.38125915494E+03  0.38125915494E+03  0.00000000000E+00 0. -1.
         -2   -1    0    0    0  501 -0.00000000000E+00 -0.00000000000E+00 -0.38966589729E+02  0.38966589729E+02  0.00000000000E+00 0.  1.
         25    2    1    2    0    0  0.15396546117E+02  0.15882237236E+01  0.28499696530E+03  0.31162958770E+03  0.12510057400E+03 0.  0.
          5    1    3    3  502    0  0.47565426742E+02  0.44216926157E+02  0.20715706287E+03  0.21713849838E+03  0.41800000000E+01 0. -1.
         -5    1    3    3    0  502 -0.32168880626E+02 -0.42628702434E+02  0.77839902428E+02  0.94491089325E+02  0.41800000000E+01 0. -1.
        -11    1    1    2    0    0  0.12285779861E+02 -0.19967348563E+02 -0.15821128664E+02  0.28283272576E+02  0.00000000000E+00 0.  1.
         11    1    1    2    0    0 -0.27682325977E+02  0.18379124839E+02  0.73116728568E+02  0.80312884383E+02  0.00000000000E+00 0. -1.
</event>
<event>
 7    1  0.2878477E-009  0.1020380E+03  0.7561462E-02  0.1276068E+00
          1   -1    0    0  501    0  0.00000000000E+00  0.00000000000E+00  0.11905719180E+04  0.11905719180E+04  0.00000000000E+00 0. -1.
         -1   -1    0    0    0  501 -0.00000000000E+00 -0.00000000000E+00 -0.12708371395E+02  0.12708371395E+02  0.00000000000E+00 0.  1.
         25    2    1    2    0    0  0.45557357051E+02 -0.22069876782E+02  0.84980278394E+03  0.86045104833E+03  0.12509469503E+03 0.  0.
          5    1    3    3  502    0 -0.27852812465E+02  0.29346488105E+01  0.55076776953E+03  0.55149523994E+03  0.41800000000E+01 0. -1.
         -5    1    3    3    0  502  0.73410169516E+02 -0.25004525593E+02  0.29903501442E+03  0.30895580839E+03  0.41800000000E+01 0. -1.
        -11    1    1    2    0    0  0.60042187161E+01  0.42286910606E+02  0.11458989003E+03  0.12229094958E+03  0.00000000000E+00 0.  1.
         11    1    1    2    0    0 -0.51561575767E+02 -0.20217033824E+02  0.21347087260E+03  0.22053829146E+03  0.00000000000E+00 0. -1.
</event>
<event>
 7    1  0.2878477E-009  0.1035403E+03  0.7561462E-02  0.1273022E+00
          2   -1    0    0  501    0  0.00000000000E+00  0.00000000000E+00  0.25913382605E+04  0.25913382605E+04  0.00000000000E+00 0.  1.
         -2   -1    0    0    0  501 -0.00000000000E+00 -0.00000000000E+00 -0.75596862613E+01  0.75596862613E+01  0.00000000000E+00 0. -1.
         25    2    1    2    0    0  0.28344451714E+02  0.18042419237E+02  0.21659861395E+04  0.21698553724E+04  0.12508974319E+03 0.  0.
          5    1    3    3  502    0  0.39080919041E+02 -0.39180942339E+02  0.15787811029E+04  0.15797562178E+04  0.41800000000E+01 0.  1.
         -5    1    3    3    0  502 -0.10736467327E+02  0.57223361576E+02  0.58720503662E+03  0.59009915461E+03  0.41800000000E+01 0.  1.
        -11    1    1    2    0    0 -0.44271627919E+02  0.22494172248E+02  0.28489435933E+03  0.28918983523E+03  0.00000000000E+00 0.  1.
         11    1    1    2    0    0  0.15927176205E+02 -0.40536591485E+02  0.13289807544E+03  0.13985273915E+03  0.00000000000E+00 0. -1.
</event>
<event>
 7    1  0.2878477E-009  0.1297473E+03  0.7561462E-02  0.1227831E+00
          1   -1    0    0  501    0  0.00000000000E+00  0.00000000000E+00  0.58266338099E+02  0.58266338099E+02  0.00000000000E+00 0. -1.
         -1   -1    0    0    0  501 -0.00000000000E+00 -0.00000000000E+00 -0.46379139361E+03  0.46379139361E+03  0.00000000000E+00 0.  1.
         25    2    1    2    0    0  0.54137213801E+02  0.52525061745E+02 -0.68206724819E+02  0.16121327471E+03  0.12509133704E+03 0.  0.
          5    1    3    3  502    0 -0.15388071376E+02 -0.23695641242E+02 -0.48222115500E+02  0.56045704365E+02  0.41800000000E+01 0. -1.
         -5    1    3    3    0  502  0.69525285177E+02  0.76220702987E+02 -0.19984609319E+02  0.10516757035E+03  0.41800000000E+01 0. -1.
        -11    1    1    2    0    0  0.18524856992E+02  0.18423667691E+02 -0.57175526474E+02  0.62862092595E+02  0.00000000000E+00 0. -1.
         11    1    1    2    0    0 -0.72662070793E+02 -0.70948729437E+02 -0.28014280422E+03  0.29798236441E+03  0.00000000000E+00 0.  1.
</event>
<event>
 7    1  0.2878477E-009  0.1078078E+03  0.7561462E-02  0.1264684E+00
         -1   -1    0    0    0  501 -0.00000000000E+00  0.00000000000E+00  0.28687044991E+02  0.28687044991E+02  0.00000000000E+00 0.  1.
          1   -1    0    0  501    0  0.00000000000E+00 -0.00000000000E+00 -0.46120973146E+03  0.46120973146E+03  0.00000000000E+00 0. -1.
         25    2    1    2    0    0  0.16880800269E+02 -0.36923043853E+02 -0.22677067610E+03  0.26214602839E+03  0.12508928042E+03 0.  0.
          5    1    3    3  502    0  0.63429854025E+02  0.10816141441E+02 -0.10374337204E+03  0.12214947785E+03  0.41800000000E+01 0. -1.
         -5    1    3    3    0  502 -0.46549053756E+02 -0.47739185293E+02 -0.12302730406E+03  0.13999655054E+03  0.41800000000E+01 0. -1.
        -11    1    1    2    0    0 -0.21189473751E+02  0.58554268362E+02 -0.19179274760E+03  0.20164834285E+03  0.00000000000E+00 0. -1.
         11    1    1    2    0    0  0.43086734823E+01 -0.21631224510E+02 -0.13959262771E+02  0.26102405216E+02  0.00000000000E+00 0.  1.
</event>
<event>
 7    1  0.2878477E-009  0.8436610E+02  0.7561462E-02  0.1317099E+00
         -1   -1    0    0    0  501 -0.00000000000E+00  0.00000000000E+00  0.25931882615E+03  0.25931882615E+03  0.00000000000E+00 0.  1.
          1   -1    0    0  501    0  0.00000000000E+00 -0.00000000000E+00 -0.70329552262E+02  0.70329552262E+02  0.00000000000E+00 0. -1.
         25    2    1    2    0    0  0.58623083770E+02  0.47743515289E+02  0.77149110308E+02  0.16527279641E+03  0.12508798027E+03 0.  0.
          5    1    3    3  502    0  0.26619468709E+02 -0.84488403048E+01  0.94136872072E+02  0.98281239819E+02  0.41800000000E+01 0.  1.
         -5    1    3    3    0  502  0.32003615061E+02  0.56192355594E+02 -0.16987761764E+02  0.66991556587E+02  0.41800000000E+01 0.  1.
        -11    1    1    2    0    0 -0.20225055962E+02 -0.14287061540E+02 -0.14122717314E+02  0.28506563463E+02  0.00000000000E+00 0. -1.
         11    1    1    2    0    0 -0.38398027808E+02 -0.33456453749E+02  0.12596288089E+03  0.13586901854E+03  0.00000000000E+00 0.  1.
</event>
<event>
 7    1  0.2878477E-009  0.2643689E+03  0.7561462E-02  0.1104546E+00
          2   -1    0    0  501    0  0.00000000000E+00  0.00000000000E+00  0.13824784830E+04  0.13824784830E+04  0.00000000000E+00 0. -1.
         -2   -1    0    0    0  501 -0.00000000000E+00 -0.00000000000E+00 -0.75617196525E+02  0.75617196525E+02  0.00000000000E+00 0.  1.
         25    2    1    2    0    0 -0.14909318907E+03  0.19895206790E+03  0.27032535285E+03  0.38798713012E+03  0.12509001718E+03 0.  0.
          5    1    3    3  502    0  0.18097585587E+02  0.53622310678E+02  0.54910857733E+02  0.78965495651E+02  0.41800000000E+01 0.  1.
         -5    1    3    3    0  502 -0.16719077465E+03  0.14532975722E+03  0.21541449512E+03  0.30902163447E+03  0.41800000000E+01 0.  1.
        -11    1    1    2    0    0  0.66228828335E+02 -0.11338637170E+03  0.36074575959E+03  0.38390132854E+03  0.00000000000E+00 0. -1.
         11    1    1    2    0    0  0.82864360734E+02 -0.85565696200E+02  0.67579017409E+03  0.68620722092E+03  0.00000000000E+00 0.  1.
</event>
<event>
 7    1  0.2878477E-009  0.1235370E+03  0.7561462E-02  0.1237374E+00
         -2   -1    0    0    0  501 -0.00000000000E+00  0.00000000000E+00  0.14840286488E+03  0.14840286488E+03  0.00000000000E+00 0.  1.
          2   -1    0    0  501    0  0.00000000000E+00 -0.00000000000E+00 -0.17993647988E+03  0.17993647988E+03  0.00000000000E+00 0. -1.
         25    2    1    2    0    0 -0.36406524694E+02 -0.91908181555E+02 -0.89429574878E+02  0.18280911850E+03  0.12509586751E+03 0.  0.
          5    1    3    3  502    0 -0.19404945431E+02  0.88477619614E+00 -0.86054489972E+02  0.88318641183E+02  0.41800000000E+01 0. -1.
         -5    1    3    3    0  502 -0.17001579263E+02 -0.92792957751E+02 -0.33750849061E+01  0.94490477318E+02  0.41800000000E+01 0. -1.
        -11    1    1    2    0    0  0.44138347600E+02  0.37719281170E+01  0.26663658445E+02  0.51704659869E+02  0.00000000000E+00 0.  1.
         11    1    1    2    0    0 -0.77318229053E+01  0.88136253438E+02  0.31232301439E+02  0.93825566392E+02  0.00000000000E+00 0. -1.
</event>
<event>
 7    1  0.2878477E-009  0.3540490E+03  0.7561462E-02  0.1060965E+00
          1   -1    0    0  501    0  0.00000000000E+00  0.00000000000E+00  0.44349798251E+03  0.44349798251E+03  0.00000000000E+00 0. -1.
         -1   -1    0    0    0  501 -0.00000000000E+00 -0.00000000000E+00 -0.30946983781E+03  0.30946983781E+03  0.00000000000E+00 0.  1.
         25    2    1    2    0    0 -0.13548574919E+03  0.32638409679E+03  0.42785948483E+02  0.37730454196E+03  0.12508042663E+03 0.  0.
          5    1    3    3  502    0 -0.10317904430E+03  0.24183576464E+03  0.86342004600E+02  0.27677222838E+03  0.41800000000E+01 0.  1.
         -5    1    3    3    0  502 -0.32306704890E+02  0.84548332146E+02 -0.43556056117E+02  0.10053231358E+03  0.41800000000E+01 0.  1.
        -11    1    1    2    0    0  0.36098707976E+02 -0.12257780336E+03 -0.82475740428E+01  0.12804865119E+03  0.00000000000E+00 0.  1.
         11    1    1    2    0    0  0.99387041216E+02 -0.20380629343E+03  0.99489770258E+02  0.24761462717E+03  0.00000000000E+00 0. -1.
</event>
<event>
 7    1  0.2878477E-009  0.9651097E+02  0.7561462E-02  0.1287809E+00
         -1   -1    0    0    0  501 -0.00000000000E+00  0.00000000000E+00  0.38280928171E+02  0.38280928171E+02  0.00000000000E+00 0.  1.
          1   -1    0    0  501    0  0.00000000000E+00 -0.00000000000E+00 -0.29823918633E+03  0.29823918633E+03  0.00000000000E+00 0. -1.
         25    2    1    2    0    0  0.24487094879E+02 -0.16995001084E+02 -0.11461224907E+03  0.17225446455E+03  0.12508870869E+03 0.  0.
          5    1    3    3  502    0  0.73898241517E+02 -0.14050400099E+01 -0.50021032938E+02  0.89344839655E+02  0.41800000000E+01 0. -1.
         -5    1    3    3    0  502 -0.49411146638E+02 -0.15589961074E+02 -0.64591216132E+02  0.82909624892E+02  0.41800000000E+01 0. -1.
        -11    1    1    2    0    0  0.20120779506E+02  0.69453834561E+01 -0.14752403241E+02  0.25898214623E+02  0.00000000000E+00 0.  1.
         11    1    1    2    0    0 -0.44607874385E+02  0.10049617627E+02 -0.13059360585E+03  0.13836743533E+03  0.00000000000E+00 0. -1.
</event>
<event>
 7    1  0.3145968E-009  0.1960103E+03  0.7561462E-02  0.1153149E+00
         -2   -1    0    0    0  501 -0.00000000000E+00  0.00000000000E+00  0.49561620934E+02  0.49561620934E+02  0.00000000000E+00 0.  1.
          2   -1    0    0  501    0  0.00000000000E+00 -0.00000000000E+00 -0.11419291180E+04  0.11419291180E+04  0.00000000000E+00 0. -1.
         25    2    1    2    0    0  0.18180310604E+03 -0.36245776939E+02 -0.30948197551E+03  0.38182839929E+03  0.12509079754E+03 0.  0.
          5    1    3    3  502    0  0.80642762725E+02 -0.58930082221E+02 -0.73611090293E+02  0.12414537762E+03  0.41800000000E+01 0.  1.
         -5    1    3    3    0  502  0.10116034332E+03  0.22684305282E+02 -0.23587088521E+03  0.25768302167E+03  0.41800000000E+01 0.  1.
        -11    1    1    2    0    0 -0.73297018191E+02  0.31234455845E+02 -0.17684361266E+03  0.19396316002E+03  0.00000000000E+00 0.  1.
         11    1    1    2    0    0 -0.10850608785E+03  0.50113210946E+01 -0.60604190895E+03  0.61569917967E+03  0.00000000000E+00 0. -1.
</event>
<event>
 7    1  0.2878477E-009  0.3668444E+03  0.7561462E-02  0.1055906E+00
          1   -1    0    0  501    0  0.00000000000E+00  0.00000000000E+00  0.88289438387E+03  0.88289438387E+03  0.00000000000E+00 0. -1.
         -1   -1    0    0    0  501 -0.00000000000E+00 -0.00000000000E+00 -0.16905524112E+03  0.16905524112E+03  0.00000000000E+00 0.  1.
         25    2    1    2    0    0  0.13907010162E+03 -0.32579963005E+03  0.46610607110E+03  0.59865551209E+03  0.12509060926E+03 0.  0.
          5    1    3    3  502    0  0.73738198512E+02 -0.17633449439E+03  0.34858084675E+03  0.39756415200E+03  0.41800000000E+01 0.  1.
         -5    1    3    3    0  502  0.65331903109E+02 -0.14946513567E+03  0.11752522435E+03  0.20109136009E+03  0.41800000000E+01 0.  1.
        -11    1    1    2    0    0 -0.13602256978E+03  0.14611880657E+03  0.12180123794E+03  0.23385548248E+03  0.00000000000E+00 0.  1.
         11    1    1    2    0    0 -0.30475318438E+01  0.17968082349E+03  0.12593183371E+03  0.21943863042E+03  0.00000000000E+00 0. -1.
</event>
<event>
 7    1  0.2878477E-009  0.1382349E+03  0.7561462E-02  0.1215724E+00
         -2   -1    0    0    0  501 -0.00000000000E+00  0.00000000000E+00  0.13762646703E+02  0.13762646703E+02  0.00000000000E+00 0.  1.
          2   -1    0    0  501    0  0.00000000000E+00 -0.00000000000E+00 -0.21157585577E+04  0.21157585577E+04  0.00000000000E+00 0. -1.
         25    2    1    2    0    0 -0.46482587645E+02 -0.95412918487E+02 -0.16004631505E+04  0.16088485050E+04  0.12508780862E+03 0.  0.
          5    1    3    3  502    0 -0.10646948886E+02 -0.99619565715E+02 -0.64977252812E+03  0.65746423940E+03  0.41800000000E+01 0.  1.
         -5    1    3    3    0  502 -0.35835638759E+02  0.42066472287E+01 -0.95069062240E+03  0.95138426558E+03  0.41800000000E+01 0.  1.
        -11    1    1    2    0    0  0.60763220849E+02  0.10594175258E+03 -0.43883793008E+03  0.45551569987E+03  0.00000000000E+00 0. -1.
         11    1    1    2    0    0 -0.14280633204E+02 -0.10528834089E+02 -0.62694830445E+02  0.65156999598E+02  0.00000000000E+00 0.  1.
</event>
<event>
 7    1  0.2878477E-009  0.1157816E+03  0.7561462E-02  0.1250223E+00
          1   -1    0    0  501    0  0.00000000000E+00  0.00000000000E+00  0.55433457557E+03  0.55433457557E+03  0.00000000000E+00 0. -1.
         -1   -1    0    0    0  501 -0.00000000000E+00 -0.00000000000E+00 -0.26685206092E+02  0.26685206092E+02  0.00000000000E+00 0.  1.
         25    2    1    2    0    0 -0.51049895561E+02  0.26546130452E+02  0.30704855457E+03  0.33650812816E+03  0.12509243214E+03 0.  0.
          5    1    3    3  502    0 -0.30030722646E+02 -0.45120562779E+02  0.18979011053E+03  0.19742205536E+03  0.41800000000E+01 0.  1.
         -5    1    3    3    0  502 -0.21019172915E+02  0.71666693231E+02  0.11725844404E+03  0.13908607280E+03  0.41800000000E+01 0.  1.
        -11    1    1    2    0    0 -0.14790408035E+02  0.17705174440E+02  0.28442959118E+02  0.36622824784E+02  0.00000000000E+00 0.  1.
         11    1    1    2    0    0  0.65840303596E+02 -0.44251304891E+02  0.19215785580E+03  0.20788882872E+03  0.00000000000E+00 0. -1.
</event>
<event>
 7    1  0.2878477E-009  0.7111128E+02  0.7561462E-02  0.1356354E+00
         -1   -1    0    0    0  501 -0.00000000000E+00  0.00000000000E+00  0.33678534058E+03  0.33678534058E+03  0.00000000000E+00 0.  1.
          1   -1    0    0  501    0  0.00000000000E+00 -0.00000000000E+00 -0.39184430969E+02  0.39184430969E+02  0.00000000000E+00 0. -1.
         25    2    1    2    0    0  0.37088906324E+02  0.49692879981E+01  0.15752527947E+03  0.20460313239E+03  0.12509175559E+03 0.  0.
          5    1    3    3  502    0  0.32946560372E+02  0.25206668548E+02  0.17332096543E+03  0.17826519974E+03  0.41800000000E+01 0. -1.
         -5    1    3    3    0  502  0.41423459514E+01 -0.20237380550E+02 -0.15795685960E+02  0.26337932653E+02  0.41800000000E+01 0. -1.
        -11    1    1    2    0    0 -0.56528684995E+02 -0.13666204703E+02  0.13825911189E+03  0.14999279782E+03  0.00000000000E+00 0.  1.
         11    1    1    2    0    0  0.19439778671E+02  0.86969167048E+01  0.18165182527E+01  0.21373841337E+02  0.00000000000E+00 0. -1.
</event>
<event>
 7    1  0.2878477E-009  0.1007076E+03  0.7561462E-02  0.1278815E+00
         -2   -1    0    0    0  501 -0.00000000000E+00  0.00000000000E+00  0.14425982858E+03  0.14425982858E+03  0.00000000000E+00 0.  1.
          2   -1    0    0  501    0  0.00000000000E+00 -0.00000000000E+00 -0.10564583864E+03  0.10564583864E+03  0.00000000000E+00 0. -1.
         25    2    1    2    0    0  0.13172415505E+02 -0.47214961886E+02 -0.10703623954E+02  0.13477557614E+03  0.12508846151E+03 0.  0.
          5    1    3    3  502    0 -0.39897109192E+02 -0.37252694726E+02 -0.44833362490E+02  0.70760478930E+02  0.41800000000E+01 0. -1.
         -5    1    3    3    0  502  0.53069524698E+02 -0.99622671598E+01  0.34129738536E+02  0.64015097213E+02  0.41800000000E+01 0. -1.
        -11    1    1    2    0    0 -0.71671710813E+01 -0.21948231807E+02  0.38466377955E+02  0.44863743198E+02  0.00000000000E+00 0.  1.
         11    1    1    2    0    0 -0.60052444241E+01  0.69163193693E+02  0.10851235939E+02  0.70266347876E+02  0.00000000000E+00 0. -1.
</event>
<event>
 7    1  0.2878477E-009  0.1146444E+03  0.7561462E-02  0.1252203E+00
          2   -1    0    0  501    0  0.00000000000E+00  0.00000000000E+00  0.13383004358E+04  0.13383004358E+04  0.00000000000E+00 0. -1.
         -2   -1    0    0    0  501 -0.00000000000E+00 -0.00000000000E+00 -0.11372847103E+02  0.11372847103E+02  0.00000000000E+00 0.  1.
         25    2    1    2    0    0 -0.41373021813E+02 -0.37334841177E+02  0.85491199568E+03  0.86581014972E+03  0.12508827960E+03 0.  0.
          5    1    3    3  502    0 -0.76225144441E+02 -0.56147310130E+01  0.69039933092E+03  0.69462976209E+03  0.41800000000E+01 0.  1.
         -5    1    3    3    0  502  0.34852122628E+02 -0.31720110164E+02  0.16451266476E+03  0.17118038762E+03  0.41800000000E+01 0.  1.
        -11    1    1    2    0    0 -0.25586707265E+02  0.27824381804E+02  0.13892491370E+03  0.14397571829E+03  0.00000000000E+00 0.  1.
         11    1    1    2    0    0  0.66959729078E+02  0.95104593735E+01  0.33309067927E+03  0.33988741484E+03  0.00000000000E+00 0. -1.
</event>
<event>
 7    1  0.2878477E-009  0.2213900E+03  0.7561462E-02  0.1132851E+00
         -1   -1    0    0    0  501 -0.00000000000E+00  0.00000000000E+00  0.71926205507E+03  0.71926205507E+03  0.00000000000E+00 0.  1.
          1   -1    0    0  501    0  0.00000000000E+00 -0.00000000000E+00 -0.82702770904E+02  0.82702770904E+02  0.00000000000E+00 0. -1.
         25    2    1    2    0    0  0.10515059107E+03 -0.16484838800E+03  0.16682020559E+03  0.28584369141E+03  0.12508396021E+03 0.  0.
          5    1    3    3  502    0 -0.27471192435E+02 -0.47217065969E+02  0.40298409027E+02  0.68011410091E+02  0.41800000000E+01 0.  1.
         -5    1    3    3    0  502  0.13262178350E+03 -0.11763132203E+03  0.12652179656E+03  0.21783228132E+03  0.41800000000E+01 0.  1.
        -11    1    1    2    0    0 -0.75084607141E+02  0.45947366406E+02  0.24106956016E+03  0.25663864000E+03  0.00000000000E+00 0.  1.
         11    1    1    2    0    0 -0.30065983929E+02  0.11890102159E+03  0.22866951842E+03  0.25948249455E+03  0.00000000000E+00 0. -1.
</event>
<event>
 7    1  0.2878477E-009  0.2191658E+03  0.7561462E-02  0.1134507E+00
          1   -1    0    0  501    0  0.00000000000E+00  0.00000000000E+00  0.37403733327E+03  0.37403733327E+03  0.00000000000E+00 0. -1.
         -1   -1    0    0    0  501 -0.00000000000E+00 -0.00000000000E+00 -0.23350409717E+03  0.23350409717E+03  0.00000000000E+00 0.  1.
         25    2    1    2    0    0  0.16942628216E+03 -0.12894520660E+03  0.24994839934E+03  0.35135939312E+03  0.12508832643E+03 0.  0.
          5    1    3    3  502    0  0.32965445002E+02 -0.66417883362E+02  0.15980206007E+03  0.17621641977E+03  0.41800000000E+01 0.  1.
         -5    1    3    3    0  502  0.13646083716E+03 -0.62527323241E+02  0.90146339271E+02  0.17514297335E+03  0.41800000000E+01 0.  1.
        -11    1    1    2    0    0 -0.76405313679E+02  0.71057093939E+02 -0.44219858237E+01  0.10443388586E+03  0.00000000000E+00 0. -1.
         11    1    1    2    0    0 -0.93020968479E+02  0.57888112664E+02 -0.10499317742E+03  0.15174815146E+03  0.00000000000E+00 0.  1.
</event>
<event>
 7    1  0.2878477E-009  0.9716896E+02  0.7561462E-02  0.1286364E+00
         -2   -1    0    0    0  501 -0.00000000000E+00  0.00000000000E+00  0.46096727496E+03  0.46096727496E+03  0.00000000000E+00 0.  1.
          2   -1    0    0  501    0  0.00000000000E+00 -0.00000000000E+00 -0.42938024193E+02  0.42938024193E+02  0.00000000000E+00 0. -1.
         25    2    1    2    0    0  0.79659544789E+02 -0.29462102096E+02  0.29258340429E+03  0.32933976353E+03  0.12508386324E+03 0.  0.
          5    1    3    3  502    0  0.49503865673E+02 -0.51393901043E+02  0.58779903702E+02  0.92544666298E+02  0.41800000000E+01 0.  1.
         -5    1    3    3    0  502  0.30155679117E+02  0.21931798947E+02  0.23380350059E+03  0.23679509724E+03  0.41800000000E+01 0.  1.
        -11    1    1    2    0    0 -0.41200077994E+02  0.10821203806E+02  0.12474861662E+03  0.13182094760E+03  0.00000000000E+00 0.  1.
         11    1    1    2    0    0 -0.38459466796E+02  0.18640898290E+02  0.69722985804E+00  0.42744588017E+02  0.00000000000E+00 0. -1.
</event>
<event>
 7    1  0.2878477E-009  0.3405634E+03  0.7561462E-02  0.1066556E+00
          2   -1    0    0  501    0  0.00000000000E+00  0.00000000000E+00  0.95955257817E+03  0.95955257817E+03  0.00000000000E+00 0. -1.
         -2   -1    0    0    0  501 -0.00000000000E+00 -0.00000000000E+00 -0.14249134418E+03  0.14249134418E+03  0.00000000000E+00 0.  1.
         25    2    1    2    0    0  0.32890476055E+03 -0.11582150647E+02  0.22267761501E+03  0.41658742410E+03  0.12508906412E+03 0.  0.
          5    1    3    3  502    0  0.41084179630E+02 -0.38220646705E+02  0.69527163720E+02  0.89443985518E+02  0.41800000000E+01 0.  1.
         -5    1    3    3    0  502  0.28782058092E+03  0.26638496058E+02  0.15315045129E+03  0.32714343858E+03  0.41800000000E+01 0.  1.
        -11    1    1    2    0    0 -0.16689934004E+03  0.39182944554E+02  0.24129637347E+03  0.29599769036E+03  0.00000000000E+00 0.  1.
         11    1    1    2    0    0 -0.16200542051E+03 -0.27600793907E+02  0.35308724551E+03  0.38945880789E+03  0.00000000000E+00 0. -1.
</event>
<event>
 7    1  0.2878477E-009  0.2305289E+03  0.7561462E-02  0.1126268E+00
          1   -1    0    0  501    0  0.00000000000E+00  0.00000000000E+00  0.11544514785E+04  0.11544514785E+04  0.00000000000E+00 0. -1.
         -1   -1    0    0    0  501 -0.00000000000E+00 -0.00000000000E+00 -0.52108057634E+02  0.52108057634E+02  0.00000000000E+00 0.  1.
         25    2    1    2    0    0  0.14233878956E+03 -0.16674697120E+03  0.52807661699E+03  0.58530033147E+03  0.12508669470E+03 0.  0.
          5    1    3    3  502    0  0.99367848021E+02 -0.63224650571E+02  0.14897353950E+03  0.18995239807E+03  0.41800000000E+01 0. -1.
         -5    1    3    3    0  502  0.42970941541E+02 -0.10352232063E+03  0.37910307749E+03  0.39534793340E+03  0.41800000000E+01 0. -1.
        -11    1    1    2    0    0 -0.22835192622E+01  0.46191306325E+02  0.67266039137E+02  0.81630700483E+02  0.00000000000E+00 0.  1.
         11    1    1    2    0    0 -0.14005527030E+03  0.12055566488E+03  0.50700076470E+03  0.53962850414E+03  0.00000000000E+00 0. -1.
</event>
<event>
 7    1  0.2878477E-009  0.1194413E+03  0.7561462E-02  0.1244022E+00
         -1   -1    0    0    0  501 -0.00000000000E+00  0.00000000000E+00  0.11028685100E+03  0.11028685100E+03  0.00000000000E+00 0.  1.
          1   -1    0    0  501    0  0.00000000000E+00 -0.00000000000E+00 -0.14724373768E+03  0.14724373768E+03  0.00000000000E+00 0. -1.
         25    2    1    2    0    0 -0.58315924578E+02 -0.18847608720E+02 -0.11011620548E+02  0.13972794033E+03  0.12508661842E+03 0.  0.
          5    1    3    3  502    0  0.20567383600E+02 -0.47297379722E+02 -0.19591973698E+02  0.55329713808E+02  0.41800000000E+01 0.  1.
         -5    1    3    3    0  502 -0.78883308178E+02  0.28449771002E+02  0.85803531499E+01  0.84398226518E+02  0.41800000000E+01 0.  1.
        -11    1    1    2    0    0  0.53274141078E+02 -0.25135219545E+02  0.11261927206E+02  0.59972863643E+02  0.00000000000E+00 0. -1.
         11    1    1    2    0    0  0.50417834998E+01  0.43982828265E+02 -0.37207193341E+02  0.57829784707E+02  0.00000000000E+00 0.  1.
</event>
<event>
 7    1  0.2878477E-009  0.2136159E+03  0.7561462E-02  0.1138734E+00
         -2   -1    0    0    0  501 -0.00000000000E+00  0.00000000000E+00  0.64308078963E+02  0.64308078963E+02  0.00000000000E+00 0.  1.
          2   -1    0    0  501    0  0.00000000000E+00 -0.00000000000E+00 -0.90661972397E+03  0.90661972397E+03  0.00000000000E+00 0. -1.
         25    2    1    2    0    0 -0.16129025248E+02  0.17974616133E+03 -0.20574171309E+03  0.30090634207E+03  0.12508455630E+03 0.  0.
          5    1    3    3  502    0  0.54827352004E+02  0.77179487682E+02 -0.86485579393E+02  0.12829629648E+03  0.41800000000E+01 0.  1.
         -5    1    3    3    0  502 -0.70956377252E+02  0.10256667365E+03 -0.11925613370E+03  0.17261004560E+03  0.41800000000E+01 0.  1.
        -11    1    1    2    0    0 -0.33665006887E+02 -0.13993292322E+03 -0.40399003944E+03  0.42886187480E+03  0.00000000000E+00 0. -1.
         11    1    1    2    0    0  0.49794032135E+02 -0.39813238112E+02 -0.23257989248E+03  0.24115958606E+03  0.00000000000E+00 0.  1.
</event>
<event>
 7    1  0.2878477E-009  0.9391491E+02  0.7561462E-02  0.1293639E+00
          2   -1    0    0  501    0  0.00000000000E+00  0.00000000000E+00  0.18946232702E+03  0.18946232702E+03  0.00000000000E+00 0. -1.
         -2   -1    0    0    0  501 -0.00000000000E+00 -0.00000000000E+00 -0.73928723214E+02  0.73928723214E+02  0.00000000000E+00 0.  1.
         25    2    1    2    0    0  0.46336479823E+02 -0.13057415031E+02  0.49486766235E+02  0.14287445877E+03  0.12508639209E+03 0.  0.
          5    1    3    3  502    0  0.16002565840E+02  0.32204018267E+02 -0.29587161876E+02  0.46755250549E+02  0.41800000000E+01 0. -1.
         -5    1    3    3    0  502  0.30333913983E+02 -0.45261433298E+02  0.79073928111E+02  0.96119208219E+02  0.41800000000E+01 0. -1.
        -11    1    1    2    0    0 -0.45421720792E+02 -0.29663469097E+02  0.20316852859E+02  0.57929514314E+02  0.00000000000E+00 0.  1.
         11    1    1    2    0    0 -0.91475903043E+00  0.42720884127E+02  0.45729984717E+02  0.62587077156E+02  0.00000000000E+00 0. -1.
</event>
<event>
 7    1  0.2878477E-009  0.8357746E+02  0.7561462E-02  0.1319195E+00
         -3   -1    0    0    0  501 -0.00000000000E+00  0.00000000000E+00  0.86694436131E+02  0.86694436131E+02  0.00000000000E+00 0.  1.
          3   -1    0    0  501    0  0.00000000000E+00 -0.00000000000E+00 -0.13031215123E+03  0.13031215123E+03  0.00000000000E+00 0. -1.
         25    2    1    2    0    0  0.12862937940E+02  0.35693873366E+02  0.51285803160E+01  0.13081899499E+03  0.12509116413E+03 0.  0.
          5    1    3    3  502    0  0.44026923405E+02  0.51763334914E+02  0.41815817900E+02  0.79898985303E+02  0.41800000000E+01 0.  1.
         -5    1    3    3    0  502 -0.31163985465E+02 -0.16069461547E+02 -0.36687237584E+02  0.50920009682E+02  0.41800000000E+01 0.  1.
        -11    1    1    2    0    0  0.89605044890E+01 -0.40445233718E+02 -0.11901091627E+02  0.43101549313E+02  0.00000000000E+00 0.  1.
         11    1    1    2    0    0 -0.21823442429E+02  0.47513603518E+01 -0.36845203790E+02  0.43086043065E+02  0.00000000000E+00 0. -1.
</event>
<event>
 7    1  0.2878477E-009  0.1448687E+03  0.7561462E-02  0.1206924E+00
          1   -1    0    0  501    0  0.00000000000E+00  0.00000000000E+00  0.18280425856E+04  0.18280425856E+04  0.00000000000E+00 0. -1.
         -1   -1    0    0    0  501 -0.00000000000E+00 -0.00000000000E+00 -0.19574252246E+02  0.19574252246E+02  0.00000000000E+00 0.  1.
         25    2    1    2    0    0 -0.10504198581E+03 -0.27772008257E+02  0.14894743169E+04  0.14986623270E+04  0.12509966692E+03 0.  0.
          5    1    3    3  502    0 -0.49372432694E+02 -0.76626909999E+02  0.77961753453E+03  0.78493967474E+03  0.41800000000E+01 0.  1.
         -5    1    3    3    0  502 -0.55669553115E+02  0.48854901742E+02  0.70985678233E+03  0.71372265228E+03  0.41800000000E+01 0.  1.
        -11    1    1    2    0    0  0.38562373328E+02 -0.19027459156E+02  0.41367593588E+02  0.59668908469E+02  0.00000000000E+00 0.  1.
         11    1    1    2    0    0  0.66479612482E+02  0.46799467413E+02  0.27762642286E+03  0.28928560230E+03  0.00000000000E+00 0. -1.
</event>
<event>
 7    1  0.2878477E-009  0.1123960E+03  0.7561462E-02  0.1256196E+00
          1   -1    0    0  501    0  0.00000000000E+00  0.00000000000E+00  0.30857784956E+02  0.30857784956E+02  0.00000000000E+00 0. -1.
         -1   -1    0    0    0  501 -0.00000000000E+00 -0.00000000000E+00 -0.43350368985E+03  0.43350368985E+03  0.00000000000E+00 0.  1.
         25    2    1    2    0    0  0.55411259755E+01 -0.39621982848E+02 -0.21479096330E+03  0.25175875716E+03  0.12508680302E+03 0.  0.
          5    1    3    3  502    0  0.64849152356E+02 -0.24977784035E+02 -0.10351857894E+03  0.12475123584E+03  0.41800000000E+01 0.  1.
         -5    1    3    3    0  502 -0.59308026380E+02 -0.14644198813E+02 -0.11127238436E+03  0.12700752132E+03  0.41800000000E+01 0.  1.
        -11    1    1    2    0    0  0.33407405398E+02  0.43446124578E+02 -0.14262107681E+03  0.15278871695E+03  0.00000000000E+00 0. -1.
         11    1    1    2    0    0 -0.38948531374E+02 -0.38241417303E+01 -0.45233864784E+02  0.59814000697E+02  0.00000000000E+00 0.  1.
</event>
<event>
 7    1  0.2878477E-009  0.1279923E+03  0.7561462E-02  0.1230466E+00
         -2   -1    0    0    0  501 -0.00000000000E+00  0.00000000000E+00  0.81349262317E+02  0.81349262317E+02  0.00000000000E+00 0.  1.
          2   -1    0    0  501    0  0.00000000000E+00 -0.00000000000E+00 -0.26015956979E+03  0.26015956979E+03  0.00000000000E+00 0. -1.
         25    2    1    2    0    0 -0.82130459736E+02 -0.29295016084E+02 -0.50989874854E+02  0.16078356643E+03  0.12509107688E+03 0.  0.
          5    1    3    3  502    0  0.28799384900E+02  0.11673912704E+02  0.13787114291E+01  0.31385634510E+02  0.41800000000E+01 0.  1.
         -5    1    3    3    0  502 -0.11092984464E+03 -0.40968928787E+02 -0.52368586283E+02  0.12939793192E+03  0.41800000000E+01 0.  1.
        -11    1    1    2    0    0  0.73223156993E+02  0.46631655846E+02 -0.13453349980E+03  0.16011060120E+03  0.00000000000E+00 0. -1.
         11    1    1    2    0    0  0.89073027435E+01 -0.17336639762E+02  0.67130671836E+01  0.20614664475E+02  0.00000000000E+00 0.  1.
</event>
<event>
 7    1  0.2878477E-009  0.1713801E+03  0.7561462E-02  0.1176416E+00
          2   -1    0    0  501    0  0.00000000000E+00  0.00000000000E+00  0.10151445878E+04  0.10151445878E+04  0.00000000000E+00 0. -1.
         -2   -1    0    0    0  501 -0.00000000000E+00 -0.00000000000E+00 -0.32254406752E+02  0.32254406752E+02  0.00000000000E+00 0.  1.
         25    2    1    2    0    0 -0.67870815207E+02 -0.64411677830E+02  0.31368338950E+03  0.35042762491E+03  0.12508772783E+03 0.  0.
          5    1    3    3  502    0  0.32773876866E+02 -0.21729595978E+02  0.13720870862E+03  0.14279357292E+03  0.41800000000E+01 0.  1.
         -5    1    3    3    0  502 -0.10064469207E+03 -0.42682081852E+02  0.17647468089E+03  0.20763405199E+03  0.41800000000E+01 0.  1.
        -11    1    1    2    0    0  0.11708259092E+03  0.57210292291E+01  0.43760321092E+03  0.45303160317E+03  0.00000000000E+00 0.  1.
         11    1    1    2    0    0 -0.49211775710E+02  0.58690648601E+02  0.23160358059E+03  0.24393976643E+03  0.00000000000E+00 0. -1.
</event>
<event>
 7    1  0.2878477E-009  0.1404195E+03  0.7561462E-02  0.1212766E+00
          2   -1    0    0  501    0  0.00000000000E+00  0.00000000000E+00  0.78413925938E+03  0.78413925938E+03  0.00000000000E+00 0. -1.
         -2   -1    0    0    0  501 -0.00000000000E+00 -0.00000000000E+00 -0.38512588764E+02  0.38512588764E+02  0.00000000000E+00 0.  1.
         25    2    1    2    0    0 -0.91741795324E+02 -0.18951400960E+02  0.61960928529E+03  0.63901382129E+03  0.12508910733E+03 0.  0.
          5    1    3    3  502    0 -0.85359080106E+02  0.41166711011E+02  0.34549735855E+03  0.35828308335E+03  0.41800000000E+01 0. -1.
         -5    1    3    3    0  502 -0.63827152186E+01 -0.60118111971E+02  0.27411192674E+03  0.28073073793E+03  0.41800000000E+01 0. -1.
        -11    1    1    2    0    0  0.94091044352E+02  0.41408226662E+02  0.73204607173E+02  0.12620095235E+03  0.00000000000E+00 0.  1.
         11    1    1    2    0    0 -0.23492490275E+01 -0.22456825702E+02  0.52812778156E+02  0.57437074509E+02  0.00000000000E+00 0. -1.
</event>
<event>
 7    1  0.2878477E-009  0.1142410E+03  0.7561462E-02  0.1252912E+00
          1   -1    0    0  501    0  0.00000000000E+00  0.00000000000E+00  0.40082402267E+03  0.40082402267E+03  0.00000000000E+00 0. -1.
         -1   -1    0    0    0  501 -0.00000000000E+00 -0.00000000000E+00 -0.42313809354E+02  0.42313809354E+02  0.00000000000E+00 0.  1.
         25    2    1    2    0    0 -0.36001859363E+02  0.50022287958E+02  0.27047997378E+03  0.30431070706E+03  0.12508887659E+03 0.  0.
          5    1    3    3  502    0 -0.58709115869E+02  0.80309644048E+02  0.17226172209E+03  0.19896726492E+03  0.41800000000E+01 0.  1.
         -5    1    3    3    0  502  0.22707256506E+02 -0.30287356091E+02  0.98218251693E+02  0.10534344214E+03  0.41800000000E+01 0.  1.
        -11    1    1    2    0    0 -0.19371702254E+02 -0.66152496212E+01 -0.60517963902E+01  0.21345927371E+02  0.00000000000E+00 0.  1.
         11    1    1    2    0    0  0.55373561618E+02 -0.43407038337E+02  0.94082035932E+02  0.11748119760E+03  0.00000000000E+00 0. -1.
</event>
<event>
 7    1  0.2878477E-009  0.1217828E+03  0.7561462E-02  0.1240185E+00
          2   -1    0    0  501    0  0.00000000000E+00  0.00000000000E+00  0.73151400857E+03  0.73151400857E+03  0.00000000000E+00 0. -1.
         -2   -1    0    0    0  501 -0.00000000000E+00 -0.00000000000E+00 -0.55995796292E+02  0.55995796292E+02  0.00000000000E+00 0.  1.
         25    2    1    2    0    0  0.63546279858E+02 -0.19325511901E+02  0.48395373254E+02  0.14966791743E+03  0.12508704274E+03 0.  0.
          5    1    3    3  502    0 -0.26178174147E+02  0.15654677905E+02 -0.15050485880E+02  0.34268867318E+02  0.41800000000E+01 0. -1.
         -5    1    3    3    0  502  0.89724454005E+02 -0.34980189806E+02  0.63445859134E+02  0.11539905011E+03  0.41800000000E+01 0. -1.
        -11    1    1    2    0    0  0.13657043406E+02  0.35033059155E+02  0.19329373971E+03  0.19691698728E+03  0.00000000000E+00 0. -1.
         11    1    1    2    0    0 -0.77203323264E+02 -0.15707547254E+02  0.43382909931E+03  0.44092490015E+03  0.00000000000E+00 0.  1.
</event>
<event>
 7    1  0.2878477E-009  0.9604462E+02  0.7561462E-02  0.1288841E+00
          1   -1    0    0  501    0  0.00000000000E+00  0.00000000000E+00  0.41768342572E+03  0.41768342572E+03  0.00000000000E+00 0. -1.
         -1   -1    0    0    0  501 -0.00000000000E+00 -0.00000000000E+00 -0.46468193558E+02  0.46468193558E+02  0.00000000000E+00 0.  1.
         25    2    1    2    0    0  0.20228749905E+02 -0.16498244944E+01  0.34554410678E+03  0.36804885222E+03  0.12508918276E+03 0.  0.
          5    1    3    3  502    0  0.62485468165E+02  0.24986094247E+01  0.29646490722E+03  0.30301747539E+03  0.41800000000E+01 0.  1.
         -5    1    3    3    0  502 -0.42256718260E+02 -0.41484339191E+01  0.49079199564E+02  0.65031376827E+02  0.41800000000E+01 0.  1.
        -11    1    1    2    0    0 -0.11136295391E+02  0.42996131625E+02 -0.37133821770E+01  0.44569873423E+02  0.00000000000E+00 0.  1.
         11    1    1    2    0    0 -0.90924545131E+01 -0.41346307131E+02  0.29384507561E+02  0.51532893641E+02  0.00000000000E+00 0. -1.
</event>
<event>
 7    1  0.2878477E-009  0.9632816E+02  0.7561462E-02  0.1288212E+00
         -2   -1    0    0    0  501 -0.00000000000E+00  0.00000000000E+00  0.16726692270E+03  0.16726692270E+03  0.00000000000E+00 0. -1.
          2   -1    0    0  501    0  0.00000000000E+00 -0.00000000000E+00 -0.11319165055E+03  0.11319165055E+03  0.00000000000E+00 0.  1.
         25    2    1    2    0    0 -0.37664962350E+02  0.70654791774E+02  0.17097528319E+01  0.14853277530E+03  0.12509321762E+03 0.  0.
          5    1    3    3  502    0 -0.64741247049E+01  0.75015364059E+02  0.50178832982E+02  0.90579284691E+02  0.41800000000E+01 0. -1.
         -5    1    3    3    0  502 -0.31190837645E+02 -0.43605722848E+01 -0.48469080150E+02  0.57953490613E+02  0.41800000000E+01 0. -1.
        -11    1    1    2    0    0  0.36168446224E+02 -0.36836591590E+02  0.75111893131E+02  0.91142127866E+02  0.00000000000E+00 0. -1.
         11    1    1    2    0    0  0.14965161259E+01 -0.33818200184E+02 -0.22746373812E+02  0.40783670088E+02  0.00000000000E+00 0.  1.
</event>
<event>
 7    1  0.2878477E-009  0.9065148E+02  0.7561462E-02  0.1301282E+00
          2   -1    0    0  501    0  0.00000000000E+00  0.00000000000E+00  0.44126067706E+02  0.44126067706E+02  0.00000000000E+00 0. -1.
         -2   -1    0    0    0  501 -0.00000000000E+00 -0.00000000000E+00 -0.36817057640E+03  0.36817057640E+03  0.00000000000E+00 0.  1.
         25    2    1    2    0    0  0.19833125407E+02  0.47746151689E+01 -0.76712442160E+02  0.14819357386E+03  0.12514146690E+03 0.  0.
          5    1    3    3  502    0  0.54581894548E+02  0.36005249195E+02 -0.94631709858E+01  0.66201096571E+02  0.41800000000E+01 0. -1.
         -5    1    3    3    0  502 -0.34748769142E+02 -0.31230634026E+02 -0.67249271174E+02  0.81992477289E+02  0.41800000000E+01 0. -1.
        -11    1    1    2    0    0 -0.38027912438E+02  0.16001502429E+02 -0.22453049718E+03  0.22828954064E+03  0.00000000000E+00 0.  1.
         11    1    1    2    0    0  0.18194787031E+02 -0.20776117598E+02 -0.22801569355E+02  0.35813529603E+02  0.00000000000E+00 0. -1.
</event>
<event>
 7    1  0.2878477E-009  0.1320911E+03  0.7561462E-02  0.1224386E+00
          2   -1    0    0  501    0  0.00000000000E+00  0.00000000000E+00  0.54529199604E+03  0.54529199604E+03  0.00000000000E+00 0. -1.
         -2   -1    0    0    0  501 -0.00000000000E+00 -0.00000000000E+00 -0.43392914729E+02  0.43392914729E+02  0.00000000000E+00 0.  1.
         25    2    1    2    0    0  0.36299523687E+02  0.82762109470E+02  0.38290147153E+03  0.41283023306E+03  0.12509213501E+03 0.  0.
          5    1    3    3  502    0 -0.76197400098E+01 -0.20677233397E+02  0.17528697970E+03  0.17671617376E+03  0.41800000000E+01 0.  1.
         -5    1    3    3    0  502  0.43919263697E+02  0.10343934287E+03  0.20761449184E+03  0.23611405930E+03  0.41800000000E+01 0.  1.
        -11    1    1    2    0    0 -0.51892471541E+02 -0.74929707678E+01  0.43738708864E+02  0.68279190583E+02  0.00000000000E+00 0.  1.
         11    1    1    2    0    0  0.15592947853E+02 -0.75269138703E+02  0.75258900911E+02  0.10757548713E+03  0.00000000000E+00 0. -1.
</event>
<event>
 7    1  0.3916767E-009  0.1036373E+03  0.7561462E-02  0.1272828E+00
         -3   -1    0    0    0  501 -0.00000000000E+00  0.00000000000E+00  0.89119206587E+02  0.89119206587E+02  0.00000000000E+00 0.  1.
          3   -1    0    0  501    0  0.00000000000E+00 -0.00000000000E+00 -0.19262944618E+03  0.19262944618E+03  0.00000000000E+00 0. -1.
         25    2    1    2    0    0  0.62881441591E+02  0.24850563427E+02 -0.26366287438E+02  0.14462776574E+03  0.12510149204E+03 0.  0.
          5    1    3    3  502    0  0.97764169063E+02  0.27681903822E+02 -0.36349843065E+02  0.10799492600E+03  0.41800000000E+01 0.  1.
         -5    1    3    3    0  502 -0.34882727472E+02 -0.28313403958E+01  0.99835556270E+01  0.36632839738E+02  0.41800000000E+01 0.  1.
        -11    1    1    2    0    0 -0.43522667432E+02 -0.71547226363E+01 -0.95442025767E+02  0.10514082423E+03  0.00000000000E+00 0. -1.
         11    1    1    2    0    0 -0.19358774159E+02 -0.17695840790E+02  0.18298073617E+02  0.31980062794E+02  0.00000000000E+00 0.  1.
</event>
<event>
 7    1  0.2878477E-009  0.9493111E+02  0.7561462E-02  0.1291331E+00
         -2   -1    0    0    0  501 -0.00000000000E+00  0.00000000000E+00  0.73551262706E+02  0.73551262706E+02  0.00000000000E+00 0.  1.
          2   -1    0    0  501    0  0.00000000000E+00 -0.00000000000E+00 -0.15657067549E+03  0.15657067549E+03  0.00000000000E+00 0. -1.
         25    2    1    2    0    0 -0.71207806378E+00 -0.13855446446E+02 -0.67187618986E+02  0.14266475852E+03  0.12508627713E+03 0.  0.
          5    1    3    3  502    0 -0.53991888721E+02  0.23871760558E+02 -0.21915489999E+02  0.63109001749E+02  0.41800000000E+01 0.  1.
         -5    1    3    3    0  502  0.53279810657E+02 -0.37727207005E+02 -0.45272128986E+02  0.79555756768E+02  0.41800000000E+01 0.  1.
        -11    1    1    2    0    0  0.22095014150E+02 -0.16890744243E+02 -0.35547053961E+02  0.45134021942E+02  0.00000000000E+00 0. -1.
         11    1    1    2    0    0 -0.21382936086E+02  0.30746190689E+02  0.19715260163E+02  0.42323157737E+02  0.00000000000E+00 0.  1.
</event>
<event>
 7    1  0.2878477E-009  0.1040838E+03  0.7561462E-02  0.1271935E+00
          2   -1    0    0  501    0  0.00000000000E+00  0.00000000000E+00  0.11081452859E+04  0.11081452859E+04  0.00000000000E+00 0. -1.
         -2   -1    0    0    0  501 -0.00000000000E+00 -0.00000000000E+00 -0.29190132119E+02  0.29190132119E+02  0.00000000000E+00 0.  1.
         25    2    1    2    0    0  0.14641976027E+01  0.83489258878E+02  0.93522346706E+03  0.94723901876E+03  0.12508487158E+03 0.  0.
          5    1    3    3  502    0 -0.14219014153E+02  0.52259077213E+02  0.88050209937E+03  0.88217606571E+03  0.41800000000E+01 0.  1.
         -5    1    3    3    0  502  0.15683211755E+02  0.31230181665E+02  0.54721367686E+02  0.65062953047E+02  0.41800000000E+01 0.  1.
        -11    1    1    2    0    0 -0.39271767168E+02 -0.66437813713E+02  0.11891463976E+03  0.14176369893E+03  0.00000000000E+00 0. -1.
         11    1    1    2    0    0  0.37807569565E+02 -0.17051445165E+02  0.24817046926E+02  0.48332700284E+02  0.00000000000E+00 0.  1.
</event>
<event>
 7    1  0.2878477E-009  0.1034753E+03  0.7561462E-02  0.1273153E+00
         -4   -1    0    0    0  501 -0.00000000000E+00  0.00000000000E+00  0.19167987074E+03  0.19167987074E+03  0.00000000000E+00 0.  1.
          4   -1    0    0  501    0  0.00000000000E+00 -0.00000000000E+00 -0.97813295643E+02  0.97813295643E+02  0.00000000000E+00 0. -1.
         25    2    1    2    0    0  0.67291993892E+02  0.28767209457E+02  0.72323621294E+00  0.14492516667E+03  0.12508803333E+03 0.  0.
          5    1    3    3  502    0  0.62512477991E+02  0.66392426397E+02 -0.29836555953E+02  0.96038828911E+02  0.41800000000E+01 0.  1.
         -5    1    3    3    0  502  0.47795159017E+01 -0.37625216940E+02  0.30559792166E+02  0.48886337757E+02  0.41800000000E+01 0.  1.
        -11    1    1    2    0    0 -0.43317981206E+02 -0.47597021793E+01 -0.19308091972E+01  0.43621442947E+02  0.00000000000E+00 0. -1.
         11    1    1    2    0    0 -0.23974012686E+02 -0.24007507278E+02  0.95074148086E+02  0.10094655677E+03  0.00000000000E+00 0.  1.
</event>
<event>
 7    1  0.2878477E-009  0.9166953E+02  0.7561462E-02  0.1298858E+00
         -1   -1    0    0    0  501 -0.00000000000E+00  0.00000000000E+00  0.23690149142E+02  0.23690149142E+02  0.00000000000E+00 0.  1.
          1   -1    0    0  501    0  0.00000000000E+00 -0.00000000000E+00 -0.73686344819E+03  0.73686344819E+03  0.00000000000E+00 0. -1.
         25    2    1    2    0    0 -0.34577589645E+02 -0.40733112764E+02 -0.54509162875E+03  0.56180724999E+03  0.12509079193E+03 0.  0.
          5    1    3    3  502    0 -0.28622490551E+02  0.71833946887E+01 -0.23463062130E+02  0.37931989258E+02  0.41800000000E+01 0. -1.
         -5    1    3    3    0  502 -0.59550990942E+01 -0.47916507452E+02 -0.52162856662E+03  0.52387526073E+03  0.41800000000E+01 0. -1.
        -11    1    1    2    0    0  0.90377994084E+00 -0.28271562766E+02 -0.33918120069E+02  0.44164883657E+02  0.00000000000E+00 0. -1.
         11    1    1    2    0    0  0.33673809704E+02  0.69004675530E+02 -0.13416355022E+03  0.15458146368E+03  0.00000000000E+00 0.  1.
</event>
<event>
 7    1  0.2878477E-009  0.1303289E+03  0.7561462E-02  0.1226968E+00
          2   -1    0    0  501    0  0.00000000000E+00  0.00000000000E+00  0.11826975624E+03  0.11826975624E+03  0.00000000000E+00 0. -1.
         -2   -1    0    0    0  501 -0.00000000000E+00 -0.00000000000E+00 -0.16077490781E+03  0.16077490781E+03  0.00000000000E+00 0.  1.
         25    2    1    2    0    0 -0.72299910621E+02 -0.40444566626E+02 -0.44697044667E+02  0.15655162985E+03  0.12509015534E+03 0.  0.
          5    1    3    3  502    0  0.22385579847E+02  0.24203848132E+02 -0.21272270090E+02  0.39457855039E+02  0.41800000000E+01 0. -1.
         -5    1    3    3    0  502 -0.94685490468E+02 -0.64648414758E+02 -0.23424774577E+02  0.11709377481E+03  0.41800000000E+01 0. -1.
        -11    1    1    2    0    0  0.64359418047E+01  0.46141797699E+02  0.24605455606E+02  0.52686955571E+02  0.00000000000E+00 0.  1.
         11    1    1    2    0    0  0.65863968816E+02 -0.56972310732E+01 -0.22413562508E+02  0.69806078635E+02  0.00000000000E+00 0. -1.
</event>
<event>
 7    1  0.2878477E-009  0.8056338E+02  0.7561462E-02  0.1327460E+00
         -1   -1    0    0    0  501 -0.00000000000E+00  0.00000000000E+00  0.35048035012E+02  0.35048035012E+02  0.00000000000E+00 0.  1.
          1   -1    0    0  501    0  0.00000000000E+00 -0.00000000000E+00 -0.45352598088E+03  0.45352598088E+03  0.00000000000E+00 0. -1.
         25    2    1    2    0    0 -0.18376761127E+02  0.40525131009E+02 -0.33017256185E+03  0.35586579846E+03  0.12508618758E+03 0.  0.
          5    1    3    3  502    0 -0.36856324402E+02  0.55382822312E+02 -0.32430429200E+03  0.33108366294E+03  0.41800000000E+01 0.  1.
         -5    1    3    3    0  502  0.18479563275E+02 -0.14857691304E+02 -0.58682698437E+01  0.24782135515E+02  0.41800000000E+01 0.  1.
        -11    1    1    2    0    0  0.19439777406E+01  0.13646116170E+02  0.11510090565E+02  0.17957664681E+02  0.00000000000E+00 0.  1.
         11    1    1    2    0    0  0.16432783386E+02 -0.54171247178E+02 -0.99815474592E+02  0.11475055276E+03  0.00000000000E+00 0. -1.
</event>
<event>
 7    1  0.2878477E-009  0.1159588E+03  0.7561462E-02  0.1249917E+00
         -2   -1    0    0    0  501 -0.00000000000E+00  0.00000000000E+00  0.30818650834E+03  0.30818650834E+03  0.00000000000E+00 0.  1.
          2   -1    0    0  501    0  0.00000000000E+00 -0.00000000000E+00 -0.48531565118E+02  0.48531565118E+02  0.00000000000E+00 0. -1.
         25    2    1    2    0    0 -0.39842695107E+02 -0.30179387316E+02  0.10612546015E+03  0.17149682979E+03  0.12510121328E+03 0.  0.
          5    1    3    3  502    0  0.36840539473E+02 -0.42740949982E+02  0.50525631315E+02  0.75857273703E+02  0.41800000000E+01 0.  1.
         -5    1    3    3    0  502 -0.76683234580E+02  0.12561562666E+02  0.55599828839E+02  0.95639556091E+02  0.41800000000E+01 0.  1.
        -11    1    1    2    0    0  0.65800405637E+02  0.15144143531E+02  0.73760297447E+02  0.99998099706E+02  0.00000000000E+00 0. -1.
         11    1    1    2    0    0 -0.25957710529E+02  0.15035243785E+02  0.79769185624E+02  0.85223143962E+02  0.00000000000E+00 0.  1.
</event>
<event>
 7    1  0.3369804E-009  0.5794892E+02  0.7561462E-02  0.1406646E+00
          2   -1    0    0  501    0  0.00000000000E+00  0.00000000000E+00  0.45828504171E+03  0.45828504171E+03  0.00000000000E+00 0. -1.
         -2   -1    0    0    0  501 -0.00000000000E+00 -0.00000000000E+00 -0.43762575582E+02  0.43762575582E+02  0.00000000000E+00 0.  1.
         25    2    1    2    0    0  0.17784774593E+01  0.49753320446E+02  0.36092085407E+03  0.38521502488E+03  0.12509275204E+03 0.  0.
          5    1    3    3  502    0  0.16021413432E+02  0.44442041082E+01 -0.36597171184E+01  0.17530047572E+02  0.41800000000E+01 0.  1.
         -5    1    3    3    0  502 -0.14242935972E+02  0.45309116338E+02  0.36458057119E+03  0.36768497731E+03  0.41800000000E+01 0.  1.
        -11    1    1    2    0    0  0.48668315734E+01 -0.22985114521E+02  0.77099195007E+02  0.80599549688E+02  0.00000000000E+00 0. -1.
         11    1    1    2    0    0 -0.66453090328E+01 -0.26768205925E+02 -0.23497582950E+02  0.36233042725E+02  0.00000000000E+00 0.  1.
</event>
<event>
 7    1  0.2878477E-009  0.7758790E+02  0.7561462E-02  0.1336039E+00
         -2   -1    0    0    0  501 -0.00000000000E+00  0.00000000000E+00  0.19835627376E+02  0.19835627376E+02  0.00000000000E+00 0.  1.
          2   -1    0    0  501    0  0.00000000000E+00 -0.00000000000E+00 -0.61005667318E+03  0.61005667318E+03  0.00000000000E+00 0. -1.
         25    2    1    2    0    0 -0.78610130371E+01 -0.32210340685E+02 -0.36318202429E+03  0.38554989816E+03  0.12509292399E+03 0.  0.
          5    1    3    3  502    0  0.34983995005E+02 -0.10110687311E+01 -0.24997074702E+02  0.43211437261E+02  0.41800000000E+01 0. -1.
         -5    1    3    3    0  502 -0.42845008042E+02 -0.31199271954E+02 -0.33818494959E+03  0.34233846090E+03  0.41800000000E+01 0. -1.
        -11    1    1    2    0    0  0.26872118307E+02 -0.27045799243E+01 -0.20223100841E+02  0.33740173421E+02  0.00000000000E+00 0.  1.
         11    1    1    2    0    0 -0.19011105270E+02  0.34914920609E+02 -0.20681592067E+03  0.21060222897E+03  0.00000000000E+00 0. -1.
</event>
<event>
 7    1  0.2878477E-009  0.7470498E+02  0.7561462E-02  0.1344787E+00
          3   -1    0    0  501    0  0.00000000000E+00  0.00000000000E+00  0.13522344716E+02  0.13522344716E+02  0.00000000000E+00 0. -1.
         -3   -1    0    0    0  501 -0.00000000000E+00 -0.00000000000E+00 -0.11176347140E+04  0.11176347140E+04  0.00000000000E+00 0.  1.
         25    2    1    2    0    0 -0.16163912827E+02  0.25100848641E+02 -0.84861806967E+03  0.85831503490E+03  0.12514290343E+03 0.  0.
          5    1    3    3  502    0  0.10387948265E+02 -0.74034282310E+01 -0.76054311708E+03  0.76066157097E+03  0.41800000000E+01 0. -1.
         -5    1    3    3    0  502 -0.26551861093E+02  0.32504276872E+02 -0.88074952597E+02  0.97653463930E+02  0.41800000000E+01 0. -1.
        -11    1    1    2    0    0  0.52362284309E+02 -0.55179913631E+01 -0.11573437397E+03  0.12714834787E+03  0.00000000000E+00 0. -1.
         11    1    1    2    0    0 -0.36198371482E+02 -0.19582857278E+02 -0.13975992566E+03  0.14569367597E+03  0.00000000000E+00 0.  1.
</event>
<event>
 7    1  0.2878477E-009  0.1117968E+03  0.7561462E-02  0.1257278E+00
          1   -1    0    0  501    0  0.00000000000E+00  0.00000000000E+00  0.10359566113E+03  0.10359566113E+03  0.00000000000E+00 0. -1.
         -1   -1    0    0    0  501 -0.00000000000E+00 -0.00000000000E+00 -0.23153674382E+03  0.23153674382E+03  0.00000000000E+00 0.  1.
         25    2    1    2    0    0 -0.39780627468E+02 -0.40388816634E+02  0.37736312262E+02  0.14242874088E+03  0.12509261422E+03 0.  0.
          5    1    3    3  502    0 -0.61575042457E+02 -0.74407240139E+02  0.28326408438E+02  0.10073619535E+03  0.41800000000E+01 0.  1.
         -5    1    3    3    0  502  0.21794414989E+02  0.34018423505E+02  0.94099038243E+01  0.41692545526E+02  0.41800000000E+01 0.  1.
        -11    1    1    2    0    0  0.12812537649E+02  0.54418183815E+02 -0.14639040850E+03  0.15670242995E+03  0.00000000000E+00 0.  1.
         11    1    1    2    0    0  0.26968089819E+02 -0.14029367181E+02 -0.19286986448E+02  0.36001234121E+02  0.00000000000E+00 0. -1.
</event>
<event>
 7    1  0.2878477E-009  0.1381123E+03  0.7561462E-02  0.1215892E+00
          1   -1    0    0  501    0  0.00000000000E+00  0.00000000000E+00  0.35716590013E+03  0.35716590013E+03  0.00000000000E+00 0. -1.
         -1   -1    0    0    0  501 -0.00000000000E+00 -0.00000000000E+00 -0.72723115231E+02  0.72723115231E+02  0.00000000000E+00 0.  1.
         25    2    1    2    0    0 -0.10651695097E+03  0.44901164266E+02  0.16650431716E+03  0.23818991170E+03  0.12509504790E+03 0.  0.
          5    1    3    3  502    0 -0.69901063915E+02  0.66807655154E+02  0.16952933710E+03  0.19521037386E+03  0.41800000000E+01 0. -1.
         -5    1    3    3    0  502 -0.36615887053E+02 -0.21906490888E+02 -0.30250199452E+01  0.42979537845E+02  0.41800000000E+01 0. -1.
        -11    1    1    2    0    0  0.89294019396E+02 -0.87979648591E+00  0.34363522251E+02  0.95682012956E+02  0.00000000000E+00 0.  1.
         11    1    1    2    0    0  0.17222931572E+02 -0.44021367780E+02  0.83574945488E+02  0.96017090700E+02  0.00000000000E+00 0. -1.
</event>
<event>
 7    1  0.2878477E-009  0.1552934E+03  0.7561462E-02  0.1194115E+00
          1   -1    0    0  501    0  0.00000000000E+00  0.00000000000E+00  0.53142632478E+03  0.53142632478E+03  0.00000000000E+00 0. -1.
         -1   -1    0    0    0  501 -0.00000000000E+00 -0.00000000000E+00 -0.62439185336E+02  0.62439185336E+02  0.00000000000E+00 0.  1.
         25    2    1    2    0    0 -0.59381313505E+02 -0.13011342073E+03  0.29391796723E+03  0.34998543697E+03  0.12508553868E+03 0.  0.
          5    1    3    3  502    0 -0.76248851161E+02 -0.12766957541E+03  0.17459117817E+03  0.22937515054E+03  0.41800000000E+01 0. -1.
         -5    1    3    3    0  502  0.16867537656E+02 -0.24438453111E+01  0.11932678906E+03  0.12061028643E+03  0.41800000000E+01 0. -1.
        -11    1    1    2    0    0  0.17552279618E+02  0.61121220600E+02  0.16083893942E+02  0.65594037623E+02  0.00000000000E+00 0.  1.
         11    1    1    2    0    0  0.41829033887E+02  0.68992200126E+02  0.15898527827E+03  0.17828603552E+03  0.00000000000E+00 0. -1.
</event>
<event>
 7    1  0.2878477E-009  0.1337626E+03  0.7561462E-02  0.1221977E+00
          2   -1    0    0  501    0  0.00000000000E+00  0.00000000000E+00  0.35323862465E+03  0.35323862465E+03  0.00000000000E+00 0. -1.
         -2   -1    0    0    0  501 -0.00000000000E+00 -0.00000000000E+00 -0.54892236630E+02  0.54892236630E+02  0.00000000000E+00 0.  1.
         25    2    1    2    0    0  0.30433657376E+02 -0.73070071970E+02  0.17629768070E+03  0.23020086499E+03  0.12508446388E+03 0.  0.
          5    1    3    3  502    0 -0.74162525666E+01  0.33642328100E+02  0.39761978698E+02  0.52775888359E+02  0.41800000000E+01 0. -1.
         -5    1    3    3    0  502  0.37849909943E+02 -0.10671240007E+03  0.13653570200E+03  0.17742497663E+03  0.41800000000E+01 0. -1.
        -11    1    1    2    0    0 -0.54484473445E+02  0.14766786338E+02  0.92307258496E+02  0.10820002678E+03  0.00000000000E+00 0. -1.
         11    1    1    2    0    0  0.24050816069E+02  0.58303285633E+02  0.29741448827E+02  0.69729969507E+02  0.00000000000E+00 0.  1.
</event>
<event>
 7    1  0.2878477E-009  0.1189419E+03  0.7561462E-02  0.1244853E+00
          2   -1    0    0  501    0  0.00000000000E+00  0.00000000000E+00  0.41992788367E+03  0.41992788367E+03  0.00000000000E+00 0.  1.
         -2   -1    0    0    0  501 -0.00000000000E+00 -0.00000000000E+00 -0.51825360662E+02  0.51825360662E+02  0.00000000000E+00 0. -1.
         25    2    1    2    0    0 -0.31962742047E+02  0.40574906684E+02  0.33686415324E+03  0.36303120667E+03  0.12508500847E+03 0.  0.
          5    1    3    3  502    0 -0.79395814735E+02  0.36665048384E+02  0.21801290479E+03  0.23493641741E+03  0.41800000000E+01 0.  1.
         -5    1    3    3    0  502  0.47433072687E+02  0.39098583002E+01  0.11885124846E+03  0.12809478926E+03  0.41800000000E+01 0.  1.
        -11    1    1    2    0    0 -0.69567501757E+01 -0.59059514439E+02  0.87118202440E+01  0.60102565925E+02  0.00000000000E+00 0. -1.
         11    1    1    2    0    0  0.38919492223E+02  0.18484607755E+02  0.22526549521E+02  0.48619471738E+02  0.00000000000E+00 0.  1.
</event>
<event>
 7    1  0.2878477E-009  0.1034295E+03  0.7561462E-02  0.1273245E+00
         -1   -1    0    0    0  501 -0.00000000000E+00  0.00000000000E+00  0.16679227491E+03  0.16679227491E+03  0.00000000000E+00 0.  1.
          1   -1    0    0  501    0  0.00000000000E+00 -0.00000000000E+00 -0.89848443495E+02  0.89848443495E+02  0.00000000000E+00 0. -1.
         25    2    1    2    0    0 -0.26535576048E+02  0.17816005847E+02 -0.61807203655E+01  0.12927188461E+03  0.12510584313E+03 0.  0.
          5    1    3    3  502    0  0.28200837646E+02  0.46674745585E+02 -0.30538523803E+02  0.62640984630E+02  0.41800000000E+01 0. -1.
         -5    1    3    3    0  502 -0.54736413695E+02 -0.28858739738E+02  0.24357803438E+02  0.66630899977E+02  0.41800000000E+01 0. -1.
        -11    1    1    2    0    0  0.48704960705E+02  0.14626242195E+02  0.68781355247E+02  0.85539318372E+02  0.00000000000E+00 0.  1.
         11    1    1    2    0    0 -0.22169384657E+02 -0.32442248042E+02  0.14343196536E+02  0.41829515428E+02  0.00000000000E+00 0. -1.
</event>
<event>
 7    1  0.2878477E-009  0.1830852E+03  0.7561462E-02  0.1164850E+00
         -2   -1    0    0    0  501 -0.00000000000E+00  0.00000000000E+00  0.13031669600E+03  0.13031669600E+03  0.00000000000E+00 0.  1.
          2   -1    0    0  501    0  0.00000000000E+00 -0.00000000000E+00 -0.30789281594E+03  0.30789281594E+03  0.00000000000E+00 0. -1.
         25    2    1    2    0    0  0.75236825773E+02 -0.14634915437E+03 -0.57098788515E+02  0.21444176911E+03  0.12508535386E+03 0.  0.
          5    1    3    3  502    0  0.86450979403E+02 -0.51298562451E+02  0.42141946955E+01  0.10070027898E+03  0.41800000000E+01 0. -1.
         -5    1    3    3    0  502 -0.11214153629E+02 -0.95050591924E+02 -0.61312983211E+02  0.11374149013E+03  0.41800000000E+01 0. -1.
        -11    1    1    2    0    0 -0.80133326804E+02  0.13021328179E+03 -0.65627732516E+02  0.16638463899E+03  0.00000000000E+00 0.  1.
         11    1    1    2    0    0  0.48965010308E+01  0.16135872588E+02 -0.54849598902E+02  0.57383103839E+02  0.00000000000E+00 0. -1.
</event>
<event>
 7    1  0.2878477E-009  0.1009013E+03  0.7561462E-02  0.1278412E+00
          1   -1    0    0  501    0  0.00000000000E+00  0.00000000000E+00  0.34825562083E+03  0.34825562083E+03  0.00000000000E+00 0. -1.
         -1   -1    0    0    0  501 -0.00000000000E+00 -0.00000000000E+00 -0.58668673329E+02  0.58668673329E+02  0.00000000000E+00 0.  1.
         25    2    1    2    0    0 -0.17932755390E+01 -0.56611700920E+02  0.52473170910E+02  0.14699956640E+03  0.12508932144E+03 0.  0.
          5    1    3    3  502    0 -0.22036151111E+02  0.14312377767E+02 -0.27405631204E+02  0.38196559201E+02  0.41800000000E+01 0. -1.
         -5    1    3    3    0  502  0.20242875572E+02 -0.70924078687E+02  0.79878802114E+02  0.10880300720E+03  0.41800000000E+01 0. -1.
        -11    1    1    2    0    0 -0.27538069285E+02  0.65184558308E+02  0.12415002652E+03  0.14290066825E+03  0.00000000000E+00 0.  1.
         11    1    1    2    0    0  0.29331344824E+02 -0.85728573876E+01  0.11296375007E+03  0.11702405950E+03  0.00000000000E+00 0. -1.
</event>
<event>
 7    1  0.2878477E-009  0.6460114E+02  0.7561462E-02  0.1379478E+00
         -1   -1    0    0    0  501 -0.00000000000E+00  0.00000000000E+00  0.28572809505E+03  0.28572809505E+03  0.00000000000E+00 0.  1.
          1   -1    0    0  501    0  0.00000000000E+00 -0.00000000000E+00 -0.48450920990E+02  0.48450920990E+02  0.00000000000E+00 0. -1.
         25    2    1    2    0    0 -0.44529060833E+02 -0.95070242062E+01  0.12173632559E+03  0.18038930958E+03  0.12508936516E+03 0.  0.
          5    1    3    3  502    0 -0.18920582197E+02  0.13962963170E+02 -0.21990402987E+02  0.32465412283E+02  0.41800000000E+01 0.  1.
         -5    1    3    3    0  502 -0.25608478636E+02 -0.23469987376E+02  0.14372672857E+03  0.14792389730E+03  0.41800000000E+01 0.  1.
        -11    1    1    2    0    0  0.21631715360E+02  0.31743709091E+02  0.50053739299E+01  0.38738197486E+02  0.00000000000E+00 0. -1.
         11    1    1    2    0    0  0.22897345473E+02 -0.22236684885E+02  0.11053547454E+03  0.11505150897E+03  0.00000000000E+00 0.  1.
</event>
<event>
 7    1  0.2878477E-009  0.6281695E+02  0.7561462E-02  0.1386377E+00
          2   -1    0    0  501    0  0.00000000000E+00  0.00000000000E+00  0.54341515015E+02  0.54341515015E+02  0.00000000000E+00 0. -1.
         -2   -1    0    0    0  501 -0.00000000000E+00 -0.00000000000E+00 -0.59163989785E+03  0.59163989785E+03  0.00000000000E+00 0.  1.
         25    2    1    2    0    0 -0.22406388612E+02  0.24080438825E+02 -0.53452211608E+03  0.54993552863E+03  0.12503311279E+03 0.  0.
          5    1    3    3  502    0 -0.84083607432E+01  0.23622283413E+00 -0.51667850784E+03  0.51676388147E+03  0.41800000000E+01 0. -1.
         -5    1    3    3    0  502 -0.13998027868E+02  0.23844215991E+02 -0.17843608236E+02  0.33171647160E+02  0.41800000000E+01 0. -1.
        -11    1    1    2    0    0  0.53651068914E+02 -0.14016589085E+02 -0.20034568609E+02  0.58960036504E+02  0.00000000000E+00 0. -1.
         11    1    1    2    0    0 -0.31244680302E+02 -0.10063849739E+02  0.17258301852E+02  0.37085847726E+02  0.00000000000E+00 0.  1.
</event>
<event>
 7    1  0.2878477E-009  0.1189381E+03  0.7561462E-02  0.1244859E+00
         -2   -1    0    0    0  501 -0.00000000000E+00  0.00000000000E+00  0.26194144829E+03  0.26194144829E+03  0.00000000000E+00 0.  1.
          2   -1    0    0  501    0  0.00000000000E+00 -0.00000000000E+00 -0.68469815127E+02  0.68469815127E+02  0.00000000000E+00 0. -1.
         25    2    1    2    0    0 -0.32795862873E+02 -0.69884019370E+02  0.12404025406E+03  0.19233698283E+03  0.12509270782E+03 0.  0.
          5    1    3    3  502    0  0.59363763650E+01  0.20768690293E+02 -0.11390487745E+02  0.24774879857E+02  0.41800000000E+01 0. -1.
         -5    1    3    3    0  502 -0.38732239238E+02 -0.90652709663E+02  0.13543074181E+03  0.16756210297E+03  0.41800000000E+01 0. -1.
        -11    1    1    2    0    0  0.46573762703E+02  0.61273893722E+00  0.15093439114E+02  0.48962258176E+02  0.00000000000E+00 0.  1.
         11    1    1    2    0    0 -0.13777899830E+02  0.69271280433E+02  0.54337939987E+02  0.89112022413E+02  0.00000000000E+00 0. -1.
</event>
<event>
 7    1  0.2878477E-009  0.7218390E+02  0.7561462E-02  0.1352820E+00
         -1   -1    0    0    0  501 -0.00000000000E+00  0.00000000000E+00  0.45277136071E+02  0.45277136071E+02  0.00000000000E+00 0.  1.
          1   -1    0    0  501    0  0.00000000000E+00 -0.00000000000E+00 -0.38255096738E+03  0.38255096738E+03  0.00000000000E+00 0. -1.
         25    2    1    2    0    0  0.37484109466E+02 -0.13412342377E+01 -0.78442021033E+02  0.15233912691E+03  0.12508877469E+03 0.  0.
          5    1    3    3  502    0  0.31125619190E+02  0.26601242573E+02 -0.10516609611E+03  0.11293276959E+03  0.41800000000E+01 0.  1.
         -5    1    3    3    0  502  0.63584902760E+01 -0.27942476811E+02  0.26724075075E+02  0.39406357324E+02  0.41800000000E+01 0.  1.
        -11    1    1    2    0    0 -0.34769168529E+02  0.29721264301E+02 -0.23156470348E+03  0.23603910805E+03  0.00000000000E+00 0. -1.
         11    1    1    2    0    0 -0.27149409371E+01 -0.28380030064E+02 -0.27267106799E+02  0.39449868490E+02  0.00000000000E+00 0.  1.
</event>
<event>
 7    1  0.2964148E-009  0.1489512E+03  0.7561462E-02  0.1201768E+00
          3   -1    0    0  501    0  0.00000000000E+00  0.00000000000E+00  0.42585990350E+02  0.42585990350E+02  0.00000000000E+00 0. -1.
         -3   -1    0    0    0  501 -0.00000000000E+00 -0.00000000000E+00 -0.89877842625E+03  0.89877842625E+03  0.00000000000E+00 0.  1.
         25    2    1    2    0    0  0.98865295719E+02 -0.67612130002E+02 -0.71138474192E+03  0.73216533386E+03  0.12510826614E+03 0.  0.
          5    1    3    3  502    0  0.64559196981E+02  0.92085622862E+01 -0.50562686057E+03  0.50983201357E+03  0.41800000000E+01 0.  1.
         -5    1    3    3    0  502  0.34306098738E+02 -0.76820692288E+02 -0.20575788135E+03  0.22233332029E+03  0.41800000000E+01 0.  1.
        -11    1    1    2    0    0  0.36055612505E+01  0.42715521156E+02 -0.60711643691E+02  0.74320384144E+02  0.00000000000E+00 0. -1.
         11    1    1    2    0    0 -0.10247085697E+03  0.24896608846E+02 -0.84096050294E+02  0.13487869860E+03  0.00000000000E+00 0.  1.
</event>
<event>
 7    1  0.2878477E-009  0.1064017E+03  0.7561462E-02  0.1267382E+00
          3   -1    0    0  501    0  0.00000000000E+00  0.00000000000E+00  0.78391083594E+03  0.78391083594E+03  0.00000000000E+00 0. -1.
         -3   -1    0    0    0  501 -0.00000000000E+00 -0.00000000000E+00 -0.20578323441E+02  0.20578323441E+02  0.00000000000E+00 0.  1.
         25    2    1    2    0    0 -0.12431765798E+02 -0.39127616104E+02  0.58563458252E+03  0.60024985641E+03  0.12508599734E+03 0.  0.
          5    1    3    3  502    0  0.36451301850E+02 -0.49870238485E+02  0.15834401645E+03  0.17001775801E+03  0.41800000000E+01 0. -1.
         -5    1    3    3    0  502 -0.48883067648E+02  0.10742622382E+02  0.42729056607E+03  0.43023209840E+03  0.41800000000E+01 0. -1.
        -11    1    1    2    0    0  0.41639823112E+02 -0.10625160277E+02  0.74028443110E+02  0.85597776192E+02  0.00000000000E+00 0. -1.
         11    1    1    2    0    0 -0.29208057314E+02  0.49752776380E+02  0.10366948687E+03  0.11864152678E+03  0.00000000000E+00 0.  1.
</event>
<event>
 7    1  0.2878477E-009  0.1799807E+03  0.7561462E-02  0.1167822E+00
          1   -1    0    0  501    0  0.00000000000E+00  0.00000000000E+00  0.34883181922E+03  0.34883181922E+03  0.00000000000E+00 0. -1.
         -1   -1    0    0    0  501 -0.00000000000E+00 -0.00000000000E+00 -0.14575026769E+03  0.14575026769E+03  0.00000000000E+00 0.  1.
         25    2    1    2    0    0 -0.23996283103E+02 -0.15704979331E+03 -0.21064175315E+02  0.20330433898E+03  0.12509394703E+03 0.  0.
          5    1    3    3  502    0  0.37580459697E+02 -0.10771659387E+03 -0.41873530769E+02  0.12159778174E+03  0.41800000000E+01 0. -1.
         -5    1    3    3    0  502 -0.61576742800E+02 -0.49333199443E+02  0.20809355454E+02  0.81706557237E+02  0.41800000000E+01 0. -1.
        -11    1    1    2    0    0  0.18921560361E+01  0.13679399961E+03  0.11699368887E+03  0.18001028254E+03  0.00000000000E+00 0.  1.
         11    1    1    2    0    0  0.22104127067E+02  0.20255793696E+02  0.10715203797E+03  0.11126746539E+03  0.00000000000E+00 0. -1.
</event>
<event>
 7    1  0.2878477E-009  0.1208860E+03  0.7561462E-02  0.1241643E+00
          2   -1    0    0  501    0  0.00000000000E+00  0.00000000000E+00  0.67558454542E+03  0.67558454542E+03  0.00000000000E+00 0.  1.
         -2   -1    0    0    0  501 -0.00000000000E+00 -0.00000000000E+00 -0.28124347536E+02  0.28124347536E+02  0.00000000000E+00 0. -1.
         25    2    1    2    0    0  0.79940198801E+02 -0.52788057648E+01  0.28005172071E+03  0.31700436051E+03  0.12507796422E+03 0.  0.
          5    1    3    3  502    0  0.10622484825E+03  0.13142170373E+01  0.26542978535E+03  0.28592986711E+03  0.41800000000E+01 0.  1.
         -5    1    3    3    0  502 -0.26284649452E+02 -0.65930228021E+01  0.14621935359E+02  0.31074493401E+02  0.41800000000E+01 0.  1.
        -11    1    1    2    0    0 -0.90408969797E+02 -0.84157269616E+01  0.35220227017E+03  0.36371835999E+03  0.00000000000E+00 0.  1.
         11    1    1    2    0    0  0.10468770996E+02  0.13694532726E+02  0.15206206997E+02  0.22986172453E+02  0.00000000000E+00 0. -1.
</event>
<event>
 7    1  0.2878477E-009  0.5877445E+02  0.7561462E-02  0.1403048E+00
          2   -1    0    0  501    0  0.00000000000E+00  0.00000000000E+00  0.77109425165E+03  0.77109425165E+03  0.00000000000E+00 0. -1.
         -2   -1    0    0    0  501 -0.00000000000E+00 -0.00000000000E+00 -0.26324411899E+02  0.26324411899E+02  0.00000000000E+00 0.  1.
         25    2    1    2    0    0  0.36619915773E+02 -0.43083828619E+02  0.62893895988E+03  0.64374616872E+03  0.12509068695E+03 0.  0.
          5    1    3    3  502    0  0.18058219630E+02 -0.36226840096E+02  0.62049799962E+03  0.62183094420E+03  0.41800000000E+01 0. -1.
         -5    1    3    3    0  502  0.18561696142E+02 -0.68569885226E+01  0.84409602645E+01  0.21915224513E+02  0.41800000000E+01 0. -1.
        -11    1    1    2    0    0 -0.14213791148E+02  0.19113737879E+02 -0.83417599379E+01  0.25237903902E+02  0.00000000000E+00 0.  1.
         11    1    1    2    0    0 -0.22406124625E+02  0.23970090740E+02  0.12417263980E+03  0.12843459093E+03  0.00000000000E+00 0. -1.
</event>
<event>
 7    1  0.2878477E-009  0.1808712E+03  0.7561462E-02  0.1166963E+00
         -1   -1    0    0    0  501 -0.00000000000E+00  0.00000000000E+00  0.56889290717E+03  0.56889290717E+03  0.00000000000E+00 0.  1.
          1   -1    0    0  501    0  0.00000000000E+00 -0.00000000000E+00 -0.77188999425E+02  0.77188999425E+02  0.00000000000E+00 0. -1.
         25    2    1    2    0    0  0.11307011684E+03 -0.12357468507E+03  0.16304221209E+03  0.26511492991E+03  0.12509040342E+03 0.  0.
          5    1    3    3  502    0  0.11020303305E+03 -0.12544704638E+03  0.18104075754E+03  0.24632275216E+03  0.41800000000E+01 0. -1.
         -5    1    3    3    0  502  0.28670837877E+01  0.18723613086E+01 -0.17998545453E+02  0.18792177754E+02  0.41800000000E+01 0. -1.
        -11    1    1    2    0    0  0.12689203171E+02  0.29944039749E+02  0.33152841404E+02  0.46441062507E+02  0.00000000000E+00 0.  1.
         11    1    1    2    0    0 -0.12575932001E+03  0.93630645325E+02  0.29550885425E+03  0.33452591418E+03  0.00000000000E+00 0. -1.
</event>
<event>
 7    1  0.2878477E-009  0.7825348E+02  0.7561462E-02  0.1334082E+00
          2   -1    0    0  501    0  0.00000000000E+00  0.00000000000E+00  0.23584496781E+03  0.23584496781E+03  0.00000000000E+00 0. -1.
         -2   -1    0    0    0  501 -0.00000000000E+00 -0.00000000000E+00 -0.51142543965E+02  0.51142543965E+02  0.00000000000E+00 0.  1.
         25    2    1    2    0    0  0.14214993113E+00  0.12056989937E+00  0.12199378398E+03  0.17471711864E+03  0.12507419188E+03 0.  0.
          5    1    3    3  502    0 -0.33088062036E+02  0.15124172108E+02 -0.98003067606E+01  0.37908822770E+02  0.41800000000E+01 0.  1.
         -5    1    3    3    0  502  0.33230211967E+02 -0.15003602209E+02  0.13179409074E+03  0.13680829587E+03  0.41800000000E+01 0.  1.
        -11    1    1    2    0    0 -0.25198091999E+02 -0.33206643597E+02  0.61774758427E+01  0.42140078632E+02  0.00000000000E+00 0. -1.
         11    1    1    2    0    0  0.25055942067E+02  0.33086073697E+02  0.56531164029E+02  0.70130314501E+02  0.00000000000E+00 0.  1.
</event>
<event>
 7    1  0.2878477E-009  0.1863692E+03  0.7561462E-02  0.1161777E+00
          1   -1    0    0  501    0  0.00000000000E+00  0.00000000000E+00  0.12586374973E+04  0.12586374973E+04  0.00000000000E+00 0. -1.
         -1   -1    0    0    0  501 -0.00000000000E+00 -0.00000000000E+00 -0.36821796632E+02  0.36821796632E+02  0.00000000000E+00 0.  1.
         25    2    1    2    0    0  0.71454782759E+02  0.13939411685E+03  0.93516670565E+03  0.95641046029E+03  0.12509074870E+03 0.  0.
          5    1    3    3  502    0  0.55006592506E+02 -0.31252927085E+01  0.20793881801E+03  0.21515463534E+03  0.41800000000E+01 0. -1.
         -5    1    3    3    0  502  0.16448190253E+02  0.14251940956E+03  0.72722788764E+03  0.74125582495E+03  0.41800000000E+01 0. -1.
        -11    1    1    2    0    0 -0.87049785410E+02 -0.12732922568E+03  0.21413406799E+03  0.26390111013E+03  0.00000000000E+00 0.  1.
         11    1    1    2    0    0  0.15595002651E+02 -0.12064891171E+02  0.72514926984E+02  0.75147723466E+02  0.00000000000E+00 0. -1.
</event>
<event>
 7    1  0.2878477E-009  0.1363813E+03  0.7561462E-02  0.1218283E+00
          2   -1    0    0  501    0  0.00000000000E+00  0.00000000000E+00  0.63146216591E+03  0.63146216591E+03  0.00000000000E+00 0. -1.
         -2   -1    0    0    0  501 -0.00000000000E+00 -0.00000000000E+00 -0.38256913110E+02  0.38256913110E+02  0.00000000000E+00 0.  1.
         25    2    1    2    0    0  0.57216075699E+02  0.96123095745E+02  0.33078441402E+03  0.37091765580E+03  0.12509296530E+03 0.  0.
          5    1    3    3  502    0 -0.10260939329E+02 -0.21012791415E+02  0.10561092260E+03  0.10824954343E+03  0.41800000000E+01 0.  1.
         -5    1    3    3    0  502  0.67477015028E+02  0.11713588716E+03  0.22517349142E+03  0.26266811237E+03  0.41800000000E+01 0.  1.
        -11    1    1    2    0    0 -0.35815316177E+02 -0.39969122689E+02  0.21682375081E+03  0.22336697732E+03  0.00000000000E+00 0. -1.
         11    1    1    2    0    0 -0.21400759522E+02 -0.56153973057E+02  0.45597087974E+02  0.75434445911E+02  0.00000000000E+00 0.  1.
</event>
<event>
 7    1  0.2878477E-009  0.1261009E+03  0.7561462E-02  0.1233359E+00
          2   -1    0    0  501    0  0.00000000000E+00  0.00000000000E+00  0.28209310761E+03  0.28209310761E+03  0.00000000000E+00 0. -1.
         -2   -1    0    0    0  501 -0.00000000000E+00 -0.00000000000E+00 -0.67000475459E+02  0.67000475459E+02  0.00000000000E+00 0.  1.
         25    2    1    2    0    0 -0.82333748585E+02 -0.34939299742E-01  0.12644106290E+03  0.19599819168E+03  0.12509636837E+03 0.  0.
          5    1    3    3  502    0 -0.11284658053E+03  0.10978531958E+02  0.11446618691E+03  0.16116717795E+03  0.41800000000E+01 0.  1.
         -5    1    3    3    0  502  0.30512831950E+02 -0.11013471258E+02  0.11974875989E+02  0.34831013733E+02  0.41800000000E+01 0.  1.
        -11    1    1    2    0    0 -0.49476365623E+01 -0.16480809524E+02 -0.10352661789E+02  0.20081678123E+02  0.00000000000E+00 0.  1.
         11    1    1    2    0    0  0.87281385147E+02  0.16515748824E+02  0.99004231034E+02  0.13301371326E+03  0.00000000000E+00 0. -1.
</event>
<event>
 7    1  0.2878477E-009  0.1154450E+03  0.7561462E-02  0.1250806E+00
         -1   -1    0    0    0  501 -0.00000000000E+00  0.00000000000E+00  0.17788205101E+03  0.17788205101E+03  0.00000000000E+00 0.  1.
          1   -1    0    0  501    0  0.00000000000E+00 -0.00000000000E+00 -0.11426613406E+03  0.11426613406E+03  0.00000000000E+00 0. -1.
         25    2    1    2    0    0 -0.73086053260E+02  0.17137818876E+02  0.87443917863E+02  0.17009188921E+03  0.12509810544E+03 0.  0.
          5    1    3    3  502    0 -0.98146909625E+02 -0.82089606296E+01  0.31245191843E+02  0.10341149509E+03  0.41800000000E+01 0.  1.
         -5    1    3    3    0  502  0.25060856365E+02  0.25346779506E+02  0.56198726020E+02  0.66680394115E+02  0.41800000000E+01 0.  1.
        -11    1    1    2    0    0  0.76337198642E+02 -0.30846852489E+02 -0.47098154782E+02  0.94853214963E+02  0.00000000000E+00 0. -1.
         11    1    1    2    0    0 -0.32511453822E+01  0.13709033613E+02  0.23270153871E+02  0.27203080893E+02  0.00000000000E+00 0.  1.
</event>
<event>
 7    1  0.2878477E-009  0.3221353E+03  0.7561462E-02  0.1074671E+00
          1   -1    0    0  501    0  0.00000000000E+00  0.00000000000E+00  0.88803697175E+03  0.88803697175E+03  0.00000000000E+00 0. -1.
         -1   -1    0    0    0  501 -0.00000000000E+00 -0.00000000000E+00 -0.12871204348E+03  0.12871204348E+03  0.00000000000E+00 0.  1.
         25    2    1    2    0    0  0.17456734086E+03 -0.26425460512E+03  0.31825471195E+03  0.46608964372E+03  0.12509692834E+03 0.  0.
          5    1    3    3  502    0  0.15070531662E+03 -0.15728359702E+03  0.14735837939E+03  0.26302506862E+03  0.41800000000E+01 0.  1.
         -5    1    3    3    0  502  0.23862024240E+02 -0.10697100811E+03  0.17089633256E+03  0.20306457510E+03  0.41800000000E+01 0.  1.
        -11    1    1    2    0    0 -0.35886684917E+02  0.52371649709E+02  0.36102557500E+02  0.73034502159E+02  0.00000000000E+00 0.  1.
         11    1    1    2    0    0 -0.13868065595E+03  0.21188295541E+03  0.40496765881E+03  0.47762486934E+03  0.00000000000E+00 0. -1.
</event>
<event>
 7    1  0.2878477E-009  0.9796727E+02  0.7561462E-02  0.1284630E+00
         -2   -1    0    0    0  501 -0.00000000000E+00  0.00000000000E+00  0.23445740129E+02  0.23445740129E+02  0.00000000000E+00 0. -1.
          2   -1    0    0  501    0  0.00000000000E+00 -0.00000000000E+00 -0.69746950800E+03  0.69746950800E+03  0.00000000000E+00 0.  1.
         25    2    1    2    0    0  0.46860968416E+02 -0.16500559450E+02 -0.49978993663E+03  0.51759612153E+03  0.12509014923E+03 0.  0.
          5    1    3    3  502    0 -0.33730464143E+02  0.19528425103E+02 -0.24012615239E+03  0.24330463427E+03  0.41800000000E+01 0.  1.
         -5    1    3    3    0  502  0.80591432559E+02 -0.36028984553E+02 -0.25966378424E+03  0.27429148725E+03  0.41800000000E+01 0.  1.
        -11    1    1    2    0    0 -0.53254501867E+01  0.25339032435E+02 -0.20473597809E+01  0.25973422310E+02  0.00000000000E+00 0.  1.
         11    1    1    2    0    0 -0.41535518229E+02 -0.88384729848E+01 -0.17218647145E+03  0.17734570429E+03  0.00000000000E+00 0. -1.
</event>
<event>
 7    1  0.2878477E-009  0.1247180E+03  0.7561462E-02  0.1235511E+00
         -2   -1    0    0    0  501 -0.00000000000E+00  0.00000000000E+00  0.10565135679E+03  0.10565135679E+03  0.00000000000E+00 0.  1.
          2   -1    0    0  501    0  0.00000000000E+00 -0.00000000000E+00 -0.34733376167E+03  0.34733376167E+03  0.00000000000E+00 0. -1.
         25    2    1    2    0    0 -0.79935355834E+02  0.73293547873E+02 -0.26204838755E+03  0.30996400109E+03  0.12508684694E+03 0.  0.
          5    1    3    3  502    0 -0.41491781237E+02  0.45765707688E+02 -0.22686689119E+02  0.65941081076E+02  0.41800000000E+01 0.  1.
         -5    1    3    3    0  502 -0.38443574598E+02  0.27527840186E+02 -0.23936169843E+03  0.24402292001E+03  0.41800000000E+01 0.  1.
        -11    1    1    2    0    0 -0.80660366214E+00 -0.57839679784E+02  0.18713288947E+02  0.60796927145E+02  0.00000000000E+00 0.  1.
         11    1    1    2    0    0  0.80741959496E+02 -0.15453868089E+02  0.16526937189E+01  0.82224190228E+02  0.00000000000E+00 0. -1.
</event>
<event>
 7    1  0.2878477E-009  0.7202848E+02  0.7561462E-02  0.1353328E+00
          4   -1    0    0  501    0  0.00000000000E+00  0.00000000000E+00  0.66704908362E+03  0.66704908362E+03  0.00000000000E+00 0. -1.
         -4   -1    0    0    0  501 -0.00000000000E+00 -0.00000000000E+00 -0.18737584382E+02  0.18737584382E+02  0.00000000000E+00 0.  1.
         25    2    1    2    0    0  0.24421349904E+02 -0.58057299048E+01  0.40490478687E+03  0.42452942531E+03  0.12508891914E+03 0.  0.
          5    1    3    3  502    0 -0.17596141707E+02  0.84212224250E+01  0.30145820015E+01  0.20176751343E+02  0.41800000000E+01 0.  1.
         -5    1    3    3    0  502  0.42017491612E+02 -0.14226952330E+02  0.40189020487E+03  0.40435267396E+03  0.41800000000E+01 0.  1.
        -11    1    1    2    0    0 -0.32895082099E+02 -0.28922837209E+02  0.59362209243E+02  0.73773225663E+02  0.00000000000E+00 0.  1.
         11    1    1    2    0    0  0.84737321949E+01  0.34728567113E+02  0.18404450313E+03  0.18748401703E+03  0.00000000000E+00 0. -1.
</event>
<event>
 7    1  0.2878477E-009  0.1232086E+03  0.7561462E-02  0.1237896E+00
          1   -1    0    0  501    0  0.00000000000E+00  0.00000000000E+00  0.12782536147E+03  0.12782536147E+03  0.00000000000E+00 0. -1.
         -1   -1    0    0    0  501 -0.00000000000E+00 -0.00000000000E+00 -0.14054572714E+03  0.14054572714E+03  0.00000000000E+00 0.  1.
         25    2    1    2    0    0 -0.62156545198E+02 -0.37346624373E+02 -0.33824408022E+02  0.14849717557E+03  0.12509641926E+03 0.  0.
          5    1    3    3  502    0 -0.85374458079E+02 -0.65369749472E+02 -0.29720787519E+02  0.11163691078E+03  0.41800000000E+01 0.  1.
         -5    1    3    3    0  502  0.23217912881E+02  0.28023125099E+02 -0.41036205029E+01  0.36860264786E+02  0.41800000000E+01 0.  1.
        -11    1    1    2    0    0  0.40805613936E+02 -0.16681885541E+02 -0.20301808015E+02  0.48533976167E+02  0.00000000000E+00 0.  1.
         11    1    1    2    0    0  0.21350931262E+02  0.54028509914E+02  0.41405850362E+02  0.71339936876E+02  0.00000000000E+00 0. -1.
</event>
<event>
 7    1  0.2878477E-009  0.6288690E+02  0.7561462E-02  0.1386101E+00
          2   -1    0    0  501    0  0.00000000000E+00  0.00000000000E+00  0.23052694383E+03  0.23052694383E+03  0.00000000000E+00 0.  1.
         -2   -1    0    0    0  501 -0.00000000000E+00 -0.00000000000E+00 -0.54307628467E+02  0.54307628467E+02  0.00000000000E+00 0. -1.
         25    2    1    2    0    0  0.62199725898E+01 -0.21216108608E+01  0.13022337668E+03  0.18069200239E+03  0.12509309574E+03 0.  0.
          5    1    3    3  502    0 -0.55009759613E+01 -0.21283243063E+02 -0.19228779707E+02  0.29503483538E+02  0.41800000000E+01 0. -1.
         -5    1    3    3    0  502  0.11720948551E+02  0.19161632203E+02  0.14945215639E+03  0.15118851885E+03  0.41800000000E+01 0. -1.
        -11    1    1    2    0    0 -0.43036740929E+02 -0.40195520720E+01 -0.20848160194E+01  0.43274291750E+02  0.00000000000E+00 0.  1.
         11    1    1    2    0    0  0.36816768339E+02  0.61411629328E+01  0.48080754703E+02  0.60868278158E+02  0.00000000000E+00 0. -1.
</event>
<event>
 7    1  0.2878477E-009  0.1031621E+03  0.7561462E-02  0.1273784E+00
          1   -1    0    0  501    0  0.00000000000E+00  0.00000000000E+00  0.12944839141E+03  0.12944839141E+03  0.00000000000E+00 0. -1.
         -1   -1    0    0    0  501 -0.00000000000E+00 -0.00000000000E+00 -0.24728264089E+03  0.24728264089E+03  0.00000000000E+00 0.  1.
         25    2    1    2    0    0  0.70453647968E+02  0.45557091089E+02 -0.18288270496E+03  0.23691747545E+03  0.12507854068E+03 0.  0.
          5    1    3    3  502    0  0.17143709803E+02  0.18861068320E+02  0.15230825944E+02  0.29984948606E+02  0.41800000000E+01 0. -1.
         -5    1    3    3    0  502  0.53309938165E+02  0.26696022769E+02 -0.19811353090E+03  0.20693252684E+03  0.41800000000E+01 0. -1.
        -11    1    1    2    0    0 -0.44571279427E+02  0.21033349377E+02  0.11714140380E+02  0.50657890014E+02  0.00000000000E+00 0. -1.
         11    1    1    2    0    0 -0.25882368541E+02 -0.66590440466E+02  0.53334315101E+02  0.89155666842E+02  0.00000000000E+00 0.  1.
</event>
<event>
 7    1  0.2878477E-009  0.8605166E+02  0.7561462E-02  0.1312705E+00
         -2   -1    0    0    0  501 -0.00000000000E+00  0.00000000000E+00  0.33824344920E+03  0.33824344920E+03  0.00000000000E+00 0.  1.
          2   -1    0    0  501    0  0.00000000000E+00 -0.00000000000E+00 -0.77261908377E+02  0.77261908377E+02  0.00000000000E+00 0. -1.
         25    2    1    2    0    0 -0.35101105586E+02 -0.30405642745E+02 -0.44574766727E+01  0.13346234924E+03  0.12504294799E+03 0.  0.
          5    1    3    3  502    0 -0.35275880235E+02  0.18545352513E+02  0.47372367389E+02  0.62047815580E+02  0.41800000000E+01 0.  1.
         -5    1    3    3    0  502  0.17477464890E+00 -0.48950995258E+02 -0.51829844062E+02  0.71414533664E+02  0.41800000000E+01 0.  1.
        -11    1    1    2    0    0  0.20085124886E+02 -0.21171534301E+02  0.35714208178E+02  0.46121044785E+02  0.00000000000E+00 0.  1.
         11    1    1    2    0    0  0.15015980700E+02  0.51577177046E+02  0.22972480932E+03  0.23592196355E+03  0.00000000000E+00 0. -1.
</event>
<event>
 7    1  0.2878477E-009  0.1217739E+03  0.7561462E-02  0.1240199E+00
         -1   -1    0    0    0  501 -0.00000000000E+00  0.00000000000E+00  0.95577281133E+02  0.95577281133E+02  0.00000000000E+00 0.  1.
          1   -1    0    0  501    0  0.00000000000E+00 -0.00000000000E+00 -0.17990924232E+03  0.17990924232E+03  0.00000000000E+00 0. -1.
         25    2    1    2    0    0  0.55248713488E+02 -0.29511793352E+02 -0.62782351880E+01  0.14005012301E+03  0.12510497364E+03 0.  0.
          5    1    3    3  502    0 -0.14535670369E+02  0.39055824881E+02 -0.43619688274E+01  0.42108696753E+02  0.41800000000E+01 0.  1.
         -5    1    3    3    0  502  0.69784383858E+02 -0.68567618232E+02 -0.19162663606E+01  0.97941426257E+02  0.41800000000E+01 0.  1.
        -11    1    1    2    0    0 -0.69736616510E+02 -0.12417960073E+01 -0.73178663100E+02  0.10109329588E+03  0.00000000000E+00 0. -1.
         11    1    1    2    0    0  0.14487903022E+02  0.30753589359E+02 -0.48750628976E+01  0.34343104558E+02  0.00000000000E+00 0.  1.
</event>
<event>
 7    1  0.2878477E-009  0.1305478E+03  0.7561462E-02  0.1226645E+00
         -3   -1    0    0    0  501 -0.00000000000E+00  0.00000000000E+00  0.97997757825E+03  0.97997757825E+03  0.00000000000E+00 0.  1.
          3   -1    0    0  501    0  0.00000000000E+00 -0.00000000000E+00 -0.27934656688E+02  0.27934656688E+02  0.00000000000E+00 0. -1.
         25    2    1    2    0    0 -0.57960752549E+02  0.10728661666E+03  0.58387210523E+03  0.60944520544E+03  0.12508779401E+03 0.  0.
          5    1    3    3  502    0 -0.66201137483E+02  0.84210711405E+02  0.57189127487E+03  0.58185147348E+03  0.41800000000E+01 0. -1.
         -5    1    3    3    0  502  0.82403849340E+01  0.23075905257E+02  0.11980830368E+02  0.27593731962E+02  0.41800000000E+01 0. -1.
        -11    1    1    2    0    0  0.21157748571E+02 -0.81246944440E+02  0.32633875681E+03  0.33696542924E+03  0.00000000000E+00 0. -1.
         11    1    1    2    0    0  0.36803003978E+02 -0.26039672221E+02  0.41832059517E+02  0.61501600261E+02  0.00000000000E+00 0.  1.
</event>
<event>
 7    1  0.3666294E-009  0.1795461E+03  0.7561462E-02  0.1168243E+00
         -2   -1    0    0    0  501 -0.00000000000E+00  0.00000000000E+00  0.23855272861E+02  0.23855272861E+02  0.00000000000E+00 0.  1.
          2   -1    0    0  501    0  0.00000000000E+00 -0.00000000000E+00 -0.15963410462E+04  0.15963410462E+04  0.00000000000E+00 0. -1.
         25    2    1    2    0    0  0.14839203403E+03 -0.48330658122E+02 -0.10023344605E+04  0.10220940390E+04  0.12508319434E+03 0.  0.
          5    1    3    3  502    0  0.10405644623E+03 -0.85474734073E+02 -0.56019996710E+03  0.57617284707E+03  0.41800000000E+01 0.  1.
         -5    1    3    3    0  502  0.44335587800E+02  0.37144075951E+02 -0.44213449341E+03  0.44592119191E+03  0.41800000000E+01 0.  1.
        -11    1    1    2    0    0 -0.87370037589E+02 -0.18222391075E+01 -0.41385428257E+03  0.42298015465E+03  0.00000000000E+00 0. -1.
         11    1    1    2    0    0 -0.61021996444E+02  0.50152897229E+02 -0.15629703028E+03  0.17512212545E+03  0.00000000000E+00 0.  1.
</event>
<event>
 7    1  0.2878477E-009  0.1036624E+03  0.7561462E-02  0.1272778E+00
         -2   -1    0    0    0  501 -0.00000000000E+00  0.00000000000E+00  0.14414776504E+03  0.14414776504E+03  0.00000000000E+00 0.  1.
          2   -1    0    0  501    0  0.00000000000E+00 -0.00000000000E+00 -0.14744738289E+03  0.14744738289E+03  0.00000000000E+00 0. -1.
         25    2    1    2    0    0 -0.40725699152E+02  0.42957203539E+02 -0.79151465450E+02  0.15940922799E+03  0.12506975485E+03 0.  0.
          5    1    3    3  502    0  0.63180299620E+01  0.70397043097E+02 -0.10340868909E+02  0.71554644498E+02  0.41800000000E+01 0. -1.
         -5    1    3    3    0  502 -0.47043729114E+02 -0.27439839557E+02 -0.68810596541E+02  0.87854583490E+02  0.41800000000E+01 0. -1.
        -11    1    1    2    0    0 -0.14167712312E+02 -0.44622646080E+01 -0.13774218164E+02  0.20257466861E+02  0.00000000000E+00 0. -1.
         11    1    1    2    0    0  0.54893411465E+02 -0.38494938931E+02  0.89626065764E+02  0.11192845308E+03  0.00000000000E+00 0.  1.
</event>
<event>
 7    1  0.2878477E-009  0.7365527E+02  0.7561462E-02  0.1348087E+00
          1   -1    0    0  501    0  0.00000000000E+00  0.00000000000E+00  0.47921062246E+03  0.47921062246E+03  0.00000000000E+00 0. -1.
         -1   -1    0    0    0  501 -0.00000000000E+00 -0.00000000000E+00 -0.25142739528E+02  0.25142739528E+02  0.00000000000E+00 0.  1.
         25    2    1    2    0    0 -0.45192489495E+02  0.14827909957E+02  0.30390534144E+03  0.33206765857E+03  0.12509294661E+03 0.  0.
          5    1    3    3  502    0  0.51527562943E+01 -0.18379719321E+02  0.25091835609E+03  0.25167808566E+03  0.41800000000E+01 0. -1.
         -5    1    3    3    0  502 -0.50345245789E+02  0.33207629278E+02  0.52986985351E+02  0.80389572908E+02  0.41800000000E+01 0. -1.
        -11    1    1    2    0    0  0.32269543573E+02 -0.32250305096E+02  0.14193292486E+03  0.14908507900E+03  0.00000000000E+00 0. -1.
         11    1    1    2    0    0  0.12922945922E+02  0.17422395139E+02  0.82296166390E+01  0.23200624425E+02  0.00000000000E+00 0.  1.
</event>
<event>
 7    1  0.2878477E-009  0.9537255E+02  0.7561462E-02  0.1290339E+00
          1   -1    0    0  501    0  0.00000000000E+00  0.00000000000E+00  0.82980023867E+03  0.82980023867E+03  0.00000000000E+00 0. -1.
         -1   -1    0    0    0  501 -0.00000000000E+00 -0.00000000000E+00 -0.26900436612E+02  0.26900436612E+02  0.00000000000E+00 0.  1.
         25    2    1    2    0    0 -0.20426033875E+02  0.88727898749E+02  0.54043883478E+03  0.56214644333E+03  0.12507848228E+03 0.  0.
          5    1    3    3  502    0  0.10756986920E+01  0.37767161378E+02  0.29268448647E+02  0.47975307111E+02  0.41800000000E+01 0.  1.
         -5    1    3    3    0  502 -0.21501732568E+02  0.50960737372E+02  0.51117038614E+03  0.51417113622E+03  0.41800000000E+01 0.  1.
        -11    1    1    2    0    0 -0.89427383964E+01 -0.33961822109E+02  0.21090363995E+03  0.21380767824E+03  0.00000000000E+00 0. -1.
         11    1    1    2    0    0  0.29368772272E+02 -0.54766076641E+02  0.51557327328E+02  0.80746553713E+02  0.00000000000E+00 0.  1.
</event>
<event>
 7    1  0.2878477E-009  0.8157269E+02  0.7561462E-02  0.1324647E+00
         -2   -1    0    0    0  501 -0.00000000000E+00  0.00000000000E+00  0.43168221999E+02  0.43168221999E+02  0.00000000000E+00 0.  1.
          2   -1    0    0  501    0  0.00000000000E+00 -0.00000000000E+00 -0.41963462600E+03  0.41963462600E+03  0.00000000000E+00 0. -1.
         25    2    1    2    0    0 -0.66175507862E+02 -0.43307838090E+02 -0.22730536162E+03  0.27123998728E+03  0.12509451066E+03 0.  0.
          5    1    3    3  502    0 -0.24615210541E+02 -0.19328427658E+02 -0.22032154782E+03  0.22257258039E+03  0.41800000000E+01 0.  1.
         -5    1    3    3    0  502 -0.41560297321E+02 -0.23979410432E+02 -0.69838137943E+01  0.48667406888E+02  0.41800000000E+01 0.  1.
        -11    1    1    2    0    0  0.58159734945E+02  0.24778663449E+02 -0.28710618998E+02  0.69432244487E+02  0.00000000000E+00 0.  1.
         11    1    1    2    0    0  0.80157729170E+01  0.18529174640E+02 -0.12045042338E+03  0.12213061623E+03  0.00000000000E+00 0. -1.
</event>
<event>
 7    1  0.2878477E-009  0.1675842E+03  0.7561462E-02  0.1180391E+00
          1   -1    0    0  501    0  0.00000000000E+00  0.00000000000E+00  0.41728544846E+03  0.41728544846E+03  0.00000000000E+00 0. -1.
         -1   -1    0    0    0  501 -0.00000000000E+00 -0.00000000000E+00 -0.82370343797E+02  0.82370343797E+02  0.00000000000E+00 0.  1.
         25    2    1    2    0    0 -0.85932274858E+02  0.11762630384E+03  0.12726423123E+03  0.23036097972E+03  0.12509873385E+03 0.  0.
          5    1    3    3  502    0 -0.65875187957E+02  0.13863819958E+03  0.12958456613E+03  0.20092218132E+03  0.41800000000E+01 0. -1.
         -5    1    3    3    0  502 -0.20057086901E+02 -0.21011895732E+02 -0.23203348920E+01  0.29438798400E+02  0.41800000000E+01 0. -1.
        -11    1    1    2    0    0  0.30739022333E+02 -0.79373738222E+02  0.51923005620E+02  0.99704946346E+02  0.00000000000E+00 0.  1.
         11    1    1    2    0    0  0.55193252524E+02 -0.38252565621E+02  0.15572786781E+03  0.16958986618E+03  0.00000000000E+00 0. -1.
</event>
<event>
 7    1  0.2878477E-009  0.1061531E+03  0.7561462E-02  0.1267864E+00
          2   -1    0    0  501    0  0.00000000000E+00  0.00000000000E+00  0.23792930789E+03  0.23792930789E+03  0.00000000000E+00 0.  1.
         -2   -1    0    0    0  501 -0.00000000000E+00 -0.00000000000E+00 -0.84131471828E+02  0.84131471828E+02  0.00000000000E+00 0. -1.
         25    2    1    2    0    0  0.74880488548E+02 -0.53123109667E+02  0.78079698916E+02  0.17370430460E+03  0.12509034219E+03 0.  0.
          5    1    3    3  502    0  0.37205940168E+02  0.15927782777E+02 -0.22070645431E+02  0.46287817379E+02  0.41800000000E+01 0.  1.
         -5    1    3    3    0  502  0.37674548379E+02 -0.69050892443E+02  0.10015034435E+03  0.12741648722E+03  0.41800000000E+01 0.  1.
        -11    1    1    2    0    0 -0.68136551846E+02  0.42626689668E+02  0.95592796531E+02  0.12489038041E+03  0.00000000000E+00 0.  1.
         11    1    1    2    0    0 -0.67439367015E+01  0.10496419998E+02 -0.19874659389E+02  0.23466094708E+02  0.00000000000E+00 0. -1.
</event>
<event>
 7    1  0.2878477E-009  0.1245880E+03  0.7561462E-02  0.1235715E+00
         -1   -1    0    0    0  501 -0.00000000000E+00  0.00000000000E+00  0.58907610712E+02  0.58907610712E+02  0.00000000000E+00 0.  1.
          1   -1    0    0  501    0  0.00000000000E+00 -0.00000000000E+00 -0.31289280457E+03  0.31289280457E+03  0.00000000000E+00 0. -1.
         25    2    1    2    0    0  0.55671344463E+02  0.57491327509E+02 -0.12157474991E+03  0.19191490041E+03  0.12508540223E+03 0.  0.
          5    1    3    3  502    0 -0.31614226883E+02  0.94506364809E+01  0.17634659856E+01  0.33306997516E+02  0.41800000000E+01 0.  1.
         -5    1    3    3    0  502  0.87285571346E+02  0.48040691028E+02 -0.12333821589E+03  0.15860790289E+03  0.41800000000E+01 0.  1.
        -11    1    1    2    0    0 -0.21945090706E+02  0.21242407347E+02 -0.61585912234E+02  0.68743373947E+02  0.00000000000E+00 0. -1.
         11    1    1    2    0    0 -0.33726253758E+02 -0.78733734856E+02 -0.70824531715E+02  0.11114214093E+03  0.00000000000E+00 0.  1.
</event>
<event>
 7    1  0.2878477E-009  0.1006285E+03  0.7561462E-02  0.1278980E+00
         -2   -1    0    0    0  501 -0.00000000000E+00  0.00000000000E+00  0.11360414557E+03  0.11360414557E+03  0.00000000000E+00 0.  1.
          2   -1    0    0  501    0  0.00000000000E+00 -0.00000000000E+00 -0.17173046259E+03  0.17173046259E+03  0.00000000000E+00 0. -1.
         25    2    1    2    0    0 -0.56263220685E+02  0.48007507129E+02 -0.62035431902E+02  0.15801788062E+03  0.12510389699E+03 0.  0.
          5    1    3    3  502    0 -0.50919609653E+02  0.38871560480E+02  0.25990974205E+02  0.69258992207E+02  0.41800000000E+01 0.  1.
         -5    1    3    3    0  502 -0.53436110316E+01  0.91359466482E+01 -0.88026406107E+02  0.88758888412E+02  0.41800000000E+01 0.  1.
        -11    1    1    2    0    0  0.53354497985E+02  0.20466074172E+02 -0.81665258360E+01  0.57725685717E+02  0.00000000000E+00 0. -1.
         11    1    1    2    0    0  0.29087226996E+01 -0.68473581300E+02  0.12075640714E+02  0.69591041826E+02  0.00000000000E+00 0.  1.
</event>
<event>
 7    1  0.2878477E-009  0.1172534E+03  0.7561462E-02  0.1247698E+00
          2   -1    0    0  501    0  0.00000000000E+00  0.00000000000E+00  0.32070202505E+02  0.32070202505E+02  0.00000000000E+00 0. -1.
         -2   -1    0    0    0  501 -0.00000000000E+00 -0.00000000000E+00 -0.54669751835E+03  0.54669751835E+03  0.00000000000E+00 0.  1.
         25    2    1    2    0    0  0.63946030076E+02 -0.87728192043E+01 -0.37890024598E+03  0.40420197227E+03  0.12509109026E+03 0.  0.
          5    1    3    3  502    0 -0.21693622824E+02 -0.42895090941E+02 -0.11932534907E+03  0.12871135703E+03  0.41800000000E+01 0. -1.
         -5    1    3    3    0  502  0.85639652900E+02  0.34122271737E+02 -0.25957489691E+03  0.27549061524E+03  0.41800000000E+01 0. -1.
        -11    1    1    2    0    0  0.24495465392E+01 -0.21047854419E+02 -0.73602699277E+00  0.21202692981E+02  0.00000000000E+00 0. -1.
         11    1    1    2    0    0 -0.66395576615E+02  0.29820673624E+02 -0.13499104288E+03  0.15336305561E+03  0.00000000000E+00 0.  1.
</event>
<event>
 7    1  0.2878477E-009  0.9461424E+02  0.7561462E-02  0.1292047E+00
          1   -1    0    0  501    0  0.00000000000E+00  0.00000000000E+00  0.10345357778E+04  0.10345357778E+04  0.00000000000E+00 0. -1.
         -1   -1    0    0    0  501 -0.00000000000E+00 -0.00000000000E+00 -0.15887158722E+02  0.15887158722E+02  0.00000000000E+00 0.  1.
         25    2    1    2    0    0 -0.60966599413E+02 -0.29004837516E+02  0.62380507437E+03  0.63979569515E+03  0.12509018301E+03 0.  0.
          5    1    3    3  502    0 -0.34626862360E+02  0.11021234908E+02  0.55294808407E+03  0.55415660539E+03  0.41800000000E+01 0.  1.
         -5    1    3    3    0  502 -0.26339737053E+02 -0.40026072425E+02  0.70856990291E+02  0.85639089760E+02  0.41800000000E+01 0.  1.
        -11    1    1    2    0    0  0.30897560514E+02 -0.26970320527E+02  0.85530348088E+02  0.94855141554E+02  0.00000000000E+00 0. -1.
         11    1    1    2    0    0  0.30069038898E+02  0.55975158043E+02  0.30931319666E+03  0.31577209986E+03  0.00000000000E+00 0.  1.
</event>
<event>
 7    1  0.2878477E-009  0.3085697E+03  0.7561462E-02  0.1081033E+00
          2   -1    0    0  501    0  0.00000000000E+00  0.00000000000E+00  0.48745960109E+03  0.48745960109E+03  0.00000000000E+00 0.  1.
         -2   -1    0    0    0  501 -0.00000000000E+00 -0.00000000000E+00 -0.26724841913E+03  0.26724841913E+03  0.00000000000E+00 0. -1.
         25    2    1    2    0    0  0.12047944083E+03  0.28017604033E+03  0.27794685887E+03  0.43118283648E+03  0.12510105068E+03 0.  0.
          5    1    3    3  502    0  0.30863914693E+02  0.13042144252E+03  0.19811008345E+03  0.23922251454E+03  0.41800000000E+01 0. -1.
         -5    1    3    3    0  502  0.89615526136E+02  0.14975459781E+03  0.79836775422E+02  0.19196032194E+03  0.41800000000E+01 0. -1.
        -11    1    1    2    0    0 -0.81044129081E+02 -0.12983563175E+03  0.11271527665E+02  0.15346820344E+03  0.00000000000E+00 0.  1.
         11    1    1    2    0    0 -0.39435311748E+02 -0.15034040858E+03 -0.69007204576E+02  0.17005698030E+03  0.00000000000E+00 0. -1.
</event>
<event>
 7    1  0.2878477E-009  0.8917801E+02  0.7561462E-02  0.1304855E+00
          2   -1    0    0  501    0  0.00000000000E+00  0.00000000000E+00  0.12435028487E+03  0.12435028487E+03  0.00000000000E+00 0. -1.
         -2   -1    0    0    0  501 -0.00000000000E+00 -0.00000000000E+00 -0.12922299565E+03  0.12922299565E+03  0.00000000000E+00 0.  1.
         25    2    1    2    0    0  0.14307526734E+02 -0.65360530154E+02 -0.14803849737E+02  0.14262823596E+03  0.12508779119E+03 0.  0.
          5    1    3    3  502    0  0.59743580008E+01 -0.61854005379E+02  0.48254427515E+02  0.78788153359E+02  0.41800000000E+01 0.  1.
         -5    1    3    3    0  502  0.83331687333E+01 -0.35065247751E+01 -0.63058277251E+02  0.63840082605E+02  0.41800000000E+01 0.  1.
        -11    1    1    2    0    0  0.31776794238E+02  0.46496100444E+02  0.20694306084E+02  0.59999219269E+02  0.00000000000E+00 0. -1.
         11    1    1    2    0    0 -0.46084320972E+02  0.18864429710E+02 -0.10763167134E+02  0.50945825290E+02  0.00000000000E+00 0.  1.
</event>
<event>
 7    1  0.2878477E-009  0.1036687E+03  0.7561462E-02  0.1272765E+00
          2   -1    0    0  501    0  0.00000000000E+00  0.00000000000E+00  0.99516383108E+02  0.99516383108E+02  0.00000000000E+00 0. -1.
         -2   -1    0    0    0  501 -0.00000000000E+00 -0.00000000000E+00 -0.20506861265E+03  0.20506861265E+03  0.00000000000E+00 0.  1.
         25    2    1    2    0    0 -0.22509587598E+02  0.80783863827E+02 -0.99313076255E+02  0.18039732603E+03  0.12508954366E+03 0.  0.
          5    1    3    3  502    0 -0.63384209900E+01 -0.16829929649E+02  0.18739403641E+02  0.26307028746E+02  0.41800000000E+01 0. -1.
         -5    1    3    3    0  502 -0.16171166608E+02  0.97613793476E+02 -0.11805247990E+03  0.15409029728E+03  0.41800000000E+01 0. -1.
        -11    1    1    2    0    0 -0.74903311629E+01 -0.29419479418E+02 -0.44201468387E+02  0.53622575821E+02  0.00000000000E+00 0.  1.
         11    1    1    2    0    0  0.29999918761E+02 -0.51364384410E+02  0.37962315097E+02  0.70565093913E+02  0.00000000000E+00 0. -1.
</event>
<event>
 7    1  0.2878477E-009  0.1107998E+03  0.7561462E-02  0.1259096E+00
         -2   -1    0    0    0  501 -0.00000000000E+00  0.00000000000E+00  0.20369432996E+02  0.20369432996E+02  0.00000000000E+00 0.  1.
          2   -1    0    0  501    0  0.00000000000E+00 -0.00000000000E+00 -0.93247449155E+03  0.93247449155E+03  0.00000000000E+00 0. -1.
         25    2    1    2    0    0 -0.28903738650E+02  0.81406884948E+02 -0.50241340260E+03  0.52490908686E+03  0.12509122801E+03 0.  0.
          5    1    3    3  502    0 -0.39086220528E+02  0.88489470526E+02 -0.19993563793E+03  0.22214826298E+03  0.41800000000E+01 0.  1.
         -5    1    3    3    0  502  0.10182481878E+02 -0.70825855777E+01 -0.30247776467E+03  0.30276082388E+03  0.41800000000E+01 0.  1.
        -11    1    1    2    0    0  0.43689017644E+02 -0.19162374848E+02 -0.27140885055E+03  0.27556975710E+03  0.00000000000E+00 0. -1.
         11    1    1    2    0    0 -0.14785278994E+02 -0.62244510100E+02 -0.13828280540E+03  0.15236508058E+03  0.00000000000E+00 0.  1.
</event>
<event>
 7    1  0.2878477E-009  0.1934489E+03  0.7561462E-02  0.1155387E+00
          1   -1    0    0  501    0  0.00000000000E+00  0.00000000000E+00  0.23408340812E+03  0.23408340812E+03  0.00000000000E+00 0. -1.
         -1   -1    0    0    0  501 -0.00000000000E+00 -0.00000000000E+00 -0.17837679236E+03  0.17837679236E+03  0.00000000000E+00 0.  1.
         25    2    1    2    0    0  0.14898918112E+03  0.66816167491E+02 -0.28384591446E+02  0.20764328369E+03  0.12509145415E+03 0.  0.
          5    1    3    3  502    0 -0.21072553955E+02 -0.18671883274E+01 -0.82416658406E+01  0.23085414839E+02  0.41800000000E+01 0.  1.
         -5    1    3    3    0  502  0.17006173508E+03  0.68683355818E+02 -0.20142925606E+02  0.18455786885E+03  0.41800000000E+01 0.  1.
        -11    1    1    2    0    0 -0.12356601326E+02 -0.41008551566E+02  0.40882766376E+02  0.59209690798E+02  0.00000000000E+00 0.  1.
         11    1    1    2    0    0 -0.13663257979E+03 -0.25807615925E+02  0.43208440830E+02  0.14560722599E+03  0.00000000000E+00 0. -1.
</event>
<event>
 6    1  0.2878477E-009  0.1119325E+03  0.7561462E-02  0.1257033E+00
          1   -1    0    0  501    0  0.00000000000E+00  0.00000000000E+00  0.22871367870E+03  0.22871367870E+03  0.00000000000E+00 0. -1.
         -1   -1    0    0    0  501 -0.00000000000E+00 -0.00000000000E+00 -0.18714698027E+03  0.18714698027E+03  0.00000000000E+00 0.  1.
          5    1    1    2  502    0 -0.90925810475E+01  0.58249496121E+02 -0.13007910845E+03  0.14287661000E+03  0.41800000000E+01 0. -1.
         -5    1    1    2    0  502 -0.56549894052E+02  0.11530124367E+02  0.52356131737E+01  0.58100932269E+02  0.41800000000E+01 0. -1.
        -11    1    1    2    0    0  0.10485080907E+02 -0.45395380280E+02  0.14264772277E+03  0.15006348751E+03  0.00000000000E+00 0. -1.
         11    1    1    2    0    0  0.55157394192E+02 -0.24384240207E+02  0.23762470944E+02  0.64819629203E+02  0.00000000000E+00 0.  1.
</event>
<event>
 7    1  0.2878477E-009  0.3020451E+03  0.7561462E-02  0.1084223E+00
          2   -1    0    0  501    0  0.00000000000E+00  0.00000000000E+00  0.15445490997E+04  0.15445490997E+04  0.00000000000E+00 0.  1.
         -2   -1    0    0    0  501 -0.00000000000E+00 -0.00000000000E+00 -0.62194484643E+02  0.62194484643E+02  0.00000000000E+00 0. -1.
         25    2    1    2    0    0 -0.25714737643E+03  0.12943726463E+03  0.83069680905E+03  0.88802206721E+03  0.12508886685E+03 0.  0.
          5    1    3    3  502    0 -0.96997116828E+02 -0.11196833004E+02  0.32082780780E+03  0.33538301149E+03  0.41800000000E+01 0. -1.
         -5    1    3    3    0  502 -0.16015025960E+03  0.14063409763E+03  0.50986900125E+03  0.55263905572E+03  0.41800000000E+01 0. -1.
        -11    1    1    2    0    0  0.96618164571E+02 -0.79341111635E+02  0.19051056791E+03  0.22786916906E+03  0.00000000000E+00 0.  1.
         11    1    1    2    0    0  0.16052921186E+03 -0.50096152993E+02  0.46114723807E+03  0.49085234805E+03  0.00000000000E+00 0. -1.
</event>
<event>
 7    1  0.2878477E-009  0.8152488E+02  0.7561462E-02  0.1324779E+00
         -2   -1    0    0    0  501 -0.00000000000E+00  0.00000000000E+00  0.95011479788E+02  0.95011479788E+02  0.00000000000E+00 0. -1.
          2   -1    0    0  501    0  0.00000000000E+00 -0.00000000000E+00 -0.13684439638E+03  0.13684439638E+03  0.00000000000E+00 0.  1.
         25    2    1    2    0    0  0.12683812330E+00  0.18100812204E+02 -0.44663578916E+02  0.13405681910E+03  0.12509492386E+03 0.  0.
          5    1    3    3  502    0  0.35928676360E+02 -0.16021615068E+02 -0.68417118270E+02  0.79031236905E+02  0.41800000000E+01 0. -1.
         -5    1    3    3    0  502 -0.35801838237E+02  0.34122427272E+02  0.23753539354E+02  0.55025582195E+02  0.41800000000E+01 0. -1.
        -11    1    1    2    0    0 -0.34234701235E+02 -0.20080797832E+02 -0.30510372512E+02  0.50061322805E+02  0.00000000000E+00 0.  1.
         11    1    1    2    0    0  0.34107863112E+02  0.19799856273E+01  0.33341034832E+02  0.47737734266E+02  0.00000000000E+00 0. -1.
</event>
<event>
 7    1  0.2878477E-009  0.2066457E+03  0.7561462E-02  0.1144250E+00
         -1   -1    0    0    0  501 -0.00000000000E+00  0.00000000000E+00  0.12256476215E+03  0.12256476215E+03  0.00000000000E+00 0.  1.
          1   -1    0    0  501    0  0.00000000000E+00 -0.00000000000E+00 -0.60591665003E+03  0.60591665003E+03  0.00000000000E+00 0. -1.
         25    2    1    2    0    0 -0.18800349005E+03  0.28346853400E+02 -0.32145156878E+02  0.22984791140E+03  0.12509154606E+03 0.  0.
          5    1    3    3  502    0  0.15701499959E+02 -0.12522555045E+01  0.10773144465E+02  0.19535564657E+02  0.41800000000E+01 0. -1.
         -5    1    3    3    0  502 -0.20370499001E+03  0.29599108904E+02 -0.42918301343E+02  0.21031234675E+03  0.41800000000E+01 0. -1.
        -11    1    1    2    0    0  0.12895275104E+03 -0.10310048472E+02 -0.18751238802E+03  0.22780694625E+03  0.00000000000E+00 0.  1.
         11    1    1    2    0    0  0.59050739009E+02 -0.18036804928E+02 -0.26369434299E+03  0.27082655452E+03  0.00000000000E+00 0. -1.
</event>
<event>
 7    1  0.2878477E-009  0.1140436E+03  0.7561462E-02  0.1253260E+00
         -1   -1    0    0    0  501 -0.00000000000E+00  0.00000000000E+00  0.19284150982E+03  0.19284150982E+03  0.00000000000E+00 0.  1.
          1   -1    0    0  501    0  0.00000000000E+00 -0.00000000000E+00 -0.13938272643E+03  0.13938272643E+03  0.00000000000E+00 0. -1.
         25    2    1    2    0    0  0.61044486686E+02  0.13599767799E+02 -0.78174790289E+02  0.16022491785E+03  0.12509733580E+03 0.  0.
          5    1    3    3  502    0  0.78456744213E+02 -0.23575089017E+02 -0.12951078183E+02  0.83044857522E+02  0.41800000000E+01 0. -1.
         -5    1    3    3    0  502 -0.17412257527E+02  0.37174856816E+02 -0.65223712107E+02  0.77180060329E+02  0.41800000000E+01 0. -1.
        -11    1    1    2    0    0 -0.55246328864E+02  0.28592492904E+02  0.49566179950E+02  0.79539258849E+02  0.00000000000E+00 0.  1.
         11    1    1    2    0    0 -0.57981578223E+01 -0.42192260704E+02  0.82067393736E+02  0.92460059550E+02  0.00000000000E+00 0. -1.
</event>
<event>
 7    1  0.2878477E-009  0.1491185E+03  0.7561462E-02  0.1201560E+00
         -1   -1    0    0    0  501 -0.00000000000E+00  0.00000000000E+00  0.38178295290E+02  0.38178295290E+02  0.00000000000E+00 0.  1.
          1   -1    0    0  501    0  0.00000000000E+00 -0.00000000000E+00 -0.72763137779E+03  0.72763137779E+03  0.00000000000E+00 0. -1.
         25    2    1    2    0    0 -0.25271761914E+02 -0.10411145081E+03 -0.52924292080E+03  0.55427741836E+03  0.12509009213E+03 0.  0.
          5    1    3    3  502    0 -0.74406582747E+02 -0.76996254041E+02 -0.37837461790E+03  0.39325511638E+03  0.41800000000E+01 0.  1.
         -5    1    3    3    0  502  0.49134820833E+02 -0.27115196768E+02 -0.15086830290E+03  0.16102230198E+03  0.41800000000E+01 0.  1.
        -11    1    1    2    0    0 -0.12242698932E+02  0.95544893101E+02 -0.91918024243E+02  0.13314515934E+03  0.00000000000E+00 0.  1.
         11    1    1    2    0    0  0.37514460845E+02  0.85665577084E+01 -0.68292137456E+02  0.78387095378E+02  0.00000000000E+00 0. -1.
</event>
<event>
 7    1  0.2878477E-009  0.1126867E+03  0.7561462E-02  0.1255674E+00
          3   -1    0    0  501    0  0.00000000000E+00  0.00000000000E+00  0.11184740667E+03  0.11184740667E+03  0.00000000000E+00 0. -1.
         -3   -1    0    0    0  501 -0.00000000000E+00 -0.00000000000E+00 -0.13901012975E+03  0.13901012975E+03  0.00000000000E+00 0.  1.
         25    2    1    2    0    0  0.70683669477E+01 -0.60879927819E+02 -0.16837024469E+02  0.14031192820E+03  0.12509046478E+03 0.  0.
          5    1    3    3  502    0 -0.42089971637E+02 -0.48858758398E+02  0.29984555721E+02  0.71241069380E+02  0.41800000000E+01 0.  1.
         -5    1    3    3    0  502  0.49158338584E+02 -0.12021169420E+02 -0.46821580190E+02  0.69070858820E+02  0.41800000000E+01 0.  1.
        -11    1    1    2    0    0  0.32947962202E+02  0.61699731473E+02 -0.43942838532E+01  0.70083769931E+02  0.00000000000E+00 0. -1.
         11    1    1    2    0    0 -0.40016329150E+02 -0.81980365477E+00 -0.59314147581E+01  0.40461838289E+02  0.00000000000E+00 0.  1.
</event>
<event>
 7    1  0.2878477E-009  0.1581481E+03  0.7561462E-02  0.1190804E+00
         -1   -1    0    0    0  501 -0.00000000000E+00  0.00000000000E+00  0.14278197884E+03  0.14278197884E+03  0.00000000000E+00 0.  1.
          1   -1    0    0  501    0  0.00000000000E+00 -0.00000000000E+00 -0.20052669592E+03  0.20052669592E+03  0.00000000000E+00 0. -1.
         25    2    1    2    0    0  0.11811998089E+03  0.34110647040E+02  0.12660937602E+02  0.17584526937E+03  0.12508154656E+03 0.  0.
          5    1    3    3  502    0 -0.13126467015E+02 -0.21041655292E+02  0.21582541729E+02  0.33141121001E+02  0.41800000000E+01 0.  1.
         -5    1    3    3    0  502  0.13124644791E+03  0.55152302332E+02 -0.89216041279E+01  0.14270414837E+03  0.41800000000E+01 0.  1.
        -11    1    1    2    0    0 -0.12569521417E+03 -0.46648670827E+02 -0.72890471310E+02  0.15260539363E+03  0.00000000000E+00 0.  1.
         11    1    1    2    0    0  0.75752332795E+01  0.12538023787E+02  0.24848166280E+01  0.14858011758E+02  0.00000000000E+00 0. -1.
</event>
<event>
 7    1  0.2878477E-009  0.1185040E+03  0.7561462E-02  0.1245586E+00
         -3   -1    0    0    0  501 -0.00000000000E+00  0.00000000000E+00  0.32846256287E+02  0.32846256287E+02  0.00000000000E+00 0.  1.
          3   -1    0    0  501    0  0.00000000000E+00 -0.00000000000E+00 -0.66142787110E+03  0.66142787110E+03  0.00000000000E+00 0. -1.
         25    2    1    2    0    0  0.77304234178E+02 -0.49761467358E+02 -0.42976036222E+03  0.45694032993E+03  0.12509335683E+03 0.  0.
          5    1    3    3  502    0  0.10492300583E+03 -0.31303033191E+02 -0.23458069783E+03  0.25890981680E+03  0.41800000000E+01 0.  1.
         -5    1    3    3    0  502 -0.27618771650E+02 -0.18458434166E+02 -0.19517966439E+03  0.19803051313E+03  0.41800000000E+01 0.  1.
        -11    1    1    2    0    0 -0.54899912265E+02  0.24295325056E+02 -0.19399653191E+03  0.20307367525E+03  0.00000000000E+00 0. -1.
         11    1    1    2    0    0 -0.22404321913E+02  0.25466142302E+02 -0.48247206808E+01  0.34260122209E+02  0.00000000000E+00 0.  1.
</event>
<event>
 7    1  0.2878477E-009  0.1806277E+03  0.7561462E-02  0.1167197E+00
         -2   -1    0    0    0  501 -0.00000000000E+00  0.00000000000E+00  0.25462268137E+02  0.25462268137E+02  0.00000000000E+00 0.  1.
          2   -1    0    0  501    0  0.00000000000E+00 -0.00000000000E+00 -0.27943058928E+04  0.27943058928E+04  0.00000000000E+00 0. -1.
         25    2    1    2    0    0  0.19964722871E+02  0.16423262239E+03 -0.23411270451E+04  0.23502965998E+04  0.12508925394E+03 0.  0.
          5    1    3    3  502    0  0.57149111104E+02  0.13043481980E+03 -0.20407546056E+04  0.20457214120E+04  0.41800000000E+01 0.  1.
         -5    1    3    3    0  502 -0.37184388233E+02  0.33797802587E+02 -0.30037243950E+03  0.30457518776E+03  0.41800000000E+01 0.  1.
        -11    1    1    2    0    0  0.80307525414E+01 -0.55931778357E+02 -0.27160446762E+03  0.27741997701E+03  0.00000000000E+00 0.  1.
         11    1    1    2    0    0 -0.27995475412E+02 -0.10830084403E+03 -0.15611211199E+03  0.19205158414E+03  0.00000000000E+00 0. -1.
</event>
<event>
 7    1  0.2878477E-009  0.1300090E+03  0.7561462E-02  0.1227442E+00
         -1   -1    0    0    0  501 -0.00000000000E+00  0.00000000000E+00  0.10066037342E+04  0.10066037342E+04  0.00000000000E+00 0.  1.
          1   -1    0    0  501    0  0.00000000000E+00 -0.00000000000E+00 -0.17056335779E+02  0.17056335779E+02  0.00000000000E+00 0. -1.
         25    2    1    2    0    0  0.61363384178E+02  0.41230815565E+02  0.54175432519E+03  0.56090160929E+03  0.12508965333E+03 0.  0.
          5    1    3    3  502    0  0.10774508728E+02  0.79231212272E+02  0.25754358581E+03  0.26970325551E+03  0.41800000000E+01 0. -1.
         -5    1    3    3    0  502  0.50588875450E+02 -0.38000396708E+02  0.28421073938E+03  0.29119835379E+03  0.41800000000E+01 0. -1.
        -11    1    1    2    0    0  0.11114251316E+02 -0.42622866960E+02  0.15648175501E+03  0.16256314164E+03  0.00000000000E+00 0. -1.
         11    1    1    2    0    0 -0.72477635494E+02  0.13920513949E+01  0.29131131823E+03  0.30019531906E+03  0.00000000000E+00 0.  1.
</event>
<event>
 7    1  0.2878477E-009  0.1554861E+03  0.7561462E-02  0.1193889E+00
         -1   -1    0    0    0  501 -0.00000000000E+00  0.00000000000E+00  0.55231611154E+02  0.55231611154E+02  0.00000000000E+00 0.  1.
          1   -1    0    0  501    0  0.00000000000E+00 -0.00000000000E+00 -0.62177749992E+03  0.62177749992E+03  0.00000000000E+00 0. -1.
         25    2    1    2    0    0  0.57392382563E+02  0.10883585856E+03 -0.46209664524E+03  0.49428267056E+03  0.12507165623E+03 0.  0.
          5    1    3    3  502    0 -0.36944901845E+02  0.55092526975E+02 -0.16087124693E+03  0.17406074454E+03  0.41800000000E+01 0.  1.
         -5    1    3    3    0  502  0.94337284408E+02  0.53743331586E+02 -0.30122539830E+03  0.32022192602E+03  0.41800000000E+01 0.  1.
        -11    1    1    2    0    0  0.11551074131E+02 -0.95948594831E+01 -0.46204033987E+02  0.48582933205E+02  0.00000000000E+00 0. -1.
         11    1    1    2    0    0 -0.68943456694E+02 -0.99240999078E+02 -0.58245209544E+02  0.13414350731E+03  0.00000000000E+00 0.  1.
</event>
<event>
 7    1  0.2878477E-009  0.1295510E+03  0.7561462E-02  0.1228123E+00
         -2   -1    0    0    0  501 -0.00000000000E+00  0.00000000000E+00  0.85763469114E+02  0.85763469114E+02  0.00000000000E+00 0.  1.
          2   -1    0    0  501    0  0.00000000000E+00 -0.00000000000E+00 -0.20106518309E+03  0.20106518309E+03  0.00000000000E+00 0. -1.
         25    2    1    2    0    0 -0.43938486495E+02  0.60636635052E+02 -0.68942193661E+02  0.16126771007E+03  0.12508739400E+03 0.  0.
          5    1    3    3  502    0  0.27821781343E+02  0.67558697081E+02 -0.40602997471E+02  0.83691725231E+02  0.41800000000E+01 0.  1.
         -5    1    3    3    0  502 -0.71760267838E+02 -0.69220620286E+01 -0.28339196189E+02  0.77575984838E+02  0.41800000000E+01 0.  1.
        -11    1    1    2    0    0  0.44707447689E+02  0.76985472159E+01 -0.32563822016E+02  0.55842868949E+02  0.00000000000E+00 0.  1.
         11    1    1    2    0    0 -0.76896119473E+00 -0.68335182268E+02 -0.13795698294E+02  0.69718073183E+02  0.00000000000E+00 0. -1.
</event>
<event>
 7    1  0.2878477E-009  0.9724785E+02  0.7561462E-02  0.1286192E+00
          2   -1    0    0  501    0  0.00000000000E+00  0.00000000000E+00  0.24357778932E+03  0.24357778932E+03  0.00000000000E+00 0. -1.
         -2   -1    0    0    0  501 -0.00000000000E+00 -0.00000000000E+00 -0.75578135053E+02  0.75578135053E+02  0.00000000000E+00 0.  1.
         25    2    1    2    0    0  0.13204103419E+02  0.10156976075E+02 -0.38521705823E+01  0.12624999311E+03  0.12508680599E+03 0.  0.
          5    1    3    3  502    0  0.36864410075E+02  0.58799223189E+02 -0.14349915962E+02  0.70991026657E+02  0.41800000000E+01 0.  1.
         -5    1    3    3    0  502 -0.23660306656E+02 -0.48642247113E+02  0.10497745380E+02  0.55258966452E+02  0.41800000000E+01 0.  1.
        -11    1    1    2    0    0  0.22656063685E+01  0.28754527882E+02  0.19284380906E+02  0.34696443519E+02  0.00000000000E+00 0.  1.
         11    1    1    2    0    0 -0.15469709787E+02 -0.38911503957E+02  0.15256744394E+03  0.15820948774E+03  0.00000000000E+00 0. -1.
</event>
<event>
 7    1  0.2878477E-009  0.8850450E+02  0.7561462E-02  0.1306514E+00
         -1   -1    0    0    0  501 -0.00000000000E+00  0.00000000000E+00  0.74251153898E+02  0.74251153898E+02  0.00000000000E+00 0.  1.
          1   -1    0    0  501    0  0.00000000000E+00 -0.00000000000E+00 -0.18405874597E+03  0.18405874597E+03  0.00000000000E+00 0. -1.
         25    2    1    2    0    0 -0.21347845313E+02 -0.22001362141E+02 -0.31603576366E+02  0.13261284585E+03  0.12509032900E+03 0.  0.
          5    1    3    3  502    0 -0.59735945017E+02 -0.26201191340E+02  0.19696513568E+02  0.68266467621E+02  0.41800000000E+01 0.  1.
         -5    1    3    3    0  502  0.38388099704E+02  0.41998291993E+01 -0.51300089934E+02  0.64346378231E+02  0.41800000000E+01 0.  1.
        -11    1    1    2    0    0 -0.12353742794E+02 -0.17155151988E+02  0.10070146103E+02  0.23416277315E+02  0.00000000000E+00 0. -1.
         11    1    1    2    0    0  0.33701588107E+02  0.39156514129E+02 -0.88274161813E+02  0.10228077670E+03  0.00000000000E+00 0.  1.
</event>
<event>
 7    1  0.3091545E-009  0.2131799E+03  0.7561462E-02  0.1139072E+00
          1   -1    0    0  501    0  0.00000000000E+00  0.00000000000E+00  0.23746305039E+03  0.23746305039E+03  0.00000000000E+00 0. -1.
         -1   -1    0    0    0  501 -0.00000000000E+00 -0.00000000000E+00 -0.20778319326E+03  0.20778319326E+03  0.00000000000E+00 0.  1.
         25    2    1    2    0    0  0.11768187868E+03  0.14768929873E+03  0.55938394504E+02  0.23331552579E+03  0.12508348040E+03 0.  0.
          5    1    3    3  502    0  0.62203453220E+02 -0.63153103486E+01  0.18622440477E+02  0.65371403738E+02  0.41800000000E+01 0. -1.
         -5    1    3    3    0  502  0.55478425460E+02  0.15400460907E+03  0.37315954027E+02  0.16794412205E+03  0.41800000000E+01 0. -1.
        -11    1    1    2    0    0 -0.71952128593E+02 -0.38572186022E+02 -0.43277897958E+02  0.92400751053E+02  0.00000000000E+00 0.  1.
         11    1    1    2    0    0 -0.45729750087E+02 -0.10911711270E+03  0.17019360582E+02  0.11952996680E+03  0.00000000000E+00 0. -1.
</event>
<event>
 6    1  0.2878477E-009  0.1279543E+03  0.7561462E-02  0.1230523E+00
         -2   -1    0    0    0  501 -0.00000000000E+00  0.00000000000E+00  0.69553359429E+02  0.69553359429E+02  0.00000000000E+00 0.  1.
          2   -1    0    0  501    0  0.00000000000E+00 -0.00000000000E+00 -0.40088054557E+03  0.40088054557E+03  0.00000000000E+00 0. -1.
          5    1    1    2  502    0 -0.46817300578E+02 -0.11428571924E+02 -0.16081184148E+03  0.16792972533E+03  0.41800000000E+01 0. -1.
         -5    1    1    2    0  502 -0.70865951405E+02 -0.36615475209E+02 -0.12592078630E+02  0.80862283776E+02  0.41800000000E+01 0. -1.
        -11    1    1    2    0    0  0.26036911897E+02  0.54602392048E+01 -0.10349617059E+03  0.10686062099E+03  0.00000000000E+00 0. -1.
         11    1    1    2    0    0  0.91646340085E+02  0.42583807928E+02 -0.54427095448E+02  0.11478127490E+03  0.00000000000E+00 0.  1.
</event>
<event>
 7    1  0.2878477E-009  0.1333001E+03  0.7561462E-02  0.1222640E+00
          3   -1    0    0  501    0  0.00000000000E+00  0.00000000000E+00  0.29487016377E+03  0.29487016377E+03  0.00000000000E+00 0. -1.
         -3   -1    0    0    0  501 -0.00000000000E+00 -0.00000000000E+00 -0.69313016421E+02  0.69313016421E+02  0.00000000000E+00 0.  1.
         25    2    1    2    0    0  0.63771133178E+02  0.64590602711E+02  0.13863284795E+03  0.20761762426E+03  0.12508920012E+03 0.  0.
          5    1    3    3  502    0  0.68497001733E+02  0.91719110451E+02  0.71746442369E+02  0.13516382231E+03  0.41800000000E+01 0. -1.
         -5    1    3    3    0  502 -0.47258685546E+01 -0.27128507741E+02  0.66886405580E+02  0.72453801952E+02  0.41800000000E+01 0. -1.
        -11    1    1    2    0    0  0.15552457920E+02 -0.37129468117E+02  0.73897483523E+01  0.40927798997E+02  0.00000000000E+00 0.  1.
         11    1    1    2    0    0 -0.79323591098E+02 -0.27461134594E+02  0.79534551043E+02  0.11563775693E+03  0.00000000000E+00 0. -1.
</event>
<event>
 7    1  0.2878477E-009  0.1233488E+03  0.7561462E-02  0.1237673E+00
          1   -1    0    0  501    0  0.00000000000E+00  0.00000000000E+00  0.45001129883E+03  0.45001129883E+03  0.00000000000E+00 0. -1.
         -1   -1    0    0    0  501 -0.00000000000E+00 -0.00000000000E+00 -0.44909941789E+02  0.44909941789E+02  0.00000000000E+00 0.  1.
         25    2    1    2    0    0  0.19057445080E+02  0.69614730789E+02  0.31970821745E+03  0.35081320651E+03  0.12508862697E+03 0.  0.
          5    1    3    3  502    0 -0.31213346177E+02  0.73565998232E+02  0.11606447298E+03  0.14097752787E+03  0.41800000000E+01 0. -1.
         -5    1    3    3    0  502  0.50270791256E+02 -0.39512674426E+01  0.20364374447E+03  0.20983567864E+03  0.41800000000E+01 0. -1.
        -11    1    1    2    0    0  0.18910306053E+02  0.14473306474E+02  0.16896019983E+02  0.29198489114E+02  0.00000000000E+00 0. -1.
         11    1    1    2    0    0 -0.37967751132E+02 -0.84088037263E+02  0.68497119601E+02  0.11490954499E+03  0.00000000000E+00 0.  1.
</event>
<event>
 7    1  0.2878477E-009  0.7310708E+02  0.7561462E-02  0.1349835E+00
          2   -1    0    0  501    0  0.00000000000E+00  0.00000000000E+00  0.18594023273E+03  0.18594023273E+03  0.00000000000E+00 0. -1.
         -2   -1    0    0    0  501 -0.00000000000E+00 -0.00000000000E+00 -0.62308935878E+02  0.62308935878E+02  0.00000000000E+00 0.  1.
         25    2    1    2    0    0  0.76686028057E+01 -0.78206665619E+01  0.65619436369E+02  0.14168069151E+03  0.12509011801E+03 0.  0.
          5    1    3    3  502    0  0.38244462514E+02  0.15492895955E+02 -0.21241813786E+02  0.46597808865E+02  0.41800000000E+01 0.  1.
         -5    1    3    3    0  502 -0.30575859708E+02 -0.23313562516E+02  0.86861250156E+02  0.95082882649E+02  0.41800000000E+01 0.  1.
        -11    1    1    2    0    0  0.18829912184E+02  0.27307767159E+02  0.64970220101E+02  0.72947989966E+02  0.00000000000E+00 0. -1.
         11    1    1    2    0    0 -0.26498514990E+02 -0.19487100597E+02 -0.69583596169E+01  0.33620487130E+02  0.00000000000E+00 0.  1.
</event>
<event>
 7    1  0.2878477E-009  0.1469642E+03  0.7561462E-02  0.1204254E+00
         -1   -1    0    0    0  501 -0.00000000000E+00  0.00000000000E+00  0.10407699478E+03  0.10407699478E+03  0.00000000000E+00 0.  1.
          1   -1    0    0  501    0  0.00000000000E+00 -0.00000000000E+00 -0.24064927937E+03  0.24064927937E+03  0.00000000000E+00 0. -1.
         25    2    1    2    0    0 -0.11696428128E+03  0.12924462806E+02 -0.11158577579E+03  0.20480862080E+03  0.12508997145E+03 0.  0.
          5    1    3    3  502    0 -0.85865342737E+02 -0.45619347263E+02 -0.34981860674E+02  0.10341752706E+03  0.41800000000E+01 0.  1.
         -5    1    3    3    0  502 -0.31098938546E+02  0.58543810069E+02 -0.76603915120E+02  0.10139109373E+03  0.41800000000E+01 0.  1.
        -11    1    1    2    0    0  0.87181285713E+02 -0.34129319904E+02 -0.38096251358E+02  0.10107774940E+03  0.00000000000E+00 0.  1.
         11    1    1    2    0    0  0.29782995570E+02  0.21204857098E+02  0.13109742560E+02  0.38839903960E+02  0.00000000000E+00 0. -1.
</event>
<event>
 7    1  0.2878477E-009  0.1013481E+03  0.7561462E-02  0.1277486E+00
          3   -1    0    0  501    0  0.00000000000E+00  0.00000000000E+00  0.16040204470E+03  0.16040204470E+03  0.00000000000E+00 0. -1.
         -3   -1    0    0    0  501 -0.00000000000E+00 -0.00000000000E+00 -0.33668801911E+03  0.33668801911E+03  0.00000000000E+00 0.  1.
         25    2    1    2    0    0 -0.20236703893E+02  0.43161782469E+01  0.12704703527E+03  0.17948916521E+03  0.12508899903E+03 0.  0.
          5    1    3    3  502    0 -0.38947836187E+00 -0.50795888202E+02  0.15241729248E+02  0.53199216743E+02  0.41800000000E+01 0. -1.
         -5    1    3    3    0  502 -0.19847225532E+02  0.55112066449E+02  0.11180530602E+03  0.12628994847E+03  0.41800000000E+01 0. -1.
        -11    1    1    2    0    0  0.38592000315E+02 -0.38303812424E+02 -0.20085069445E+03  0.20808057573E+03  0.00000000000E+00 0.  1.
         11    1    1    2    0    0 -0.18355296421E+02  0.33987634177E+02 -0.10248231524E+03  0.10952032286E+03  0.00000000000E+00 0. -1.
</event>
<event>
 7    1  0.2878477E-009  0.1384347E+03  0.7561462E-02  0.1215451E+00
          2   -1    0    0  501    0  0.00000000000E+00  0.00000000000E+00  0.41171036189E+03  0.41171036189E+03  0.00000000000E+00 0. -1.
         -2   -1    0    0    0  501 -0.00000000000E+00 -0.00000000000E+00 -0.55904659975E+02  0.55904659975E+02  0.00000000000E+00 0.  1.
         25    2    1    2    0    0 -0.54593754161E+02  0.67468539608E+02  0.98856043892E+02  0.18152512969E+03  0.12508546464E+03 0.  0.
          5    1    3    3  502    0 -0.62416139063E+02  0.99864267805E+02  0.84463754343E+02  0.14498360113E+03  0.41800000000E+01 0.  1.
         -5    1    3    3    0  502  0.78223849020E+01 -0.32395728197E+02  0.14392289548E+02  0.36541528559E+02  0.41800000000E+01 0.  1.
        -11    1    1    2    0    0  0.21148220947E+02 -0.85062041056E+02  0.18907903935E+03  0.20840748835E+03  0.00000000000E+00 0. -1.
         11    1    1    2    0    0  0.33445533215E+02  0.17593501448E+02  0.67870618679E+02  0.77682403832E+02  0.00000000000E+00 0.  1.
</event>
<event>
 7    1  0.2878477E-009  0.1090447E+03  0.7561462E-02  0.1262349E+00
         -2   -1    0    0    0  501 -0.00000000000E+00  0.00000000000E+00  0.15064704037E+02  0.15064704037E+02  0.00000000000E+00 0.  1.
          2   -1    0    0  501    0  0.00000000000E+00 -0.00000000000E+00 -0.23352661767E+04  0.23352661767E+04  0.00000000000E+00 0. -1.
         25    2    1    2    0    0  0.53650541912E+01 -0.89425216699E+02 -0.19850995952E+04  0.19910533656E+04  0.12508976191E+03 0.  0.
          5    1    3    3  502    0  0.32638058035E+02 -0.54969848778E+02 -0.17847172406E+04  0.17858667443E+04  0.41800000000E+01 0. -1.
         -5    1    3    3    0  502 -0.27273003844E+02 -0.34455367921E+02 -0.20038235467E+03  0.20518662135E+03  0.41800000000E+01 0. -1.
        -11    1    1    2    0    0  0.20472217867E+02  0.42953092459E+01 -0.11923347651E+02  0.24077533203E+02  0.00000000000E+00 0.  1.
         11    1    1    2    0    0 -0.25837272058E+02  0.85129907453E+02 -0.32317852977E+03  0.33519998191E+03  0.00000000000E+00 0. -1.
</event>
<event>
 7    1  0.2878477E-009  0.9238151E+02  0.7561462E-02  0.1297185E+00
          2   -1    0    0  501    0  0.00000000000E+00  0.00000000000E+00  0.40513083560E+03  0.40513083560E+03  0.00000000000E+00 0. -1.
         -2   -1    0    0    0  501 -0.00000000000E+00 -0.00000000000E+00 -0.43152871063E+02  0.43152871063E+02  0.00000000000E+00 0.  1.
         25    2    1    2    0    0  0.75317375706E+02 -0.19533605145E+02  0.19213405204E+03  0.24210999655E+03  0.12508991830E+03 0.  0.
          5    1    3    3  502    0 -0.67640815755E+01  0.15306304405E+02 -0.10841038079E+02  0.20372438753E+02  0.41800000000E+01 0.  1.
         -5    1    3    3    0  502  0.82081457282E+02 -0.34839909551E+02  0.20297509012E+03  0.22173755779E+03  0.41800000000E+01 0.  1.
        -11    1    1    2    0    0 -0.23656920918E+02  0.22116781992E+01 -0.39074743271E+01  0.24079239676E+02  0.00000000000E+00 0.  1.
         11    1    1    2    0    0 -0.51660454788E+02  0.17321926946E+02  0.17375138683E+03  0.18209447045E+03  0.00000000000E+00 0. -1.
</event>
<event>
 7    1  0.2878477E-009  0.1004116E+03  0.7561462E-02  0.1279433E+00
         -2   -1    0    0    0  501 -0.00000000000E+00  0.00000000000E+00  0.14716834757E+02  0.14716834757E+02  0.00000000000E+00 0.  1.
          2   -1    0    0  501    0  0.00000000000E+00 -0.00000000000E+00 -0.10461891116E+04  0.10461891116E+04  0.00000000000E+00 0. -1.
         25    2    1    2    0    0  0.30556863775E+02 -0.47531405043E+02 -0.64834331698E+03  0.66271371758E+03  0.12508980134E+03 0.  0.
          5    1    3    3  502    0  0.20484152878E+02  0.16989219752E+02 -0.49823615602E+03  0.49896390017E+03  0.41800000000E+01 0. -1.
         -5    1    3    3    0  502  0.10072710897E+02 -0.64520624795E+02 -0.15010716096E+03  0.16374981741E+03  0.41800000000E+01 0. -1.
        -11    1    1    2    0    0 -0.52600480151E+02 -0.36448991835E+01 -0.18103630915E+03  0.18855832263E+03  0.00000000000E+00 0.  1.
         11    1    1    2    0    0  0.22043616376E+02  0.51176304226E+02 -0.20209265072E+03  0.20963390616E+03  0.00000000000E+00 0. -1.
</event>
<event>
 7    1  0.2878477E-009  0.1260038E+03  0.7561462E-02  0.1233509E+00
         -2   -1    0    0    0  501 -0.00000000000E+00  0.00000000000E+00  0.16458326353E+02  0.16458326353E+02  0.00000000000E+00 0.  1.
          2   -1    0    0  501    0  0.00000000000E+00 -0.00000000000E+00 -0.11056056337E+04  0.11056056337E+04  0.00000000000E+00 0. -1.
         25    2    1    2    0    0  0.41203192656E+02 -0.67658409956E+02 -0.66326218373E+03  0.67958776139E+03  0.12508971793E+03 0.  0.
          5    1    3    3  502    0  0.63107483658E+02 -0.18453750439E-01 -0.17337659720E+03  0.18455208395E+03  0.41800000000E+01 0.  1.
         -5    1    3    3    0  502 -0.21904291002E+02 -0.67639956205E+02 -0.48988558654E+03  0.49503567744E+03  0.41800000000E+01 0.  1.
        -11    1    1    2    0    0 -0.23354732781E+02 -0.18349193265E+02 -0.72728558238E+02  0.78559401858E+02  0.00000000000E+00 0.  1.
         11    1    1    2    0    0 -0.17848459874E+02  0.86007603221E+02 -0.35315656535E+03  0.36391679678E+03  0.00000000000E+00 0. -1.
</event>
<event>
 7    1  0.2878477E-009  0.1489339E+03  0.7561462E-02  0.1201789E+00
         -1   -1    0    0    0  501 -0.00000000000E+00  0.00000000000E+00  0.20640258201E+03  0.20640258201E+03  0.00000000000E+00 0.  1.
          1   -1    0    0  501    0  0.00000000000E+00 -0.00000000000E+00 -0.16870201414E+03  0.16870201414E+03  0.00000000000E+00 0. -1.
         25    2    1    2    0    0 -0.10787617461E+03 -0.82142031929E+02  0.89385263445E+02  0.20499129596E+03  0.12508846326E+03 0.  0.
          5    1    3    3  502    0 -0.87514196843E+02 -0.17792518861E+02 -0.42347074635E+01  0.89502589481E+02  0.41800000000E+01 0.  1.
         -5    1    3    3    0  502 -0.20361977762E+02 -0.64349513068E+02  0.93619970908E+02  0.11548870647E+03  0.41800000000E+01 0.  1.
        -11    1    1    2    0    0  0.99911565254E+02  0.58237894886E+02 -0.73297271983E+02  0.13691772476E+03  0.00000000000E+00 0. -1.
         11    1    1    2    0    0  0.79646093518E+01  0.23904137043E+02  0.21612576408E+02  0.33195575441E+02  0.00000000000E+00 0.  1.
</event>
<event>
 7    1  0.2878477E-009  0.1355300E+03  0.7561462E-02  0.1219473E+00
         -1   -1    0    0    0  501 -0.00000000000E+00  0.00000000000E+00  0.17110841905E+04  0.17110841905E+04  0.00000000000E+00 0.  1.
          1   -1    0    0  501    0  0.00000000000E+00 -0.00000000000E+00 -0.19890045080E+02  0.19890045080E+02  0.00000000000E+00 0. -1.
         25    2    1    2    0    0 -0.29014938095E+02  0.11782198331E+03  0.12989119215E+04  0.13105509244E+04  0.12509060422E+03 0.  0.
          5    1    3    3  502    0 -0.13117906211E+02  0.21278522294E+02  0.37018815710E+02  0.44863349083E+02  0.41800000000E+01 0. -1.
         -5    1    3    3    0  502 -0.15897031884E+02  0.96543461020E+02  0.12618931057E+04  0.12656875753E+04  0.41800000000E+01 0. -1.
        -11    1    1    2    0    0 -0.26969354492E+02 -0.15393437887E+02  0.12432465005E+03  0.12814414782E+03  0.00000000000E+00 0.  1.
         11    1    1    2    0    0  0.55984292587E+02 -0.10242854543E+03  0.26795757390E+03  0.29227916337E+03  0.00000000000E+00 0. -1.
</event>
<event>
 7    1  0.2878477E-009  0.8775876E+02  0.7561462E-02  0.1308372E+00
          2   -1    0    0  501    0  0.00000000000E+00  0.00000000000E+00  0.74137606896E+03  0.74137606896E+03  0.00000000000E+00 0. -1.
         -2   -1    0    0    0  501 -0.00000000000E+00 -0.00000000000E+00 -0.19082527490E+02  0.19082527490E+02  0.00000000000E+00 0.  1.
         25    2    1    2    0    0  0.17330911507E+00 -0.70656597840E+01  0.56118903737E+03  0.57500571827E+03  0.12509391190E+03 0.  0.
          5    1    3    3  502    0 -0.54089521770E+02 -0.12209916237E+02  0.14596530806E+03  0.15619891798E+03  0.41800000000E+01 0.  1.
         -5    1    3    3    0  502  0.54262830885E+02  0.51442564528E+01  0.41522372931E+03  0.41880680029E+03  0.41800000000E+01 0.  1.
        -11    1    1    2    0    0 -0.32353298363E+02  0.68113075350E+01  0.15830098036E+02  0.36656811497E+02  0.00000000000E+00 0.  1.
         11    1    1    2    0    0  0.32179989248E+02  0.25435224900E+00  0.14527440607E+03  0.14879606669E+03  0.00000000000E+00 0. -1.
</event>
<event>
 7    1  0.2878477E-009  0.7620336E+02  0.7561462E-02  0.1340185E+00
          2   -1    0    0  501    0  0.00000000000E+00  0.00000000000E+00  0.18106624148E+03  0.18106624148E+03  0.00000000000E+00 0. -1.
         -2   -1    0    0    0  501 -0.00000000000E+00 -0.00000000000E+00 -0.75467332650E+02  0.75467332650E+02  0.00000000000E+00 0.  1.
         25    2    1    2    0    0  0.25166977041E+01 -0.26583415852E+02  0.78564716999E+02  0.15010898724E+03  0.12508909436E+03 0.  0.
          5    1    3    3  502    0  0.12331175623E+02 -0.42358948627E+02  0.10704106705E+03  0.11585163295E+03  0.41800000000E+01 0.  1.
         -5    1    3    3    0  502 -0.98144779187E+01  0.15775532775E+02 -0.28476350051E+02  0.34257354296E+02  0.41800000000E+01 0.  1.
        -11    1    1    2    0    0  0.24185960913E+02  0.48700387377E+02  0.41953004988E+02  0.68678548787E+02  0.00000000000E+00 0. -1.
         11    1    1    2    0    0 -0.26702658617E+02 -0.22116971525E+02 -0.14918813154E+02  0.37746038104E+02  0.00000000000E+00 0.  1.
</event>
<event>
 7    1  0.2878477E-009  0.1176105E+03  0.7561462E-02  0.1247092E+00
         -2   -1    0    0    0  501 -0.00000000000E+00  0.00000000000E+00  0.10570438708E+03  0.10570438708E+03  0.00000000000E+00 0.  1.
          2   -1    0    0  501    0  0.00000000000E+00 -0.00000000000E+00 -0.14402122744E+03  0.14402122744E+03  0.00000000000E+00 0. -1.
         25    2    1    2    0    0 -0.22974823007E+02 -0.47863323324E+02 -0.48263642095E+02  0.14420019192E+03  0.12508227688E+03 0.  0.
          5    1    3    3  502    0  0.27842187691E+02 -0.70523930777E+02 -0.10111456703E+02  0.76606306427E+02  0.41800000000E+01 0. -1.
         -5    1    3    3    0  502 -0.50817010698E+02  0.22660607453E+02 -0.38152185392E+02  0.67593885497E+02  0.41800000000E+01 0. -1.
        -11    1    1    2    0    0  0.54495799481E+02  0.12113120371E+02  0.14408509316E+02  0.57655225148E+02  0.00000000000E+00 0.  1.
         11    1    1    2    0    0 -0.31520976474E+02  0.35750202953E+02 -0.44617075849E+01  0.47870197447E+02  0.00000000000E+00 0. -1.
</event>
<event>
 7    1  0.2878477E-009  0.1229018E+03  0.7561462E-02  0.1238385E+00
         -2   -1    0    0    0  501 -0.00000000000E+00  0.00000000000E+00  0.63833355734E+02  0.63833355734E+02  0.00000000000E+00 0.  1.
          2   -1    0    0  501    0  0.00000000000E+00 -0.00000000000E+00 -0.37039726557E+03  0.37039726557E+03  0.00000000000E+00 0. -1.
         25    2    1    2    0    0 -0.79418497352E+02  0.31385248651E+02 -0.25885139955E+03  0.29990587852E+03  0.12508859806E+03 0.  0.
          5    1    3    3  502    0 -0.35158123584E+02  0.71501797402E+02 -0.20261037422E+03  0.21775453343E+03  0.41800000000E+01 0. -1.
         -5    1    3    3    0  502 -0.44260373768E+02 -0.40116548751E+02 -0.56241025331E+02  0.82151345090E+02  0.41800000000E+01 0. -1.
        -11    1    1    2    0    0  0.30851588069E+01  0.15996424610E+02  0.17043065802E+02  0.23576893287E+02  0.00000000000E+00 0.  1.
         11    1    1    2    0    0  0.76333338545E+02 -0.47381673260E+02 -0.64755576084E+02  0.11074784950E+03  0.00000000000E+00 0. -1.
</event>
<event>
 7    1  0.2878477E-009  0.2184719E+03  0.7561462E-02  0.1135027E+00
         -1   -1    0    0    0  501 -0.00000000000E+00  0.00000000000E+00  0.36663999392E+03  0.36663999392E+03  0.00000000000E+00 0.  1.
          1   -1    0    0  501    0  0.00000000000E+00 -0.00000000000E+00 -0.16735457570E+03  0.16735457570E+03  0.00000000000E+00 0. -1.
         25    2    1    2    0    0 -0.21104594607E+02  0.20233339541E+03  0.58654588046E+01  0.23888620649E+03  0.12509200308E+03 0.  0.
          5    1    3    3  502    0  0.31677546084E+02  0.26617003987E+02 -0.30786464980E+02  0.51741768941E+02  0.41800000000E+01 0. -1.
         -5    1    3    3    0  502 -0.52782140692E+02  0.17571639142E+03  0.36651923785E+02  0.18714443755E+03  0.41800000000E+01 0. -1.
        -11    1    1    2    0    0  0.28618993053E+02 -0.39223061469E+02  0.88729795845E+02  0.10114579569E+03  0.00000000000E+00 0.  1.
         11    1    1    2    0    0 -0.75143984455E+01 -0.16311033394E+03  0.10469016357E+03  0.19396256744E+03  0.00000000000E+00 0. -1.
</event>
<event>
 7    1  0.2878477E-009  0.2633282E+03  0.7561462E-02  0.1105160E+00
         -1   -1    0    0    0  501 -0.00000000000E+00  0.00000000000E+00  0.61910752741E+02  0.61910752741E+02  0.00000000000E+00 0.  1.
          1   -1    0    0  501    0  0.00000000000E+00 -0.00000000000E+00 -0.13366848981E+04  0.13366848981E+04  0.00000000000E+00 0. -1.
         25    2    1    2    0    0  0.14292014362E+03 -0.20986608538E+03 -0.84810022978E+03  0.89408683017E+03  0.12508924375E+03 0.  0.
          5    1    3    3  502    0  0.12370708693E+03 -0.14865620030E+03 -0.76467572910E+03  0.78876393954E+03  0.41800000000E+01 0.  1.
         -5    1    3    3    0  502  0.19213056691E+02 -0.61209885076E+02 -0.83424500675E+02  0.10532289063E+03  0.41800000000E+01 0.  1.
        -11    1    1    2    0    0 -0.52917186532E+02  0.15436847295E+03 -0.24730052442E+03  0.29628939138E+03  0.00000000000E+00 0.  1.
         11    1    1    2    0    0 -0.90002957089E+02  0.55497612433E+02 -0.17937339114E+03  0.20821942926E+03  0.00000000000E+00 0. -1.
</event>
<event>
 7    1  0.2878477E-009  0.1058857E+03  0.7561462E-02  0.1268384E+00
         -1   -1    0    0    0  501 -0.00000000000E+00  0.00000000000E+00  0.30863696884E+02  0.30863696884E+02  0.00000000000E+00 0.  1.
          1   -1    0    0  501    0  0.00000000000E+00 -0.00000000000E+00 -0.44603859437E+03  0.44603859437E+03  0.00000000000E+00 0. -1.
         25    2    1    2    0    0 -0.52629588049E+01 -0.30666985671E+02 -0.30687435459E+03  0.33284783878E+03  0.12509057330E+03 0.  0.
          5    1    3    3  502    0 -0.26140440044E+02 -0.74092423424E+02 -0.16163443723E+03  0.17976699784E+03  0.41800000000E+01 0. -1.
         -5    1    3    3    0  502  0.20877481239E+02  0.43425437753E+02 -0.14523991736E+03  0.15308084093E+03  0.41800000000E+01 0. -1.
        -11    1    1    2    0    0  0.41009257192E+02  0.26293637161E+02 -0.92877991878E+02  0.10487819557E+03  0.00000000000E+00 0. -1.
         11    1    1    2    0    0 -0.35746298387E+02  0.43733485098E+01 -0.15422551025E+02  0.39176256913E+02  0.00000000000E+00 0.  1.
</event>
<event>
 7    1  0.2878477E-009  0.9208103E+02  0.7561462E-02  0.1297889E+00
          1   -1    0    0  501    0  0.00000000000E+00  0.00000000000E+00  0.16131473693E+03  0.16131473693E+03  0.00000000000E+00 0. -1.
         -1   -1    0    0    0  501 -0.00000000000E+00 -0.00000000000E+00 -0.99052381169E+02  0.99052381169E+02  0.00000000000E+00 0.  1.
         25    2    1    2    0    0  0.41383707117E+02  0.17762246133E+02  0.76861414803E+02  0.15357114771E+03  0.12509321213E+03 0.  0.
          5    1    3    3  502    0 -0.12457693260E+02 -0.37360951118E+02  0.64109997911E+02  0.75356479629E+02  0.41800000000E+01 0.  1.
         -5    1    3    3    0  502  0.53841400377E+02  0.55123197251E+02  0.12751416891E+02  0.78214668078E+02  0.41800000000E+01 0.  1.
        -11    1    1    2    0    0 -0.50912825956E+02 -0.45727298215E+01  0.30034945498E+02  0.59288478273E+02  0.00000000000E+00 0. -1.
         11    1    1    2    0    0  0.95291188387E+01 -0.13189516312E+02 -0.44634004539E+02  0.47507492120E+02  0.00000000000E+00 0.  1.
</event>
<event>
 7    1  0.3378744E-009  0.1203451E+03  0.7561462E-02  0.1242529E+00
         -2   -1    0    0    0  501 -0.00000000000E+00  0.00000000000E+00  0.70572885025E+02  0.70572885025E+02  0.00000000000E+00 0.  1.
          2   -1    0    0  501    0  0.00000000000E+00 -0.00000000000E+00 -0.27899326058E+03  0.27899326058E+03  0.00000000000E+00 0. -1.
         25    2    1    2    0    0 -0.85056771558E+02 -0.21905276918E+02 -0.11977633260E+03  0.19418567908E+03  0.12508881869E+03 0.  0.
          5    1    3    3  502    0  0.25515299602E+02  0.21798876915E+02 -0.24325880028E+02  0.41658641212E+02  0.41800000000E+01 0.  1.
         -5    1    3    3    0  502 -0.11057207116E+03 -0.43704153833E+02 -0.95450452574E+02  0.15252703786E+03  0.41800000000E+01 0.  1.
        -11    1    1    2    0    0  0.49747867278E+02  0.11022192473E+02  0.83075304411E+01  0.51627067394E+02  0.00000000000E+00 0.  1.
         11    1    1    2    0    0  0.35308904280E+02  0.10883084445E+02 -0.96951573392E+02  0.10375339913E+03  0.00000000000E+00 0. -1.
</event>
<event>
 7    1  0.2878477E-009  0.9188040E+02  0.7561462E-02  0.1298361E+00
          2   -1    0    0  501    0  0.00000000000E+00  0.00000000000E+00  0.24040884536E+03  0.24040884536E+03  0.00000000000E+00 0. -1.
         -2   -1    0    0    0  501 -0.00000000000E+00 -0.00000000000E+00 -0.60398924580E+02  0.60398924580E+02  0.00000000000E+00 0.  1.
         25    2    1    2    0    0  0.61534582722E+01  0.12103371390E+02  0.15988823083E+03  0.20346384432E+03  0.12509569513E+03 0.  0.
          5    1    3    3  502    0 -0.38321524848E+01  0.59373964037E+02  0.13784361047E+03  0.15019416215E+03  0.41800000000E+01 0. -1.
         -5    1    3    3    0  502  0.99856107570E+01 -0.47270592647E+02  0.22044620362E+02  0.53269682168E+02  0.41800000000E+01 0. -1.
        -11    1    1    2    0    0  0.34027617112E+02 -0.96357335827E+01 -0.19898526058E+02  0.40579273371E+02  0.00000000000E+00 0.  1.
         11    1    1    2    0    0 -0.40181075384E+02 -0.24676378069E+01  0.40020216006E+02  0.56764652245E+02  0.00000000000E+00 0. -1.
</event>
<event>
 7    1  0.2878477E-009  0.1160563E+03  0.7561462E-02  0.1249748E+00
          1   -1    0    0  501    0  0.00000000000E+00  0.00000000000E+00  0.19588722818E+03  0.19588722818E+03  0.00000000000E+00 0. -1.
         -1   -1    0    0    0  501 -0.00000000000E+00 -0.00000000000E+00 -0.91628950785E+02  0.91628950785E+02  0.00000000000E+00 0.  1.
         25    2    1    2    0    0 -0.17670295867E+02 -0.75589835105E+02  0.78427229290E+02  0.16680376085E+03  0.12508637740E+03 0.  0.
          5    1    3    3  502    0 -0.16449602331E+02  0.24096132774E+02  0.57846600918E+02  0.64922374181E+02  0.41800000000E+01 0. -1.
         -5    1    3    3    0  502 -0.12206935358E+01 -0.99685967879E+02  0.20580628372E+02  0.10188138667E+03  0.41800000000E+01 0. -1.
        -11    1    1    2    0    0 -0.25843069421E+02  0.22954801023E+02  0.37972805462E+02  0.51349012471E+02  0.00000000000E+00 0. -1.
         11    1    1    2    0    0  0.43513365288E+02  0.52635034082E+02 -0.12141757355E+02  0.69363405649E+02  0.00000000000E+00 0.  1.
</event>
<event>
 7    1  0.2878477E-009  0.1140132E+03  0.7561462E-02  0.1253313E+00
         -2   -1    0    0    0  501 -0.00000000000E+00  0.00000000000E+00  0.24769105746E+02  0.24769105746E+02  0.00000000000E+00 0.  1.
          2   -1    0    0  501    0  0.00000000000E+00 -0.00000000000E+00 -0.82298810669E+03  0.82298810669E+03  0.00000000000E+00 0. -1.
         25    2    1    2    0    0  0.87250561829E+02 -0.15450389361E+02 -0.50707073613E+03  0.52973368805E+03  0.12508266765E+03 0.  0.
          5    1    3    3  502    0  0.80511893477E+02  0.23779334849E+02 -0.16350882155E+03  0.18384838558E+03  0.41800000000E+01 0.  1.
         -5    1    3    3    0  502  0.67386683515E+01 -0.39229724210E+02 -0.34356191458E+03  0.34588530247E+03  0.41800000000E+01 0.  1.
        -11    1    1    2    0    0 -0.72748594219E+02  0.34084051671E+02 -0.28111362457E+03  0.29236783417E+03  0.00000000000E+00 0. -1.
         11    1    1    2    0    0 -0.14501967609E+02 -0.18633662310E+02 -0.10034640249E+02  0.25655690218E+02  0.00000000000E+00 0.  1.
</event>
<event>
 7    1  0.2878477E-009  0.2093357E+03  0.7561462E-02  0.1142093E+00
         -1   -1    0    0    0  501 -0.00000000000E+00  0.00000000000E+00  0.38473342836E+02  0.38473342836E+02  0.00000000000E+00 0.  1.
          1   -1    0    0  501    0  0.00000000000E+00 -0.00000000000E+00 -0.13779604491E+04  0.13779604491E+04  0.00000000000E+00 0. -1.
         25    2    1    2    0    0  0.26019201365E+02 -0.19949981759E+03 -0.61183052428E+03  0.65609612173E+03  0.12509338292E+03 0.  0.
          5    1    3    3  502    0  0.77766737108E+01 -0.34319942462E+02 -0.18616122171E+02  0.40029582926E+02  0.41800000000E+01 0.  1.
         -5    1    3    3    0  502  0.18242527654E+02 -0.16517987513E+03 -0.59321440211E+03  0.61606653880E+03  0.41800000000E+01 0.  1.
        -11    1    1    2    0    0  0.22620236996E+02  0.13127293788E+03 -0.37809419756E+03  0.40087339843E+03  0.00000000000E+00 0.  1.
         11    1    1    2    0    0 -0.48639438362E+02  0.68226879708E+02 -0.34956238447E+03  0.35946427182E+03  0.00000000000E+00 0. -1.
</event>
<event>
 7    1  0.2878477E-009  0.1725569E+03  0.7561462E-02  0.1175207E+00
          2   -1    0    0  501    0  0.00000000000E+00  0.00000000000E+00  0.43727900305E+03  0.43727900305E+03  0.00000000000E+00 0. -1.
         -2   -1    0    0    0  501 -0.00000000000E+00 -0.00000000000E+00 -0.83156740809E+02  0.83156740809E+02  0.00000000000E+00 0.  1.
         25    2    1    2    0    0 -0.71062923748E+02 -0.11138173154E+03  0.74731197035E+02  0.19669377106E+03  0.12509140063E+03 0.  0.
          5    1    3    3  502    0 -0.10465673963E+03 -0.60892814708E+02  0.50181212206E+02  0.13113578647E+03  0.41800000000E+01 0. -1.
         -5    1    3    3    0  502  0.33593815886E+02 -0.50488916829E+02  0.24549984828E+02  0.65557984589E+02  0.41800000000E+01 0. -1.
        -11    1    1    2    0    0 -0.21209224143E+02  0.44225872677E+02  0.94376346254E+02  0.10636095964E+03  0.00000000000E+00 0. -1.
         11    1    1    2    0    0  0.92272147890E+02  0.67155858860E+02  0.18501471896E+03  0.21738101317E+03  0.00000000000E+00 0.  1.
</event>
<event>
 7    1  0.2878477E-009  0.8166106E+02  0.7561462E-02  0.1324403E+00
         -2   -1    0    0    0  501 -0.00000000000E+00  0.00000000000E+00  0.30041167979E+02  0.30041167979E+02  0.00000000000E+00 0.  1.
          2   -1    0    0  501    0  0.00000000000E+00 -0.00000000000E+00 -0.58571815681E+03  0.58571815681E+03  0.00000000000E+00 0. -1.
         25    2    1    2    0    0  0.64689001074E+01  0.70010522454E+02 -0.37483195767E+03  0.40136783323E+03  0.12511523143E+03 0.  0.
          5    1    3    3  502    0  0.31499641801E+01  0.16336968874E+01 -0.29927428956E+03  0.29932451292E+03  0.41800000000E+01 0. -1.
         -5    1    3    3    0  502  0.33189359273E+01  0.68376825566E+02 -0.75557668110E+02  0.10204332031E+03  0.41800000000E+01 0. -1.
        -11    1    1    2    0    0  0.24388084333E+02 -0.28055733568E+02 -0.14193072814E+02  0.39791282454E+02  0.00000000000E+00 0.  1.
         11    1    1    2    0    0 -0.30856984440E+02 -0.41954788886E+02 -0.16665195835E+03  0.17460020911E+03  0.00000000000E+00 0. -1.
</event>
<event>
 7    1  0.2878477E-009  0.1220495E+03  0.7561462E-02  0.1239754E+00
          2   -1    0    0  501    0  0.00000000000E+00  0.00000000000E+00  0.53538597411E+03  0.53538597411E+03  0.00000000000E+00 0. -1.
         -2   -1    0    0    0  501 -0.00000000000E+00 -0.00000000000E+00 -0.51145390407E+02  0.51145390407E+02  0.00000000000E+00 0.  1.
         25    2    1    2    0    0 -0.50124286299E+02 -0.96170793313E+02  0.14705641337E+03  0.22143554241E+03  0.12508735014E+03 0.  0.
          5    1    3    3  502    0  0.54533870470E+01 -0.74260796663E+02  0.14316195979E+03  0.16142250302E+03  0.41800000000E+01 0. -1.
         -5    1    3    3    0  502 -0.55577673346E+02 -0.21909996650E+02  0.38944535820E+01  0.60013039387E+02  0.41800000000E+01 0. -1.
        -11    1    1    2    0    0  0.38221363270E+02  0.56480307619E+02  0.30526619441E+03  0.31279121984E+03  0.00000000000E+00 0. -1.
         11    1    1    2    0    0  0.11902923029E+02  0.39690485694E+02  0.31917975918E+02  0.52304602264E+02  0.00000000000E+00 0.  1.
</event>
<event>
 7    1  0.2878477E-009  0.9264150E+02  0.7561462E-02  0.1296578E+00
          2   -1    0    0  501    0  0.00000000000E+00  0.00000000000E+00  0.52213247674E+03  0.52213247674E+03  0.00000000000E+00 0.  1.
         -2   -1    0    0    0  501 -0.00000000000E+00 -0.00000000000E+00 -0.30346046802E+02  0.30346046802E+02  0.00000000000E+00 0. -1.
         25    2    1    2    0    0 -0.50858480757E+02 -0.42023275155E+02  0.36012094109E+03  0.38689382190E+03  0.12508875447E+03 0.  0.
          5    1    3    3  502    0 -0.77703498380E+02 -0.23306147738E+02  0.33688694138E+03  0.34654190779E+03  0.41800000000E+01 0.  1.
         -5    1    3    3    0  502  0.26845017623E+02 -0.18717127418E+02  0.23233999714E+02  0.40351914113E+02  0.41800000000E+01 0.  1.
        -11    1    1    2    0    0  0.24627607815E+02  0.41265944197E+01  0.11322072618E+03  0.11594171245E+03  0.00000000000E+00 0.  1.
         11    1    1    2    0    0  0.26230872943E+02  0.37896680736E+02  0.18444762665E+02  0.49642989192E+02  0.00000000000E+00 0. -1.
</event>
<event>
 6    1  0.2878477E-009  0.1610792E+03  0.7561462E-02  0.1187484E+00
          3   -1    0    0  501    0  0.00000000000E+00  0.00000000000E+00  0.18601257003E+03  0.18601257003E+03  0.00000000000E+00 0. -1.
         -3   -1    0    0    0  501 -0.00000000000E+00 -0.00000000000E+00 -0.16271231660E+03  0.16271231660E+03  0.00000000000E+00 0.  1.
          5    1    1    2  502    0 -0.58548048418E+02 -0.10971074811E+03  0.28754866250E+02  0.12770527380E+03  0.41800000000E+01 0. -1.
         -5    1    1    2    0  502 -0.43701684576E+02  0.21669192701E+02 -0.28015735841E+02  0.56406958806E+02  0.41800000000E+01 0. -1.
        -11    1    1    2    0    0  0.80348161154E+02  0.96255909566E+02  0.44003090734E+02  0.13288077032E+03  0.00000000000E+00 0. -1.
         11    1    1    2    0    0  0.21901571840E+02 -0.82143541603E+01 -0.21441967721E+02  0.31731883699E+02  0.00000000000E+00 0.  1.
</event>
<event>
 7    1  0.2878477E-009  0.1335910E+03  0.7561462E-02  0.1222223E+00
         -1   -1    0    0    0  501 -0.00000000000E+00  0.00000000000E+00  0.16206437611E+02  0.16206437611E+02  0.00000000000E+00 0. -1.
          1   -1    0    0  501    0  0.00000000000E+00 -0.00000000000E+00 -0.12146696204E+04  0.12146696204E+04  0.00000000000E+00 0.  1.
         25    2    1    2    0    0 -0.74477293029E+02  0.43151497894E+02 -0.75198488437E+03  0.76716213741E+03  0.12509020670E+03 0.  0.
          5    1    3    3  502    0 -0.91563708594E+02  0.67276490502E+02 -0.67647951254E+03  0.68596796004E+03  0.41800000000E+01 0. -1.
         -5    1    3    3    0  502  0.17086415565E+02 -0.24124992608E+02 -0.75505371823E+02  0.81194177374E+02  0.41800000000E+01 0. -1.
        -11    1    1    2    0    0  0.52278512458E+02  0.20545998581E+02 -0.16631479893E+03  0.17554427722E+03  0.00000000000E+00 0.  1.
         11    1    1    2    0    0  0.22198780571E+02 -0.63697496475E+02 -0.28016349946E+03  0.28816964335E+03  0.00000000000E+00 0. -1.
</event>
<event>
 7    1  0.2878477E-009  0.1054505E+03  0.7561462E-02  0.1269235E+00
          3   -1    0    0  501    0  0.00000000000E+00  0.00000000000E+00  0.57517064211E+02  0.57517064211E+02  0.00000000000E+00 0. -1.
         -3   -1    0    0    0  501 -0.00000000000E+00 -0.00000000000E+00 -0.26088497938E+03  0.26088497938E+03  0.00000000000E+00 0.  1.
         25    2    1    2    0    0  0.51717711272E+01  0.53238388398E+02 -0.14236690818E+03  0.19692036527E+03  0.12509284752E+03 0.  0.
          5    1    3    3  502    0 -0.45674509563E+02  0.13133143191E+02 -0.89256914004E+01  0.48536384712E+02  0.41800000000E+01 0.  1.
         -5    1    3    3    0  502  0.50846280690E+02  0.40105245206E+02 -0.13344121678E+03  0.14838398056E+03  0.41800000000E+01 0.  1.
        -11    1    1    2    0    0 -0.38379854993E+02 -0.35626149649E+01 -0.37477004491E+01  0.38726615568E+02  0.00000000000E+00 0. -1.
         11    1    1    2    0    0  0.33208083866E+02 -0.49675773433E+02 -0.57253306540E+02  0.82755062745E+02  0.00000000000E+00 0.  1.
</event>
<event>
 7    1  0.2878477E-009  0.1522122E+03  0.7561462E-02  0.1197781E+00
         -2   -1    0    0    0  501 -0.00000000000E+00  0.00000000000E+00  0.23563655989E+03  0.23563655989E+03  0.00000000000E+00 0.  1.
          2   -1    0    0  501    0  0.00000000000E+00 -0.00000000000E+00 -0.12943256526E+03  0.12943256526E+03  0.00000000000E+00 0. -1.
         25    2    1    2    0    0 -0.83694584297E+02 -0.10748929364E+03  0.43363988973E+02  0.18996555621E+03  0.12509094818E+03 0.  0.
          5    1    3    3  502    0  0.56871871805E+01 -0.66362752926E+02  0.60416103653E+02  0.90021869869E+02  0.41800000000E+01 0.  1.
         -5    1    3    3    0  502 -0.89381771478E+02 -0.41126540715E+02 -0.17052114681E+02  0.99943686337E+02  0.41800000000E+01 0.  1.
        -11    1    1    2    0    0  0.55728592396E+02  0.48303846359E+02  0.78591064459E+02  0.10777519657E+03  0.00000000000E+00 0.  1.
         11    1    1    2    0    0  0.27965991901E+02  0.59185447282E+02 -0.15751058801E+02  0.67328372373E+02  0.00000000000E+00 0. -1.
</event>
<event>
 7    1  0.2878477E-009  0.1449877E+03  0.7561462E-02  0.1206771E+00
          1   -1    0    0  501    0  0.00000000000E+00  0.00000000000E+00  0.30370255929E+03  0.30370255929E+03  0.00000000000E+00 0. -1.
         -1   -1    0    0    0  501 -0.00000000000E+00 -0.00000000000E+00 -0.15319344869E+03  0.15319344869E+03  0.00000000000E+00 0.  1.
         25    2    1    2    0    0  0.12622260052E+03 -0.32315995270E+02  0.21793547610E+03  0.28305466414E+03  0.12509037819E+03 0.  0.
          5    1    3    3  502    0  0.53439371731E+01 -0.33908076072E+02  0.12727565192E+03  0.13188964803E+03  0.41800000000E+01 0. -1.
         -5    1    3    3    0  502  0.12087866334E+03  0.15920808023E+01  0.90659824182E+02  0.15116501610E+03  0.41800000000E+01 0. -1.
        -11    1    1    2    0    0 -0.40080864738E+02  0.26596517078E+02 -0.72896303425E+02  0.87336827810E+02  0.00000000000E+00 0.  1.
         11    1    1    2    0    0 -0.86141735778E+02  0.57194781917E+01  0.54699379235E+01  0.86504516036E+02  0.00000000000E+00 0. -1.
</event>
<event>
 7    1  0.2878477E-009  0.8454830E+02  0.7561462E-02  0.1316618E+00
          1   -1    0    0  501    0  0.00000000000E+00  0.00000000000E+00  0.48779928359E+03  0.48779928359E+03  0.00000000000E+00 0. -1.
         -1   -1    0    0    0  501 -0.00000000000E+00 -0.00000000000E+00 -0.36832494604E+02  0.36832494604E+02  0.00000000000E+00 0.  1.
         25    2    1    2    0    0 -0.34923935951E+02  0.41009663989E+02  0.13657373902E+03  0.19287654985E+03  0.12508998140E+03 0.  0.
          5    1    3    3  502    0  0.82121312461E+01  0.46684491582E+02  0.14112553088E+03  0.14893209433E+03  0.41800000000E+01 0.  1.
         -5    1    3    3    0  502 -0.43136067197E+02 -0.56748275930E+01 -0.45517918636E+01  0.43944455516E+02  0.41800000000E+01 0.  1.
        -11    1    1    2    0    0  0.50415574226E+02 -0.33935336754E+02  0.30739186819E+03  0.31334182267E+03  0.00000000000E+00 0. -1.
         11    1    1    2    0    0 -0.15491638275E+02 -0.70743272357E+01  0.70011817703E+01  0.18413405673E+02  0.00000000000E+00 0.  1.
</event>
<event>
 7    1  0.2878477E-009  0.9348443E+02  0.7561462E-02  0.1294626E+00
          1   -1    0    0  501    0  0.00000000000E+00  0.00000000000E+00  0.19001789593E+03  0.19001789593E+03  0.00000000000E+00 0. -1.
         -1   -1    0    0    0  501 -0.00000000000E+00 -0.00000000000E+00 -0.67103643942E+02  0.67103643942E+02  0.00000000000E+00 0.  1.
         25    2    1    2    0    0  0.14561270489E+02 -0.21291927751E+02  0.91082973000E+02  0.15687243926E+03  0.12508987746E+03 0.  0.
          5    1    3    3  502    0  0.61831186387E+02 -0.40577440547E+02  0.38573617985E+02  0.83516589345E+02  0.41800000000E+01 0. -1.
         -5    1    3    3    0  502 -0.47269915898E+02  0.19285512795E+02  0.52509355015E+02  0.73355849916E+02  0.41800000000E+01 0. -1.
        -11    1    1    2    0    0 -0.36207127229E+02  0.14205128370E+02  0.55259124199E+02  0.67574496236E+02  0.00000000000E+00 0. -1.
         11    1    1    2    0    0  0.21645856740E+02  0.70867993812E+01 -0.23427845215E+02  0.32674604373E+02  0.00000000000E+00 0.  1.
</event>
<event>
 7    1  0.2878477E-009  0.1116643E+03  0.7561462E-02  0.1257519E+00
         -2   -1    0    0    0  501 -0.00000000000E+00  0.00000000000E+00  0.26958371003E+02  0.26958371003E+02  0.00000000000E+00 0.  1.
          2   -1    0    0  501    0  0.00000000000E+00 -0.00000000000E+00 -0.10016164828E+04  0.10016164828E+04  0.00000000000E+00 0. -1.
         25    2    1    2    0    0 -0.29581025346E+02  0.56104334266E+02 -0.85236276517E+03  0.86382471415E+03  0.12509244556E+03 0.  0.
          5    1    3    3  502    0 -0.63700162918E+02  0.50249501558E+02 -0.31419233888E+03  0.32452584084E+03  0.41800000000E+01 0. -1.
         -5    1    3    3    0  502  0.34119137572E+02  0.58548327073E+01 -0.53817042629E+03  0.53929887331E+03  0.41800000000E+01 0. -1.
        -11    1    1    2    0    0  0.56897491303E+02 -0.16749479115E+02 -0.86791443816E+02  0.10512194960E+03  0.00000000000E+00 0. -1.
         11    1    1    2    0    0 -0.27316465957E+02 -0.39354855151E+02 -0.35503902836E+02  0.59628190085E+02  0.00000000000E+00 0.  1.
</event>
<event>
 7    1  0.2878477E-009  0.1382121E+03  0.7561462E-02  0.1215755E+00
          1   -1    0    0  501    0  0.00000000000E+00  0.00000000000E+00  0.45834889264E+02  0.45834889264E+02  0.00000000000E+00 0. -1.
         -1   -1    0    0    0  501 -0.00000000000E+00 -0.00000000000E+00 -0.11795702573E+04  0.11795702573E+04  0.00000000000E+00 0.  1.
         25    2    1    2    0    0 -0.53998422260E+02  0.74268632053E+02 -0.10698675857E+04  0.10810609960E+04  0.12507824286E+03 0.  0.
          5    1    3    3  502    0 -0.67014879625E+02 -0.11475210914E+02 -0.49906940845E+03  0.50369675540E+03  0.41800000000E+01 0.  1.
         -5    1    3    3    0  502  0.13016457365E+02  0.85743842967E+02 -0.57079817730E+03  0.57736424064E+03  0.41800000000E+01 0.  1.
        -11    1    1    2    0    0  0.72512170002E+02 -0.73044174308E+02 -0.70372681797E+02  0.12468271950E+03  0.00000000000E+00 0.  1.
         11    1    1    2    0    0 -0.18513747741E+02 -0.12244577458E+01  0.65048995012E+01  0.19661431019E+02  0.00000000000E+00 0. -1.
</event>
<event>
 7    1  0.2878477E-009  0.8334759E+02  0.7561462E-02  0.1319811E+00
         -1   -1    0    0    0  501 -0.00000000000E+00  0.00000000000E+00  0.11018655930E+03  0.11018655930E+03  0.00000000000E+00 0.  1.
          1   -1    0    0  501    0  0.00000000000E+00 -0.00000000000E+00 -0.12475360511E+03  0.12475360511E+03  0.00000000000E+00 0. -1.
         25    2    1    2    0    0 -0.27753968109E+02  0.14712379357E+02  0.20788060612E+02  0.13059425876E+03  0.12504391271E+03 0.  0.
          5    1    3    3  502    0  0.22727254353E+02  0.39419820345E+01 -0.42671135950E+02  0.48686400114E+02  0.41800000000E+01 0.  1.
         -5    1    3    3    0  502 -0.50481222462E+02  0.10770397322E+02  0.63459196562E+02  0.81907858646E+02  0.41800000000E+01 0.  1.
        -11    1    1    2    0    0  0.41762886963E+02 -0.42973545361E+02 -0.40582904269E+02  0.72372898569E+02  0.00000000000E+00 0.  1.
         11    1    1    2    0    0 -0.14008918854E+02  0.28261166004E+02  0.52277978557E+01  0.31973007081E+02  0.00000000000E+00 0. -1.
</event>
<event>
 7    1  0.2878477E-009  0.1032163E+03  0.7561462E-02  0.1273674E+00
          1   -1    0    0  501    0  0.00000000000E+00  0.00000000000E+00  0.19078261636E+03  0.19078261636E+03  0.00000000000E+00 0. -1.
         -1   -1    0    0    0  501 -0.00000000000E+00 -0.00000000000E+00 -0.25625066797E+03  0.25625066797E+03  0.00000000000E+00 0.  1.
         25    2    1    2    0    0 -0.33197187549E+02  0.56271199308E+02 -0.21682251395E+03  0.25870336439E+03  0.12508767748E+03 0.  0.
          5    1    3    3  502    0 -0.33805253494E+02 -0.33986219034E+02 -0.52775473051E+02  0.71418353410E+02  0.41800000000E+01 0. -1.
         -5    1    3    3    0  502  0.60806594451E+00  0.90257418342E+02 -0.16404704090E+03  0.18728501098E+03  0.41800000000E+01 0. -1.
        -11    1    1    2    0    0  0.12152443808E+02 -0.38634122639E+02  0.66491384359E+01  0.41042518984E+02  0.00000000000E+00 0.  1.
         11    1    1    2    0    0  0.21044743741E+02 -0.17637076669E+02  0.14470532391E+03  0.14728740096E+03  0.00000000000E+00 0. -1.
</event>
<event>
 7    1  0.2878477E-009  0.1581556E+03  0.7561462E-02  0.1190795E+00
         -1   -1    0    0    0  501 -0.00000000000E+00  0.00000000000E+00  0.20082582520E+03  0.20082582520E+03  0.00000000000E+00 0.  1.
          1   -1    0    0  501    0  0.00000000000E+00 -0.00000000000E+00 -0.16247805729E+03  0.16247805729E+03  0.00000000000E+00 0. -1.
         25    2    1    2    0    0  0.13455136588E+03 -0.40972754183E+02 -0.10745238946E+02  0.18853626284E+03  0.12509046966E+03 0.  0.
          5    1    3    3  502    0  0.88743504814E+02  0.30172739510E+01  0.48774757741E+02  0.10139508362E+03  0.41800000000E+01 0.  1.
         -5    1    3    3    0  502  0.45807861063E+02 -0.43990028134E+02 -0.59519996687E+02  0.87141179221E+02  0.41800000000E+01 0.  1.
        -11    1    1    2    0    0 -0.40709354889E+02  0.55480906514E+02  0.21663351021E+01  0.68848206737E+02  0.00000000000E+00 0. -1.
         11    1    1    2    0    0 -0.93842010988E+02 -0.14508152332E+02  0.46926671760E+02  0.10591941292E+03  0.00000000000E+00 0.  1.
</event>
<event>
 7    1  0.2878477E-009  0.1754684E+03  0.7561462E-02  0.1172262E+00
          2   -1    0    0  501    0  0.00000000000E+00  0.00000000000E+00  0.72381432151E+03  0.72381432151E+03  0.00000000000E+00 0. -1.
         -2   -1    0    0    0  501 -0.00000000000E+00 -0.00000000000E+00 -0.61085905735E+02  0.61085905735E+02  0.00000000000E+00 0.  1.
         25    2    1    2    0    0  0.27322200834E+02 -0.14915843009E+03  0.16392433085E+03  0.25596177863E+03  0.12510198219E+03 0.  0.
          5    1    3    3  502    0  0.64983827715E+02 -0.51585261044E+02  0.11107154840E+03  0.13870219279E+03  0.41800000000E+01 0. -1.
         -5    1    3    3    0  502 -0.37661626881E+02 -0.97573169049E+02  0.52852782453E+02  0.11725958584E+03  0.41800000000E+01 0. -1.
        -11    1    1    2    0    0 -0.46751131173E+02  0.10350308277E+03  0.24121793011E+03  0.26661704037E+03  0.00000000000E+00 0.  1.
         11    1    1    2    0    0  0.19428930339E+02  0.45655347322E+02  0.25758615481E+03  0.26232140825E+03  0.00000000000E+00 0. -1.
</event>
<event>
 7    1  0.2878477E-009  0.8545346E+02  0.7561462E-02  0.1314251E+00
         -1   -1    0    0    0  501 -0.00000000000E+00  0.00000000000E+00  0.15328495505E+02  0.15328495505E+02  0.00000000000E+00 0.  1.
          1   -1    0    0  501    0  0.00000000000E+00 -0.00000000000E+00 -0.10482698584E+04  0.10482698584E+04  0.00000000000E+00 0. -1.
         25    2    1    2    0    0 -0.21105620802E+02 -0.49272615207E+02 -0.69037438462E+03  0.70365987690E+03  0.12508874285E+03 0.  0.
          5    1    3    3  502    0 -0.17613804640E+02 -0.47400214577E+01 -0.61947712355E+03  0.61975970578E+03  0.41800000000E+01 0. -1.
         -5    1    3    3    0  502 -0.34918161619E+01 -0.44532593749E+02 -0.70897261073E+02  0.83900171119E+02  0.41800000000E+01 0. -1.
        -11    1    1    2    0    0 -0.35658284051E+02  0.32221310674E+02 -0.11200896137E+03  0.12188409868E+03  0.00000000000E+00 0.  1.
         11    1    1    2    0    0  0.56763904854E+02  0.17051304533E+02 -0.23055801691E+03  0.23805437833E+03  0.00000000000E+00 0. -1.
</event>
<event>
 7    1  0.2878477E-009  0.9983405E+02  0.7561462E-02  0.1280645E+00
         -1   -1    0    0    0  501 -0.00000000000E+00  0.00000000000E+00  0.89329869524E+02  0.89329869524E+02  0.00000000000E+00 0. -1.
          1   -1    0    0  501    0  0.00000000000E+00 -0.00000000000E+00 -0.18159706935E+03  0.18159706935E+03  0.00000000000E+00 0.  1.
         25    2    1    2    0    0 -0.62126528602E+02  0.82639003509E+01 -0.68647816957E+02  0.15585270689E+03  0.12509814494E+03 0.  0.
          5    1    3    3  502    0 -0.36172939127E+02  0.53018149388E+02  0.63659244756E+01  0.64632832864E+02  0.41800000000E+01 0. -1.
         -5    1    3    3    0  502 -0.25953589476E+02 -0.44754249037E+02 -0.75013741433E+02  0.91219874026E+02  0.41800000000E+01 0. -1.
        -11    1    1    2    0    0  0.35081894298E+02 -0.31983588217E+02  0.25736236978E+02  0.54000399226E+02  0.00000000000E+00 0. -1.
         11    1    1    2    0    0  0.27044634304E+02  0.23719687866E+02 -0.49355619843E+02  0.61073832754E+02  0.00000000000E+00 0.  1.
</event>
<event>
 7    1  0.2878477E-009  0.1110877E+03  0.7561462E-02  0.1258569E+00
         -1   -1    0    0    0  501 -0.00000000000E+00  0.00000000000E+00  0.81665626241E+02  0.81665626241E+02  0.00000000000E+00 0.  1.
          1   -1    0    0  501    0  0.00000000000E+00 -0.00000000000E+00 -0.19656837702E+03  0.19656837702E+03  0.00000000000E+00 0. -1.
         25    2    1    2    0    0  0.19468395744E+02 -0.49888119328E+02 -0.92830981084E+01  0.13638055110E+03  0.12508251647E+03 0.  0.
          5    1    3    3  502    0 -0.48629649922E+02 -0.45956461090E+02 -0.11432005089E+02  0.68007369511E+02  0.41800000000E+01 0. -1.
         -5    1    3    3    0  502  0.68098045666E+02 -0.39316582380E+01  0.21489069811E+01  0.68373181593E+02  0.41800000000E+01 0. -1.
        -11    1    1    2    0    0  0.19140486060E+02  0.43682614278E+02 -0.28959961135E+02  0.55796131996E+02  0.00000000000E+00 0.  1.
         11    1    1    2    0    0 -0.38608881804E+02  0.62055050501E+01 -0.76659691539E+02  0.86057320164E+02  0.00000000000E+00 0. -1.
</event>
<event>
 7    1  0.2878477E-009  0.1842211E+03  0.7561462E-02  0.1163779E+00
         -1   -1    0    0    0  501 -0.00000000000E+00  0.00000000000E+00  0.33599270756E+02  0.33599270756E+02  0.00000000000E+00 0.  1.
          1   -1    0    0  501    0  0.00000000000E+00 -0.00000000000E+00 -0.25502118118E+04  0.25502118118E+04  0.00000000000E+00 0. -1.
         25    2    1    2    0    0 -0.11394504450E+03  0.12786507023E+03 -0.22156587810E+04  0.22257861207E+04  0.12508825707E+03 0.  0.
          5    1    3    3  502    0 -0.69958750022E+02  0.13101985530E+03 -0.12003498351E+04  0.12095113179E+04  0.41800000000E+01 0. -1.
         -5    1    3    3    0  502 -0.43986294480E+02 -0.31547850641E+01 -0.10153089459E+04  0.10162748028E+04  0.41800000000E+01 0. -1.
        -11    1    1    2    0    0  0.63021126702E+02 -0.98026721612E+02 -0.26350648028E+03  0.28812595460E+03  0.00000000000E+00 0. -1.
         11    1    1    2    0    0  0.50923917800E+02 -0.29838348622E+02 -0.37447279797E+02  0.69899007266E+02  0.00000000000E+00 0.  1.
</event>
<event>
 7    1  0.2878477E-009  0.1177716E+03  0.7561462E-02  0.1246819E+00
          2   -1    0    0  501    0  0.00000000000E+00  0.00000000000E+00  0.17162774760E+04  0.17162774760E+04  0.00000000000E+00 0. -1.
         -2   -1    0    0    0  501 -0.00000000000E+00 -0.00000000000E+00 -0.24463468139E+02  0.24463468139E+02  0.00000000000E+00 0.  1.
         25    2    1    2    0    0 -0.10342770077E+03 -0.38481924728E+02  0.14439082638E+04  0.14535117792E+04  0.12508904873E+03 0.  0.
          5    1    3    3  502    0 -0.66007383639E+02 -0.32455743485E+02  0.13520157726E+04  0.13540215921E+04  0.41800000000E+01 0.  1.
         -5    1    3    3    0  502 -0.37420317128E+02 -0.60261812436E+01  0.91892491154E+02  0.99490187078E+02  0.41800000000E+01 0.  1.
        -11    1    1    2    0    0  0.23423013636E+01  0.21025640308E+02  0.25706161007E+01  0.21311311391E+02  0.00000000000E+00 0.  1.
         11    1    1    2    0    0  0.10108539940E+03  0.17456284420E+02  0.24533512798E+03  0.26591785359E+03  0.00000000000E+00 0. -1.
</event>
<event>
 7    1  0.2878477E-009  0.9352926E+02  0.7561462E-02  0.1294523E+00
          2   -1    0    0  501    0  0.00000000000E+00  0.00000000000E+00  0.19702410907E+03  0.19702410907E+03  0.00000000000E+00 0. -1.
         -2   -1    0    0    0  501 -0.00000000000E+00 -0.00000000000E+00 -0.78890498017E+02  0.78890498017E+02  0.00000000000E+00 0.  1.
         25    2    1    2    0    0  0.39240573511E+02  0.36853818513E+02  0.35809194542E+02  0.14081953632E+03  0.12509922801E+03 0.  0.
          5    1    3    3  502    0 -0.31228822190E+02  0.19315906960E+02  0.54377798765E+02  0.65747707151E+02  0.41800000000E+01 0. -1.
         -5    1    3    3    0  502  0.70469395701E+02  0.17537911554E+02 -0.18568604224E+02  0.75071829170E+02  0.41800000000E+01 0. -1.
        -11    1    1    2    0    0  0.14375404023E+02 -0.87193739176E+01 -0.13623151877E+02  0.21639546885E+02  0.00000000000E+00 0.  1.
         11    1    1    2    0    0 -0.53615977534E+02 -0.28134444596E+02  0.95947568392E+02  0.11345552388E+03  0.00000000000E+00 0. -1.
</event>
<event>
 7    1  0.3051679E-009  0.2056520E+03  0.7561462E-02  0.1145056E+00
         -2   -1    0    0    0  501 -0.00000000000E+00  0.00000000000E+00  0.73622981461E+02  0.73622981461E+02  0.00000000000E+00 0.  1.
          2   -1    0    0  501    0  0.00000000000E+00 -0.00000000000E+00 -0.58223214371E+03  0.58223214371E+03  0.00000000000E+00 0. -1.
         25    2    1    2    0    0 -0.46811813487E+01  0.17532371632E+03 -0.28531716407E+03  0.35751259614E+03  0.12509617628E+03 0.  0.
          5    1    3    3  502    0  0.36840006612E+02  0.16788863588E+03 -0.21354867668E+03  0.27416106554E+03  0.41800000000E+01 0.  1.
         -5    1    3    3    0  502 -0.41521187961E+02  0.74350804392E+01 -0.71768487392E+02  0.83351530600E+02  0.41800000000E+01 0.  1.
        -11    1    1    2    0    0 -0.42085865993E+02 -0.68916965905E+02 -0.10553328961E+03  0.13288357130E+03  0.00000000000E+00 0.  1.
         11    1    1    2    0    0  0.46767047342E+02 -0.10640675041E+03 -0.11775870857E+03  0.16545895773E+03  0.00000000000E+00 0. -1.
</event>
<event>
 7    1  0.2878477E-009  0.9528934E+02  0.7561462E-02  0.1290526E+00
         -2   -1    0    0    0  501 -0.00000000000E+00  0.00000000000E+00  0.12487606672E+03  0.12487606672E+03  0.00000000000E+00 0. -1.
          2   -1    0    0  501    0  0.00000000000E+00 -0.00000000000E+00 -0.11637779680E+03  0.11637779680E+03  0.00000000000E+00 0.  1.
         25    2    1    2    0    0  0.22742173733E+02 -0.17359461796E+02 -0.39633437426E+02  0.13434697932E+03  0.12513889927E+03 0.  0.
          5    1    3    3  502    0  0.32113823362E+02 -0.66597327549E+02 -0.39756772982E+02  0.84051026677E+02  0.41800000000E+01 0.  1.
         -5    1    3    3    0  502 -0.93716496285E+01  0.49237865753E+02  0.12333555560E+00  0.50295952643E+02  0.41800000000E+01 0.  1.
        -11    1    1    2    0    0  0.23069038248E+01 -0.20611391417E+02 -0.17442384245E+02  0.27099594638E+02  0.00000000000E+00 0.  1.
         11    1    1    2    0    0 -0.25049077558E+02  0.37970853212E+02  0.65574091590E+02  0.79807289567E+02  0.00000000000E+00 0. -1.
</event>
<event>
 7    1  0.2878477E-009  0.1254690E+03  0.7561462E-02  0.1234338E+00
          1   -1    0    0  501    0  0.00000000000E+00  0.00000000000E+00  0.56998919898E+02  0.56998919898E+02  0.00000000000E+00 0. -1.
         -1   -1    0    0    0  501 -0.00000000000E+00 -0.00000000000E+00 -0.30521267599E+03  0.30521267599E+03  0.00000000000E+00 0.  1.
         25    2    1    2    0    0 -0.63104283549E+02 -0.20714846784E+02 -0.18628501604E+03  0.23400347210E+03  0.12507702538E+03 0.  0.
          5    1    3    3  502    0 -0.71740322910E+02  0.38335810342E+02 -0.11538934729E+03  0.14123909569E+03  0.41800000000E+01 0.  1.
         -5    1    3    3    0  502  0.86360393610E+01 -0.59050657126E+02 -0.70895668752E+02  0.92764376410E+02  0.41800000000E+01 0.  1.
        -11    1    1    2    0    0  0.95503887741E+01  0.48431202243E+02 -0.41654129478E+02  0.64589920104E+02  0.00000000000E+00 0. -1.
         11    1    1    2    0    0  0.53553894774E+02 -0.27716355459E+02 -0.20274610577E+02  0.63618203680E+02  0.00000000000E+00 0.  1.
</event>
<event>
 7    1  0.2878477E-009  0.9083718E+02  0.7561462E-02  0.1300837E+00
         -2   -1    0    0    0  501 -0.00000000000E+00  0.00000000000E+00  0.85652101212E+02  0.85652101212E+02  0.00000000000E+00 0. -1.
          2   -1    0    0  501    0  0.00000000000E+00 -0.00000000000E+00 -0.17486680416E+03  0.17486680416E+03  0.00000000000E+00 0.  1.
         25    2    1    2    0    0 -0.26248181468E+01  0.45436438369E+02 -0.11208040373E+02  0.13358428308E+03  0.12509109047E+03 0.  0.
          5    1    3    3  502    0 -0.54662134471E+02  0.89773673129E+01 -0.34943804861E+02  0.65628377757E+02  0.41800000000E+01 0.  1.
         -5    1    3    3    0  502  0.52037316324E+02  0.36459071056E+02  0.23735764488E+02  0.67955905323E+02  0.41800000000E+01 0.  1.
        -11    1    1    2    0    0 -0.11914497818E+02  0.26538292219E+01  0.16131424771E+02  0.20229209894E+02  0.00000000000E+00 0. -1.
         11    1    1    2    0    0  0.14539315964E+02 -0.48090267591E+02 -0.94138087347E+02  0.10670541240E+03  0.00000000000E+00 0.  1.
</event>
<event>
 7    1  0.2878477E-009  0.9471773E+02  0.7561462E-02  0.1291813E+00
          1   -1    0    0  501    0  0.00000000000E+00  0.00000000000E+00  0.77100817335E+03  0.77100817335E+03  0.00000000000E+00 0. -1.
         -1   -1    0    0    0  501 -0.00000000000E+00 -0.00000000000E+00 -0.21096332376E+02  0.21096332376E+02  0.00000000000E+00 0.  1.
         25    2    1    2    0    0 -0.98539444498E+00  0.41146046543E+02  0.25022801718E+03  0.28276459342E+03  0.12509111303E+03 0.  0.
          5    1    3    3  502    0 -0.34208139376E+02 -0.54469175320E+01  0.10749961851E+02  0.36508900147E+02  0.41800000000E+01 0. -1.
         -5    1    3    3    0  502  0.33222744931E+02  0.46592964075E+02  0.23947805533E+03  0.24625569327E+03  0.41800000000E+01 0. -1.
        -11    1    1    2    0    0 -0.39669318798E+02 -0.48959521116E+00  0.16136244912E+03  0.16616779033E+03  0.00000000000E+00 0.  1.
         11    1    1    2    0    0  0.40654713243E+02 -0.40656451332E+02  0.33832137467E+03  0.34317212198E+03  0.00000000000E+00 0. -1.
</event>
<event>
 7    1  0.2878477E-009  0.1300536E+03  0.7561462E-02  0.1227376E+00
          2   -1    0    0  501    0  0.00000000000E+00  0.00000000000E+00  0.45809657196E+03  0.45809657196E+03  0.00000000000E+00 0. -1.
         -2   -1    0    0    0  501 -0.00000000000E+00 -0.00000000000E+00 -0.43583708371E+02  0.43583708371E+02  0.00000000000E+00 0.  1.
         25    2    1    2    0    0 -0.55843499336E+02 -0.57014054580E+02  0.30292635581E+03  0.33731501805E+03  0.12509174840E+03 0.  0.
          5    1    3    3  502    0  0.15921290050E+01 -0.84201755319E+02  0.18439252572E+03  0.20275735847E+03  0.41800000000E+01 0.  1.
         -5    1    3    3    0  502 -0.57435628341E+02  0.27187700738E+02  0.11853383009E+03  0.13455765958E+03  0.41800000000E+01 0.  1.
        -11    1    1    2    0    0  0.69621841717E+02  0.19741979960E+02  0.99104573017E+02  0.12271374418E+03  0.00000000000E+00 0. -1.
         11    1    1    2    0    0 -0.13778342381E+02  0.37272074620E+02  0.12481934761E+02  0.41651518107E+02  0.00000000000E+00 0.  1.
</event>
<event>
 7    1  0.2878477E-009  0.1328239E+03  0.7561462E-02  0.1223325E+00
         -1   -1    0    0    0  501 -0.00000000000E+00  0.00000000000E+00  0.50179249386E+03  0.50179249386E+03  0.00000000000E+00 0.  1.
          1   -1    0    0  501    0  0.00000000000E+00 -0.00000000000E+00 -0.53752640555E+02  0.53752640555E+02  0.00000000000E+00 0. -1.
         25    2    1    2    0    0  0.12732375649E+02  0.84540152324E+02  0.38869821064E+03  0.41718523211E+03  0.12509223875E+03 0.  0.
          5    1    3    3  502    0 -0.64730948836E+01  0.10920354857E+03  0.35283201167E+03  0.36942552272E+03  0.41800000000E+01 0.  1.
         -5    1    3    3    0  502  0.19205470533E+02 -0.24663396246E+02  0.35866198963E+02  0.47759709388E+02  0.41800000000E+01 0.  1.
        -11    1    1    2    0    0 -0.44137195559E+02 -0.12230570985E+02  0.16841280916E+02  0.48798643847E+02  0.00000000000E+00 0.  1.
         11    1    1    2    0    0  0.31404819910E+02 -0.72309581339E+02  0.42500361750E+02  0.89561258454E+02  0.00000000000E+00 0. -1.
</event>
<event>
 7    1  0.2878477E-009  0.8625388E+02  0.7561462E-02  0.1312186E+00
          2   -1    0    0  501    0  0.00000000000E+00  0.00000000000E+00  0.15912005182E+03  0.15912005182E+03  0.00000000000E+00 0.  1.
         -2   -1    0    0    0  501 -0.00000000000E+00 -0.00000000000E+00 -0.10054900495E+03  0.10054900495E+03  0.00000000000E+00 0. -1.
         25    2    1    2    0    0  0.80985353506E+01 -0.61342088747E+02  0.12338405899E+02  0.14009896939E+03  0.12508815626E+03 0.  0.
          5    1    3    3  502    0 -0.21418716983E+02 -0.71694557323E+02 -0.35392091820E+02  0.82879089947E+02  0.41800000000E+01 0. -1.
         -5    1    3    3    0  502  0.29517252333E+02  0.10352468576E+02  0.47730497719E+02  0.57219879443E+02  0.41800000000E+01 0. -1.
        -11    1    1    2    0    0 -0.14115519458E+02  0.21539931483E+02  0.68771555934E+02  0.73435301071E+02  0.00000000000E+00 0.  1.
         11    1    1    2    0    0  0.60169841073E+01  0.39802157264E+02 -0.22538914960E+02  0.46134786313E+02  0.00000000000E+00 0. -1.
</event>
<event>
 7    1  0.2878477E-009  0.1053319E+03  0.7561462E-02  0.1269467E+00
          1   -1    0    0  501    0  0.00000000000E+00  0.00000000000E+00  0.51354515071E+03  0.51354515071E+03  0.00000000000E+00 0. -1.
         -1   -1    0    0    0  501 -0.00000000000E+00 -0.00000000000E+00 -0.25526987054E+02  0.25526987054E+02  0.00000000000E+00 0.  1.
         25    2    1    2    0    0 -0.14917141266E+02 -0.22199924693E+02  0.32495361034E+03  0.34922404004E+03  0.12508886243E+03 0.  0.
          5    1    3    3  502    0 -0.66739884311E+02 -0.14170379491E+02  0.12503887486E+03  0.14250334887E+03  0.41800000000E+01 0.  1.
         -5    1    3    3    0  502  0.51822743045E+02 -0.80295452023E+01  0.19991473548E+03  0.20672069117E+03  0.41800000000E+01 0.  1.
        -11    1    1    2    0    0 -0.21449419646E+02 -0.23157277813E+02  0.25756860105E+02  0.40740065799E+02  0.00000000000E+00 0.  1.
         11    1    1    2    0    0  0.36366560912E+02  0.45357202506E+02  0.13730769320E+03  0.14910803193E+03  0.00000000000E+00 0. -1.
</event>
<event>
 7    1  0.2878477E-009  0.1253156E+03  0.7561462E-02  0.1234577E+00
         -1   -1    0    0    0  501 -0.00000000000E+00  0.00000000000E+00  0.14838619788E+02  0.14838619788E+02  0.00000000000E+00 0.  1.
          1   -1    0    0  501    0  0.00000000000E+00 -0.00000000000E+00 -0.14187255059E+04  0.14187255059E+04  0.00000000000E+00 0. -1.
         25    2    1    2    0    0 -0.87069561298E+02 -0.14916044019E+02 -0.93662759660E+03  0.94906547893E+03  0.12510168546E+03 0.  0.
          5    1    3    3  502    0 -0.88675124548E+01  0.34492841870E+02 -0.56276913742E+03  0.56391042139E+03  0.41800000000E+01 0. -1.
         -5    1    3    3    0  502 -0.78202048843E+02 -0.49408885889E+02 -0.37385845918E+03  0.38515505754E+03  0.41800000000E+01 0. -1.
        -11    1    1    2    0    0  0.36212807267E+01 -0.28072249802E+02 -0.57045899614E+02  0.63682019015E+02  0.00000000000E+00 0.  1.
         11    1    1    2    0    0  0.83448280571E+02  0.42988293821E+02 -0.41021338990E+03  0.42081662775E+03  0.00000000000E+00 0. -1.
</event>
<event>
 7    1  0.2878477E-009  0.8529238E+02  0.7561462E-02  0.1314670E+00
         -1   -1    0    0    0  501 -0.00000000000E+00  0.00000000000E+00  0.14966089068E+03  0.14966089068E+03  0.00000000000E+00 0.  1.
          1   -1    0    0  501    0  0.00000000000E+00 -0.00000000000E+00 -0.10896957595E+03  0.10896957595E+03  0.00000000000E+00 0. -1.
         25    2    1    2    0    0 -0.11769732858E+02  0.47343221362E+02 -0.27007055618E+02  0.13695457694E+03  0.12508903977E+03 0.  0.
          5    1    3    3  502    0 -0.96837817129E+01 -0.36134518306E+02 -0.36962217936E+02  0.52755634734E+02  0.41800000000E+01 0.  1.
         -5    1    3    3    0  502 -0.20859511454E+01  0.83477739668E+02  0.99551623176E+01  0.84198942208E+02  0.41800000000E+01 0.  1.
        -11    1    1    2    0    0  0.83617979544E+01 -0.18645670904E+02 -0.20450739317E+02  0.28910438376E+02  0.00000000000E+00 0. -1.
         11    1    1    2    0    0  0.34079349039E+01 -0.28697550458E+02  0.88149109666E+02  0.92765451314E+02  0.00000000000E+00 0.  1.
</event>
<event>
 7    1  0.2878477E-009  0.7837817E+02  0.7561462E-02  0.1333718E+00
         -1   -1    0    0    0  501 -0.00000000000E+00  0.00000000000E+00  0.64143585952E+02  0.64143585952E+02  0.00000000000E+00 0.  1.
          1   -1    0    0  501    0  0.00000000000E+00 -0.00000000000E+00 -0.26819609499E+03  0.26819609499E+03  0.00000000000E+00 0. -1.
         25    2    1    2    0    0  0.91221200548E+01 -0.39043614937E+02 -0.19834341438E+02  0.13284791634E+03  0.12509017081E+03 0.  0.
          5    1    3    3  502    0 -0.81142557922E+01  0.23124831700E+02 -0.54202057629E+02  0.59631656353E+02  0.41800000000E+01 0.  1.
         -5    1    3    3    0  502  0.17236375847E+02 -0.62168446637E+02  0.34367716191E+02  0.73216259982E+02  0.41800000000E+01 0.  1.
        -11    1    1    2    0    0 -0.27039670823E+02  0.41114884001E+02 -0.81516417601E+02  0.95218190611E+02  0.00000000000E+00 0.  1.
         11    1    1    2    0    0  0.17917550768E+02 -0.20712690645E+01 -0.10270175000E+03  0.10427357400E+03  0.00000000000E+00 0. -1.
</event>
<event>
 7    1  0.2878477E-009  0.1574538E+03  0.7561462E-02  0.1191602E+00
         -2   -1    0    0    0  501 -0.00000000000E+00  0.00000000000E+00  0.40814429033E+03  0.40814429033E+03  0.00000000000E+00 0.  1.
          2   -1    0    0  501    0  0.00000000000E+00 -0.00000000000E+00 -0.83135690225E+02  0.83135690225E+02  0.00000000000E+00 0. -1.
         25    2    1    2    0    0 -0.45831436954E+02  0.12171343012E+03  0.26965785425E+03  0.32446207749E+03  0.12508237960E+03 0.  0.
          5    1    3    3  502    0 -0.43024515191E+02 -0.58832001410E+01  0.12025347548E+03  0.12792220963E+03  0.41800000000E+01 0.  1.
         -5    1    3    3    0  502 -0.28069217628E+01  0.12759663026E+03  0.14940437876E+03  0.19653986786E+03  0.41800000000E+01 0.  1.
        -11    1    1    2    0    0  0.43226769693E+01 -0.93031577116E+02  0.67378769999E+02  0.11494980871E+03  0.00000000000E+00 0.  1.
         11    1    1    2    0    0  0.41508759984E+02 -0.28681853002E+02 -0.12028024141E+02  0.51868094353E+02  0.00000000000E+00 0. -1.
</event>
<event>
 7    1  0.2878477E-009  0.1200839E+03  0.7561462E-02  0.1242959E+00
         -4   -1    0    0    0  501 -0.00000000000E+00  0.00000000000E+00  0.23296833274E+03  0.23296833274E+03  0.00000000000E+00 0.  1.
          4   -1    0    0  501    0  0.00000000000E+00 -0.00000000000E+00 -0.76026978896E+02  0.76026978896E+02  0.00000000000E+00 0. -1.
         25    2    1    2    0    0  0.75992913886E+02 -0.74114436622E+01  0.97702220093E+02  0.17613530382E+03  0.12509224190E+03 0.  0.
          5    1    3    3  502    0 -0.34143539233E+02 -0.23124487172E+01  0.35455495868E+02  0.49453951083E+02  0.41800000000E+01 0.  1.
         -5    1    3    3    0  502  0.11013645312E+03 -0.50989949450E+01  0.62246724225E+02  0.12668135274E+03  0.41800000000E+01 0.  1.
        -11    1    1    2    0    0 -0.49625609959E+01 -0.18953516652E+02  0.53387218053E+02  0.56868777519E+02  0.00000000000E+00 0.  1.
         11    1    1    2    0    0 -0.71030352890E+02  0.26364960314E+02  0.58519156952E+01  0.75991230292E+02  0.00000000000E+00 0. -1.
</event>
<event>
 7    1  0.2878477E-009  0.1403116E+03  0.7561462E-02  0.1212910E+00
         -1   -1    0    0    0  501 -0.00000000000E+00  0.00000000000E+00  0.74659248398E+03  0.74659248398E+03  0.00000000000E+00 0.  1.
          1   -1    0    0  501    0  0.00000000000E+00 -0.00000000000E+00 -0.34339366626E+02  0.34339366626E+02  0.00000000000E+00 0. -1.
         25    2    1    2    0    0  0.62845897837E+02  0.82659731029E+02  0.51558546145E+03  0.54060884721E+03  0.12508924658E+03 0.  0.
          5    1    3    3  502    0  0.85573176186E+02  0.32888026464E+02  0.19693204939E+03  0.21726503457E+03  0.41800000000E+01 0. -1.
         -5    1    3    3    0  502 -0.22727278350E+02  0.49771704565E+02  0.31865341206E+03  0.32334381264E+03  0.41800000000E+01 0. -1.
        -11    1    1    2    0    0  0.20572664901E+02 -0.25918199060E+02  0.26069160665E+02  0.42125867604E+02  0.00000000000E+00 0. -1.
         11    1    1    2    0    0 -0.83418562738E+02 -0.56741531969E+02  0.17059849523E+03  0.19819713579E+03  0.00000000000E+00 0.  1.
</event>
<event>
 7    1  0.2878477E-009  0.1475074E+03  0.7561462E-02  0.1203570E+00
         -1   -1    0    0    0  501 -0.00000000000E+00  0.00000000000E+00  0.37983880992E+03  0.37983880992E+03  0.00000000000E+00 0.  1.
          1   -1    0    0  501    0  0.00000000000E+00 -0.00000000000E+00 -0.68026648003E+02  0.68026648003E+02  0.00000000000E+00 0. -1.
         25    2    1    2    0    0  0.19618286154E+02  0.10766988038E+03  0.15865687523E+03  0.22977698342E+03  0.12509107785E+03 0.  0.
          5    1    3    3  502    0 -0.33293983582E+02  0.23246713993E+02  0.11291006086E+03  0.12006270569E+03  0.41800000000E+01 0.  1.
         -5    1    3    3    0  502  0.52912269736E+02  0.84423166389E+02  0.45746814370E+02  0.10971427773E+03  0.41800000000E+01 0.  1.
        -11    1    1    2    0    0  0.41050748088E+02 -0.75163512254E+02  0.95746637103E+02  0.12846063992E+03  0.00000000000E+00 0.  1.
         11    1    1    2    0    0 -0.60669034243E+02 -0.32506368129E+02  0.57408649579E+02  0.89627834579E+02  0.00000000000E+00 0. -1.
</event>
<event>
 6    1  0.2878477E-009  0.1041704E+03  0.7561462E-02  0.1271763E+00
         -2   -1    0    0    0  501 -0.00000000000E+00  0.00000000000E+00  0.43441932278E+02  0.43441932278E+02  0.00000000000E+00 0.  1.
          2   -1    0    0  501    0  0.00000000000E+00 -0.00000000000E+00 -0.27893833368E+03  0.27893833368E+03  0.00000000000E+00 0. -1.
          5    1    1    2  502    0  0.34678995123E+02 -0.48159041114E+02 -0.11504309118E+03  0.12951567926E+03  0.41800000000E+01 0. -1.
         -5    1    1    2    0  502 -0.14881139059E+02  0.54533973027E+02 -0.33491179253E+02  0.65837177959E+02  0.41800000000E+01 0. -1.
        -11    1    1    2    0    0  0.29519142534E+02 -0.25757110016E+02 -0.30994590383E+02  0.49954710742E+02  0.00000000000E+00 0.  1.
         11    1    1    2    0    0 -0.49316998598E+02  0.19382178103E+02 -0.55967540584E+02  0.77072698005E+02  0.00000000000E+00 0. -1.
</event>
<event>
 7    1  0.2878477E-009  0.9128160E+02  0.7561462E-02  0.1299777E+00
         -1   -1    0    0    0  501 -0.00000000000E+00  0.00000000000E+00  0.24446308843E+03  0.24446308843E+03  0.00000000000E+00 0.  1.
          1   -1    0    0  501    0  0.00000000000E+00 -0.00000000000E+00 -0.12491925543E+03  0.12491925543E+03  0.00000000000E+00 0. -1.
         25    2    1    2    0    0  0.31275308572E+02  0.81876196088E+02 -0.47368077591E+02  0.15991531897E+03  0.12508924036E+03 0.  0.
          5    1    3    3  502    0  0.22232058968E-01  0.21404754368E+02 -0.80993144370E+02  0.83878041458E+02  0.41800000000E+01 0.  1.
         -5    1    3    3    0  502  0.31253076513E+02  0.60471441720E+02  0.33625066779E+02  0.76037277510E+02  0.41800000000E+01 0.  1.
        -11    1    1    2    0    0 -0.32378358328E+02 -0.43824470448E+02  0.16220156739E+03  0.17110900257E+03  0.00000000000E+00 0.  1.
         11    1    1    2    0    0  0.11030497560E+01 -0.38051725640E+02  0.47103432076E+01  0.38358022317E+02  0.00000000000E+00 0. -1.
</event>
<event>
 7    1  0.2878477E-009  0.1171097E+03  0.7561462E-02  0.1247943E+00
         -1   -1    0    0    0  501 -0.00000000000E+00  0.00000000000E+00  0.31940507569E+02  0.31940507569E+02  0.00000000000E+00 0. -1.
          1   -1    0    0  501    0  0.00000000000E+00 -0.00000000000E+00 -0.54040424777E+03  0.54040424777E+03  0.00000000000E+00 0.  1.
         25    2    1    2    0    0  0.11191179152E+02  0.64663003433E+02 -0.34833165229E+03  0.37588415225E+03  0.12508960558E+03 0.  0.
          5    1    3    3  502    0 -0.45127114779E+02  0.31186963560E+02 -0.26040507360E+03  0.26615288452E+03  0.41800000000E+01 0. -1.
         -5    1    3    3    0  502  0.56318293931E+02  0.33476039874E+02 -0.87926578694E+02  0.10973126773E+03  0.41800000000E+01 0. -1.
        -11    1    1    2    0    0 -0.51186019419E+02 -0.24046051712E+02 -0.73087697808E+02  0.92412297654E+02  0.00000000000E+00 0. -1.
         11    1    1    2    0    0  0.39994840267E+02 -0.40616951722E+02 -0.87044390100E+02  0.10404830543E+03  0.00000000000E+00 0.  1.
</event>
<event>
 7    1  0.2878477E-009  0.7596462E+02  0.7561462E-02  0.1340910E+00
         -1   -1    0    0    0  501 -0.00000000000E+00  0.00000000000E+00  0.10325271963E+03  0.10325271963E+03  0.00000000000E+00 0.  1.
          1   -1    0    0  501    0  0.00000000000E+00 -0.00000000000E+00 -0.15706556227E+03  0.15706556227E+03  0.00000000000E+00 0. -1.
         25    2    1    2    0    0 -0.52909519495E+02  0.35907781082E+02 -0.44405504888E+02  0.14733523904E+03  0.12508812015E+03 0.  0.
          5    1    3    3  502    0 -0.28289556325E+02  0.44386506558E+02  0.35211009811E+02  0.63464545798E+02  0.41800000000E+01 0. -1.
         -5    1    3    3    0  502 -0.24619963170E+02 -0.84787254757E+01 -0.79616514699E+02  0.83870693242E+02  0.41800000000E+01 0. -1.
        -11    1    1    2    0    0  0.25895778983E+02 -0.37638974934E+02  0.37312829612E+02  0.58987550016E+02  0.00000000000E+00 0.  1.
         11    1    1    2    0    0  0.27013740512E+02  0.17311938522E+01 -0.46720167364E+02  0.53995492841E+02  0.00000000000E+00 0. -1.
</event>
<event>
 7    1  0.2878477E-009  0.1060258E+03  0.7561462E-02  0.1268112E+00
         -1   -1    0    0    0  501 -0.00000000000E+00  0.00000000000E+00  0.51806126370E+02  0.51806126370E+02  0.00000000000E+00 0.  1.
          1   -1    0    0  501    0  0.00000000000E+00 -0.00000000000E+00 -0.39743601714E+03  0.39743601714E+03  0.00000000000E+00 0. -1.
         25    2    1    2    0    0 -0.88119927470E+02 -0.24418832035E+02 -0.16852331423E+03  0.22892868149E+03  0.12508730068E+03 0.  0.
          5    1    3    3  502    0 -0.17302723350E+02 -0.42197198504E+02 -0.14506748969E+03  0.15212506947E+03  0.41800000000E+01 0. -1.
         -5    1    3    3    0  502 -0.70817204121E+02  0.17778366469E+02 -0.23455824549E+02  0.76803612018E+02  0.41800000000E+01 0. -1.
        -11    1    1    2    0    0  0.42089100712E+02  0.20795266263E+02 -0.11422331734E+02  0.48315682339E+02  0.00000000000E+00 0.  1.
         11    1    1    2    0    0  0.46030826759E+02  0.36235657720E+01 -0.16568424480E+03  0.17199777968E+03  0.00000000000E+00 0. -1.
</event>
<event>
 7    1  0.2878477E-009  0.9262866E+02  0.7561462E-02  0.1296608E+00
         -1   -1    0    0    0  501 -0.00000000000E+00  0.00000000000E+00  0.86845545155E+02  0.86845545155E+02  0.00000000000E+00 0.  1.
          1   -1    0    0  501    0  0.00000000000E+00 -0.00000000000E+00 -0.14413180759E+03  0.14413180759E+03  0.00000000000E+00 0. -1.
         25    2    1    2    0    0  0.11919187418E+02 -0.96845407777E+01 -0.53403886861E+02  0.13687708605E+03  0.12508998439E+03 0.  0.
          5    1    3    3  502    0  0.53824308333E+02  0.25111095142E+02 -0.56606953622E+02  0.82154992940E+02  0.41800000000E+01 0.  1.
         -5    1    3    3    0  502 -0.41905120915E+02 -0.34795635919E+02  0.32030667603E+01  0.54722093112E+02  0.41800000000E+01 0.  1.
        -11    1    1    2    0    0  0.14220150503E+02  0.33080835326E+02 -0.32746576258E+02  0.48671270816E+02  0.00000000000E+00 0. -1.
         11    1    1    2    0    0 -0.26139337921E+02 -0.23396294548E+02  0.28864200683E+02  0.45428995879E+02  0.00000000000E+00 0.  1.
</event>
<event>
 7    1  0.2878477E-009  0.2224729E+03  0.7561462E-02  0.1132053E+00
         -2   -1    0    0    0  501 -0.00000000000E+00  0.00000000000E+00  0.10505362638E+03  0.10505362638E+03  0.00000000000E+00 0.  1.
          2   -1    0    0  501    0  0.00000000000E+00 -0.00000000000E+00 -0.56352516390E+03  0.56352516390E+03  0.00000000000E+00 0. -1.
         25    2    1    2    0    0 -0.21103873503E+03  0.24394393994E+02 -0.17171891403E+03  0.30043537670E+03  0.12506636637E+03 0.  0.
          5    1    3    3  502    0 -0.42031711000E+02 -0.26844126176E+02 -0.95951791339E+02  0.10821964009E+03  0.41800000000E+01 0. -1.
         -5    1    3    3    0  502 -0.16900702403E+03  0.51238520170E+02 -0.75767122688E+02  0.19221573661E+03  0.41800000000E+01 0. -1.
        -11    1    1    2    0    0  0.43808468213E+02 -0.26123913260E+02 -0.23263549797E+02  0.56060980016E+02  0.00000000000E+00 0.  1.
         11    1    1    2    0    0  0.16723026682E+03  0.17295192664E+01 -0.26348907370E+03  0.31208243356E+03  0.00000000000E+00 0. -1.
</event>
<event>
 7    1  0.2878477E-009  0.1288287E+03  0.7561462E-02  0.1229204E+00
          2   -1    0    0  501    0  0.00000000000E+00  0.00000000000E+00  0.43038111069E+03  0.43038111069E+03  0.00000000000E+00 0. -1.
         -2   -1    0    0    0  501 -0.00000000000E+00 -0.00000000000E+00 -0.72858094671E+02  0.72858094671E+02  0.00000000000E+00 0.  1.
         25    2    1    2    0    0  0.60818104516E+02 -0.98834894087E+02  0.74969880301E+02  0.18637360264E+03  0.12508980247E+03 0.  0.
          5    1    3    3  502    0  0.33191052949E+02 -0.67297597953E+02 -0.23930630596E+02  0.78871795763E+02  0.41800000000E+01 0. -1.
         -5    1    3    3    0  502  0.27627051567E+02 -0.31537296134E+02  0.98900510898E+02  0.10750180688E+03  0.41800000000E+01 0. -1.
        -11    1    1    2    0    0 -0.13527619391E+02  0.91522042494E+02  0.15348167144E+03  0.17920910752E+03  0.00000000000E+00 0. -1.
         11    1    1    2    0    0 -0.47290485125E+02  0.73128515927E+01  0.12907146428E+03  0.13765649521E+03  0.00000000000E+00 0.  1.
</event>
<event>
 7    1  0.2878477E-009  0.1606455E+03  0.7561462E-02  0.1187970E+00
         -1   -1    0    0    0  501 -0.00000000000E+00  0.00000000000E+00  0.58818297746E+03  0.58818297746E+03  0.00000000000E+00 0.  1.
          1   -1    0    0  501    0  0.00000000000E+00 -0.00000000000E+00 -0.51749377336E+02  0.51749377336E+02  0.00000000000E+00 0. -1.
         25    2    1    2    0    0  0.12496040843E+03 -0.51778157454E+02  0.24803148812E+03  0.30897119336E+03  0.12508995948E+03 0.  0.
          5    1    3    3  502    0  0.71497373745E+02 -0.83301069530E+02  0.10062026218E+03  0.14897265587E+03  0.41800000000E+01 0.  1.
         -5    1    3    3    0  502  0.53463034687E+02  0.31522912077E+02  0.14741122594E+03  0.15999853749E+03  0.41800000000E+01 0.  1.
        -11    1    1    2    0    0 -0.69584852010E+02  0.61667280806E+02  0.23767773714E+03  0.25521679389E+03  0.00000000000E+00 0.  1.
         11    1    1    2    0    0 -0.55375556423E+02 -0.98891233520E+01  0.50724374868E+02  0.75744367550E+02  0.00000000000E+00 0. -1.
</event>
<event>
 7    1  0.2878477E-009  0.1090803E+03  0.7561462E-02  0.1262283E+00
         -1   -1    0    0    0  501 -0.00000000000E+00  0.00000000000E+00  0.14207762894E+03  0.14207762894E+03  0.00000000000E+00 0.  1.
          1   -1    0    0  501    0  0.00000000000E+00 -0.00000000000E+00 -0.85357286863E+02  0.85357286863E+02  0.00000000000E+00 0. -1.
         25    2    1    2    0    0  0.20389572304E+02 -0.11817756622E+01  0.41355258688E+02  0.13333292771E+03  0.12510108288E+03 0.  0.
          5    1    3    3  502    0  0.59121840940E+02  0.38417746120E+02  0.16822862882E+02  0.72607137450E+02  0.41800000000E+01 0. -1.
         -5    1    3    3    0  502 -0.38732268637E+02 -0.39599521782E+02  0.24532395805E+02  0.60725790263E+02  0.41800000000E+01 0. -1.
        -11    1    1    2    0    0 -0.56159072612E+02 -0.65260646820E+00  0.15583718725E+02  0.58284814670E+02  0.00000000000E+00 0.  1.
         11    1    1    2    0    0  0.35769500308E+02  0.18343821303E+01 -0.21863533912E+00  0.35817173416E+02  0.00000000000E+00 0. -1.
</event>
<event>
 7    1  0.2878477E-009  0.9908210E+02  0.7561462E-02  0.1282238E+00
         -2   -1    0    0    0  501 -0.00000000000E+00  0.00000000000E+00  0.11528484786E+03  0.11528484786E+03  0.00000000000E+00 0.  1.
          2   -1    0    0  501    0  0.00000000000E+00 -0.00000000000E+00 -0.14229446454E+03  0.14229446454E+03  0.00000000000E+00 0. -1.
         25    2    1    2    0    0  0.37988590775E+02  0.38651563543E+01  0.41715825569E+02  0.13728060999E+03  0.12509070035E+03 0.  0.
          5    1    3    3  502    0  0.96806425902E+01 -0.49318119316E+02  0.55855369621E+02  0.75254810140E+02  0.41800000000E+01 0.  1.
         -5    1    3    3    0  502  0.28307948185E+02  0.53183275670E+02 -0.14139544051E+02  0.62025799853E+02  0.41800000000E+01 0.  1.
        -11    1    1    2    0    0 -0.20491266147E+02  0.37328558599E+02 -0.61740205110E+02  0.75001108008E+02  0.00000000000E+00 0.  1.
         11    1    1    2    0    0 -0.17497324628E+02 -0.41193714953E+02 -0.69852371427E+01  0.45297594403E+02  0.00000000000E+00 0. -1.
</event>
<event>
 7    1  0.2878477E-009  0.1511208E+03  0.7561462E-02  0.1199102E+00
          2   -1    0    0  501    0  0.00000000000E+00  0.00000000000E+00  0.11417639278E+03  0.11417639278E+03  0.00000000000E+00 0. -1.
         -2   -1    0    0    0  501 -0.00000000000E+00 -0.00000000000E+00 -0.25264495227E+03  0.25264495227E+03  0.00000000000E+00 0.  1.
         25    2    1    2    0    0 -0.93512652597E+02  0.89216376336E+02 -0.87234541282E+02  0.19990480180E+03  0.12509151286E+03 0.  0.
          5    1    3    3  502    0  0.11714632780E+02  0.60261565341E+02 -0.62933193596E+02  0.88015613017E+02  0.41800000000E+01 0.  1.
         -5    1    3    3    0  502 -0.10522728538E+03  0.28954810995E+02 -0.24301347686E+02  0.11188918879E+03  0.41800000000E+01 0.  1.
        -11    1    1    2    0    0  0.72490528120E+02 -0.81559421829E+02  0.20376708312E+01  0.10913738158E+03  0.00000000000E+00 0. -1.
         11    1    1    2    0    0  0.21022124477E+02 -0.76569545070E+01 -0.53271689035E+02  0.57779161663E+02  0.00000000000E+00 0.  1.
</event>
<event>
 7    1  0.2878477E-009  0.1381187E+03  0.7561462E-02  0.1215883E+00
         -3   -1    0    0    0  501 -0.00000000000E+00  0.00000000000E+00  0.43420121142E+02  0.43420121142E+02  0.00000000000E+00 0.  1.
          3   -1    0    0  501    0  0.00000000000E+00 -0.00000000000E+00 -0.47633068357E+03  0.47633068357E+03  0.00000000000E+00 0. -1.
         25    2    1    2    0    0  0.59522236878E+02 -0.65753579699E+02 -0.28582652755E+03  0.32435775123E+03  0.12507884315E+03 0.  0.
          5    1    3    3  502    0  0.24181642955E+02  0.35312425910E+02 -0.54509523603E+02  0.69429675522E+02  0.41800000000E+01 0.  1.
         -5    1    3    3    0  502  0.35340593923E+02 -0.10106600561E+03 -0.23131700395E+03  0.25492807571E+03  0.41800000000E+01 0.  1.
        -11    1    1    2    0    0  0.19200880017E+02  0.38069810380E+02 -0.68988636185E+02  0.81101271127E+02  0.00000000000E+00 0. -1.
         11    1    1    2    0    0 -0.78723116895E+02  0.27683769320E+02 -0.78095398694E+02  0.11429178236E+03  0.00000000000E+00 0.  1.
</event>
<event>
 7    1  0.2878477E-009  0.1169138E+03  0.7561462E-02  0.1248277E+00
          2   -1    0    0  501    0  0.00000000000E+00  0.00000000000E+00  0.50259116145E+02  0.50259116145E+02  0.00000000000E+00 0.  1.
         -2   -1    0    0    0  501 -0.00000000000E+00 -0.00000000000E+00 -0.29212492207E+03  0.29212492207E+03  0.00000000000E+00 0. -1.
         25    2    1    2    0    0  0.49008515984E+01  0.42038126595E+02 -0.10145684284E+03  0.16653902078E+03  0.12510208650E+03 0.  0.
          5    1    3    3  502    0  0.62439055256E+02  0.12495353540E+02 -0.31476501277E+02  0.71154845331E+02  0.41800000000E+01 0.  1.
         -5    1    3    3    0  502 -0.57538203658E+02  0.29542773055E+02 -0.69980341565E+02  0.95384175446E+02  0.41800000000E+01 0.  1.
        -11    1    1    2    0    0 -0.29111695418E+02  0.22160832105E+02 -0.58462550882E+02  0.68967116405E+02  0.00000000000E+00 0. -1.
         11    1    1    2    0    0  0.24210843819E+02 -0.64198958700E+02 -0.81946412199E+02  0.10687790103E+03  0.00000000000E+00 0.  1.
</event>
<event>
 7    1  0.2878477E-009  0.1061672E+03  0.7561462E-02  0.1267837E+00
         -2   -1    0    0    0  501 -0.00000000000E+00  0.00000000000E+00  0.24138514723E+02  0.24138514723E+02  0.00000000000E+00 0.  1.
          2   -1    0    0  501    0  0.00000000000E+00 -0.00000000000E+00 -0.84683403892E+03  0.84683403892E+03  0.00000000000E+00 0. -1.
         25    2    1    2    0    0  0.30152427829E+00  0.29321347123E+01 -0.72883740130E+03  0.73950588653E+03  0.12512517869E+03 0.  0.
          5    1    3    3  502    0 -0.42835256911E+02  0.46739213581E+02 -0.37150461930E+03  0.37689861751E+03  0.41800000000E+01 0.  1.
         -5    1    3    3    0  502  0.43136781190E+02 -0.43807078868E+02 -0.35733278201E+03  0.36260726902E+03  0.41800000000E+01 0.  1.
        -11    1    1    2    0    0 -0.24843653227E+02  0.34440005856E+02 -0.66956038784E+02  0.79287024403E+02  0.00000000000E+00 0. -1.
         11    1    1    2    0    0  0.24542128949E+02 -0.37372140569E+02 -0.26902084112E+02  0.52179642713E+02  0.00000000000E+00 0.  1.
</event>
<event>
 7    1  0.2878477E-009  0.1662605E+03  0.7561462E-02  0.1181805E+00
          2   -1    0    0  501    0  0.00000000000E+00  0.00000000000E+00  0.62618869889E+03  0.62618869889E+03  0.00000000000E+00 0.  1.
         -2   -1    0    0    0  501 -0.00000000000E+00 -0.00000000000E+00 -0.48971298487E+02  0.48971298487E+02  0.00000000000E+00 0. -1.
         25    2    1    2    0    0  0.13531633314E+03  0.20731999472E+02  0.30103452585E+03  0.35356730741E+03  0.12509088416E+03 0.  0.
          5    1    3    3  502    0  0.37862782016E+02  0.65759291196E+02  0.99692437556E+02  0.12535521188E+03  0.41800000000E+01 0.  1.
         -5    1    3    3    0  502  0.97453551122E+02 -0.45027291724E+02  0.20134208829E+03  0.22821209553E+03  0.41800000000E+01 0.  1.
        -11    1    1    2    0    0 -0.75887997231E+02  0.18207451133E+02  0.21176708283E+03  0.22568960271E+03  0.00000000000E+00 0.  1.
         11    1    1    2    0    0 -0.59428335907E+02 -0.38939450604E+02  0.64415791721E+02  0.95903087255E+02  0.00000000000E+00 0. -1.
</event>
<event>
 7    1  0.2878477E-009  0.5585959E+02  0.7561462E-02  0.1416077E+00
          2   -1    0    0  501    0  0.00000000000E+00  0.00000000000E+00  0.66042105603E+02  0.66042105603E+02  0.00000000000E+00 0. -1.
         -2   -1    0    0    0  501 -0.00000000000E+00 -0.00000000000E+00 -0.19113939138E+03  0.19113939138E+03  0.00000000000E+00 0.  1.
         25    2    1    2    0    0  0.25528484738E+02  0.11047507586E+02 -0.72204585940E+02  0.14708865441E+03  0.12509124298E+03 0.  0.
          5    1    3    3  502    0  0.14268388392E+02  0.13301088657E+02  0.34410689732E+02  0.39775291760E+02  0.41800000000E+01 0. -1.
         -5    1    3    3    0  502  0.11260096346E+02 -0.22535810706E+01 -0.10661527567E+03  0.10731336265E+03  0.41800000000E+01 0. -1.
        -11    1    1    2    0    0 -0.33111928721E+02  0.25770413193E+02 -0.58598499274E+02  0.72071479358E+02  0.00000000000E+00 0.  1.
         11    1    1    2    0    0  0.75834439829E+01 -0.36817920780E+02  0.57057994376E+01  0.38021363211E+02  0.00000000000E+00 0. -1.
</event>
<event>
 7    1  0.2878477E-009  0.1041268E+03  0.7561462E-02  0.1271850E+00
          1   -1    0    0  501    0  0.00000000000E+00  0.00000000000E+00  0.36569541156E+03  0.36569541156E+03  0.00000000000E+00 0. -1.
         -1   -1    0    0    0  501 -0.00000000000E+00 -0.00000000000E+00 -0.37129036036E+02  0.37129036036E+02  0.00000000000E+00 0.  1.
         25    2    1    2    0    0 -0.36424412512E+02  0.18494169880E+02  0.20852626055E+03  0.24657590076E+03  0.12509077244E+03 0.  0.
          5    1    3    3  502    0 -0.59327957682E+02  0.59016283781E+02  0.11831761874E+03  0.14498020423E+03  0.41800000000E+01 0. -1.
         -5    1    3    3    0  502  0.22903545170E+02 -0.40522113901E+02  0.90208641814E+02  0.10159569653E+03  0.41800000000E+01 0. -1.
        -11    1    1    2    0    0  0.45159383126E+02 -0.36273538669E+02  0.12324843194E+03  0.13618118618E+03  0.00000000000E+00 0. -1.
         11    1    1    2    0    0 -0.87349706137E+01  0.17779368789E+02 -0.32083169679E+01  0.20067360662E+02  0.00000000000E+00 0.  1.
</event>
<event>
 7    1  0.3397950E-009  0.9750605E+02  0.7561462E-02  0.1285630E+00
          1   -1    0    0  501    0  0.00000000000E+00  0.00000000000E+00  0.46507044127E+03  0.46507044127E+03  0.00000000000E+00 0. -1.
         -1   -1    0    0    0  501 -0.00000000000E+00 -0.00000000000E+00 -0.35543096645E+02  0.35543096645E+02  0.00000000000E+00 0.  1.
         25    2    1    2    0    0 -0.10769310968E+02  0.62933282825E+02  0.19139838828E+03  0.23739615300E+03  0.12508802612E+03 0.  0.
          5    1    3    3  502    0  0.32664801562E+02  0.10313183372E+02  0.37540757700E+00  0.34510351247E+02  0.41800000000E+01 0. -1.
         -5    1    3    3    0  502 -0.43434112529E+02  0.52620099453E+02  0.19102298070E+03  0.20288580175E+03  0.41800000000E+01 0. -1.
        -11    1    1    2    0    0  0.36433963862E+02 -0.53653262389E+02  0.81140126637E+02  0.10387408935E+03  0.00000000000E+00 0.  1.
         11    1    1    2    0    0 -0.25664652894E+02 -0.92800204357E+01  0.15698882971E+03  0.15934329557E+03  0.00000000000E+00 0. -1.
</event>
<event>
 7    1  0.2878477E-009  0.1773528E+03  0.7561462E-02  0.1170390E+00
          1   -1    0    0  501    0  0.00000000000E+00  0.00000000000E+00  0.72412037057E+03  0.72412037057E+03  0.00000000000E+00 0. -1.
         -1   -1    0    0    0  501 -0.00000000000E+00 -0.00000000000E+00 -0.57876922390E+02  0.57876922390E+02  0.00000000000E+00 0.  1.
         25    2    1    2    0    0  0.13927523501E+03 -0.84581972816E+02  0.46467150561E+03  0.50805442799E+03  0.12509193603E+03 0.  0.
          5    1    3    3  502    0  0.12889668491E+03 -0.10247568939E+03  0.30184089866E+03  0.34386192404E+03  0.41800000000E+01 0. -1.
         -5    1    3    3    0  502  0.10378550104E+02  0.17893716578E+02  0.16283060695E+03  0.16419250396E+03  0.41800000000E+01 0. -1.
        -11    1    1    2    0    0 -0.12841431849E+03  0.89931739948E+02  0.20781804497E+03  0.26031960137E+03  0.00000000000E+00 0. -1.
         11    1    1    2    0    0 -0.10860916521E+02 -0.53497671311E+01 -0.62461023968E+01  0.13623263603E+02  0.00000000000E+00 0.  1.
</event>
<event>
 7    1  0.2878477E-009  0.9976091E+02  0.7561462E-02  0.1280800E+00
          4   -1    0    0  501    0  0.00000000000E+00  0.00000000000E+00  0.50487867403E+02  0.50487867403E+02  0.00000000000E+00 0.  1.
         -4   -1    0    0    0  501 -0.00000000000E+00 -0.00000000000E+00 -0.22922565498E+03  0.22922565498E+03  0.00000000000E+00 0. -1.
         25    2    1    2    0    0  0.41416264985E+01 -0.16835930316E+02 -0.12315287872E+03  0.17639343568E+03  0.12508961185E+03 0.  0.
          5    1    3    3  502    0 -0.57161463743E+02 -0.13024775871E+02 -0.33542168405E+02  0.67672942784E+02  0.41800000000E+01 0.  1.
         -5    1    3    3    0  502  0.61303090241E+02 -0.38111544451E+01 -0.89610710320E+02  0.10872049290E+03  0.41800000000E+01 0.  1.
        -11    1    1    2    0    0 -0.32397759144E+02 -0.15774276984E+02 -0.42871523731E+01  0.36288046068E+02  0.00000000000E+00 0. -1.
         11    1    1    2    0    0  0.28256132646E+02  0.32610207301E+02 -0.51297756483E+02  0.67032040641E+02  0.00000000000E+00 0.  1.
</event>
<event>
 7    1  0.2878477E-009  0.9198796E+02  0.7561462E-02  0.1298108E+00
         -1   -1    0    0    0  501 -0.00000000000E+00  0.00000000000E+00  0.29356142111E+03  0.29356142111E+03  0.00000000000E+00 0.  1.
          1   -1    0    0  501    0  0.00000000000E+00 -0.00000000000E+00 -0.53225176653E+02  0.53225176653E+02  0.00000000000E+00 0. -1.
         25    2    1    2    0    0  0.18446907785E+02 -0.32373888253E+02  0.20282870123E+03  0.24119350972E+03  0.12508585068E+03 0.  0.
          5    1    3    3  502    0  0.45545059313E+02  0.16177098554E+02  0.24495198772E+02  0.54346463623E+02  0.41800000000E+01 0. -1.
         -5    1    3    3    0  502 -0.27098151528E+02 -0.48550986807E+02  0.17833350246E+03  0.18684704610E+03  0.41800000000E+01 0. -1.
        -11    1    1    2    0    0 -0.64082447662E+01  0.54307516582E+02  0.53009077947E+02  0.76159925835E+02  0.00000000000E+00 0.  1.
         11    1    1    2    0    0 -0.12038663019E+02 -0.21933628330E+02 -0.15501534720E+02  0.29433162210E+02  0.00000000000E+00 0. -1.
</event>
<event>
 7    1  0.2878477E-009  0.1235166E+03  0.7561462E-02  0.1237406E+00
          2   -1    0    0  501    0  0.00000000000E+00  0.00000000000E+00  0.22108045231E+02  0.22108045231E+02  0.00000000000E+00 0. -1.
         -2   -1    0    0    0  501 -0.00000000000E+00 -0.00000000000E+00 -0.97540453222E+03  0.97540453222E+03  0.00000000000E+00 0.  1.
         25    2    1    2    0    0 -0.75338233820E+02  0.62747908194E+02 -0.56055321351E+03  0.58264880787E+03  0.12508628494E+03 0.  0.
          5    1    3    3  502    0 -0.93667061630E+02  0.59620651321E+02 -0.27696880880E+03  0.29842475424E+03  0.41800000000E+01 0.  1.
         -5    1    3    3    0  502  0.18328827810E+02  0.31272568731E+01 -0.28358440471E+03  0.28422405363E+03  0.41800000000E+01 0.  1.
        -11    1    1    2    0    0  0.10069846975E+01 -0.38739079326E+02 -0.49607767805E+02  0.62949669672E+02  0.00000000000E+00 0. -1.
         11    1    1    2    0    0  0.74331249123E+02 -0.24008828868E+02 -0.34313550567E+03  0.35191409991E+03  0.00000000000E+00 0.  1.
</event>
<event>
 6    1  0.2878477E-009  0.1157148E+03  0.7561462E-02  0.1250339E+00
          4   -1    0    0  501    0  0.00000000000E+00  0.00000000000E+00  0.67309717881E+02  0.67309717881E+02  0.00000000000E+00 0. -1.
         -4   -1    0    0    0  501 -0.00000000000E+00 -0.00000000000E+00 -0.22533140641E+03  0.22533140641E+03  0.00000000000E+00 0.  1.
          5    1    1    2  502    0 -0.32228117411E+02  0.83648307226E+02 -0.32462280243E+02  0.95430408634E+02  0.41800000000E+01 0. -1.
         -5    1    1    2    0  502  0.16514177951E+00 -0.43123593522E+02 -0.36116289792E+02  0.56405056319E+02  0.41800000000E+01 0. -1.
        -11    1    1    2    0    0  0.50792492459E+02  0.31017682662E+01 -0.15981756463E+02  0.53337742699E+02  0.00000000000E+00 0. -1.
         11    1    1    2    0    0 -0.18729516827E+02 -0.43626481970E+02 -0.73461362030E+02  0.87467916638E+02  0.00000000000E+00 0.  1.
</event>
<event>
 7    1  0.2878477E-009  0.8301408E+02  0.7561462E-02  0.1320709E+00
         -2   -1    0    0    0  501 -0.00000000000E+00  0.00000000000E+00  0.32436370983E+02  0.32436370983E+02  0.00000000000E+00 0.  1.
          2   -1    0    0  501    0  0.00000000000E+00 -0.00000000000E+00 -0.43112257847E+03  0.43112257847E+03  0.00000000000E+00 0. -1.
         25    2    1    2    0    0  0.21038220517E+02  0.91739681233E+01 -0.30147016656E+03  0.32719810054E+03  0.12509023646E+03 0.  0.
          5    1    3    3  502    0 -0.43522879795E+02 -0.66385477869E+01 -0.48622695054E+02  0.65726328489E+02  0.41800000000E+01 0.  1.
         -5    1    3    3    0  502  0.64561100313E+02  0.15812515910E+02 -0.25284747150E+03  0.26147177205E+03  0.41800000000E+01 0.  1.
        -11    1    1    2    0    0 -0.32330309725E+02 -0.21235608326E+02 -0.95543828291E+00  0.38692542565E+02  0.00000000000E+00 0.  1.
         11    1    1    2    0    0  0.11292089208E+02  0.12061640202E+02 -0.96260602649E+02  0.97668306350E+02  0.00000000000E+00 0. -1.
</event>
<event>
 7    1  0.2878477E-009  0.1824788E+03  0.7561462E-02  0.1165425E+00
          2   -1    0    0  501    0  0.00000000000E+00  0.00000000000E+00  0.97047310946E+03  0.97047310946E+03  0.00000000000E+00 0. -1.
         -2   -1    0    0    0  501 -0.00000000000E+00 -0.00000000000E+00 -0.36688480044E+02  0.36688480044E+02  0.00000000000E+00 0.  1.
         25    2    1    2    0    0  0.14432945330E+03  0.37804228603E+02  0.59203831286E+03  0.62323153427E+03  0.12509208858E+03 0.  0.
          5    1    3    3  502    0 -0.14080496661E+02 -0.20744290726E+02  0.65634240270E+02  0.70384031426E+02  0.41800000000E+01 0.  1.
         -5    1    3    3    0  502  0.15840994996E+03  0.58548519329E+02  0.52640407259E+03  0.55284750284E+03  0.41800000000E+01 0.  1.
        -11    1    1    2    0    0 -0.37820659325E+02  0.26508124958E+02  0.13445188897E+03  0.14216326321E+03  0.00000000000E+00 0. -1.
         11    1    1    2    0    0 -0.10650879398E+03 -0.64312353561E+02  0.20729442760E+03  0.24176679203E+03  0.00000000000E+00 0.  1.
</event>
<event>
 7    1  0.2878477E-009  0.1499965E+03  0.7561462E-02  0.1200477E+00
         -2   -1    0    0    0  501 -0.00000000000E+00  0.00000000000E+00  0.65484438535E+02  0.65484438535E+02  0.00000000000E+00 0.  1.
          2   -1    0    0  501    0  0.00000000000E+00 -0.00000000000E+00 -0.47516345095E+03  0.47516345095E+03  0.00000000000E+00 0. -1.
         25    2    1    2    0    0  0.12981936054E+03  0.61677764154E+01 -0.14850401348E+03  0.23365184004E+03  0.12509449426E+03 0.  0.
          5    1    3    3  502    0  0.85134879716E+02 -0.30661955615E+02 -0.15039031588E+03  0.17556429813E+03  0.41800000000E+01 0. -1.
         -5    1    3    3    0  502  0.44684480827E+02  0.36829732030E+02  0.18863024013E+01  0.58087541908E+02  0.41800000000E+01 0. -1.
        -11    1    1    2    0    0 -0.69346923511E+02  0.35508125156E+02 -0.18715518568E+03  0.20272366975E+03  0.00000000000E+00 0. -1.
         11    1    1    2    0    0 -0.60472437031E+02 -0.41675901571E+02 -0.74019813256E+02  0.10427237969E+03  0.00000000000E+00 0.  1.
</event>
<event>
 7    1  0.2878477E-009  0.8534598E+02  0.7561462E-02  0.1314530E+00
         -2   -1    0    0    0  501 -0.00000000000E+00  0.00000000000E+00  0.36563484100E+02  0.36563484100E+02  0.00000000000E+00 0. -1.
          2   -1    0    0  501    0  0.00000000000E+00 -0.00000000000E+00 -0.65347833544E+03  0.65347833544E+03  0.00000000000E+00 0.  1.
         25    2    1    2    0    0  0.49225448772E+02 -0.35084069146E+02 -0.53916366366E+03  0.55677674975E+03  0.12509538813E+03 0.  0.
          5    1    3    3  502    0  0.34648177737E+02 -0.35760281974E+02 -0.63179998182E+02  0.80551092840E+02  0.41800000000E+01 0. -1.
         -5    1    3    3    0  502  0.14577271035E+02  0.67621282748E+00 -0.47598366548E+03  0.47622565691E+03  0.41800000000E+01 0. -1.
        -11    1    1    2    0    0 -0.66446052378E+02 -0.17780668888E-01 -0.34174805483E+02  0.74719445412E+02  0.00000000000E+00 0. -1.
         11    1    1    2    0    0  0.17220603607E+02  0.35101849815E+02 -0.43576382197E+02  0.58545624383E+02  0.00000000000E+00 0.  1.
</event>
<event>
 7    1  0.2878477E-009  0.9494671E+02  0.7561462E-02  0.1291296E+00
          2   -1    0    0  501    0  0.00000000000E+00  0.00000000000E+00  0.10227163003E+04  0.10227163003E+04  0.00000000000E+00 0. -1.
         -2   -1    0    0    0  501 -0.00000000000E+00 -0.00000000000E+00 -0.12964908797E+02  0.12964908797E+02  0.00000000000E+00 0.  1.
         25    2    1    2    0    0 -0.75784324214E+01  0.24958954015E+02  0.71704005327E+03  0.72833639759E+03  0.12508832095E+03 0.  0.
          5    1    3    3  502    0 -0.51959993302E+02  0.37370834774E+02  0.22034012231E+03  0.22948564681E+03  0.41800000000E+01 0. -1.
         -5    1    3    3    0  502  0.44381560881E+02 -0.12411880759E+02  0.49669993096E+03  0.49885075077E+03  0.41800000000E+01 0. -1.
        -11    1    1    2    0    0  0.27053439422E+02  0.17875929143E+02  0.46573846831E+02  0.56749983577E+02  0.00000000000E+00 0.  1.
         11    1    1    2    0    0 -0.19475007001E+02 -0.42834883158E+02  0.24613749145E+03  0.25059482798E+03  0.00000000000E+00 0. -1.
</event>
<event>
 7    1  0.2878477E-009  0.1205940E+03  0.7561462E-02  0.1242120E+00
         -2   -1    0    0    0  501 -0.00000000000E+00  0.00000000000E+00  0.83116802979E+02  0.83116802979E+02  0.00000000000E+00 0.  1.
          2   -1    0    0  501    0  0.00000000000E+00 -0.00000000000E+00 -0.27015026440E+03  0.27015026440E+03  0.00000000000E+00 0. -1.
         25    2    1    2    0    0  0.61084451720E+02 -0.79927400938E+02 -0.11371430081E+03  0.19671093514E+03  0.12507817608E+03 0.  0.
          5    1    3    3  502    0  0.31118070881E+02 -0.66649407811E+02 -0.13750275639E+03  0.15599666122E+03  0.41800000000E+01 0.  1.
         -5    1    3    3    0  502  0.29966380839E+02 -0.13277993127E+02  0.23788455576E+02  0.40714273919E+02  0.41800000000E+01 0.  1.
        -11    1    1    2    0    0 -0.84396646517E+02  0.67395566671E+02 -0.42843099504E+02  0.11619159834E+03  0.00000000000E+00 0.  1.
         11    1    1    2    0    0  0.23312194797E+02  0.12531834266E+02 -0.30476061103E+02  0.40364533897E+02  0.00000000000E+00 0. -1.
</event>
<event>
 7    1  0.2878477E-009  0.1036535E+03  0.7561462E-02  0.1272796E+00
         -2   -1    0    0    0  501 -0.00000000000E+00  0.00000000000E+00  0.40970821562E+02  0.40970821562E+02  0.00000000000E+00 0.  1.
          2   -1    0    0  501    0  0.00000000000E+00 -0.00000000000E+00 -0.34217010035E+03  0.34217010035E+03  0.00000000000E+00 0. -1.
         25    2    1    2    0    0 -0.31214233297E+02 -0.13468091297E+02 -0.22887276421E+03  0.26303098610E+03  0.12508732793E+03 0.  0.
          5    1    3    3  502    0  0.45557300017E+02 -0.16993050571E+02 -0.12139116301E+03  0.13083393371E+03  0.41800000000E+01 0. -1.
         -5    1    3    3    0  502 -0.76771533314E+02  0.35249592744E+01 -0.10748160119E+03  0.13219705239E+03  0.41800000000E+01 0. -1.
        -11    1    1    2    0    0  0.44060798573E+02  0.35131433584E+02 -0.16267793649E+02  0.58653326476E+02  0.00000000000E+00 0.  1.
         11    1    1    2    0    0 -0.12846565276E+02 -0.21663342287E+02 -0.56058720932E+02  0.61456609335E+02  0.00000000000E+00 0. -1.
</event>
<event>
 7    1  0.2878477E-009  0.9526270E+02  0.7561462E-02  0.1290586E+00
          1   -1    0    0  501    0  0.00000000000E+00  0.00000000000E+00  0.31198231339E+03  0.31198231339E+03  0.00000000000E+00 0. -1.
         -1   -1    0    0    0  501 -0.00000000000E+00 -0.00000000000E+00 -0.48983529791E+02  0.48983529791E+02  0.00000000000E+00 0.  1.
         25    2    1    2    0    0 -0.26400138204E+02  0.41800170698E+02  0.10233121374E+03  0.16900511925E+03  0.12508729535E+03 0.  0.
          5    1    3    3  502    0  0.78295147556E+00  0.56630303672E+02  0.12025005492E+03  0.13298553461E+03  0.41800000000E+01 0. -1.
         -5    1    3    3    0  502 -0.27183089680E+02 -0.14830132974E+02 -0.17918841177E+02  0.36019584640E+02  0.41800000000E+01 0. -1.
        -11    1    1    2    0    0 -0.12815746608E+02 -0.58484291662E+02  0.72443737365E+02  0.93982715516E+02  0.00000000000E+00 0.  1.
         11    1    1    2    0    0  0.39215884812E+02  0.16684120964E+02  0.88223832495E+02  0.97978008421E+02  0.00000000000E+00 0. -1.
</event>
<event>
 7    1  0.2878477E-009  0.1006736E+03  0.7561462E-02  0.1278886E+00
         -1   -1    0    0    0  501 -0.00000000000E+00  0.00000000000E+00  0.36084861384E+03  0.36084861384E+03  0.00000000000E+00 0.  1.
          1   -1    0    0  501    0  0.00000000000E+00 -0.00000000000E+00 -0.52637787728E+02  0.52637787728E+02  0.00000000000E+00 0. -1.
         25    2    1    2    0    0  0.65175736970E+02 -0.98651696388E+01  0.24395330103E+03  0.28196838616E+03  0.12509100466E+03 0.  0.
          5    1    3    3  502    0 -0.23161959402E+02 -0.80700030196E+01  0.15331581512E+03  0.15532164330E+03  0.41800000000E+01 0.  1.
         -5    1    3    3    0  502  0.88337696372E+02 -0.17951666193E+01  0.90637485911E+02  0.12664674285E+03  0.41800000000E+01 0.  1.
        -11    1    1    2    0    0 -0.12018618794E+02 -0.22690605145E+02 -0.15728423086E+02  0.30111360852E+02  0.00000000000E+00 0. -1.
         11    1    1    2    0    0 -0.53157118176E+02  0.32555774784E+02  0.79985948168E+02  0.10140665456E+03  0.00000000000E+00 0.  1.
</event>
<event>
 7    1  0.2878477E-009  0.1312520E+03  0.7561462E-02  0.1225610E+00
          2   -1    0    0  501    0  0.00000000000E+00  0.00000000000E+00  0.54235133447E+03  0.54235133447E+03  0.00000000000E+00 0. -1.
         -2   -1    0    0    0  501 -0.00000000000E+00 -0.00000000000E+00 -0.49303709734E+02  0.49303709734E+02  0.00000000000E+00 0.  1.
         25    2    1    2    0    0  0.94307665403E+00  0.11809598855E+03  0.32119946767E+03  0.36436904391E+03  0.12509256662E+03 0.  0.
          5    1    3    3  502    0 -0.68655048713E+01  0.53793147424E+02  0.28480538402E+03  0.28995243926E+03  0.41800000000E+01 0. -1.
         -5    1    3    3    0  502  0.78085815254E+01  0.64302841128E+02  0.36394083649E+02  0.74416604648E+02  0.41800000000E+01 0. -1.
        -11    1    1    2    0    0 -0.40963878609E+02 -0.58441574033E+02  0.11641200463E+03  0.13654747068E+03  0.00000000000E+00 0. -1.
         11    1    1    2    0    0  0.40020801955E+02 -0.59654414520E+02  0.55436152444E+02  0.90738529625E+02  0.00000000000E+00 0.  1.
</event>
<event>
 7    1  0.2878477E-009  0.1134410E+03  0.7561462E-02  0.1254327E+00
         -1   -1    0    0    0  501 -0.00000000000E+00  0.00000000000E+00  0.53360943770E+02  0.53360943770E+02  0.00000000000E+00 0.  1.
          1   -1    0    0  501    0  0.00000000000E+00 -0.00000000000E+00 -0.25843194367E+03  0.25843194367E+03  0.00000000000E+00 0. -1.
         25    2    1    2    0    0 -0.60728094131E+01  0.33833641454E+02 -0.10007810879E+03  0.16384720632E+03  0.12509470353E+03 0.  0.
          5    1    3    3  502    0 -0.61874141657E+02  0.20503649298E+02 -0.26587401478E+02  0.70520715805E+02  0.41800000000E+01 0. -1.
         -5    1    3    3    0  502  0.55801332244E+02  0.13329992156E+02 -0.73490707311E+02  0.93326490517E+02  0.41800000000E+01 0. -1.
        -11    1    1    2    0    0  0.49928477370E+02 -0.33607083134E+02 -0.56286897711E+02  0.82404512881E+02  0.00000000000E+00 0.  1.
         11    1    1    2    0    0 -0.43855667957E+02 -0.22655832025E+00 -0.48705993396E+02  0.65541168233E+02  0.00000000000E+00 0. -1.
</event>
<event>
 7    1  0.2878477E-009  0.9662430E+02  0.7561462E-02  0.1287559E+00
          2   -1    0    0  501    0  0.00000000000E+00  0.00000000000E+00  0.23398665081E+03  0.23398665081E+03  0.00000000000E+00 0. -1.
         -2   -1    0    0    0  501 -0.00000000000E+00 -0.00000000000E+00 -0.54467949435E+02  0.54467949435E+02  0.00000000000E+00 0.  1.
         25    2    1    2    0    0  0.20449447299E+01  0.19819232046E+02  0.63026782077E+02  0.14147848776E+03  0.12508718353E+03 0.  0.
          5    1    3    3  502    0  0.21224230991E+02  0.65724795201E+02  0.12251930118E+02  0.70269473293E+02  0.41800000000E+01 0. -1.
         -5    1    3    3    0  502 -0.19179286261E+02 -0.45905563154E+02  0.50774851959E+02  0.71209014468E+02  0.41800000000E+01 0. -1.
        -11    1    1    2    0    0 -0.31173631929E+02  0.97098997317E+01  0.94597761314E+02  0.10007404222E+03  0.00000000000E+00 0. -1.
         11    1    1    2    0    0  0.29128687199E+02 -0.29529131778E+02  0.21894157986E+02  0.46902070268E+02  0.00000000000E+00 0.  1.
</event>
<event>
 7    1  0.2941244E-009  0.2802241E+03  0.7561462E-02  0.1095567E+00
         -2   -1    0    0    0  501 -0.00000000000E+00  0.00000000000E+00  0.14061016248E+03  0.14061016248E+03  0.00000000000E+00 0.  1.
          2   -1    0    0  501    0  0.00000000000E+00 -0.00000000000E+00 -0.86265658264E+03  0.86265658264E+03  0.00000000000E+00 0. -1.
         25    2    1    2    0    0 -0.11175059408E+03  0.24201044289E+03 -0.84781580624E+02  0.30641979515E+03  0.12509166519E+03 0.  0.
          5    1    3    3  502    0 -0.11802992601E+03  0.13223014803E+03 -0.19227529034E+02  0.17833408466E+03  0.41800000000E+01 0.  1.
         -5    1    3    3    0  502  0.62793319315E+01  0.10978029487E+03 -0.65554051590E+02  0.12808571049E+03  0.41800000000E+01 0.  1.
        -11    1    1    2    0    0  0.47873877965E+02 -0.17112070316E+03 -0.32597537055E+03  0.37126021258E+03  0.00000000000E+00 0.  1.
         11    1    1    2    0    0  0.63876716112E+02 -0.70889739738E+02 -0.31128946899E+03  0.32558673739E+03  0.00000000000E+00 0. -1.
</event>
<event>
 7    1  0.2878477E-009  0.6013949E+02  0.7561462E-02  0.1397247E+00
         -2   -1    0    0    0  501 -0.00000000000E+00  0.00000000000E+00  0.11375175459E+03  0.11375175459E+03  0.00000000000E+00 0.  1.
          2   -1    0    0  501    0  0.00000000000E+00 -0.00000000000E+00 -0.13602402498E+03  0.13602402498E+03  0.00000000000E+00 0. -1.
         25    2    1    2    0    0  0.33011183104E+02  0.59286943856E+01  0.38642755312E+02  0.13514901233E+03  0.12508839022E+03 0.  0.
          5    1    3    3  502    0  0.32666248547E+02  0.32363392201E+02  0.76159704206E+02  0.89063156769E+02  0.41800000000E+01 0.  1.
         -5    1    3    3    0  502  0.34493455664E+00 -0.26434697816E+02 -0.37516948894E+02  0.46085855561E+02  0.41800000000E+01 0.  1.
        -11    1    1    2    0    0 -0.12146228789E+02  0.13967470146E+02 -0.78636177372E+02  0.80785329657E+02  0.00000000000E+00 0. -1.
         11    1    1    2    0    0 -0.20864954315E+02 -0.19896164532E+02  0.17721151670E+02  0.33841437590E+02  0.00000000000E+00 0.  1.
</event>
<event>
 7    1  0.2878477E-009  0.1881322E+03  0.7561462E-02  0.1160157E+00
         -1   -1    0    0    0  501 -0.00000000000E+00  0.00000000000E+00  0.89895132375E+03  0.89895132375E+03  0.00000000000E+00 0.  1.
          1   -1    0    0  501    0  0.00000000000E+00 -0.00000000000E+00 -0.50683045916E+02  0.50683045916E+02  0.00000000000E+00 0. -1.
         25    2    1    2    0    0  0.17785951556E+03  0.27844517602E+02  0.51461134773E+03  0.55935784536E+03  0.12508811101E+03 0.  0.
          5    1    3    3  502    0  0.47231944370E+02  0.97473353392E+01  0.32363966393E+03  0.32723992969E+03  0.41800000000E+01 0. -1.
         -5    1    3    3    0  502  0.13062757119E+03  0.18097182263E+02  0.19097168380E+03  0.23211791567E+03  0.41800000000E+01 0. -1.
        -11    1    1    2    0    0 -0.80873051228E+02  0.26043756681E+02  0.97307351811E+02  0.12917990708E+03  0.00000000000E+00 0.  1.
         11    1    1    2    0    0 -0.96986464330E+02 -0.53888274283E+02  0.23634957829E+03  0.26109661722E+03  0.00000000000E+00 0. -1.
</event>
<event>
 7    1  0.2878477E-009  0.1196109E+03  0.7561462E-02  0.1243740E+00
         -2   -1    0    0    0  501 -0.00000000000E+00  0.00000000000E+00  0.36649455554E+02  0.36649455554E+02  0.00000000000E+00 0.  1.
          2   -1    0    0  501    0  0.00000000000E+00 -0.00000000000E+00 -0.52173831948E+03  0.52173831948E+03  0.00000000000E+00 0. -1.
         25    2    1    2    0    0  0.84861069870E+02 -0.91182058014E+01 -0.27883248470E+03  0.31730666874E+03  0.12510565392E+03 0.  0.
          5    1    3    3  502    0  0.85185224358E+02 -0.53514295212E+02 -0.14732795383E+03  0.17844691261E+03  0.41800000000E+01 0.  1.
         -5    1    3    3    0  502 -0.32415448789E+00  0.44396089410E+02 -0.13150453087E+03  0.13885975612E+03  0.41800000000E+01 0.  1.
        -11    1    1    2    0    0 -0.16197763918E+02 -0.14083571746E+02  0.10302184351E+01  0.21488971569E+02  0.00000000000E+00 0.  1.
         11    1    1    2    0    0 -0.68663305952E+02  0.23201777548E+02 -0.20728659766E+03  0.21959213473E+03  0.00000000000E+00 0. -1.
</event>
<event>
 6    1  0.2878477E-009  0.9219517E+02  0.7561462E-02  0.1297621E+00
         -1   -1    0    0    0  501 -0.00000000000E+00  0.00000000000E+00  0.34132626627E+02  0.34132626627E+02  0.00000000000E+00 0.  1.
          1   -1    0    0  501    0  0.00000000000E+00 -0.00000000000E+00 -0.51459386335E+03  0.51459386335E+03  0.00000000000E+00 0. -1.
          5    1    1    2  502    0  0.23217395314E+02  0.37603689219E+00 -0.10057641894E+02  0.25647951368E+02  0.41800000000E+01 0.  1.
         -5    1    1    2    0  502 -0.63701163910E+02  0.25713767079E+02 -0.39535575847E+03  0.40130123879E+03  0.41800000000E+01 0.  1.
        -11    1    1    2    0    0  0.46006573703E+02  0.16614311073E+02 -0.22502558849E+02  0.53842411825E+02  0.00000000000E+00 0.  1.
         11    1    1    2    0    0 -0.55228051062E+01 -0.42704115044E+02 -0.52545277512E+02  0.67934887994E+02  0.00000000000E+00 0. -1.
</event>
<event>
 7    1  0.2878477E-009  0.1243839E+03  0.7561462E-02  0.1236035E+00
         -1   -1    0    0    0  501 -0.00000000000E+00  0.00000000000E+00  0.55416627796E+02  0.55416627796E+02  0.00000000000E+00 0.  1.
          1   -1    0    0  501    0  0.00000000000E+00 -0.00000000000E+00 -0.35687476010E+03  0.35687476010E+03  0.00000000000E+00 0. -1.
         25    2    1    2    0    0 -0.41310835073E+02 -0.78835894453E+02 -0.18971278914E+03  0.24404938011E+03  0.12508986457E+03 0.  0.
          5    1    3    3  502    0 -0.17979226727E+02 -0.10652076674E+03 -0.10020357542E+03  0.14740473285E+03  0.41800000000E+01 0. -1.
         -5    1    3    3    0  502 -0.23331608345E+02  0.27684872287E+02 -0.89509213727E+02  0.96644647258E+02  0.41800000000E+01 0. -1.
        -11    1    1    2    0    0  0.34691918366E+02  0.11492555350E+02  0.12130980198E+01  0.36566099535E+02  0.00000000000E+00 0.  1.
         11    1    1    2    0    0  0.66189167066E+01  0.67343339103E+02 -0.11295844118E+03  0.13167590825E+03  0.00000000000E+00 0. -1.
</event>
<event>
 7    1  0.2878477E-009  0.1053119E+03  0.7561462E-02  0.1269506E+00
         -1   -1    0    0    0  501 -0.00000000000E+00  0.00000000000E+00  0.10697724637E+03  0.10697724637E+03  0.00000000000E+00 0.  1.
          1   -1    0    0  501    0  0.00000000000E+00 -0.00000000000E+00 -0.15068258745E+03  0.15068258745E+03  0.00000000000E+00 0. -1.
         25    2    1    2    0    0 -0.38109748076E+02 -0.53352562416E+02 -0.38417787771E+02  0.14636497736E+03  0.12509169183E+03 0.  0.
          5    1    3    3  502    0 -0.74341363642E+02 -0.67794905163E+02 -0.36434638365E+02  0.10708754730E+03  0.41800000000E+01 0.  1.
         -5    1    3    3    0  502  0.36231615566E+02  0.14442342747E+02 -0.19831494059E+01  0.39277430060E+02  0.41800000000E+01 0.  1.
        -11    1    1    2    0    0  0.38921119708E+02  0.35049763317E+02 -0.44039021206E+02  0.68430803420E+02  0.00000000000E+00 0. -1.
         11    1    1    2    0    0 -0.81137163190E+00  0.18302799099E+02  0.38751467893E+02  0.42864053035E+02  0.00000000000E+00 0.  1.
</event>
<event>
 7    1  0.2878477E-009  0.1130746E+03  0.7561462E-02  0.1254980E+00
          2   -1    0    0  501    0  0.00000000000E+00  0.00000000000E+00  0.42304348974E+03  0.42304348974E+03  0.00000000000E+00 0. -1.
         -2   -1    0    0    0  501 -0.00000000000E+00 -0.00000000000E+00 -0.13687679748E+03  0.13687679748E+03  0.00000000000E+00 0.  1.
         25    2    1    2    0    0  0.80381804525E+02 -0.28850739568E+02  0.37611165855E+03  0.40546416078E+03  0.12509039254E+03 0.  0.
          5    1    3    3  502    0  0.30412719835E+02  0.42339760384E+02  0.22556366711E+03  0.23154703444E+03  0.41800000000E+01 0.  1.
         -5    1    3    3    0  502  0.49969084690E+02 -0.71190499952E+02  0.15054799144E+03  0.17391712634E+03  0.41800000000E+01 0.  1.
        -11    1    1    2    0    0 -0.39759547307E+02  0.22422478043E+02  0.96925674237E+01  0.46664065263E+02  0.00000000000E+00 0. -1.
         11    1    1    2    0    0 -0.40622257219E+02  0.64282615253E+01 -0.99637533713E+02  0.10779206117E+03  0.00000000000E+00 0.  1.
</event>
<event>
 7    1  0.2878477E-009  0.1138437E+03  0.7561462E-02  0.1253613E+00
          1   -1    0    0  501    0  0.00000000000E+00  0.00000000000E+00  0.10972126074E+04  0.10972126074E+04  0.00000000000E+00 0. -1.
         -1   -1    0    0    0  501 -0.00000000000E+00 -0.00000000000E+00 -0.13309661378E+02  0.13309661378E+02  0.00000000000E+00 0.  1.
         25    2    1    2    0    0  0.49235813021E+02  0.17947435226E+02  0.66082335868E+03  0.67459716440E+03  0.12509015594E+03 0.  0.
          5    1    3    3  502    0  0.12719216681E+02  0.64210132439E+02  0.47758397985E+03  0.48206705943E+03  0.41800000000E+01 0. -1.
         -5    1    3    3    0  502  0.36516596340E+02 -0.46262697213E+02  0.18323937883E+03  0.19253010496E+03  0.41800000000E+01 0. -1.
        -11    1    1    2    0    0  0.21114160035E+01 -0.44947340758E+02  0.14347473166E+03  0.15036528902E+03  0.00000000000E+00 0. -1.
         11    1    1    2    0    0 -0.51347229025E+02  0.26999905532E+02  0.27960485563E+03  0.28555981531E+03  0.00000000000E+00 0.  1.
</event>
<event>
 7    1  0.2878477E-009  0.1190166E+03  0.7561462E-02  0.1244728E+00
         -2   -1    0    0    0  501 -0.00000000000E+00  0.00000000000E+00  0.32086451281E+02  0.32086451281E+02  0.00000000000E+00 0. -1.
          2   -1    0    0  501    0  0.00000000000E+00 -0.00000000000E+00 -0.47204015400E+03  0.47204015400E+03  0.00000000000E+00 0.  1.
         25    2    1    2    0    0  0.54571641850E+02 -0.31847608830E+01 -0.20061947653E+03  0.24265976296E+03  0.12508948557E+03 0.  0.
          5    1    3    3  502    0  0.90641348511E+02  0.19503348615E+02 -0.14964712892E+03  0.17609080119E+03  0.41800000000E+01 0. -1.
         -5    1    3    3    0  502 -0.36069706660E+02 -0.22688109498E+02 -0.50972347604E+02  0.66568961772E+02  0.41800000000E+01 0. -1.
        -11    1    1    2    0    0  0.83134130218E+01  0.32124125580E+02 -0.51313835081E+02  0.61107953256E+02  0.00000000000E+00 0.  1.
         11    1    1    2    0    0 -0.62885054872E+02 -0.28939364697E+02 -0.18802039111E+03  0.20035888907E+03  0.00000000000E+00 0. -1.
</event>
<event>
 7    1  0.2878477E-009  0.8714865E+02  0.7561462E-02  0.1309907E+00
          1   -1    0    0  501    0  0.00000000000E+00  0.00000000000E+00  0.69341420300E+02  0.69341420300E+02  0.00000000000E+00 0. -1.
         -1   -1    0    0    0  501 -0.00000000000E+00 -0.00000000000E+00 -0.22354263198E+03  0.22354263198E+03  0.00000000000E+00 0.  1.
         25    2    1    2    0    0  0.58418200818E+02 -0.55630828279E+01 -0.64963288463E+02  0.15267867085E+03  0.12508762371E+03 0.  0.
          5    1    3    3  502    0  0.45253208115E+02  0.28786725971E+02 -0.92179195060E+02  0.10672865051E+03  0.41800000000E+01 0. -1.
         -5    1    3    3    0  502  0.13164992703E+02 -0.34349808799E+02  0.27215906596E+02  0.45950020340E+02  0.41800000000E+01 0. -1.
        -11    1    1    2    0    0 -0.47533596228E+02  0.30357181531E+02 -0.96851927468E+02  0.11207719257E+03  0.00000000000E+00 0.  1.
         11    1    1    2    0    0 -0.10884604590E+02 -0.24794098703E+02  0.76140042554E+01  0.28128188857E+02  0.00000000000E+00 0. -1.
</event>
<event>
 7    1  0.2878477E-009  0.1180651E+03  0.7561462E-02  0.1246324E+00
         -1   -1    0    0    0  501 -0.00000000000E+00  0.00000000000E+00  0.50315122737E+02  0.50315122737E+02  0.00000000000E+00 0.  1.
          1   -1    0    0  501    0  0.00000000000E+00 -0.00000000000E+00 -0.33064872364E+03  0.33064872364E+03  0.00000000000E+00 0. -1.
         25    2    1    2    0    0  0.38344285709E+02  0.24244868878E+02 -0.22889622329E+03  0.26476220173E+03  0.12508974584E+03 0.  0.
          5    1    3    3  502    0  0.52456939916E+02 -0.40361868986E+02 -0.12573723633E+03  0.14215532355E+03  0.41800000000E+01 0.  1.
         -5    1    3    3    0  502 -0.14112654207E+02  0.64606737864E+02 -0.10315898696E+03  0.12260687818E+03  0.41800000000E+01 0.  1.
        -11    1    1    2    0    0  0.98279538724E+01  0.29665588704E+02 -0.97014984166E+01  0.32722391447E+02  0.00000000000E+00 0. -1.
         11    1    1    2    0    0 -0.48172239582E+02 -0.53910457582E+02 -0.41735879198E+02  0.83479253204E+02  0.00000000000E+00 0.  1.
</event>
<event>
 7    1  0.2878477E-009  0.1524922E+03  0.7561462E-02  0.1197444E+00
          2   -1    0    0  501    0  0.00000000000E+00  0.00000000000E+00  0.49709744997E+03  0.49709744997E+03  0.00000000000E+00 0.  1.
         -2   -1    0    0    0  501 -0.00000000000E+00 -0.00000000000E+00 -0.52839132647E+02  0.52839132647E+02  0.00000000000E+00 0. -1.
         25    2    1    2    0    0  0.43418805270E+02  0.10723676507E+03  0.18447380163E+03  0.25112371002E+03  0.12509043854E+03 0.  0.
          5    1    3    3  502    0  0.75813621284E+02  0.39473028039E+02  0.13897402777E+03  0.16320869434E+03  0.41800000000E+01 0.  1.
         -5    1    3    3    0  502 -0.32394816015E+02  0.67763737027E+02  0.45499773865E+02  0.87915015681E+02  0.41800000000E+01 0.  1.
        -11    1    1    2    0    0  0.75347372295E+01 -0.90115362990E+02  0.19258645519E+03  0.21276064870E+03  0.00000000000E+00 0. -1.
         11    1    1    2    0    0 -0.50953542499E+02 -0.17121402077E+02  0.67198060495E+02  0.86052223891E+02  0.00000000000E+00 0.  1.
</event>
<event>
 7    1  0.2878477E-009  0.1234305E+03  0.7561462E-02  0.1237543E+00
         -1   -1    0    0    0  501 -0.00000000000E+00  0.00000000000E+00  0.96219503906E+01  0.96219503906E+01  0.00000000000E+00 0.  1.
          1   -1    0    0  501    0  0.00000000000E+00 -0.00000000000E+00 -0.20386798391E+04  0.20386798391E+04  0.00000000000E+00 0. -1.
         25    2    1    2    0    0  0.16308023230E+02 -0.74693974826E+02 -0.14191155462E+04  0.14266686454E+04  0.12509735677E+03 0.  0.
          5    1    3    3  502    0 -0.74351893652E+01 -0.95498467879E+02 -0.12946034239E+04  0.12981489656E+04  0.41800000000E+01 0. -1.
         -5    1    3    3    0  502  0.23743212595E+02  0.20804493053E+02 -0.12451212237E+03  0.12851967978E+03  0.41800000000E+01 0. -1.
        -11    1    1    2    0    0 -0.48672446417E+02  0.71667517458E+02 -0.47459240776E+03  0.48243465216E+03  0.00000000000E+00 0. -1.
         11    1    1    2    0    0  0.32364423187E+02  0.30264573671E+01 -0.13534993470E+03  0.13919849193E+03  0.00000000000E+00 0.  1.
</event>
<event>
 7    1  0.2878477E-009  0.1553264E+03  0.7561462E-02  0.1194077E+00
         -1   -1    0    0    0  501 -0.00000000000E+00  0.00000000000E+00  0.55562145179E+02  0.55562145179E+02  0.00000000000E+00 0.  1.
          1   -1    0    0  501    0  0.00000000000E+00 -0.00000000000E+00 -0.59616906429E+03  0.59616906429E+03  0.00000000000E+00 0. -1.
         25    2    1    2    0    0  0.13587670814E+03 -0.23834568104E+02 -0.37041757423E+03  0.41459292816E+03  0.12509016881E+03 0.  0.
          5    1    3    3  502    0 -0.52229722971E+01 -0.37927527915E+01  0.74588719543E+01  0.10713150059E+02  0.41800000000E+01 0. -1.
         -5    1    3    3    0  502  0.14109968044E+03 -0.20041815312E+02 -0.37787644618E+03  0.40387977810E+03  0.41800000000E+01 0. -1.
        -11    1    1    2    0    0 -0.86353777120E+02  0.54521811207E+02 -0.13427114805E+03  0.16869601038E+03  0.00000000000E+00 0. -1.
         11    1    1    2    0    0 -0.49522931020E+02 -0.30687243103E+02 -0.35918196837E+02  0.68442270930E+02  0.00000000000E+00 0.  1.
</event>
<event>
 7    1  0.2878477E-009  0.1376908E+03  0.7561462E-02  0.1216470E+00
          1   -1    0    0  501    0  0.00000000000E+00  0.00000000000E+00  0.11106149951E+04  0.11106149951E+04  0.00000000000E+00 0. -1.
         -1   -1    0    0    0  501 -0.00000000000E+00 -0.00000000000E+00 -0.20519711401E+02  0.20519711401E+02  0.00000000000E+00 0.  1.
         25    2    1    2    0    0 -0.96521427943E+02 -0.40285983536E+02  0.60319779505E+03  0.62484781877E+03  0.12509144715E+03 0.  0.
          5    1    3    3  502    0 -0.53336859069E+02  0.24349731726E+02  0.44139747006E+03  0.44529420493E+03  0.41800000000E+01 0. -1.
         -5    1    3    3    0  502 -0.43184568874E+02 -0.64635715261E+02  0.16180032499E+03  0.17955361384E+03  0.41800000000E+01 0. -1.
        -11    1    1    2    0    0  0.26541257142E+02 -0.29666485667E+02  0.13613453635E+03  0.14183494171E+03  0.00000000000E+00 0.  1.
         11    1    1    2    0    0  0.69980170801E+02  0.69952469203E+02  0.35076295235E+03  0.36445194607E+03  0.00000000000E+00 0. -1.
</event>
<event>
 7    1  0.2878477E-009  0.1082350E+03  0.7561462E-02  0.1263874E+00
         -2   -1    0    0    0  501 -0.00000000000E+00  0.00000000000E+00  0.43154663976E+02  0.43154663976E+02  0.00000000000E+00 0.  1.
          2   -1    0    0  501    0  0.00000000000E+00 -0.00000000000E+00 -0.57540238381E+03  0.57540238381E+03  0.00000000000E+00 0. -1.
         25    2    1    2    0    0 -0.25120344807E+02  0.23871534855E+02 -0.49669923559E+03  0.51337935800E+03  0.12508937879E+03 0.  0.
          5    1    3    3  502    0 -0.33092155718E+02 -0.46964446146E+02 -0.19396659640E+03  0.20233947437E+03  0.41800000000E+01 0.  1.
         -5    1    3    3    0  502  0.79718109114E+01  0.70835981001E+02 -0.30273263919E+03  0.31103988363E+03  0.41800000000E+01 0.  1.
        -11    1    1    2    0    0  0.47268430091E+02  0.87094991114E+01  0.53859301620E+01  0.48364947036E+02  0.00000000000E+00 0.  1.
         11    1    1    2    0    0 -0.22148085285E+02 -0.32581033967E+02 -0.40934414404E+02  0.56812742749E+02  0.00000000000E+00 0. -1.
</event>
<event>
 7    1  0.2878477E-009  0.1667938E+03  0.7561462E-02  0.1181233E+00
         -2   -1    0    0    0  501 -0.00000000000E+00  0.00000000000E+00  0.20821866528E+03  0.20821866528E+03  0.00000000000E+00 0.  1.
          2   -1    0    0  501    0  0.00000000000E+00 -0.00000000000E+00 -0.18123995524E+03  0.18123995524E+03  0.00000000000E+00 0. -1.
         25    2    1    2    0    0 -0.68196353300E+02 -0.12440490978E+03  0.90953414090E+02  0.20987264779E+03  0.12508669223E+03 0.  0.
          5    1    3    3  502    0 -0.68566527837E+02 -0.14353936011E+03  0.53990578247E+02  0.16803979165E+03  0.41800000000E+01 0.  1.
         -5    1    3    3    0  502  0.37017453724E+00  0.19134450330E+02  0.36962835843E+02  0.41832856132E+02  0.41800000000E+01 0.  1.
        -11    1    1    2    0    0  0.11033186248E+02  0.84349881473E+02 -0.69101950860E+02  0.10959796219E+03  0.00000000000E+00 0. -1.
         11    1    1    2    0    0  0.57163167051E+02  0.40055028303E+02  0.51272468144E+01  0.69988010542E+02  0.00000000000E+00 0.  1.
</event>
<event>
 7    1  0.2878477E-009  0.1152136E+03  0.7561462E-02  0.1251209E+00
          1   -1    0    0  501    0  0.00000000000E+00  0.00000000000E+00  0.67720022957E+02  0.67720022957E+02  0.00000000000E+00 0. -1.
         -1   -1    0    0    0  501 -0.00000000000E+00 -0.00000000000E+00 -0.34478126538E+03  0.34478126538E+03  0.00000000000E+00 0.  1.
         25    2    1    2    0    0 -0.80386361585E+02  0.68597720017E+02 -0.11925237984E+03  0.20257451647E+03  0.12509072829E+03 0.  0.
          5    1    3    3  502    0 -0.12059307643E+02  0.45486882861E+02  0.15460890090E+02  0.49709103146E+02  0.41800000000E+01 0.  1.
         -5    1    3    3    0  502 -0.68327053942E+02  0.23110837157E+02 -0.13471326993E+03  0.15286541332E+03  0.41800000000E+01 0.  1.
        -11    1    1    2    0    0  0.50375097966E+02 -0.20812698199E+02 -0.15237808229E+02  0.56595138493E+02  0.00000000000E+00 0.  1.
         11    1    1    2    0    0  0.30011263619E+02 -0.47785021818E+02 -0.14257105435E+03  0.15333163337E+03  0.00000000000E+00 0. -1.
</event>
<event>
 7    1  0.2878477E-009  0.1102121E+03  0.7561462E-02  0.1260178E+00
          1   -1    0    0  501    0  0.00000000000E+00  0.00000000000E+00  0.70871959382E+02  0.70871959382E+02  0.00000000000E+00 0. -1.
         -1   -1    0    0    0  501 -0.00000000000E+00 -0.00000000000E+00 -0.45246190672E+03  0.45246190672E+03  0.00000000000E+00 0.  1.
         25    2    1    2    0    0 -0.61331052183E+02  0.28883604817E+02 -0.38147412393E+03  0.40714146033E+03  0.12508357567E+03 0.  0.
          5    1    3    3  502    0  0.20583992859E+02  0.46896296404E+02 -0.21017959490E+03  0.21636981743E+03  0.41800000000E+01 0. -1.
         -5    1    3    3    0  502 -0.81915045042E+02 -0.18012691587E+02 -0.17129452902E+03  0.19077164290E+03  0.41800000000E+01 0. -1.
        -11    1    1    2    0    0  0.59466964478E+02 -0.34563302656E+01 -0.37906410382E+02  0.70605679879E+02  0.00000000000E+00 0.  1.
         11    1    1    2    0    0  0.18640877049E+01 -0.25427274551E+02  0.37790586971E+02  0.45586725894E+02  0.00000000000E+00 0. -1.
</event>
<event>
 7    1  0.2878477E-009  0.2350135E+03  0.7561462E-02  0.1123160E+00
         -2   -1    0    0    0  501 -0.00000000000E+00  0.00000000000E+00  0.45567946678E+02  0.45567946678E+02  0.00000000000E+00 0.  1.
          2   -1    0    0  501    0  0.00000000000E+00 -0.00000000000E+00 -0.13746086686E+04  0.13746086686E+04  0.00000000000E+00 0. -1.
         25    2    1    2    0    0 -0.19392007351E+03 -0.98066987567E+02 -0.51880214167E+03  0.57621668914E+03  0.12509149327E+03 0.  0.
          5    1    3    3  502    0 -0.10693590786E+03 -0.11698980756E+03 -0.28718218593E+03  0.32804417962E+03  0.41800000000E+01 0. -1.
         -5    1    3    3    0  502 -0.86984165649E+02  0.18922819997E+02 -0.23161995574E+03  0.24817250953E+03  0.41800000000E+01 0. -1.
        -11    1    1    2    0    0  0.89173740873E+02  0.19145217784E+02 -0.20040597612E+03  0.22018412906E+03  0.00000000000E+00 0. -1.
         11    1    1    2    0    0  0.10474633264E+03  0.78921769783E+02 -0.60983260412E+03  0.62377579706E+03  0.00000000000E+00 0.  1.
</event>
<event>
 7    1  0.2878477E-009  0.1815553E+03  0.7561462E-02  0.1166306E+00
          1   -1    0    0  501    0  0.00000000000E+00  0.00000000000E+00  0.91382436058E+03  0.91382436058E+03  0.00000000000E+00 0. -1.
         -1   -1    0    0    0  501 -0.00000000000E+00 -0.00000000000E+00 -0.38191958778E+02  0.38191958778E+02  0.00000000000E+00 0.  1.
         25    2    1    2    0    0  0.10677180238E+03  0.10706130285E+03  0.45967976412E+03  0.49981559484E+03  0.12509117857E+03 0.  0.
          5    1    3    3  502    0  0.50799911465E+02  0.12142277070E+03  0.37293597870E+03  0.39550327035E+03  0.41800000000E+01 0.  1.
         -5    1    3    3    0  502  0.55971890911E+02 -0.14361467858E+02  0.86743785414E+02  0.10431232448E+03  0.41800000000E+01 0.  1.
        -11    1    1    2    0    0 -0.58957443374E+02 -0.30783965821E+01  0.99609509803E+02  0.11579080748E+03  0.00000000000E+00 0.  1.
         11    1    1    2    0    0 -0.47814359002E+02 -0.10398290626E+03  0.31634312788E+03  0.33640991704E+03  0.00000000000E+00 0. -1.
</event>
<event>
 7    1  0.2878477E-009  0.1326283E+03  0.7561462E-02  0.1223607E+00
          3   -1    0    0  501    0  0.00000000000E+00  0.00000000000E+00  0.45097858216E+03  0.45097858216E+03  0.00000000000E+00 0. -1.
         -3   -1    0    0    0  501 -0.00000000000E+00 -0.00000000000E+00 -0.56994157991E+02  0.56994157991E+02  0.00000000000E+00 0.  1.
         25    2    1    2    0    0  0.85077669605E+02 -0.58791702693E+02  0.18056434297E+03  0.24278763698E+03  0.12509068929E+03 0.  0.
          5    1    3    3  502    0  0.60730586428E+02 -0.53517442548E+01  0.94587092245E+01  0.61836759897E+02  0.41800000000E+01 0.  1.
         -5    1    3    3    0  502  0.24347083177E+02 -0.53439958438E+02  0.17110563375E+03  0.18095087708E+03  0.41800000000E+01 0.  1.
        -11    1    1    2    0    0  0.18402201307E+02 -0.10068763722E+02  0.80561218507E+02  0.83247408027E+02  0.00000000000E+00 0. -1.
         11    1    1    2    0    0 -0.10347987091E+03  0.68860466415E+02  0.13285886269E+03  0.18193769514E+03  0.00000000000E+00 0.  1.
</event>
<event>
 7    1  0.2878477E-009  0.8586960E+02  0.7561462E-02  0.1313174E+00
          1   -1    0    0  501    0  0.00000000000E+00  0.00000000000E+00  0.24481794298E+03  0.24481794298E+03  0.00000000000E+00 0. -1.
         -1   -1    0    0    0  501 -0.00000000000E+00 -0.00000000000E+00 -0.66446914671E+02  0.66446914671E+02  0.00000000000E+00 0.  1.
         25    2    1    2    0    0 -0.20308157882E+02 -0.69529018864E+00  0.18027151734E+03  0.22035820889E+03  0.12508803123E+03 0.  0.
          5    1    3    3  502    0  0.19208921060E+02  0.36289632169E+02  0.15514222354E+03  0.16053816362E+03  0.41800000000E+01 0.  1.
         -5    1    3    3    0  502 -0.39517078942E+02 -0.36984922358E+02  0.25129293793E+02  0.59820045273E+02  0.41800000000E+01 0.  1.
        -11    1    1    2    0    0  0.16943368157E+02  0.36488334210E+02 -0.25748933841E+02  0.47764880947E+02  0.00000000000E+00 0.  1.
         11    1    1    2    0    0  0.33647897251E+01 -0.35793044021E+02  0.23848444813E+02  0.43141767815E+02  0.00000000000E+00 0. -1.
</event>
<event>
 7    1  0.2878477E-009  0.1218521E+03  0.7561462E-02  0.1240073E+00
         -2   -1    0    0    0  501 -0.00000000000E+00  0.00000000000E+00  0.21394759313E+02  0.21394759313E+02  0.00000000000E+00 0.  1.
          2   -1    0    0  501    0  0.00000000000E+00 -0.00000000000E+00 -0.98357801919E+03  0.98357801919E+03  0.00000000000E+00 0. -1.
         25    2    1    2    0    0 -0.91309898965E+02  0.11473897440E+01 -0.48874915584E+03  0.51270992288E+03  0.12512758904E+03 0.  0.
          5    1    3    3  502    0 -0.26631638966E+02  0.27918256679E+02 -0.38813063450E+03  0.39006606503E+03  0.41800000000E+01 0. -1.
         -5    1    3    3    0  502 -0.64678259999E+02 -0.26770866935E+02 -0.10061852134E+03  0.12264385785E+03  0.41800000000E+01 0. -1.
        -11    1    1    2    0    0  0.51120781747E+02 -0.50002570964E+02 -0.25928076062E+03  0.26896115752E+03  0.00000000000E+00 0.  1.
         11    1    1    2    0    0  0.40189117217E+02  0.48855181220E+02 -0.21415334342E+03  0.22330169810E+03  0.00000000000E+00 0. -1.
</event>
<event>
 7    1  0.2878477E-009  0.1226622E+03  0.7561462E-02  0.1238769E+00
         -1   -1    0    0    0  501 -0.00000000000E+00  0.00000000000E+00  0.26103204864E+02  0.26103204864E+02  0.00000000000E+00 0.  1.
          1   -1    0    0  501    0  0.00000000000E+00 -0.00000000000E+00 -0.63755708442E+03  0.63755708442E+03  0.00000000000E+00 0. -1.
         25    2    1    2    0    0 -0.12401476097E+02  0.67741837177E+02 -0.36610536135E+03  0.39297433038E+03  0.12511169254E+03 0.  0.
          5    1    3    3  502    0 -0.58324910329E+02  0.66328499427E+02 -0.17124161848E+03  0.19272371234E+03  0.41800000000E+01 0.  1.
         -5    1    3    3    0  502  0.45923434232E+02  0.14133377500E+01 -0.19486374287E+03  0.20025061803E+03  0.41800000000E+01 0.  1.
        -11    1    1    2    0    0  0.13825250766E+02  0.19284291350E+02 -0.84861356163E+02  0.88116236990E+02  0.00000000000E+00 0.  1.
         11    1    1    2    0    0 -0.14237746695E+01 -0.87026128527E+02 -0.16048716204E+03  0.18256972192E+03  0.00000000000E+00 0. -1.
</event>
<event>
 7    1  0.2878477E-009  0.1335084E+03  0.7561462E-02  0.1222341E+00
          1   -1    0    0  501    0  0.00000000000E+00  0.00000000000E+00  0.84681990200E+02  0.84681990200E+02  0.00000000000E+00 0. -1.
         -1   -1    0    0    0  501 -0.00000000000E+00 -0.00000000000E+00 -0.35104775370E+03  0.35104775370E+03  0.00000000000E+00 0.  1.
         25    2    1    2    0    0 -0.61395539106E+02 -0.95333824333E+02 -0.52087136321E+02  0.17668428197E+03  0.12508523270E+03 0.  0.
          5    1    3    3  502    0  0.15066294779E+02 -0.21111462812E+02  0.31622172538E+02  0.41111084836E+02  0.41800000000E+01 0.  1.
         -5    1    3    3    0  502 -0.76461833884E+02 -0.74222361521E+02 -0.83709308859E+02  0.13557319713E+03  0.41800000000E+01 0.  1.
        -11    1    1    2    0    0 -0.88296869230E+01  0.49413198829E+02 -0.35271252749E+02  0.61348910831E+02  0.00000000000E+00 0. -1.
         11    1    1    2    0    0  0.70225226029E+02  0.45920625504E+02 -0.17900737443E+03  0.19769655110E+03  0.00000000000E+00 0.  1.
</event>
<event>
 7    1  0.2878477E-009  0.1108572E+03  0.7561462E-02  0.1258991E+00
          2   -1    0    0  501    0  0.00000000000E+00  0.00000000000E+00  0.47402292494E+03  0.47402292494E+03  0.00000000000E+00 0. -1.
         -2   -1    0    0    0  501 -0.00000000000E+00 -0.00000000000E+00 -0.39398954753E+02  0.39398954753E+02  0.00000000000E+00 0.  1.
         25    2    1    2    0    0  0.44963405076E+02  0.57521441384E+02  0.31695120520E+03  0.34847618192E+03  0.12508860409E+03 0.  0.
          5    1    3    3  502    0  0.38715298886E+02  0.95891717023E+02  0.20050538053E+03  0.22564125461E+03  0.41800000000E+01 0.  1.
         -5    1    3    3    0  502  0.62481061902E+01 -0.38370275639E+02  0.11644582467E+03  0.12283492731E+03  0.41800000000E+01 0.  1.
        -11    1    1    2    0    0 -0.36670401891E+02 -0.22267656957E+02  0.12118960969E+03  0.12855927978E+03  0.00000000000E+00 0. -1.
         11    1    1    2    0    0 -0.82930031849E+01 -0.35253784427E+02 -0.35168446951E+01  0.36386418000E+02  0.00000000000E+00 0.  1.
</event>
<event>
 7    1  0.2878477E-009  0.1328183E+03  0.7561462E-02  0.1223333E+00
         -1   -1    0    0    0  501 -0.00000000000E+00  0.00000000000E+00  0.45997731056E+02  0.45997731056E+02  0.00000000000E+00 0.  1.
          1   -1    0    0  501    0  0.00000000000E+00 -0.00000000000E+00 -0.50339145272E+03  0.50339145272E+03  0.00000000000E+00 0. -1.
         25    2    1    2    0    0  0.84661287740E+02 -0.20261469616E+02 -0.35556015065E+03  0.38684643849E+03  0.12509630469E+03 0.  0.
          5    1    3    3  502    0  0.71850298465E+02  0.37416458832E+02 -0.27590875095E+03  0.28758575770E+03  0.41800000000E+01 0.  1.
         -5    1    3    3    0  502  0.12810989275E+02 -0.57677928448E+02 -0.79651399693E+02  0.99260680782E+02  0.41800000000E+01 0.  1.
        -11    1    1    2    0    0 -0.98371689257E+02  0.35692407306E+02 -0.75285706380E+02  0.12891421478E+03  0.00000000000E+00 0.  1.
         11    1    1    2    0    0  0.13710401517E+02 -0.15430937689E+02 -0.26547864641E+02  0.33628530517E+02  0.00000000000E+00 0. -1.
</event>
<event>
 7    1  0.2878477E-009  0.6761163E+02  0.7561462E-02  0.1368408E+00
          2   -1    0    0  501    0  0.00000000000E+00  0.00000000000E+00  0.33796318965E+03  0.33796318965E+03  0.00000000000E+00 0. -1.
         -2   -1    0    0    0  501 -0.00000000000E+00 -0.00000000000E+00 -0.44161362723E+02  0.44161362723E+02  0.00000000000E+00 0.  1.
         25    2    1    2    0    0  0.18605888652E+02 -0.43499182384E+02  0.21229970869E+03  0.25090787802E+03  0.12508092973E+03 0.  0.
          5    1    3    3  502    0 -0.16997758869E+02 -0.16885838216E+02 -0.84048825872E+01  0.25732659989E+02  0.41800000000E+01 0. -1.
         -5    1    3    3    0  502  0.35603647521E+02 -0.26613344168E+02  0.22070459128E+03  0.22517521803E+03  0.41800000000E+01 0. -1.
        -11    1    1    2    0    0 -0.33787872289E+02  0.23547976107E+02 -0.46920012014E+01  0.41450480912E+02  0.00000000000E+00 0.  1.
         11    1    1    2    0    0  0.15181983637E+02  0.19951206277E+02  0.86194119433E+02  0.89766193436E+02  0.00000000000E+00 0. -1.
</event>
<event>
 7    1  0.2878477E-009  0.1261573E+03  0.7561462E-02  0.1233272E+00
          1   -1    0    0  501    0  0.00000000000E+00  0.00000000000E+00  0.22742739546E+02  0.22742739546E+02  0.00000000000E+00 0. -1.
         -1   -1    0    0    0  501 -0.00000000000E+00 -0.00000000000E+00 -0.82351598632E+03  0.82351598632E+03  0.00000000000E+00 0.  1.
         25    2    1    2    0    0 -0.82038754866E+02  0.13803046189E+02 -0.46057746536E+03  0.48445856740E+03  0.12509044945E+03 0.  0.
          5    1    3    3  502    0 -0.79923684864E+02 -0.30193435660E+02 -0.40227189047E+03  0.41126583279E+03  0.41800000000E+01 0.  1.
         -5    1    3    3    0  502 -0.21150700020E+01  0.43996481849E+02 -0.58305574897E+02  0.73192734614E+02  0.41800000000E+01 0.  1.
        -11    1    1    2    0    0  0.96200372001E+02 -0.30233380711E+02 -0.26497181159E+03  0.28351125166E+03  0.00000000000E+00 0. -1.
         11    1    1    2    0    0 -0.14161617135E+02  0.16430334522E+02 -0.75223969829E+02  0.78288906808E+02  0.00000000000E+00 0.  1.
</event>
<event>
 7    1  0.2878477E-009  0.1741578E+03  0.7561462E-02  0.1173580E+00
          1   -1    0    0  501    0  0.00000000000E+00  0.00000000000E+00  0.62376601530E+03  0.62376601530E+03  0.00000000000E+00 0. -1.
         -1   -1    0    0    0  501 -0.00000000000E+00 -0.00000000000E+00 -0.63492225763E+02  0.63492225763E+02  0.00000000000E+00 0.  1.
         25    2    1    2    0    0 -0.13056636937E+03  0.79188587586E+02  0.41001786851E+03  0.45506156849E+03  0.12509184391E+03 0.  0.
          5    1    3    3  502    0 -0.15218944790E+03  0.74508333065E+02  0.31827316161E+03  0.36059450571E+03  0.41800000000E+01 0.  1.
         -5    1    3    3    0  502  0.21623078528E+02  0.46802545215E+01  0.91744706900E+02  0.94467062787E+02  0.41800000000E+01 0.  1.
        -11    1    1    2    0    0  0.98460334288E+02 -0.41659931299E+02  0.45127566445E+02  0.11604518326E+03  0.00000000000E+00 0.  1.
         11    1    1    2    0    0  0.32106035081E+02 -0.37528656287E+02  0.10512835459E+03  0.11615148931E+03  0.00000000000E+00 0. -1.
</event>
<event>
 7    1  0.2878477E-009  0.5345605E+02  0.7561462E-02  0.1427545E+00
          1   -1    0    0  501    0  0.00000000000E+00  0.00000000000E+00  0.36401741581E+03  0.36401741581E+03  0.00000000000E+00 0. -1.
         -1   -1    0    0    0  501 -0.00000000000E+00 -0.00000000000E+00 -0.39686583209E+02  0.39686583209E+02  0.00000000000E+00 0.  1.
         25    2    1    2    0    0  0.34818730329E+02 -0.31322321065E+01  0.24642971493E+03  0.27856267947E+03  0.12508959643E+03 0.  0.
          5    1    3    3  502    0  0.32069495060E+02 -0.10010330972E+02  0.19241202340E+01  0.33909200496E+02  0.41800000000E+01 0.  1.
         -5    1    3    3    0  502  0.27492352688E+01  0.68780988659E+01  0.24450559470E+03  0.24465347898E+03  0.41800000000E+01 0.  1.
        -11    1    1    2    0    0  0.12811731474E+02 -0.86846916153E+01 -0.14056671728E+02  0.20908236461E+02  0.00000000000E+00 0.  1.
         11    1    1    2    0    0 -0.47630461803E+02  0.11816923722E+02  0.91957789399E+02  0.10423308308E+03  0.00000000000E+00 0. -1.
</event>
<event>
 7    1  0.3905481E-009  0.6309773E+02  0.7561462E-02  0.1385273E+00
         -2   -1    0    0    0  501 -0.00000000000E+00  0.00000000000E+00  0.11915725846E+03  0.11915725846E+03  0.00000000000E+00 0. -1.
          2   -1    0    0  501    0  0.00000000000E+00 -0.00000000000E+00 -0.15191703064E+03  0.15191703064E+03  0.00000000000E+00 0.  1.
         25    2    1    2    0    0 -0.75252918923E+01  0.24675008839E+02  0.57024108448E+02  0.13987446599E+03  0.12509049209E+03 0.  0.
          5    1    3    3  502    0 -0.10424091463E+02  0.13184075453E+00  0.94293820910E+02  0.94960392409E+02  0.41800000000E+01 0. -1.
         -5    1    3    3    0  502  0.28987995705E+01  0.24543168085E+02 -0.37269712461E+02  0.44914073580E+02  0.41800000000E+01 0. -1.
        -11    1    1    2    0    0 -0.67945255855E+01  0.31347443233E+02 -0.11931382754E+02  0.34222590048E+02  0.00000000000E+00 0. -1.
         11    1    1    2    0    0  0.14319817478E+02 -0.56022452072E+02 -0.77852497866E+02  0.96977233064E+02  0.00000000000E+00 0.  1.
</event>
<event>
 7    1  0.2878477E-009  0.1186808E+03  0.7561462E-02  0.1245289E+00
         -1   -1    0    0    0  501 -0.00000000000E+00  0.00000000000E+00  0.14940780239E+03  0.14940780239E+03  0.00000000000E+00 0.  1.
          1   -1    0    0  501    0  0.00000000000E+00 -0.00000000000E+00 -0.12411280741E+03  0.12411280741E+03  0.00000000000E+00 0. -1.
         25    2    1    2    0    0 -0.68712783886E+02  0.44578288273E+02  0.72863141139E+01  0.14969331164E+03  0.12508527779E+03 0.  0.
          5    1    3    3  502    0  0.22313000230E+02  0.25912981295E+02 -0.33570292743E+02  0.48101866218E+02  0.41800000000E+01 0.  1.
         -5    1    3    3    0  502 -0.91025784116E+02  0.18665306979E+02  0.40856606857E+02  0.10159144542E+03  0.41800000000E+01 0.  1.
        -11    1    1    2    0    0  0.36108477357E+02  0.17236267960E+02 -0.19501488472E+02  0.44510887689E+02  0.00000000000E+00 0.  1.
         11    1    1    2    0    0  0.32604306529E+02 -0.61814556234E+02  0.37510169331E+02  0.79316410470E+02  0.00000000000E+00 0. -1.
</event>
<event>
 7    1  0.2878477E-009  0.3091828E+03  0.7561462E-02  0.1080738E+00
         -2   -1    0    0    0  501 -0.00000000000E+00  0.00000000000E+00  0.12464540956E+03  0.12464540956E+03  0.00000000000E+00 0. -1.
          2   -1    0    0  501    0  0.00000000000E+00 -0.00000000000E+00 -0.77618432695E+03  0.77618432695E+03  0.00000000000E+00 0.  1.
         25    2    1    2    0    0  0.24887370224E+03 -0.15107563456E+03 -0.35104957801E+03  0.47291127850E+03  0.12508918455E+03 0.  0.
          5    1    3    3  502    0  0.89597920641E+01  0.18357204721E+02 -0.11051705609E+02  0.23598250695E+02  0.41800000000E+01 0.  1.
         -5    1    3    3    0  502  0.23991391017E+03 -0.16943283928E+03 -0.33999787240E+03  0.44931302781E+03  0.41800000000E+01 0.  1.
        -11    1    1    2    0    0 -0.22340767877E+03  0.96125218580E+02 -0.22697357040E+03  0.33266807818E+03  0.00000000000E+00 0.  1.
         11    1    1    2    0    0 -0.25466023469E+02  0.54950415980E+02 -0.73515768982E+02  0.95250379825E+02  0.00000000000E+00 0. -1.
</event>
<event>
 7    1  0.2878477E-009  0.1014277E+03  0.7561462E-02  0.1277322E+00
          2   -1    0    0  501    0  0.00000000000E+00  0.00000000000E+00  0.13121029801E+03  0.13121029801E+03  0.00000000000E+00 0.  1.
         -2   -1    0    0    0  501 -0.00000000000E+00 -0.00000000000E+00 -0.97360301130E+02  0.97360301130E+02  0.00000000000E+00 0. -1.
         25    2    1    2    0    0  0.22398365623E+02 -0.30344413670E+01 -0.92731854421E-01  0.12708769906E+03  0.12506150501E+03 0.  0.
          5    1    3    3  502    0  0.59604106375E+02  0.26504364339E+02  0.28691383733E+02  0.71384863426E+02  0.41800000000E+01 0. -1.
         -5    1    3    3    0  502 -0.37205740753E+02 -0.29538805706E+02 -0.28784115588E+02  0.55702835634E+02  0.41800000000E+01 0. -1.
        -11    1    1    2    0    0 -0.59989983333E+01  0.44660125677E+02 -0.43073869964E+00  0.45063292626E+02  0.00000000000E+00 0. -1.
         11    1    1    2    0    0 -0.16399367289E+02 -0.41625684310E+02  0.34373467431E+02  0.56419607452E+02  0.00000000000E+00 0.  1.
</event>
<event>
 7    1  0.2878477E-009  0.1138558E+03  0.7561462E-02  0.1253592E+00
         -1   -1    0    0    0  501 -0.00000000000E+00  0.00000000000E+00  0.49890108172E+02  0.49890108172E+02  0.00000000000E+00 0.  1.
          1   -1    0    0  501    0  0.00000000000E+00 -0.00000000000E+00 -0.38440031871E+03  0.38440031871E+03  0.00000000000E+00 0. -1.
         25    2    1    2    0    0 -0.13432514043E+02  0.76209943870E+02 -0.24600359047E+03  0.28662568491E+03  0.12509248077E+03 0.  0.
          5    1    3    3  502    0 -0.37960585004E+02  0.10320954027E+03 -0.19248861244E+03  0.22172630321E+03  0.41800000000E+01 0. -1.
         -5    1    3    3    0  502  0.24528070961E+02 -0.26999596400E+02 -0.53514978027E+02  0.64899381693E+02  0.41800000000E+01 0. -1.
        -11    1    1    2    0    0  0.16351346178E+02 -0.26414637413E+02  0.13686933531E+02  0.33947485047E+02  0.00000000000E+00 0.  1.
         11    1    1    2    0    0 -0.29188321348E+01 -0.49795306456E+02 -0.10219355360E+03  0.11371725693E+03  0.00000000000E+00 0. -1.
</event>
<event>
 7    1  0.2878477E-009  0.1415874E+03  0.7561462E-02  0.1211209E+00
         -2   -1    0    0    0  501 -0.00000000000E+00  0.00000000000E+00  0.94246460082E+02  0.94246460082E+02  0.00000000000E+00 0. -1.
          2   -1    0    0  501    0  0.00000000000E+00 -0.00000000000E+00 -0.40637817695E+03  0.40637817695E+03  0.00000000000E+00 0.  1.
         25    2    1    2    0    0 -0.18474507763E+02 -0.11775927603E+03 -0.19892970458E+02  0.17393285843E+03  0.12509338288E+03 0.  0.
          5    1    3    3  502    0  0.45746924052E+02 -0.34535246163E+02 -0.35537312538E+02  0.67570979497E+02  0.41800000000E+01 0.  1.
         -5    1    3    3    0  502 -0.64221431815E+02 -0.83224029862E+02  0.15644342080E+02  0.10636187893E+03  0.41800000000E+01 0.  1.
        -11    1    1    2    0    0  0.55924350974E+00  0.60490226108E+02 -0.54252268848E+02  0.81256931292E+02  0.00000000000E+00 0. -1.
         11    1    1    2    0    0  0.17915264254E+02  0.57269049917E+02 -0.23798647756E+03  0.24543484731E+03  0.00000000000E+00 0.  1.
</event>
<event>
 7    1  0.2878477E-009  0.8323749E+02  0.7561462E-02  0.1320107E+00
          1   -1    0    0  501    0  0.00000000000E+00  0.00000000000E+00  0.71192029038E+03  0.71192029038E+03  0.00000000000E+00 0. -1.
         -1   -1    0    0    0  501 -0.00000000000E+00 -0.00000000000E+00 -0.22126753996E+02  0.22126753996E+02  0.00000000000E+00 0.  1.
         25    2    1    2    0    0 -0.56292851937E+02  0.21747794582E+02  0.41896631709E+03  0.44139521900E+03  0.12512039304E+03 0.  0.
          5    1    3    3  502    0 -0.92943707669E+01  0.25283584668E+02  0.90000241263E+01  0.28707452271E+02  0.41800000000E+01 0. -1.
         -5    1    3    3    0  502 -0.46998481170E+02 -0.35357900859E+01  0.40996629296E+03  0.41268776673E+03  0.41800000000E+01 0. -1.
        -11    1    1    2    0    0 -0.16360037006E+02 -0.68375798763E+01  0.78057976893E+01  0.19373533156E+02  0.00000000000E+00 0.  1.
         11    1    1    2    0    0  0.72652888942E+02 -0.14910214706E+02  0.26302142161E+03  0.27327829222E+03  0.00000000000E+00 0. -1.
</event>
<event>
 7    1  0.2878477E-009  0.1188350E+03  0.7561462E-02  0.1245031E+00
         -4   -1    0    0    0  501 -0.00000000000E+00  0.00000000000E+00  0.61100180977E+02  0.61100180977E+02  0.00000000000E+00 0. -1.
          4   -1    0    0  501    0  0.00000000000E+00 -0.00000000000E+00 -0.29651084690E+03  0.29651084690E+03  0.00000000000E+00 0.  1.
         25    2    1    2    0    0 -0.75268724475E+02 -0.33883654820E+02 -0.11493193717E+03  0.18886593296E+03  0.12508999762E+03 0.  0.
          5    1    3    3  502    0  0.25419533157E+02 -0.38746730124E+02 -0.21118337195E+02  0.51097145979E+02  0.41800000000E+01 0.  1.
         -5    1    3    3    0  502 -0.10068825763E+03  0.48630753039E+01 -0.93813599977E+02  0.13776878698E+03  0.41800000000E+01 0.  1.
        -11    1    1    2    0    0  0.38856996525E+02  0.37063052827E+02 -0.12079557779E+03  0.13219344793E+03  0.00000000000E+00 0.  1.
         11    1    1    2    0    0  0.36411727950E+02 -0.31793980064E+01  0.31684903120E+00  0.36551646985E+02  0.00000000000E+00 0. -1.
</event>
<event>
 7    1  0.2878477E-009  0.1416372E+03  0.7561462E-02  0.1211143E+00
          2   -1    0    0  501    0  0.00000000000E+00  0.00000000000E+00  0.95210634125E+03  0.95210634125E+03  0.00000000000E+00 0. -1.
         -2   -1    0    0    0  501 -0.00000000000E+00 -0.00000000000E+00 -0.30317314167E+02  0.30317314167E+02  0.00000000000E+00 0.  1.
         25    2    1    2    0    0  0.74145413076E+02  0.99938102972E+02  0.38715993483E+03  0.42547076037E+03  0.12508951230E+03 0.  0.
          5    1    3    3  502    0 -0.16104662298E+02  0.31323174741E+02  0.22372916025E+03  0.22652309148E+03  0.41800000000E+01 0.  1.
         -5    1    3    3    0  502  0.90250075374E+02  0.68614928231E+02  0.16343077458E+03  0.19894766890E+03  0.41800000000E+01 0.  1.
        -11    1    1    2    0    0 -0.13814224266E+02  0.38218487207E+01  0.72010371217E+01  0.16040394488E+02  0.00000000000E+00 0.  1.
         11    1    1    2    0    0 -0.60331188811E+02 -0.10375995169E+03  0.52742805513E+03  0.54091250056E+03  0.00000000000E+00 0. -1.
</event>
<event>
 7    1  0.2878477E-009  0.2395343E+03  0.7561462E-02  0.1120103E+00
         -1   -1    0    0    0  501 -0.00000000000E+00  0.00000000000E+00  0.22156757749E+03  0.22156757749E+03  0.00000000000E+00 0.  1.
          1   -1    0    0  501    0  0.00000000000E+00 -0.00000000000E+00 -0.35361715719E+03  0.35361715719E+03  0.00000000000E+00 0. -1.
         25    2    1    2    0    0 -0.21101746717E+03 -0.54510912749E+02  0.74356840235E+02  0.26206171902E+03  0.12509034264E+03 0.  0.
          5    1    3    3  502    0 -0.37489710143E+02 -0.63898582861E+02  0.33234844886E+01  0.74276680105E+02  0.41800000000E+01 0. -1.
         -5    1    3    3    0  502 -0.17352775703E+03  0.93876701124E+01  0.71033355747E+02  0.18778503891E+03  0.41800000000E+01 0. -1.
        -11    1    1    2    0    0  0.65036893506E+02  0.54811721781E+02 -0.47811606431E+02  0.97570856669E+02  0.00000000000E+00 0.  1.
         11    1    1    2    0    0  0.14598057367E+03 -0.30080903214E+00 -0.15859481351E+03  0.21555215899E+03  0.00000000000E+00 0. -1.
</event>
<event>
 7    1  0.2878477E-009  0.8300326E+02  0.7561462E-02  0.1320738E+00
          1   -1    0    0  501    0  0.00000000000E+00  0.00000000000E+00  0.71532931379E+02  0.71532931379E+02  0.00000000000E+00 0. -1.
         -1   -1    0    0    0  501 -0.00000000000E+00 -0.00000000000E+00 -0.29595432523E+03  0.29595432523E+03  0.00000000000E+00 0.  1.
         25    2    1    2    0    0 -0.55351263687E+02 -0.18978124434E+02 -0.24552706748E+02  0.14026305123E+03  0.12508779530E+03 0.  0.
          5    1    3    3  502    0 -0.13451643383E+02 -0.41415509237E+01  0.50689288314E+02  0.52772867115E+02  0.41800000000E+01 0. -1.
         -5    1    3    3    0  502 -0.41899620304E+02 -0.14836573510E+02 -0.75241995062E+02  0.87490184113E+02  0.41800000000E+01 0. -1.
        -11    1    1    2    0    0  0.39318183840E+02  0.54792457127E+02 -0.10800736055E+03  0.12733311773E+03  0.00000000000E+00 0. -1.
         11    1    1    2    0    0  0.16033079847E+02 -0.35814332694E+02 -0.91861326556E+02  0.99891087652E+02  0.00000000000E+00 0.  1.
</event>
<event>
 7    1  0.2878477E-009  0.1237186E+03  0.7561462E-02  0.1237086E+00
          2   -1    0    0  501    0  0.00000000000E+00  0.00000000000E+00  0.10077544589E+04  0.10077544589E+04  0.00000000000E+00 0.  1.
         -2   -1    0    0    0  501 -0.00000000000E+00 -0.00000000000E+00 -0.23050452951E+02  0.23050452951E+02  0.00000000000E+00 0. -1.
         25    2    1    2    0    0 -0.51648427411E+02  0.88693728366E+02  0.43639203161E+03  0.46542403535E+03  0.12508952763E+03 0.  0.
          5    1    3    3  502    0 -0.53846760710E+02  0.89871826153E+02  0.44409885920E+03  0.45630876380E+03  0.41800000000E+01 0. -1.
         -5    1    3    3    0  502  0.21983332991E+01 -0.11780977867E+01 -0.77068275989E+01  0.91152715444E+01  0.41800000000E+01 0. -1.
        -11    1    1    2    0    0  0.62819021684E+02 -0.10234035288E+03  0.46860514856E+03  0.48374638249E+03  0.00000000000E+00 0. -1.
         11    1    1    2    0    0 -0.11170594273E+02  0.13646624511E+02  0.79706825765E+02  0.81634493999E+02  0.00000000000E+00 0.  1.
</event>
<event>
 7    1  0.2878477E-009  0.1074174E+03  0.7561462E-02  0.1265429E+00
         -2   -1    0    0    0  501 -0.00000000000E+00  0.00000000000E+00  0.13735756323E+02  0.13735756323E+02  0.00000000000E+00 0.  1.
          2   -1    0    0  501    0  0.00000000000E+00 -0.00000000000E+00 -0.88338632597E+03  0.88338632597E+03  0.00000000000E+00 0. -1.
         25    2    1    2    0    0 -0.20670647315E+02  0.20055042205E+02 -0.57488624698E+03  0.58904238013E+03  0.12508896134E+03 0.  0.
          5    1    3    3  502    0 -0.42747680536E+02 -0.41668253365E+02 -0.21316633621E+03  0.22140679037E+03  0.41800000000E+01 0. -1.
         -5    1    3    3    0  502  0.22077033221E+02  0.61723295570E+02 -0.36171991076E+03  0.36763558976E+03  0.41800000000E+01 0. -1.
        -11    1    1    2    0    0  0.17838311404E+01 -0.52088999063E+02 -0.18402201203E+03  0.19126041616E+03  0.00000000000E+00 0.  1.
         11    1    1    2    0    0  0.18886816175E+02  0.32033956858E+02 -0.11074231064E+03  0.11681928600E+03  0.00000000000E+00 0. -1.
</event>
<event>
 7    1  0.2878477E-009  0.9534845E+02  0.7561462E-02  0.1290393E+00
         -1   -1    0    0    0  501 -0.00000000000E+00  0.00000000000E+00  0.37841088515E+02  0.37841088515E+02  0.00000000000E+00 0.  1.
          1   -1    0    0  501    0  0.00000000000E+00 -0.00000000000E+00 -0.41130664500E+03  0.41130664500E+03  0.00000000000E+00 0. -1.
         25    2    1    2    0    0 -0.43780564576E+02  0.18391740896E+02 -0.26986659978E+03  0.30121502090E+03  0.12509002027E+03 0.  0.
          5    1    3    3  502    0 -0.51811273951E+02  0.46447488787E+02 -0.68603687916E+02  0.97804476987E+02  0.41800000000E+01 0. -1.
         -5    1    3    3    0  502  0.80307093753E+01 -0.28055747891E+02 -0.20126291186E+03  0.20341054391E+03  0.41800000000E+01 0. -1.
        -11    1    1    2    0    0  0.42283754554E+02 -0.46793081877E+02 -0.31644088194E+02  0.70561014224E+02  0.00000000000E+00 0.  1.
         11    1    1    2    0    0  0.14968100220E+01  0.28401340980E+02 -0.71954868517E+02  0.77371698398E+02  0.00000000000E+00 0. -1.
</event>
<event>
 7    1  0.2878477E-009  0.8992205E+02  0.7561462E-02  0.1303041E+00
          2   -1    0    0  501    0  0.00000000000E+00  0.00000000000E+00  0.44696075505E+03  0.44696075505E+03  0.00000000000E+00 0. -1.
         -2   -1    0    0    0  501 -0.00000000000E+00 -0.00000000000E+00 -0.47790639176E+02  0.47790639176E+02  0.00000000000E+00 0.  1.
         25    2    1    2    0    0  0.75667541594E+01 -0.59294727237E+02  0.35039341670E+03  0.37682336791E+03  0.12508870329E+03 0.  0.
          5    1    3    3  502    0  0.54846235148E+02 -0.41734853243E+02  0.28962392427E+03  0.29774048665E+03  0.41800000000E+01 0. -1.
         -5    1    3    3    0  502 -0.47279480988E+02 -0.17559873995E+02  0.60769492433E+02  0.79082881256E+02  0.41800000000E+01 0. -1.
        -11    1    1    2    0    0  0.13474513438E+01  0.10675395947E+02 -0.26086479392E+02  0.28218506531E+02  0.00000000000E+00 0.  1.
         11    1    1    2    0    0 -0.89142055032E+01  0.48619331290E+02  0.74863178563E+02  0.89709519781E+02  0.00000000000E+00 0. -1.
</event>
<event>
 7    1  0.2878477E-009  0.7387275E+02  0.7561462E-02  0.1347398E+00
         -2   -1    0    0    0  501 -0.00000000000E+00  0.00000000000E+00  0.79904897430E+02  0.79904897430E+02  0.00000000000E+00 0.  1.
          2   -1    0    0  501    0  0.00000000000E+00 -0.00000000000E+00 -0.19976152035E+03  0.19976152035E+03  0.00000000000E+00 0. -1.
         25    2    1    2    0    0 -0.53652909469E+02 -0.77182325601E+01 -0.99699078248E+02  0.16889645066E+03  0.12509156260E+03 0.  0.
          5    1    3    3  502    0 -0.27790134479E+02 -0.17667730109E+02  0.24702235063E+02  0.41377688175E+02  0.41800000000E+01 0.  1.
         -5    1    3    3    0  502 -0.25862774990E+02  0.99494975494E+01 -0.12440131331E+03  0.12751876248E+03  0.41800000000E+01 0.  1.
        -11    1    1    2    0    0 -0.15562391833E+02  0.75815920791E+01  0.23311921549E+02  0.29036429951E+02  0.00000000000E+00 0.  1.
         11    1    1    2    0    0  0.69215301302E+02  0.13664048101E+00 -0.43469466220E+02  0.81733537170E+02  0.00000000000E+00 0. -1.
</event>
<event>
 7    1  0.2878477E-009  0.1488273E+03  0.7561462E-02  0.1201921E+00
         -1   -1    0    0    0  501 -0.00000000000E+00  0.00000000000E+00  0.22084648485E+02  0.22084648485E+02  0.00000000000E+00 0.  1.
          1   -1    0    0  501    0  0.00000000000E+00 -0.00000000000E+00 -0.12908908843E+04  0.12908908843E+04  0.00000000000E+00 0. -1.
         25    2    1    2    0    0 -0.11872958798E+03  0.23134033772E+02 -0.84794055934E+03  0.86561263725E+03  0.12510054760E+03 0.  0.
          5    1    3    3  502    0  0.12770154470E+02  0.57378330433E+01 -0.34955833670E+03  0.34986354873E+03  0.41800000000E+01 0.  1.
         -5    1    3    3    0  502 -0.13149974245E+03  0.17396200729E+02 -0.49838222264E+03  0.51574908852E+03  0.41800000000E+01 0.  1.
        -11    1    1    2    0    0  0.63555974736E+01 -0.36606291099E+02 -0.13159646578E+03  0.13674079118E+03  0.00000000000E+00 0.  1.
         11    1    1    2    0    0  0.11237399051E+03  0.13472257326E+02 -0.28926921074E+03  0.31062210440E+03  0.00000000000E+00 0. -1.
</event>
<event>
 7    1  0.2878477E-009  0.1449086E+03  0.7561462E-02  0.1206873E+00
          1   -1    0    0  501    0  0.00000000000E+00  0.00000000000E+00  0.26740484522E+03  0.26740484522E+03  0.00000000000E+00 0. -1.
         -1   -1    0    0    0  501 -0.00000000000E+00 -0.00000000000E+00 -0.17890756818E+03  0.17890756818E+03  0.00000000000E+00 0.  1.
         25    2    1    2    0    0 -0.90006861238E+02 -0.75533134693E+02  0.19923584616E+03  0.26296192657E+03  0.12509021914E+03 0.  0.
          5    1    3    3  502    0  0.28964104447E+02 -0.34634448855E+02  0.60959385776E+02  0.75973571116E+02  0.41800000000E+01 0. -1.
         -5    1    3    3    0  502 -0.11897096568E+03 -0.40898685838E+02  0.13827646039E+03  0.18698835546E+03  0.41800000000E+01 0. -1.
        -11    1    1    2    0    0  0.19237020644E+02  0.81825315443E+01  0.13811813551E+02  0.25055597764E+02  0.00000000000E+00 0. -1.
         11    1    1    2    0    0  0.70769840594E+02  0.67350603149E+02 -0.12455038267E+03  0.15829488907E+03  0.00000000000E+00 0.  1.
</event>
<event>
 7    1  0.2878477E-009  0.1244307E+03  0.7561462E-02  0.1235962E+00
          2   -1    0    0  501    0  0.00000000000E+00  0.00000000000E+00  0.18837122239E+03  0.18837122239E+03  0.00000000000E+00 0. -1.
         -2   -1    0    0    0  501 -0.00000000000E+00 -0.00000000000E+00 -0.18078408945E+03  0.18078408945E+03  0.00000000000E+00 0.  1.
         25    2    1    2    0    0 -0.94784174669E+02  0.65556751748E+02 -0.90289632622E+02  0.19256723195E+03  0.12509273998E+03 0.  0.
          5    1    3    3  502    0 -0.38385910864E+02  0.55288606815E+02 -0.11232207996E+03  0.13101156530E+03  0.41800000000E+01 0.  1.
         -5    1    3    3    0  502 -0.56398263805E+02  0.10268144933E+02  0.22032447339E+02  0.61555666647E+02  0.41800000000E+01 0.  1.
        -11    1    1    2    0    0  0.50985329701E+02 -0.79830069702E+01  0.90098043956E+02  0.10383106361E+03  0.00000000000E+00 0.  1.
         11    1    1    2    0    0  0.43798844969E+02 -0.57573744778E+02  0.77787216092E+01  0.72757016281E+02  0.00000000000E+00 0. -1.
</event>
<event>
 7    1  0.2878477E-009  0.1030365E+03  0.7561462E-02  0.1274037E+00
         -2   -1    0    0    0  501 -0.00000000000E+00  0.00000000000E+00  0.30135081832E+03  0.30135081832E+03  0.00000000000E+00 0.  1.
          2   -1    0    0  501    0  0.00000000000E+00 -0.00000000000E+00 -0.10590105327E+03  0.10590105327E+03  0.00000000000E+00 0. -1.
         25    2    1    2    0    0  0.16159180591E+02  0.16739093105E+02 -0.55894306163E+02  0.13897620905E+03  0.12509555094E+03 0.  0.
          5    1    3    3  502    0  0.62244011859E+02 -0.21290086156E+02 -0.39624405441E+02  0.76910016821E+02  0.41800000000E+01 0. -1.
         -5    1    3    3    0  502 -0.46084831268E+02  0.38029179262E+02 -0.16269900722E+02  0.62066192229E+02  0.41800000000E+01 0. -1.
        -11    1    1    2    0    0 -0.45346722794E+02 -0.22322827554E+02  0.21723407014E+03  0.22303648833E+03  0.00000000000E+00 0.  1.
         11    1    1    2    0    0  0.29187542203E+02  0.55837344486E+01  0.34110001070E+02  0.45239174211E+02  0.00000000000E+00 0. -1.
</event>
<event>
 7    1  0.2878477E-009  0.9580514E+02  0.7561462E-02  0.1289373E+00
         -1   -1    0    0    0  501 -0.00000000000E+00  0.00000000000E+00  0.24599828917E+02  0.24599828917E+02  0.00000000000E+00 0. -1.
          1   -1    0    0  501    0  0.00000000000E+00 -0.00000000000E+00 -0.49245941572E+03  0.49245941572E+03  0.00000000000E+00 0.  1.
         25    2    1    2    0    0  0.16889964237E+02  0.57911655093E+01 -0.29959555121E+03  0.32515175607E+03  0.12508941473E+03 0.  0.
          5    1    3    3  502    0  0.67223721664E+02  0.71925662513E+01 -0.22561221733E+03  0.23556125907E+03  0.41800000000E+01 0.  1.
         -5    1    3    3    0  502 -0.50333757427E+02 -0.14014007420E+01 -0.73983333878E+02  0.89590496998E+02  0.41800000000E+01 0.  1.
        -11    1    1    2    0    0  0.23381456414E+02 -0.19871862975E+02 -0.13318840944E+03  0.13667748846E+03  0.00000000000E+00 0.  1.
         11    1    1    2    0    0 -0.40271420651E+02  0.14080697466E+02 -0.35075626149E+02  0.55230000110E+02  0.00000000000E+00 0. -1.
</event>
<event>
 7    1  0.2878477E-009  0.1076573E+03  0.7561462E-02  0.1264971E+00
          2   -1    0    0  501    0  0.00000000000E+00  0.00000000000E+00  0.32763407722E+03  0.32763407722E+03  0.00000000000E+00 0. -1.
         -2   -1    0    0    0  501 -0.00000000000E+00 -0.00000000000E+00 -0.38553486404E+02  0.38553486404E+02  0.00000000000E+00 0.  1.
         25    2    1    2    0    0  0.85023385064E+01  0.10772250009E+02  0.21300912083E+03  0.24740514232E+03  0.12509231694E+03 0.  0.
          5    1    3    3  502    0  0.65657598133E+02 -0.27243153042E+00  0.92541824074E+02  0.11354495151E+03  0.41800000000E+01 0. -1.
         -5    1    3    3    0  502 -0.57155259626E+02  0.11044681540E+02  0.12046729676E+03  0.13386019080E+03  0.41800000000E+01 0. -1.
        -11    1    1    2    0    0  0.23202164343E+02  0.30998937190E+02  0.30083413698E+02  0.49033522378E+02  0.00000000000E+00 0. -1.
         11    1    1    2    0    0 -0.31704502849E+02 -0.41771187199E+02  0.45988056285E+02  0.69748898929E+02  0.00000000000E+00 0.  1.
</event>
<event>
 7    1  0.2878477E-009  0.8900931E+02  0.7561462E-02  0.1305269E+00
         -2   -1    0    0    0  501 -0.00000000000E+00  0.00000000000E+00  0.83641172015E+03  0.83641172015E+03  0.00000000000E+00 0.  1.
          2   -1    0    0  501    0  0.00000000000E+00 -0.00000000000E+00 -0.58303593094E+02  0.58303593094E+02  0.00000000000E+00 0. -1.
         25    2    1    2    0    0 -0.71789936925E+01 -0.45464940215E+02  0.78301425625E+03  0.79427806499E+03  0.12509084822E+03 0.  0.
          5    1    3    3  502    0 -0.34959512083E+02 -0.24411595443E+02  0.72640019092E+03  0.72766256138E+03  0.41800000000E+01 0. -1.
         -5    1    3    3    0  502  0.27780518391E+02 -0.21053344772E+02  0.56614065330E+02  0.66615503611E+02  0.41800000000E+01 0. -1.
        -11    1    1    2    0    0 -0.37186095096E+02  0.41198351130E+02  0.79423802061E+00  0.55504419809E+02  0.00000000000E+00 0.  1.
         11    1    1    2    0    0  0.44365088789E+02  0.42665890849E+01 -0.57003672061E+01  0.44932828444E+02  0.00000000000E+00 0. -1.
</event>
<event>
 7    1  0.2878477E-009  0.1099647E+03  0.7561462E-02  0.1260635E+00
          2   -1    0    0  501    0  0.00000000000E+00  0.00000000000E+00  0.21985411330E+03  0.21985411330E+03  0.00000000000E+00 0. -1.
         -2   -1    0    0    0  501 -0.00000000000E+00 -0.00000000000E+00 -0.90772334847E+02  0.90772334847E+02  0.00000000000E+00 0.  1.
         25    2    1    2    0    0  0.72693697407E+01 -0.50936553810E+02  0.15590240111E+03  0.20639984298E+03  0.12509180732E+03 0.  0.
          5    1    3    3  502    0 -0.30203889856E+02  0.22276917514E+02  0.10333558055E+02  0.39150872768E+02  0.41800000000E+01 0.  1.
         -5    1    3    3    0  502  0.37473259597E+02 -0.73213471324E+02  0.14556884306E+03  0.16724897021E+03  0.41800000000E+01 0.  1.
        -11    1    1    2    0    0 -0.39788388964E+02  0.48569958382E+00 -0.39229580950E+01  0.39984264413E+02  0.00000000000E+00 0.  1.
         11    1    1    2    0    0  0.32519019223E+02  0.50450854226E+02 -0.22897664562E+02  0.64242340756E+02  0.00000000000E+00 0. -1.
</event>
<event>
 7    1  0.2878477E-009  0.7379539E+02  0.7561462E-02  0.1347642E+00
         -2   -1    0    0    0  501 -0.00000000000E+00  0.00000000000E+00  0.10491336518E+04  0.10491336518E+04  0.00000000000E+00 0.  1.
          2   -1    0    0  501    0  0.00000000000E+00 -0.00000000000E+00 -0.13737095016E+02  0.13737095016E+02  0.00000000000E+00 0. -1.
         25    2    1    2    0    0  0.29497555854E+02 -0.15609652258E+02  0.76364858640E+03  0.77454505596E+03  0.12508842134E+03 0.  0.
          5    1    3    3  502    0 -0.59343530776E+01 -0.20616955249E+02  0.18813398482E+02  0.28839066431E+02  0.41800000000E+01 0.  1.
         -5    1    3    3    0  502  0.35431908932E+02  0.50073029913E+01  0.74483518792E+03  0.74570598953E+03  0.41800000000E+01 0.  1.
        -11    1    1    2    0    0 -0.34932226207E+02  0.46601931303E+02  0.12046478781E+03  0.13380495331E+03  0.00000000000E+00 0. -1.
         11    1    1    2    0    0  0.54346703527E+01 -0.30992279045E+02  0.15128318261E+03  0.15452073759E+03  0.00000000000E+00 0.  1.
</event>
<event>
 7    1  0.2878477E-009  0.1025501E+03  0.7561462E-02  0.1275023E+00
         -1   -1    0    0    0  501 -0.00000000000E+00  0.00000000000E+00  0.75124744700E+02  0.75124744700E+02  0.00000000000E+00 0.  1.
          1   -1    0    0  501    0  0.00000000000E+00 -0.00000000000E+00 -0.23576182677E+03  0.23576182677E+03  0.00000000000E+00 0. -1.
         25    2    1    2    0    0 -0.46389596982E+02 -0.24060614501E+02 -0.15192830187E+03  0.20362022602E+03  0.12509228455E+03 0.  0.
          5    1    3    3  502    0  0.24705844589E+02 -0.49620070809E+02 -0.39869516330E+02  0.68407462432E+02  0.41800000000E+01 0.  1.
         -5    1    3    3    0  502 -0.71095441571E+02  0.25559456308E+02 -0.11205878554E+03  0.13521276358E+03  0.41800000000E+01 0.  1.
        -11    1    1    2    0    0 -0.11570139459E+02  0.15701093832E+01 -0.37119026128E+02  0.38912150690E+02  0.00000000000E+00 0. -1.
         11    1    1    2    0    0  0.57959736441E+02  0.22490505118E+02  0.28410245927E+02  0.68354194768E+02  0.00000000000E+00 0.  1.
</event>
<event>
 7    1  0.2878477E-009  0.1201861E+03  0.7561462E-02  0.1242790E+00
         -1   -1    0    0    0  501 -0.00000000000E+00  0.00000000000E+00  0.18113827640E+02  0.18113827640E+02  0.00000000000E+00 0.  1.
          1   -1    0    0  501    0  0.00000000000E+00 -0.00000000000E+00 -0.18209866720E+04  0.18209866720E+04  0.00000000000E+00 0. -1.
         25    2    1    2    0    0  0.18616006967E+02  0.94924970402E+02 -0.15065188311E+04  0.15147945652E+04  0.12508509344E+03 0.  0.
          5    1    3    3  502    0  0.40525286886E+02  0.42598693654E+02 -0.12760277038E+04  0.12773883986E+04  0.41800000000E+01 0.  1.
         -5    1    3    3    0  502 -0.21909279920E+02  0.52326276748E+02 -0.23049112726E+03  0.23740616658E+03  0.41800000000E+01 0.  1.
        -11    1    1    2    0    0 -0.42072981972E+02 -0.21066497522E+02 -0.16712878916E+03  0.17362593497E+03  0.00000000000E+00 0.  1.
         11    1    1    2    0    0  0.23456975005E+02 -0.73858472880E+02 -0.12922522410E+03  0.15067999945E+03  0.00000000000E+00 0. -1.
</event>
<event>
 7    1  0.3398342E-009  0.1185848E+03  0.7561462E-02  0.1245450E+00
          2   -1    0    0  501    0  0.00000000000E+00  0.00000000000E+00  0.33257307869E+03  0.33257307869E+03  0.00000000000E+00 0. -1.
         -2   -1    0    0    0  501 -0.00000000000E+00 -0.00000000000E+00 -0.57179784679E+02  0.57179784679E+02  0.00000000000E+00 0.  1.
         25    2    1    2    0    0 -0.31770142635E+02 -0.71831958321E+02  0.10752024194E+03  0.18269118025E+03  0.12508514186E+03 0.  0.
          5    1    3    3  502    0  0.31372033832E+02 -0.47981579225E+02  0.21910901346E+01  0.57521384959E+02  0.41800000000E+01 0. -1.
         -5    1    3    3    0  502 -0.63142176467E+02 -0.23850379096E+02  0.10532915181E+03  0.12516979529E+03  0.41800000000E+01 0. -1.
        -11    1    1    2    0    0  0.37554720802E+02 -0.23771870374E+01  0.22775035438E+02  0.43985342012E+02  0.00000000000E+00 0.  1.
         11    1    1    2    0    0 -0.57845781670E+01  0.74209145358E+02  0.14509801662E+03  0.16307634110E+03  0.00000000000E+00 0. -1.
</event>
<event>
 7    1  0.2878477E-009  0.2147450E+03  0.7561462E-02  0.1137863E+00
         -1   -1    0    0    0  501 -0.00000000000E+00  0.00000000000E+00  0.13450695880E+03  0.13450695880E+03  0.00000000000E+00 0.  1.
          1   -1    0    0  501    0  0.00000000000E+00 -0.00000000000E+00 -0.53387184826E+03  0.53387184826E+03  0.00000000000E+00 0. -1.
         25    2    1    2    0    0 -0.19623285203E+03  0.58057205182E+02 -0.37139360527E+02  0.24270227674E+03  0.12508833578E+03 0.  0.
          5    1    3    3  502    0 -0.14800857959E+03  0.55132468871E+02  0.29052511747E+02  0.16064759443E+03  0.41800000000E+01 0.  1.
         -5    1    3    3    0  502 -0.48224272433E+02  0.29247363117E+01 -0.66191872275E+02  0.82054682312E+02  0.41800000000E+01 0.  1.
        -11    1    1    2    0    0  0.18229238028E+03 -0.21112964754E+02 -0.28560868653E+03  0.33948282874E+03  0.00000000000E+00 0. -1.
         11    1    1    2    0    0  0.13940471741E+02 -0.36944240428E+02 -0.76616842396E+02  0.86193701579E+02  0.00000000000E+00 0.  1.
</event>
<event>
 7    1  0.2878477E-009  0.1429823E+03  0.7561462E-02  0.1209371E+00
         -1   -1    0    0    0  501 -0.00000000000E+00  0.00000000000E+00  0.36588275052E+02  0.36588275052E+02  0.00000000000E+00 0.  1.
          1   -1    0    0  501    0  0.00000000000E+00 -0.00000000000E+00 -0.75753233608E+03  0.75753233608E+03  0.00000000000E+00 0. -1.
         25    2    1    2    0    0  0.93010867007E+02  0.70106041671E+02 -0.49322032981E+03  0.52199556447E+03  0.12508875702E+03 0.  0.
          5    1    3    3  502    0  0.11989098284E+03  0.35296419053E+02 -0.32987162474E+03  0.35277818268E+03  0.41800000000E+01 0.  1.
         -5    1    3    3    0  502 -0.26880115833E+02  0.34809622617E+02 -0.16334870507E+03  0.16921738180E+03  0.41800000000E+01 0.  1.
        -11    1    1    2    0    0 -0.71978564365E+02 -0.49997729957E+02 -0.71191147437E+02  0.11291087725E+03  0.00000000000E+00 0.  1.
         11    1    1    2    0    0 -0.21032302642E+02 -0.20108311714E+02 -0.15653258378E+03  0.15921416940E+03  0.00000000000E+00 0. -1.
</event>
<event>
 7    1  0.2878477E-009  0.1252439E+03  0.7561462E-02  0.1234689E+00
         -2   -1    0    0    0  501 -0.00000000000E+00  0.00000000000E+00  0.52556658038E+03  0.52556658038E+03  0.00000000000E+00 0.  1.
          2   -1    0    0  501    0  0.00000000000E+00 -0.00000000000E+00 -0.59749357264E+02  0.59749357264E+02  0.00000000000E+00 0. -1.
         25    2    1    2    0    0 -0.69289129936E+02  0.10324752849E+03  0.35234471268E+03  0.39402487434E+03  0.12509104437E+03 0.  0.
          5    1    3    3  502    0 -0.12336372385E+02  0.26714077711E+02  0.25828301396E+03  0.25998733764E+03  0.41800000000E+01 0.  1.
         -5    1    3    3    0  502 -0.56952757551E+02  0.76533450778E+02  0.94061698721E+02  0.13403753671E+03  0.41800000000E+01 0.  1.
        -11    1    1    2    0    0  0.55314038997E+02 -0.70038116919E+02  0.12488498887E+03  0.15349671389E+03  0.00000000000E+00 0.  1.
         11    1    1    2    0    0  0.13975090939E+02 -0.33209411570E+02 -0.11412478426E+02  0.37794349411E+02  0.00000000000E+00 0. -1.
</event>
<event>
 7    1  0.2878477E-009  0.8760485E+02  0.7561462E-02  0.1308758E+00
         -1   -1    0    0    0  501 -0.00000000000E+00  0.00000000000E+00  0.15894315547E+03  0.15894315547E+03  0.00000000000E+00 0.  1.
          1   -1    0    0  501    0  0.00000000000E+00 -0.00000000000E+00 -0.75531254132E+02  0.75531254132E+02  0.00000000000E+00 0. -1.
         25    2    1    2    0    0 -0.93771140178E+01  0.13631548840E+02  0.59126076129E+02  0.13935058262E+03  0.12509573377E+03 0.  0.
          5    1    3    3  502    0 -0.47221265867E+02  0.37286835904E+02 -0.56509773732E+01  0.60576910016E+02  0.41800000000E+01 0.  1.
         -5    1    3    3    0  502  0.37844151849E+02 -0.23655287064E+02  0.64777053502E+02  0.78773672605E+02  0.41800000000E+01 0.  1.
        -11    1    1    2    0    0 -0.18163755559E+02 -0.32120963639E+02 -0.18262487236E+02  0.41172767227E+02  0.00000000000E+00 0. -1.
         11    1    1    2    0    0  0.27540869577E+02  0.18489414799E+02  0.42548312449E+02  0.53951059757E+02  0.00000000000E+00 0.  1.
</event>
<event>
 7    1  0.2878477E-009  0.1563981E+03  0.7561462E-02  0.1192824E+00
         -1   -1    0    0    0  501 -0.00000000000E+00  0.00000000000E+00  0.12264215856E+03  0.12264215856E+03  0.00000000000E+00 0.  1.
          1   -1    0    0  501    0  0.00000000000E+00 -0.00000000000E+00 -0.32748846552E+03  0.32748846552E+03  0.00000000000E+00 0. -1.
         25    2    1    2    0    0  0.19550181521E+02 -0.14736898629E+03 -0.18081747697E+02  0.19512704054E+03  0.12509110533E+03 0.  0.
          5    1    3    3  502    0 -0.13983615108E+02 -0.80572334423E+02 -0.66916121734E+02  0.10574820241E+03  0.41800000000E+01 0.  1.
         -5    1    3    3    0  502  0.33533796629E+02 -0.66796651869E+02  0.48834374037E+02  0.89378838127E+02  0.41800000000E+01 0.  1.
        -11    1    1    2    0    0  0.15783635680E+02  0.52385096526E+02 -0.12467856652E+03  0.13615456820E+03  0.00000000000E+00 0. -1.
         11    1    1    2    0    0 -0.35333817201E+02  0.94983889766E+02 -0.62085992747E+02  0.11884901535E+03  0.00000000000E+00 0.  1.
</event>
<event>
 7    1  0.2878477E-009  0.1246860E+03  0.7561462E-02  0.1235561E+00
         -1   -1    0    0    0  501 -0.00000000000E+00  0.00000000000E+00  0.32753269992E+02  0.32753269992E+02  0.00000000000E+00 0.  1.
          1   -1    0    0  501    0  0.00000000000E+00 -0.00000000000E+00 -0.74077961445E+03  0.74077961445E+03  0.00000000000E+00 0. -1.
         25    2    1    2    0    0  0.72533947171E+02 -0.25711306863E+02 -0.50697231724E+03  0.52781685004E+03  0.12508977551E+03 0.  0.
          5    1    3    3  502    0 -0.33062105574E+02 -0.21944618930E+02 -0.11045695079E+03  0.11744309049E+03  0.41800000000E+01 0. -1.
         -5    1    3    3    0  502  0.10559605275E+03 -0.37666879331E+01 -0.39651536645E+03  0.41037375955E+03  0.41800000000E+01 0. -1.
        -11    1    1    2    0    0 -0.51346447405E+02 -0.18597477389E+02 -0.20062819433E+02  0.58179382516E+02  0.00000000000E+00 0.  1.
         11    1    1    2    0    0 -0.21187499765E+02  0.44308784252E+02 -0.18099120778E+03  0.18753665189E+03  0.00000000000E+00 0. -1.
</event>
<event>
 7    1  0.2878477E-009  0.1228435E+03  0.7561462E-02  0.1238478E+00
          1   -1    0    0  501    0  0.00000000000E+00  0.00000000000E+00  0.38605077802E+03  0.38605077802E+03  0.00000000000E+00 0. -1.
         -1   -1    0    0    0  501 -0.00000000000E+00 -0.00000000000E+00 -0.50823284307E+02  0.50823284307E+02  0.00000000000E+00 0.  1.
         25    2    1    2    0    0 -0.77055928241E+02 -0.77313050601E+01  0.24981677301E+03  0.28992003360E+03  0.12509123329E+03 0.  0.
          5    1    3    3  502    0 -0.60921373979E+02 -0.51111493407E+02  0.76292435313E+02  0.11028058148E+03  0.41800000000E+01 0.  1.
         -5    1    3    3    0  502 -0.16134554263E+02  0.43380188347E+02  0.17352433770E+03  0.17963945212E+03  0.41800000000E+01 0.  1.
        -11    1    1    2    0    0  0.93092655584E+02 -0.12323559035E+02  0.67380839722E+02  0.11557806969E+03  0.00000000000E+00 0.  1.
         11    1    1    2    0    0 -0.16036727343E+02  0.20054864095E+02  0.18029880975E+02  0.31375959041E+02  0.00000000000E+00 0. -1.
</event>
<event>
 7    1  0.2878477E-009  0.7775888E+02  0.7561462E-02  0.1335534E+00
         -2   -1    0    0    0  501 -0.00000000000E+00  0.00000000000E+00  0.66045449939E+03  0.66045449939E+03  0.00000000000E+00 0.  1.
          2   -1    0    0  501    0  0.00000000000E+00 -0.00000000000E+00 -0.23663481174E+02  0.23663481174E+02  0.00000000000E+00 0. -1.
         25    2    1    2    0    0 -0.53336371426E+02 -0.57228449969E+01  0.26312709675E+03  0.29624345541E+03  0.12508715504E+03 0.  0.
          5    1    3    3  502    0 -0.43468634190E+02 -0.71915326174E+01  0.13342595519E+02  0.46224858625E+02  0.41800000000E+01 0.  1.
         -5    1    3    3    0  502 -0.98677372357E+01  0.14686876205E+01  0.24978450124E+03  0.25001859679E+03  0.41800000000E+01 0.  1.
        -11    1    1    2    0    0  0.61191617296E+02  0.34751474428E+02  0.30324441874E+03  0.31130251605E+03  0.00000000000E+00 0.  1.
         11    1    1    2    0    0 -0.78552458697E+01 -0.29028629431E+02  0.70419502723E+02  0.76572009103E+02  0.00000000000E+00 0. -1.
</event>
<event>
 7    1  0.2878477E-009  0.7898826E+02  0.7561462E-02  0.1331947E+00
         -1   -1    0    0    0  501 -0.00000000000E+00  0.00000000000E+00  0.34232311630E+02  0.34232311630E+02  0.00000000000E+00 0.  1.
          1   -1    0    0  501    0  0.00000000000E+00 -0.00000000000E+00 -0.41113012255E+03  0.41113012255E+03  0.00000000000E+00 0. -1.
         25    2    1    2    0    0 -0.13217122650E+01  0.42132296543E+02 -0.28193161720E+03  0.31130462543E+03  0.12509298822E+03 0.  0.
          5    1    3    3  502    0  0.73593937459E+01 -0.21348824308E+02 -0.22291313958E+03  0.22409300117E+03  0.41800000000E+01 0.  1.
         -5    1    3    3    0  502 -0.86811060109E+01  0.63481120851E+02 -0.59018477628E+02  0.87211624269E+02  0.41800000000E+01 0.  1.
        -11    1    1    2    0    0  0.29110734794E+02 -0.21929068713E+02 -0.92721873713E+02  0.99627630705E+02  0.00000000000E+00 0.  1.
         11    1    1    2    0    0 -0.27789022529E+02 -0.20203227830E+02 -0.22443200050E+01  0.34430178044E+02  0.00000000000E+00 0. -1.
</event>
<event>
 7    1  0.2878477E-009  0.1426136E+03  0.7561462E-02  0.1209855E+00
          1   -1    0    0  501    0  0.00000000000E+00  0.00000000000E+00  0.30476387745E+03  0.30476387745E+03  0.00000000000E+00 0. -1.
         -1   -1    0    0    0  501 -0.00000000000E+00 -0.00000000000E+00 -0.90495261034E+02  0.90495261034E+02  0.00000000000E+00 0.  1.
         25    2    1    2    0    0 -0.11826491536E+03  0.30809374314E+02  0.79956412088E+02  0.19228081821E+03  0.12507228897E+03 0.  0.
          5    1    3    3  502    0 -0.26060810414E+02  0.59689395780E+02 -0.23207368765E+01  0.65305803936E+02  0.41800000000E+01 0. -1.
         -5    1    3    3    0  502 -0.92204104941E+02 -0.28880021466E+02  0.82277148965E+02  0.12697501427E+03  0.41800000000E+01 0. -1.
        -11    1    1    2    0    0  0.45026495019E+02 -0.37827997766E+01  0.11353288291E+03  0.12219415015E+03  0.00000000000E+00 0. -1.
         11    1    1    2    0    0  0.73238420337E+02 -0.27026574537E+02  0.20779321416E+02  0.80784170127E+02  0.00000000000E+00 0.  1.
</event>
<event>
 7    1  0.3118002E-009  0.9059907E+02  0.7561462E-02  0.1301407E+00
          1   -1    0    0  501    0  0.00000000000E+00  0.00000000000E+00  0.49447896890E+03  0.49447896890E+03  0.00000000000E+00 0. -1.
         -1   -1    0    0    0  501 -0.00000000000E+00 -0.00000000000E+00 -0.28331963384E+02  0.28331963384E+02  0.00000000000E+00 0.  1.
         25    2    1    2    0    0  0.27574777838E+02 -0.85255497096E+01  0.34467757783E+03  0.36780888897E+03  0.12509073815E+03 0.  0.
          5    1    3    3  502    0  0.27221824745E+02 -0.42526682094E+02  0.32369241620E+03  0.32763363554E+03  0.41800000000E+01 0. -1.
         -5    1    3    3    0  502  0.35295309288E+00  0.34001132384E+02  0.20985161637E+02  0.40175253431E+02  0.41800000000E+01 0. -1.
        -11    1    1    2    0    0 -0.88359037660E+00 -0.40469836265E+02  0.52263493781E+02  0.66106438124E+02  0.00000000000E+00 0. -1.
         11    1    1    2    0    0 -0.26691187461E+02  0.48995385975E+02  0.69205933900E+02  0.88895605189E+02  0.00000000000E+00 0.  1.
</event>
<event>
 7    1  0.2878477E-009  0.1150961E+03  0.7561462E-02  0.1251413E+00
          2   -1    0    0  501    0  0.00000000000E+00  0.00000000000E+00  0.15111959071E+03  0.15111959071E+03  0.00000000000E+00 0. -1.
         -2   -1    0    0    0  501 -0.00000000000E+00 -0.00000000000E+00 -0.16769963816E+03  0.16769963816E+03  0.00000000000E+00 0.  1.
         25    2    1    2    0    0  0.54318954445E+02  0.79240021228E+02  0.56537418050E+02  0.16755099471E+03  0.12508927377E+03 0.  0.
          5    1    3    3  502    0  0.36097647163E+02  0.64218649909E+02 -0.28573092765E+02  0.79126286132E+02  0.41800000000E+01 0. -1.
         -5    1    3    3    0  502  0.18221307281E+02  0.15021371319E+02  0.85110510814E+02  0.88424708574E+02  0.41800000000E+01 0. -1.
        -11    1    1    2    0    0 -0.24436248007E+02  0.18222389489E+02 -0.16783543674E+02  0.34797600975E+02  0.00000000000E+00 0. -1.
         11    1    1    2    0    0 -0.29882706437E+02 -0.97462410717E+02 -0.56333921829E+02  0.11647063319E+03  0.00000000000E+00 0.  1.
</event>
<event>
 7    1  0.2878477E-009  0.8428499E+02  0.7561462E-02  0.1317313E+00
          1   -1    0    0  501    0  0.00000000000E+00  0.00000000000E+00  0.10427444294E+03  0.10427444294E+03  0.00000000000E+00 0. -1.
         -1   -1    0    0    0  501 -0.00000000000E+00 -0.00000000000E+00 -0.14032076369E+03  0.14032076369E+03  0.00000000000E+00 0.  1.
         25    2    1    2    0    0  0.28315481284E+02 -0.90534681574E+00  0.26150040493E+02  0.13089652522E+03  0.12508992591E+03 0.  0.
          5    1    3    3  502    0 -0.19331637263E+02  0.13011966995E+02  0.64062065841E+02  0.68296736116E+02  0.41800000000E+01 0. -1.
         -5    1    3    3    0  502  0.47647118547E+02 -0.13917313811E+02 -0.37912025348E+02  0.62599789101E+02  0.41800000000E+01 0. -1.
        -11    1    1    2    0    0  0.73756859418E+00 -0.42687703897E+02 -0.30491814601E+02  0.52464605489E+02  0.00000000000E+00 0.  1.
         11    1    1    2    0    0 -0.29053049878E+02  0.43593050713E+02 -0.31704546641E+02  0.61234075933E+02  0.00000000000E+00 0. -1.
</event>
<event>
 7    1  0.2878477E-009  0.1182588E+03  0.7561462E-02  0.1245997E+00
         -4   -1    0    0    0  501 -0.00000000000E+00  0.00000000000E+00  0.49266233034E+02  0.49266233034E+02  0.00000000000E+00 0.  1.
          4   -1    0    0  501    0  0.00000000000E+00 -0.00000000000E+00 -0.34472669249E+03  0.34472669249E+03  0.00000000000E+00 0. -1.
         25    2    1    2    0    0 -0.33632844323E+02  0.58552972517E+02 -0.19883131047E+03  0.24441882420E+03  0.12508818006E+03 0.  0.
          5    1    3    3  502    0 -0.61049876617E+02  0.83803410456E+02 -0.15745920577E+03  0.18857617273E+03  0.41800000000E+01 0.  1.
         -5    1    3    3    0  502  0.27417032294E+02 -0.25250437939E+02 -0.41372104700E+02  0.55842651470E+02  0.41800000000E+01 0.  1.
        -11    1    1    2    0    0 -0.13679164020E+02 -0.43492139205E+02 -0.56673547591E+01  0.45943493673E+02  0.00000000000E+00 0.  1.
         11    1    1    2    0    0  0.47312008343E+02 -0.15060833311E+02 -0.90961794221E+02  0.10363060765E+03  0.00000000000E+00 0. -1.
</event>
<event>
 7    1  0.2878477E-009  0.1064969E+03  0.7561462E-02  0.1267198E+00
         -1   -1    0    0    0  501 -0.00000000000E+00  0.00000000000E+00  0.18807288259E+02  0.18807288259E+02  0.00000000000E+00 0.  1.
          1   -1    0    0  501    0  0.00000000000E+00 -0.00000000000E+00 -0.10033512430E+04  0.10033512430E+04  0.00000000000E+00 0. -1.
         25    2    1    2    0    0  0.73668807658E+02 -0.35784919352E+02 -0.59886188342E+03  0.61724391978E+03  0.12508735917E+03 0.  0.
          5    1    3    3  502    0  0.34258985328E+02 -0.59334246548E+02 -0.52968287587E+03  0.53411202221E+03  0.41800000000E+01 0. -1.
         -5    1    3    3    0  502  0.39409822330E+02  0.23549327196E+02 -0.69179007551E+02  0.83131897567E+02  0.41800000000E+01 0. -1.
        -11    1    1    2    0    0 -0.78405471859E+02  0.18811852692E+02 -0.37651388589E+03  0.38505065912E+03  0.00000000000E+00 0. -1.
         11    1    1    2    0    0  0.47366642014E+01  0.16973066660E+02 -0.91681854567E+01  0.19863952380E+02  0.00000000000E+00 0.  1.
</event>
<event>
 7    1  0.2878477E-009  0.3682027E+03  0.7561462E-02  0.1055382E+00
         -1   -1    0    0    0  501 -0.00000000000E+00  0.00000000000E+00  0.19068550860E+03  0.19068550860E+03  0.00000000000E+00 0.  1.
          1   -1    0    0  501    0  0.00000000000E+00 -0.00000000000E+00 -0.84384231514E+03  0.84384231514E+03  0.00000000000E+00 0. -1.
         25    2    1    2    0    0 -0.10603542050E+03 -0.35195997837E+03 -0.17760315070E+03  0.42697750787E+03  0.12509027268E+03 0.  0.
          5    1    3    3  502    0 -0.83186287610E+02 -0.25170826131E+03 -0.62148963326E+02  0.27231777999E+03  0.41800000000E+01 0. -1.
         -5    1    3    3    0  502 -0.22849132887E+02 -0.10025171706E+03 -0.11545418737E+03  0.15465972788E+03  0.41800000000E+01 0. -1.
        -11    1    1    2    0    0  0.47196812527E+02  0.19798381888E+03 -0.19333291932E+03  0.28071827397E+03  0.00000000000E+00 0.  1.
         11    1    1    2    0    0  0.58838607970E+02  0.15397615949E+03 -0.28222073653E+03  0.32683204189E+03  0.00000000000E+00 0. -1.
</event>
<event>
 7    1  0.2878477E-009  0.1090644E+03  0.7561462E-02  0.1262312E+00
          2   -1    0    0  501    0  0.00000000000E+00  0.00000000000E+00  0.13874112532E+04  0.13874112532E+04  0.00000000000E+00 0. -1.
         -2   -1    0    0    0  501 -0.00000000000E+00 -0.00000000000E+00 -0.23167902766E+02  0.23167902766E+02  0.00000000000E+00 0.  1.
         25    2    1    2    0    0  0.47597004195E+02  0.45353140761E+02  0.12229262783E+04  0.12310640909E+04  0.12509089342E+03 0.  0.
          5    1    3    3  502    0 -0.40426317956E+02 -0.17268101884E+01  0.41309038133E+03  0.41508842986E+03  0.41800000000E+01 0. -1.
         -5    1    3    3    0  502  0.88023322151E+02  0.47079950950E+02  0.80983589695E+03  0.81597566104E+03  0.41800000000E+01 0. -1.
        -11    1    1    2    0    0 -0.50421813367E+02 -0.23719139725E+02  0.14679939425E+03  0.15701916764E+03  0.00000000000E+00 0. -1.
         11    1    1    2    0    0  0.28248091714E+01 -0.21634001036E+02 -0.54823220582E+01  0.22495897467E+02  0.00000000000E+00 0.  1.
</event>
<event>
 7    1  0.2878477E-009  0.1372851E+03  0.7561462E-02  0.1217029E+00
          1   -1    0    0  501    0  0.00000000000E+00  0.00000000000E+00  0.56810491203E+02  0.56810491203E+02  0.00000000000E+00 0. -1.
         -1   -1    0    0    0  501 -0.00000000000E+00 -0.00000000000E+00 -0.37428706716E+03  0.37428706716E+03  0.00000000000E+00 0.  1.
         25    2    1    2    0    0 -0.35269228816E+02 -0.87190505989E+02 -0.13431054867E+03  0.20623641689E+03  0.12509209941E+03 0.  0.
          5    1    3    3  502    0  0.46491596132E+02 -0.22781685890E+02 -0.37882489994E+02  0.64288639517E+02  0.41800000000E+01 0. -1.
         -5    1    3    3    0  502 -0.81760824948E+02 -0.64408820100E+02 -0.96428058672E+02  0.14194777738E+03  0.41800000000E+01 0. -1.
        -11    1    1    2    0    0  0.66694998653E+01  0.89518847571E+02 -0.17210477643E+03  0.19410863033E+03  0.00000000000E+00 0.  1.
         11    1    1    2    0    0  0.28599728951E+02 -0.23283415814E+01 -0.11061250859E+02  0.30752511135E+02  0.00000000000E+00 0. -1.
</event>
<event>
 7    1  0.2878477E-009  0.1803754E+03  0.7561462E-02  0.1167440E+00
         -2   -1    0    0    0  501 -0.00000000000E+00  0.00000000000E+00  0.29582134301E+03  0.29582134301E+03  0.00000000000E+00 0. -1.
          2   -1    0    0  501    0  0.00000000000E+00 -0.00000000000E+00 -0.18177661924E+03  0.18177661924E+03  0.00000000000E+00 0.  1.
         25    2    1    2    0    0 -0.14369828628E+03  0.86830508706E+02  0.17867617882E+03  0.27524815892E+03  0.12509051678E+03 0.  0.
          5    1    3    3  502    0  0.91481831930E+01 -0.45910581493E+01 -0.10602036950E+02  0.15318050077E+02  0.41800000000E+01 0. -1.
         -5    1    3    3    0  502 -0.15284646948E+03  0.91421566855E+02  0.18927821577E+03  0.25993010884E+03  0.41800000000E+01 0. -1.
        -11    1    1    2    0    0  0.62597147579E+02 -0.17895553323E+02 -0.70227526732E+02  0.95763036839E+02  0.00000000000E+00 0.  1.
         11    1    1    2    0    0  0.81101138704E+02 -0.68934955382E+02  0.55960716868E+01  0.10658676649E+03  0.00000000000E+00 0. -1.
</event>
<event>
 7    1  0.3848454E-009  0.1175792E+03  0.7561462E-02  0.1247145E+00
          1   -1    0    0  501    0  0.00000000000E+00  0.00000000000E+00  0.33790387737E+03  0.33790387737E+03  0.00000000000E+00 0. -1.
         -1   -1    0    0    0  501 -0.00000000000E+00 -0.00000000000E+00 -0.47587587928E+02  0.47587587928E+02  0.00000000000E+00 0.  1.
         25    2    1    2    0    0  0.47532738691E+02 -0.19824995404E+02  0.10073195997E+03  0.16865964226E+03  0.12508699164E+03 0.  0.
          5    1    3    3  502    0  0.59444771804E+02  0.38467603801E+02  0.32458991248E+02  0.78003179100E+02  0.41800000000E+01 0.  1.
         -5    1    3    3    0  502 -0.11912033112E+02 -0.58292599205E+02  0.68272968719E+02  0.90656463159E+02  0.41800000000E+01 0.  1.
        -11    1    1    2    0    0 -0.59672786636E+02 -0.20012655541E+02  0.10210263098E+03  0.11994288265E+03  0.00000000000E+00 0.  1.
         11    1    1    2    0    0  0.12140047945E+02  0.39837650945E+02  0.87481698503E+02  0.96888940390E+02  0.00000000000E+00 0. -1.
</event>
<event>
 7    1  0.2878477E-009  0.1263530E+03  0.7561462E-02  0.1232970E+00
          4   -1    0    0  501    0  0.00000000000E+00  0.00000000000E+00  0.86983894191E+03  0.86983894191E+03  0.00000000000E+00 0. -1.
         -4   -1    0    0    0  501 -0.00000000000E+00 -0.00000000000E+00 -0.18789411738E+02  0.18789411738E+02  0.00000000000E+00 0.  1.
         25    2    1    2    0    0  0.27791449363E+01  0.67817902608E+02  0.47484143150E+03  0.49571133048E+03  0.12509335127E+03 0.  0.
          5    1    3    3  502    0  0.63708882723E+02  0.38603235780E+02  0.25207939030E+03  0.26288880342E+03  0.41800000000E+01 0. -1.
         -5    1    3    3    0  502 -0.60929737786E+02  0.29214666828E+02  0.22276204120E+03  0.23282252706E+03  0.41800000000E+01 0. -1.
        -11    1    1    2    0    0 -0.36517983044E+02 -0.67397085164E+02  0.29877789326E+03  0.30845446937E+03  0.00000000000E+00 0.  1.
         11    1    1    2    0    0  0.33738838107E+02 -0.42081744387E+00  0.77430205409E+02  0.84462553796E+02  0.00000000000E+00 0. -1.
</event>
<event>
 7    1  0.2878477E-009  0.1193020E+03  0.7561462E-02  0.1244253E+00
         -2   -1    0    0    0  501 -0.00000000000E+00  0.00000000000E+00  0.13111223816E+03  0.13111223816E+03  0.00000000000E+00 0.  1.
          2   -1    0    0  501    0  0.00000000000E+00 -0.00000000000E+00 -0.12610795780E+03  0.12610795780E+03  0.00000000000E+00 0. -1.
         25    2    1    2    0    0  0.15223305779E+01  0.61395244050E+02  0.34691093463E+02  0.14360690166E+03  0.12509107385E+03 0.  0.
          5    1    3    3  502    0 -0.18020180927E+02  0.95518313488E+02  0.12041821022E+02  0.98035467999E+02  0.41800000000E+01 0. -1.
         -5    1    3    3    0  502  0.19542511505E+02 -0.34123069438E+02  0.22649272440E+02  0.45571433661E+02  0.41800000000E+01 0. -1.
        -11    1    1    2    0    0 -0.39400298926E+02 -0.46792156582E+02  0.33662685740E+01  0.61263539215E+02  0.00000000000E+00 0.  1.
         11    1    1    2    0    0  0.37877968348E+02 -0.14603087468E+02 -0.33053081678E+02  0.52349755092E+02  0.00000000000E+00 0. -1.
</event>
<event>
 7    1  0.2878477E-009  0.1046479E+03  0.7561462E-02  0.1270815E+00
          2   -1    0    0  501    0  0.00000000000E+00  0.00000000000E+00  0.24582215076E+03  0.24582215076E+03  0.00000000000E+00 0. -1.
         -2   -1    0    0    0  501 -0.00000000000E+00 -0.00000000000E+00 -0.77714922839E+02  0.77714922839E+02  0.00000000000E+00 0.  1.
         25    2    1    2    0    0  0.80925703226E+02  0.26228886012E+02  0.95564113647E+02  0.17892893947E+03  0.12508453805E+03 0.  0.
          5    1    3    3  502    0  0.20327440049E+02  0.16035018075E+02 -0.29529723754E+02  0.39494349072E+02  0.41800000000E+01 0.  1.
         -5    1    3    3    0  502  0.60598263176E+02  0.10193867937E+02  0.12509383740E+03  0.13943459040E+03  0.41800000000E+01 0.  1.
        -11    1    1    2    0    0  0.38648214330E+01 -0.35927583856E+02  0.65450731803E+01  0.36722828178E+02  0.00000000000E+00 0.  1.
         11    1    1    2    0    0 -0.84790524659E+02  0.96986978442E+01  0.65998041091E+02  0.10788530595E+03  0.00000000000E+00 0. -1.
</event>
<event>
 7    1  0.2878477E-009  0.8237885E+02  0.7561462E-02  0.1322433E+00
         -1   -1    0    0    0  501 -0.00000000000E+00  0.00000000000E+00  0.66955132918E+02  0.66955132918E+02  0.00000000000E+00 0.  1.
          1   -1    0    0  501    0  0.00000000000E+00 -0.00000000000E+00 -0.24995468130E+03  0.24995468130E+03  0.00000000000E+00 0. -1.
         25    2    1    2    0    0 -0.29602168661E+02  0.37652711506E+02 -0.40682637170E+02  0.13998368474E+03  0.12508533068E+03 0.  0.
          5    1    3    3  502    0 -0.51031455451E+02  0.37877685283E+02  0.26768543820E+02  0.69086582099E+02  0.41800000000E+01 0.  1.
         -5    1    3    3    0  502  0.21429286790E+02 -0.22497377686E+00 -0.67451180989E+02  0.70897102638E+02  0.41800000000E+01 0.  1.
        -11    1    1    2    0    0  0.36153364181E+02  0.46278952956E+01 -0.12594921362E+03  0.13111707581E+03  0.00000000000E+00 0. -1.
         11    1    1    2    0    0 -0.65511955201E+01 -0.42280606801E+02 -0.16367697594E+02  0.45809053677E+02  0.00000000000E+00 0.  1.
</event>
<event>
 7    1  0.2878477E-009  0.1173486E+03  0.7561462E-02  0.1247536E+00
          1   -1    0    0  501    0  0.00000000000E+00  0.00000000000E+00  0.14112316072E+03  0.14112316072E+03  0.00000000000E+00 0. -1.
         -1   -1    0    0    0  501 -0.00000000000E+00 -0.00000000000E+00 -0.17538553836E+03  0.17538553836E+03  0.00000000000E+00 0.  1.
         25    2    1    2    0    0  0.53531988381E+02 -0.72072166155E+02 -0.89349247026E+02  0.17801893195E+03  0.12508949307E+03 0.  0.
          5    1    3    3  502    0  0.65172212203E+02 -0.72718132652E+02 -0.10611221717E+02  0.98312839885E+02  0.41800000000E+01 0. -1.
         -5    1    3    3    0  502 -0.11640223822E+02  0.64596649674E+00 -0.78738025309E+02  0.79706092069E+02  0.41800000000E+01 0. -1.
        -11    1    1    2    0    0 -0.51923901142E+02 -0.55693182703E+00  0.96849260466E+01  0.52822338791E+02  0.00000000000E+00 0. -1.
         11    1    1    2    0    0 -0.16080872390E+01  0.72629097982E+02  0.45401943335E+02  0.85667428332E+02  0.00000000000E+00 0.  1.
</event>
<event>
 7    1  0.2878477E-009  0.1524517E+03  0.7561462E-02  0.1197492E+00
          1   -1    0    0  501    0  0.00000000000E+00  0.00000000000E+00  0.21657549353E+04  0.21657549353E+04  0.00000000000E+00 0. -1.
         -1   -1    0    0    0  501 -0.00000000000E+00 -0.00000000000E+00 -0.14910119332E+02  0.14910119332E+02  0.00000000000E+00 0.  1.
         25    2    1    2    0    0  0.57882232091E+02 -0.98895925877E+02  0.16549340635E+04  0.16636059705E+04  0.12508922283E+03 0.  0.
          5    1    3    3  502    0 -0.33018599179E+02 -0.24111464944E+01  0.49280811780E+03  0.49393658994E+03  0.41800000000E+01 0.  1.
         -5    1    3    3    0  502  0.90900831270E+02 -0.96484779383E+02  0.11621259457E+04  0.11696693805E+04  0.41800000000E+01 0.  1.
        -11    1    1    2    0    0 -0.74174161435E+02  0.97568228683E+02  0.47477870296E+03  0.49034292312E+03  0.00000000000E+00 0. -1.
         11    1    1    2    0    0  0.16291929344E+02  0.13276971942E+01  0.21132049508E+02  0.26716160989E+02  0.00000000000E+00 0.  1.
</event>
<event>
 7    1  0.3870032E-009  0.6994487E+02  0.7561462E-02  0.1360281E+00
         -2   -1    0    0    0  501 -0.00000000000E+00  0.00000000000E+00  0.52269283762E+02  0.52269283762E+02  0.00000000000E+00 0.  1.
          2   -1    0    0  501    0  0.00000000000E+00 -0.00000000000E+00 -0.27481900881E+03  0.27481900881E+03  0.00000000000E+00 0. -1.
         25    2    1    2    0    0  0.36079538260E+02  0.35814426239E+02 -0.13426152980E+03  0.19041457910E+03  0.12508855799E+03 0.  0.
          5    1    3    3  502    0  0.47562633893E+02  0.29712409929E+02 -0.78564642788E+00  0.56241631262E+02  0.41800000000E+01 0.  1.
         -5    1    3    3    0  502 -0.11483095633E+02  0.61020163092E+01 -0.13347588338E+03  0.13417294784E+03  0.41800000000E+01 0.  1.
        -11    1    1    2    0    0 -0.19471472181E+02  0.95487406111E+01 -0.85585452828E+02  0.88290352882E+02  0.00000000000E+00 0. -1.
         11    1    1    2    0    0 -0.16608066078E+02 -0.45363166850E+02 -0.27027424166E+01  0.48383360591E+02  0.00000000000E+00 0.  1.
</event>
<event>
 7    1  0.2878477E-009  0.1169475E+03  0.7561462E-02  0.1248219E+00
         -2   -1    0    0    0  501 -0.00000000000E+00  0.00000000000E+00  0.15162404573E+03  0.15162404573E+03  0.00000000000E+00 0.  1.
          2   -1    0    0  501    0  0.00000000000E+00 -0.00000000000E+00 -0.11189605003E+03  0.11189605003E+03  0.00000000000E+00 0. -1.
         25    2    1    2    0    0  0.50688449823E+02  0.48082124512E+02  0.45220291999E+01  0.14335004704E+03  0.12509027778E+03 0.  0.
          5    1    3    3  502    0  0.61002988780E+02  0.78126001553E+02 -0.22161635057E+02  0.10165454848E+03  0.41800000000E+01 0.  1.
         -5    1    3    3    0  502 -0.10314538957E+02 -0.30043877041E+02  0.26683664257E+02  0.41695498554E+02  0.41800000000E+01 0.  1.
        -11    1    1    2    0    0 -0.57019374767E+02 -0.63880657184E+02  0.48648773054E+02  0.98481727141E+02  0.00000000000E+00 0.  1.
         11    1    1    2    0    0  0.63309249436E+01  0.15798532672E+02 -0.13442806552E+02  0.21688321586E+02  0.00000000000E+00 0. -1.
</event>
<event>
 7    1  0.2878477E-009  0.1284276E+03  0.7561462E-02  0.1229808E+00
          2   -1    0    0  501    0  0.00000000000E+00  0.00000000000E+00  0.38783993061E+03  0.38783993061E+03  0.00000000000E+00 0.  1.
         -2   -1    0    0    0  501 -0.00000000000E+00 -0.00000000000E+00 -0.50213798278E+02  0.50213798278E+02  0.00000000000E+00 0. -1.
         25    2    1    2    0    0 -0.69978697144E+02 -0.48114475645E+01  0.26529922805E+03  0.30158283873E+03  0.12509340563E+03 0.  0.
          5    1    3    3  502    0 -0.42342598665E+02  0.59584773783E+02  0.13540160089E+03  0.15392955159E+03  0.41800000000E+01 0.  1.
         -5    1    3    3    0  502 -0.27636098479E+02 -0.64396221348E+02  0.12989762716E+03  0.14765328715E+03  0.41800000000E+01 0.  1.
        -11    1    1    2    0    0 -0.19948582049E+02  0.11905605635E+02  0.26666108702E+02  0.35366237072E+02  0.00000000000E+00 0. -1.
         11    1    1    2    0    0  0.89927279193E+02 -0.70941580710E+01  0.45660795580E+02  0.10110465308E+03  0.00000000000E+00 0.  1.
</event>
<event>
 7    1  0.2878477E-009  0.1212601E+03  0.7561462E-02  0.1241033E+00
          2   -1    0    0  501    0  0.00000000000E+00  0.00000000000E+00  0.58581936232E+03  0.58581936232E+03  0.00000000000E+00 0. -1.
         -2   -1    0    0    0  501 -0.00000000000E+00 -0.00000000000E+00 -0.26107099998E+02  0.26107099998E+02  0.00000000000E+00 0.  1.
         25    2    1    2    0    0  0.18796648008E+02  0.55835994957E+02  0.31334890977E+03  0.34249988872E+03  0.12509061599E+03 0.  0.
          5    1    3    3  502    0 -0.37467031448E+02 -0.20835419970E+02  0.96434623517E+02  0.10561724378E+03  0.41800000000E+01 0. -1.
         -5    1    3    3    0  502  0.56263679455E+02  0.76671414927E+02  0.21691428625E+03  0.23688264494E+03  0.41800000000E+01 0. -1.
        -11    1    1    2    0    0  0.33703777846E+02 -0.32429627082E+02  0.72230659421E+02  0.86051690943E+02  0.00000000000E+00 0.  1.
         11    1    1    2    0    0 -0.52500425853E+02 -0.23406367875E+02  0.17413269313E+03  0.18337488266E+03  0.00000000000E+00 0. -1.
</event>
<event>
 7    1  0.2878477E-009  0.8392741E+02  0.7561462E-02  0.1318262E+00
         -1   -1    0    0    0  501 -0.00000000000E+00  0.00000000000E+00  0.74544601094E+02  0.74544601094E+02  0.00000000000E+00 0.  1.
          1   -1    0    0  501    0  0.00000000000E+00 -0.00000000000E+00 -0.24004667396E+03  0.24004667396E+03  0.00000000000E+00 0. -1.
         25    2    1    2    0    0  0.24963264871E+02  0.11775666814E+02 -0.63126770535E+01  0.12825499137E+03  0.12509061515E+03 0.  0.
          5    1    3    3  502    0 -0.11378675160E+02  0.41493904866E+02  0.42345325417E+02  0.60512952119E+02  0.41800000000E+01 0. -1.
         -5    1    3    3    0  502  0.36341940031E+02 -0.29718238052E+02 -0.48658002471E+02  0.67742039256E+02  0.41800000000E+01 0. -1.
        -11    1    1    2    0    0 -0.50586755253E+02 -0.11464242726E+02 -0.43061559643E+02  0.67414735683E+02  0.00000000000E+00 0.  1.
         11    1    1    2    0    0  0.25623490382E+02 -0.31142408834E+00 -0.11612783617E+03  0.11892154800E+03  0.00000000000E+00 0. -1.
</event>
<event>
 7    1  0.2878477E-009  0.1365370E+03  0.7561462E-02  0.1218066E+00
          3   -1    0    0  501    0  0.00000000000E+00  0.00000000000E+00  0.72508413471E+02  0.72508413471E+02  0.00000000000E+00 0. -1.
         -3   -1    0    0    0  501 -0.00000000000E+00 -0.00000000000E+00 -0.28947647562E+03  0.28947647562E+03  0.00000000000E+00 0.  1.
         25    2    1    2    0    0  0.80088901916E+02 -0.36127864711E+02 -0.14847335737E+03  0.21309964289E+03  0.12509062768E+03 0.  0.
          5    1    3    3  502    0  0.57603112478E+02  0.40930674669E+02 -0.53840667677E+02  0.88936654940E+02  0.41800000000E+01 0. -1.
         -5    1    3    3    0  502  0.22485789437E+02 -0.77058539380E+02 -0.94632689691E+02  0.12416298795E+03  0.41800000000E+01 0. -1.
        -11    1    1    2    0    0 -0.70602097433E+02  0.62242274105E+02 -0.25189671500E+02  0.97433445993E+02  0.00000000000E+00 0. -1.
         11    1    1    2    0    0 -0.94868044822E+01 -0.26114409394E+02 -0.43305033280E+02  0.51451800208E+02  0.00000000000E+00 0.  1.
</event>
<event>
 7    1  0.2878477E-009  0.1254359E+03  0.7561462E-02  0.1234390E+00
         -1   -1    0    0    0  501 -0.00000000000E+00  0.00000000000E+00  0.64213919317E+03  0.64213919317E+03  0.00000000000E+00 0.  1.
          1   -1    0    0  501    0  0.00000000000E+00 -0.00000000000E+00 -0.28179850005E+02  0.28179850005E+02  0.00000000000E+00 0. -1.
         25    2    1    2    0    0  0.36200776456E+02  0.61626278243E+02  0.42578515825E+03  0.44949846615E+03  0.12509027018E+03 0.  0.
          5    1    3    3  502    0 -0.25297373492E+02  0.70401086687E+02  0.16234088357E+03  0.17879682601E+03  0.41800000000E+01 0.  1.
         -5    1    3    3    0  502  0.61498149948E+02 -0.87748084445E+01  0.26344427468E+03  0.27070164014E+03  0.41800000000E+01 0.  1.
        -11    1    1    2    0    0  0.28638470658E+01 -0.72955081511E+02  0.13896606952E+03  0.15697838710E+03  0.00000000000E+00 0.  1.
         11    1    1    2    0    0 -0.39064623522E+02  0.11328803269E+02  0.49208115386E+02  0.63842189923E+02  0.00000000000E+00 0. -1.
</event>
<event>
 7    1  0.2878477E-009  0.1247142E+03  0.7561462E-02  0.1235517E+00
          2   -1    0    0  501    0  0.00000000000E+00  0.00000000000E+00  0.54947303910E+03  0.54947303910E+03  0.00000000000E+00 0.  1.
         -2   -1    0    0    0  501 -0.00000000000E+00 -0.00000000000E+00 -0.32858863364E+02  0.32858863364E+02  0.00000000000E+00 0. -1.
         25    2    1    2    0    0 -0.58234323649E+02 -0.52670749309E+02  0.31512433594E+03  0.34801807964E+03  0.12509113626E+03 0.  0.
          5    1    3    3  502    0 -0.87940391107E+02 -0.25949080432E+02  0.13352853685E+03  0.16203150841E+03  0.41800000000E+01 0.  1.
         -5    1    3    3    0  502  0.29706067457E+02 -0.26721668878E+02  0.18159579909E+03  0.18598657123E+03  0.41800000000E+01 0.  1.
        -11    1    1    2    0    0  0.69493349509E+01 -0.24135180993E+02  0.63333905102E+02  0.68132105158E+02  0.00000000000E+00 0.  1.
         11    1    1    2    0    0  0.51284988698E+02  0.76805930302E+02  0.13815593469E+03  0.16618171766E+03  0.00000000000E+00 0. -1.
</event>
<event>
 7    1  0.2878477E-009  0.1587509E+03  0.7561462E-02  0.1190114E+00
          1   -1    0    0  501    0  0.00000000000E+00  0.00000000000E+00  0.52288474662E+02  0.52288474662E+02  0.00000000000E+00 0. -1.
         -1   -1    0    0    0  501 -0.00000000000E+00 -0.00000000000E+00 -0.58177929925E+03  0.58177929925E+03  0.00000000000E+00 0.  1.
         25    2    1    2    0    0 -0.12489822040E+03 -0.45450395003E+02 -0.27480467485E+03  0.32989551849E+03  0.12509252549E+03 0.  0.
          5    1    3    3  502    0 -0.78947414913E+02  0.37036385915E+02 -0.11755483937E+03  0.14642745939E+03  0.41800000000E+01 0.  1.
         -5    1    3    3    0  502 -0.45950805490E+02 -0.82486780919E+02 -0.15724983548E+03  0.18346805910E+03  0.41800000000E+01 0.  1.
        -11    1    1    2    0    0  0.10684659666E+03  0.27725814975E+02 -0.10494856985E+03  0.15231256792E+03  0.00000000000E+00 0. -1.
         11    1    1    2    0    0  0.18051623741E+02  0.17724580028E+02 -0.14973757989E+03  0.15185968750E+03  0.00000000000E+00 0.  1.
</event>
<event>
 7    1  0.2878477E-009  0.1295104E+03  0.7561462E-02  0.1228184E+00
          2   -1    0    0  501    0  0.00000000000E+00  0.00000000000E+00  0.23417708866E+03  0.23417708866E+03  0.00000000000E+00 0. -1.
         -2   -1    0    0    0  501 -0.00000000000E+00 -0.00000000000E+00 -0.76306604234E+02  0.76306604234E+02  0.00000000000E+00 0.  1.
         25    2    1    2    0    0  0.40799599977E+02  0.59919711128E+02  0.12468240232E+03  0.19091170599E+03  0.12508636574E+03 0.  0.
          5    1    3    3  502    0  0.42527112977E+02 -0.31358042714E+02  0.41209675859E+02  0.67138602647E+02  0.41800000000E+01 0.  1.
         -5    1    3    3    0  502 -0.17275129998E+01  0.91277753843E+02  0.83472726463E+02  0.12377310334E+03  0.41800000000E+01 0.  1.
        -11    1    1    2    0    0 -0.46393020550E+01 -0.75220520817E+02  0.25511384946E+02  0.79564317614E+02  0.00000000000E+00 0. -1.
         11    1    1    2    0    0 -0.36160297922E+02  0.15300809689E+02  0.76766971603E+01  0.40007669293E+02  0.00000000000E+00 0.  1.
</event>
<event>
 7    1  0.2878477E-009  0.7010176E+02  0.7561462E-02  0.1359747E+00
         -1   -1    0    0    0  501 -0.00000000000E+00  0.00000000000E+00  0.74394242769E+02  0.74394242769E+02  0.00000000000E+00 0.  1.
          1   -1    0    0  501    0  0.00000000000E+00 -0.00000000000E+00 -0.18914301671E+03  0.18914301671E+03  0.00000000000E+00 0. -1.
         25    2    1    2    0    0 -0.26774816113E+02 -0.34032574978E+02 -0.57372914505E+02  0.14426924275E+03  0.12508739404E+03 0.  0.
          5    1    3    3  502    0 -0.26407666965E+02 -0.25265017562E+02 -0.96856595862E+02  0.10360674953E+03  0.41800000000E+01 0. -1.
         -5    1    3    3    0  502 -0.36714914729E+00 -0.87675574157E+01  0.39483681357E+02  0.40662493222E+02  0.41800000000E+01 0. -1.
        -11    1    1    2    0    0  0.35665153122E+02 -0.18666395317E+02 -0.51700536890E+02  0.65523911483E+02  0.00000000000E+00 0. -1.
         11    1    1    2    0    0 -0.88903370089E+01  0.52698970295E+02 -0.56753225461E+01  0.53744105242E+02  0.00000000000E+00 0.  1.
</event>
<event>
 7    1  0.2878477E-009  0.8194342E+02  0.7561462E-02  0.1323625E+00
          2   -1    0    0  501    0  0.00000000000E+00  0.00000000000E+00  0.31728624161E+03  0.31728624161E+03  0.00000000000E+00 0. -1.
         -2   -1    0    0    0  501 -0.00000000000E+00 -0.00000000000E+00 -0.49213216354E+02  0.49213216354E+02  0.00000000000E+00 0.  1.
         25    2    1    2    0    0 -0.56641955751E+02 -0.17259936715E+02  0.18640369258E+03  0.23216551669E+03  0.12509306122E+03 0.  0.
          5    1    3    3  502    0 -0.54773440309E+02 -0.92406606383E+01  0.20444516102E+03  0.21189812608E+03  0.41800000000E+01 0. -1.
         -5    1    3    3    0  502 -0.18685154420E+01 -0.80192760769E+01 -0.18041468436E+02  0.20267390609E+02  0.41800000000E+01 0. -1.
        -11    1    1    2    0    0  0.21637648785E+02  0.47815603977E+02  0.17940840915E+02  0.55465246789E+02  0.00000000000E+00 0.  1.
         11    1    1    2    0    0  0.35004306967E+02 -0.30555667262E+02  0.63728491763E+02  0.78868694489E+02  0.00000000000E+00 0. -1.
</event>
<event>
 6    1  0.2878477E-009  0.1101598E+03  0.7561462E-02  0.1260274E+00
          1   -1    0    0  501    0  0.00000000000E+00  0.00000000000E+00  0.24901503038E+03  0.24901503038E+03  0.00000000000E+00 0. -1.
         -1   -1    0    0    0  501 -0.00000000000E+00 -0.00000000000E+00 -0.63547904401E+02  0.63547904401E+02  0.00000000000E+00 0.  1.
          5    1    1    2  502    0 -0.11640982696E+02 -0.42394837906E+02  0.34771635840E+02  0.56208307377E+02  0.41800000000E+01 0. -1.
         -5    1    1    2    0  502  0.57066707442E+02  0.69077345490E+02  0.11478247566E+03  0.14567353183E+03  0.41800000000E+01 0. -1.
        -11    1    1    2    0    0 -0.60057181545E+02 -0.49507438849E+01  0.52290334737E+02  0.79785048894E+02  0.00000000000E+00 0. -1.
         11    1    1    2    0    0  0.14631456799E+02 -0.21731763699E+02 -0.16377320256E+02  0.30896046677E+02  0.00000000000E+00 0.  1.
</event>
<event>
 7    1  0.2878477E-009  0.1073932E+03  0.7561462E-02  0.1265475E+00
          1   -1    0    0  501    0  0.00000000000E+00  0.00000000000E+00  0.29534198163E+02  0.29534198163E+02  0.00000000000E+00 0. -1.
         -1   -1    0    0    0  501 -0.00000000000E+00 -0.00000000000E+00 -0.49316533443E+03  0.49316533443E+03  0.00000000000E+00 0.  1.
         25    2    1    2    0    0 -0.46923063954E+02  0.76616537063E+01 -0.20412133855E+03  0.24407635991E+03  0.12508906327E+03 0.  0.
          5    1    3    3  502    0  0.34747403771E+02  0.18407150021E+02 -0.24749916583E+02  0.46650144819E+02  0.41800000000E+01 0.  1.
         -5    1    3    3    0  502 -0.81670467725E+02 -0.10745496315E+02 -0.17937142196E+03  0.19742621509E+03  0.41800000000E+01 0.  1.
        -11    1    1    2    0    0  0.10574489189E+02 -0.41666642140E+02 -0.17799890355E+03  0.18311618867E+03  0.00000000000E+00 0.  1.
         11    1    1    2    0    0  0.36348574764E+02  0.34004988434E+02 -0.81510894177E+02  0.95506984013E+02  0.00000000000E+00 0. -1.
</event>
<event>
 7    1  0.3314083E-009  0.9969429E+02  0.7561462E-02  0.1280940E+00
         -1   -1    0    0    0  501 -0.00000000000E+00  0.00000000000E+00  0.31687322141E+02  0.31687322141E+02  0.00000000000E+00 0.  1.
          1   -1    0    0  501    0  0.00000000000E+00 -0.00000000000E+00 -0.49583813089E+03  0.49583813089E+03  0.00000000000E+00 0. -1.
         25    2    1    2    0    0  0.39350398163E+02  0.46047194467E+02 -0.22730361678E+03  0.26642687691E+03  0.12509016183E+03 0.  0.
          5    1    3    3  502    0  0.21468643701E+00  0.51287689689E+02 -0.22014744171E+03  0.22608149349E+03  0.41800000000E+01 0.  1.
         -5    1    3    3    0  502  0.39135711726E+02 -0.52404952221E+01 -0.71561750707E+01  0.40345383430E+02  0.41800000000E+01 0.  1.
        -11    1    1    2    0    0  0.26008629716E+02 -0.32240359580E+02 -0.69458209825E+02  0.80872322321E+02  0.00000000000E+00 0.  1.
         11    1    1    2    0    0 -0.65359027879E+02 -0.13806834887E+02 -0.16738898215E+03  0.18022625380E+03  0.00000000000E+00 0. -1.
</event>
<event>
 7    1  0.2878477E-009  0.8525189E+02  0.7561462E-02  0.1314775E+00
         -2   -1    0    0    0  501 -0.00000000000E+00  0.00000000000E+00  0.36209743983E+02  0.36209743983E+02  0.00000000000E+00 0.  1.
          2   -1    0    0  501    0  0.00000000000E+00 -0.00000000000E+00 -0.43962408085E+03  0.43962408085E+03  0.00000000000E+00 0. -1.
         25    2    1    2    0    0  0.58280281773E+02 -0.16748637340E+02 -0.26405138915E+03  0.29840871508E+03  0.12509003568E+03 0.  0.
          5    1    3    3  502    0  0.56126851170E+02 -0.27339972438E+02 -0.40450626002E+02  0.74507872464E+02  0.41800000000E+01 0. -1.
         -5    1    3    3    0  502  0.21534306034E+01  0.10591335097E+02 -0.22360076315E+03  0.22390084261E+03  0.41800000000E+01 0. -1.
        -11    1    1    2    0    0 -0.60855158753E+02  0.40082066296E+02 -0.59170507180E+02  0.93867306904E+02  0.00000000000E+00 0.  1.
         11    1    1    2    0    0  0.25748769802E+01 -0.23333428955E+02 -0.80192440531E+02  0.83557802847E+02  0.00000000000E+00 0. -1.
</event>
<event>
 7    1  0.2878477E-009  0.1621152E+03  0.7561462E-02  0.1186329E+00
         -3   -1    0    0    0  501 -0.00000000000E+00  0.00000000000E+00  0.18261825460E+03  0.18261825460E+03  0.00000000000E+00 0.  1.
          3   -1    0    0  501    0  0.00000000000E+00 -0.00000000000E+00 -0.15611136144E+03  0.15611136144E+03  0.00000000000E+00 0. -1.
         25    2    1    2    0    0 -0.98877127334E+02 -0.75202489319E+02 -0.12591734633E+02  0.17674775415E+03  0.12509642724E+03 0.  0.
          5    1    3    3  502    0 -0.10504347616E+03 -0.14703653349E+02  0.19397961876E+02  0.10790775056E+03  0.41800000000E+01 0.  1.
         -5    1    3    3    0  502  0.61663488308E+01 -0.60498835970E+02 -0.31989696508E+02  0.68840003590E+02  0.41800000000E+01 0.  1.
        -11    1    1    2    0    0  0.46439242531E+02 -0.18305742267E+02  0.14637344238E+02  0.52018797498E+02  0.00000000000E+00 0.  1.
         11    1    1    2    0    0  0.52437884802E+02  0.93508231586E+02  0.24461283550E+02  0.10996306439E+03  0.00000000000E+00 0. -1.
</event>
<event>
 7    1  0.2878477E-009  0.1157968E+03  0.7561462E-02  0.1250197E+00
          2   -1    0    0  501    0  0.00000000000E+00  0.00000000000E+00  0.34363925636E+03  0.34363925636E+03  0.00000000000E+00 0. -1.
         -2   -1    0    0    0  501 -0.00000000000E+00 -0.00000000000E+00 -0.63541938505E+02  0.63541938505E+02  0.00000000000E+00 0.  1.
         25    2    1    2    0    0 -0.45737544615E+02  0.87055516482E+02  0.12534593128E+03  0.20255729656E+03  0.12508904813E+03 0.  0.
          5    1    3    3  502    0 -0.50684680246E+02  0.51368895721E+02  0.14447721750E+03  0.16155135108E+03  0.41800000000E+01 0. -1.
         -5    1    3    3    0  502  0.49471356306E+01  0.35686620760E+02 -0.19131286217E+02  0.41005945478E+02  0.41800000000E+01 0. -1.
        -11    1    1    2    0    0  0.66338419073E+02 -0.67135071675E+02  0.14741926845E+03  0.17504383567E+03  0.00000000000E+00 0. -1.
         11    1    1    2    0    0 -0.20600874457E+02 -0.19920444807E+02  0.73321181206E+01  0.29580062641E+02  0.00000000000E+00 0.  1.
</event>
<event>
 7    1  0.2878477E-009  0.1065722E+03  0.7561462E-02  0.1267053E+00
          1   -1    0    0  501    0  0.00000000000E+00  0.00000000000E+00  0.15192875858E+03  0.15192875858E+03  0.00000000000E+00 0. -1.
         -1   -1    0    0    0  501 -0.00000000000E+00 -0.00000000000E+00 -0.10623747136E+03  0.10623747136E+03  0.00000000000E+00 0.  1.
         25    2    1    2    0    0  0.66065560895E+01 -0.40680840428E+02 -0.26954668391E+02  0.13442934580E+03  0.12508444149E+03 0.  0.
          5    1    3    3  502    0 -0.12931297550E+02 -0.74400292653E+02 -0.48360023550E+02  0.89770742901E+02  0.41800000000E+01 0. -1.
         -5    1    3    3    0  502  0.19537853640E+02  0.33719452225E+02  0.21405355159E+02  0.44658602897E+02  0.41800000000E+01 0. -1.
        -11    1    1    2    0    0  0.84395964831E+01 -0.27361036241E+02  0.32501434035E+02  0.43315081753E+02  0.00000000000E+00 0. -1.
         11    1    1    2    0    0 -0.15046152573E+02  0.68041876669E+02  0.40144521573E+02  0.80421802393E+02  0.00000000000E+00 0.  1.
</event>
<event>
 7    1  0.2878477E-009  0.7726344E+02  0.7561462E-02  0.1337002E+00
         -2   -1    0    0    0  501 -0.00000000000E+00  0.00000000000E+00  0.49033832150E+02  0.49033832150E+02  0.00000000000E+00 0.  1.
          2   -1    0    0  501    0  0.00000000000E+00 -0.00000000000E+00 -0.23894000562E+03  0.23894000562E+03  0.00000000000E+00 0. -1.
         25    2    1    2    0    0  0.17338767994E+00  0.38088541491E+01 -0.13453552181E+03  0.18374455490E+03  0.12509083658E+03 0.  0.
          5    1    3    3  502    0 -0.31544142369E+01 -0.43345447750E+02 -0.12873262209E+03  0.13593505273E+03  0.41800000000E+01 0. -1.
         -5    1    3    3    0  502  0.33278019168E+01  0.47154301899E+02 -0.58028997192E+01  0.47809502176E+02  0.41800000000E+01 0. -1.
        -11    1    1    2    0    0  0.26960121042E+01  0.29678227390E+02 -0.63063743076E+02  0.69750278516E+02  0.00000000000E+00 0. -1.
         11    1    1    2    0    0 -0.28693997841E+01 -0.33487081539E+02  0.76930914187E+01  0.34479004346E+02  0.00000000000E+00 0.  1.
</event>
<event>
 7    1  0.2878477E-009  0.1059945E+03  0.7561462E-02  0.1268172E+00
         -2   -1    0    0    0  501 -0.00000000000E+00  0.00000000000E+00  0.25982191607E+02  0.25982191607E+02  0.00000000000E+00 0.  1.
          2   -1    0    0  501    0  0.00000000000E+00 -0.00000000000E+00 -0.49488187951E+03  0.49488187951E+03  0.00000000000E+00 0. -1.
         25    2    1    2    0    0  0.18059447317E+02  0.10268314974E+02 -0.20234477935E+03  0.23879613849E+03  0.12509438075E+03 0.  0.
          5    1    3    3  502    0  0.70882818740E+01 -0.57128272703E+02 -0.10497468152E+03  0.11979582398E+03  0.41800000000E+01 0.  1.
         -5    1    3    3    0  502  0.10971165443E+02  0.67396587677E+02 -0.97370097830E+02  0.11900031451E+03  0.41800000000E+01 0.  1.
        -11    1    1    2    0    0 -0.41089370468E+02  0.21693966369E+02 -0.19422359247E+03  0.19970420229E+03  0.00000000000E+00 0. -1.
         11    1    1    2    0    0  0.23029923151E+02 -0.31962281343E+02 -0.72331316090E+02  0.82363730345E+02  0.00000000000E+00 0.  1.
</event>
<event>
 7    1  0.2878477E-009  0.1045420E+03  0.7561462E-02  0.1271025E+00
         -2   -1    0    0    0  501 -0.00000000000E+00  0.00000000000E+00  0.78843728596E+02  0.78843728596E+02  0.00000000000E+00 0.  1.
          2   -1    0    0  501    0  0.00000000000E+00 -0.00000000000E+00 -0.24164666286E+03  0.24164666286E+03  0.00000000000E+00 0. -1.
         25    2    1    2    0    0 -0.96446194178E+01  0.74947970047E+02 -0.13579104290E+03  0.19948449464E+03  0.12507853282E+03 0.  0.
          5    1    3    3  502    0 -0.12940866031E+02 -0.51540922114E+01  0.19703584809E+02  0.24489473953E+02  0.41800000000E+01 0. -1.
         -5    1    3    3    0  502  0.32962466136E+01  0.80102062258E+02 -0.15549462771E+03  0.17499502069E+03  0.41800000000E+01 0. -1.
        -11    1    1    2    0    0  0.36785951231E+02 -0.78690129710E+02 -0.71339194765E+01  0.87156385474E+02  0.00000000000E+00 0.  1.
         11    1    1    2    0    0 -0.27141331813E+02  0.37421596629E+01 -0.19877971888E+02  0.33849511340E+02  0.00000000000E+00 0. -1.
</event>
<event>
 7    1  0.2878477E-009  0.1611171E+03  0.7561462E-02  0.1187441E+00
          2   -1    0    0  501    0  0.00000000000E+00  0.00000000000E+00  0.99778546881E+02  0.99778546881E+02  0.00000000000E+00 0. -1.
         -2   -1    0    0    0  501 -0.00000000000E+00 -0.00000000000E+00 -0.27424036726E+03  0.27424036726E+03  0.00000000000E+00 0.  1.
         25    2    1    2    0    0  0.24765900300E+02  0.12134166145E+03 -0.90434718681E+02  0.19789507147E+03  0.12508745879E+03 0.  0.
          5    1    3    3  502    0  0.60842622993E+02  0.11693849774E+03 -0.44541102031E+02  0.13920423555E+03  0.41800000000E+01 0. -1.
         -5    1    3    3    0  502 -0.36076722693E+02  0.44031637127E+01 -0.45893616650E+02  0.58690835913E+02  0.41800000000E+01 0. -1.
        -11    1    1    2    0    0 -0.52024178628E+02 -0.11434313757E+03 -0.60446487193E+02  0.13940819949E+03  0.00000000000E+00 0. -1.
         11    1    1    2    0    0  0.27258278327E+02 -0.69985238784E+01 -0.23580614508E+02  0.36715643184E+02  0.00000000000E+00 0.  1.
</event>
<event>
 7    1  0.2878477E-009  0.1285774E+03  0.7561462E-02  0.1229582E+00
         -2   -1    0    0    0  501 -0.00000000000E+00  0.00000000000E+00  0.49071744573E+02  0.49071744573E+02  0.00000000000E+00 0.  1.
          2   -1    0    0  501    0  0.00000000000E+00 -0.00000000000E+00 -0.49242078827E+03  0.49242078827E+03  0.00000000000E+00 0. -1.
         25    2    1    2    0    0  0.83891046090E+02  0.64338839674E+02 -0.23396984300E+03  0.28559945025E+03  0.12509182486E+03 0.  0.
          5    1    3    3  502    0 -0.22240944214E+02  0.26402987758E+02 -0.12298156696E+02  0.36884880645E+02  0.41800000000E+01 0.  1.
         -5    1    3    3    0  502  0.10613199030E+03  0.37935851915E+02 -0.22167168630E+03  0.24871456961E+03  0.41800000000E+01 0.  1.
        -11    1    1    2    0    0 -0.55394267268E+02 -0.58386583098E+02 -0.51946095505E+02  0.95790995246E+02  0.00000000000E+00 0.  1.
         11    1    1    2    0    0 -0.28496778822E+02 -0.59522565761E+01 -0.15743310519E+03  0.16010208734E+03  0.00000000000E+00 0. -1.
</event>
<event>
 7    1  0.2878477E-009  0.9064788E+02  0.7561462E-02  0.1301290E+00
         -1   -1    0    0    0  501 -0.00000000000E+00  0.00000000000E+00  0.15345143995E+03  0.15345143995E+03  0.00000000000E+00 0.  1.
          1   -1    0    0  501    0  0.00000000000E+00 -0.00000000000E+00 -0.83297462593E+02  0.83297462593E+02  0.00000000000E+00 0. -1.
         25    2    1    2    0    0 -0.57994865837E+01 -0.13158253605E+02  0.14741202075E+02  0.12678165850E+03  0.12509801042E+03 0.  0.
          5    1    3    3  502    0  0.16218502605E+02 -0.64165979426E+02 -0.76108608714E+01  0.66751107449E+02  0.41800000000E+01 0.  1.
         -5    1    3    3    0  502 -0.22017989189E+02  0.51007725822E+02  0.22352062946E+02  0.60030551050E+02  0.41800000000E+01 0.  1.
        -11    1    1    2    0    0  0.22913894600E+01  0.36042042979E+02  0.72631538277E+02  0.81114854869E+02  0.00000000000E+00 0.  1.
         11    1    1    2    0    0  0.35080971237E+01 -0.22883789375E+02 -0.17218763000E+02  0.28852389170E+02  0.00000000000E+00 0. -1.
</event>
<event>
 7    1  0.2878477E-009  0.1154161E+03  0.7561462E-02  0.1250857E+00
          1   -1    0    0  501    0  0.00000000000E+00  0.00000000000E+00  0.58532956894E+02  0.58532956894E+02  0.00000000000E+00 0.  1.
         -1   -1    0    0    0  501 -0.00000000000E+00 -0.00000000000E+00 -0.27649172902E+03  0.27649172902E+03  0.00000000000E+00 0. -1.
         25    2    1    2    0    0  0.73493322886E+02 -0.34415874620E+01 -0.15985067935E+03  0.21590278738E+03  0.12509460771E+03 0.  0.
          5    1    3    3  502    0  0.21266454633E+02 -0.59254526476E+02 -0.43532968430E+02  0.76654763328E+02  0.41800000000E+01 0.  1.
         -5    1    3    3    0  502  0.52226868253E+02  0.55812939014E+02 -0.11631771092E+03  0.13924802406E+03  0.41800000000E+01 0.  1.
        -11    1    1    2    0    0 -0.12804866630E+01  0.17559722279E+02  0.87881936996E+01  0.19677800719E+02  0.00000000000E+00 0.  1.
         11    1    1    2    0    0 -0.72212836223E+02 -0.14118134817E+02 -0.66896286474E+02  0.99444097814E+02  0.00000000000E+00 0. -1.
</event>
<event>
 7    1  0.2878477E-009  0.1069144E+03  0.7561462E-02  0.1266393E+00
          4   -1    0    0  501    0  0.00000000000E+00  0.00000000000E+00  0.25551220127E+03  0.25551220127E+03  0.00000000000E+00 0. -1.
         -4   -1    0    0    0  501 -0.00000000000E+00 -0.00000000000E+00 -0.63738402809E+02  0.63738402809E+02  0.00000000000E+00 0.  1.
         25    2    1    2    0    0 -0.66707181051E+02 -0.68989520402E+01  0.98634136351E+02  0.17284131067E+03  0.12509189533E+03 0.  0.
          5    1    3    3  502    0 -0.93968255412E+02  0.17138379082E+02  0.39805993850E+02  0.10356518049E+03  0.41800000000E+01 0.  1.
         -5    1    3    3    0  502  0.27261074361E+02 -0.24037331122E+02  0.58828142500E+02  0.69276130181E+02  0.41800000000E+01 0.  1.
        -11    1    1    2    0    0  0.38718327909E+02  0.26976187880E+02  0.90578226056E-01  0.47189319057E+02  0.00000000000E+00 0.  1.
         11    1    1    2    0    0  0.27988853143E+02 -0.20077235840E+02  0.93049083880E+02  0.99219974351E+02  0.00000000000E+00 0. -1.
</event>
<event>
 7    1  0.2878477E-009  0.1318253E+03  0.7561462E-02  0.1224772E+00
          2   -1    0    0  501    0  0.00000000000E+00  0.00000000000E+00  0.15575222489E+03  0.15575222489E+03  0.00000000000E+00 0.  1.
         -2   -1    0    0    0  501 -0.00000000000E+00 -0.00000000000E+00 -0.14378765456E+03  0.14378765456E+03  0.00000000000E+00 0. -1.
         25    2    1    2    0    0  0.80006993706E+02  0.18036673433E+02  0.69173639552E+02  0.16479485896E+03  0.12508362204E+03 0.  0.
          5    1    3    3  502    0 -0.29725359495E+02  0.10584072033E+02  0.39639221675E+02  0.50836599737E+02  0.41800000000E+01 0. -1.
         -5    1    3    3    0  502  0.10973235320E+03  0.74526014009E+01  0.29534417878E+02  0.11395825923E+03  0.41800000000E+01 0. -1.
        -11    1    1    2    0    0 -0.86359979737E+02 -0.42663703974E+02 -0.41752644316E+02  0.10498343224E+03  0.00000000000E+00 0.  1.
         11    1    1    2    0    0  0.63529860310E+01  0.24627030540E+02 -0.15456424906E+02  0.29761588257E+02  0.00000000000E+00 0. -1.
</event>
<event>
 7    1  0.2878477E-009  0.1543733E+03  0.7561462E-02  0.1195200E+00
          1   -1    0    0  501    0  0.00000000000E+00  0.00000000000E+00  0.37288848662E+03  0.37288848662E+03  0.00000000000E+00 0. -1.
         -1   -1    0    0    0  501 -0.00000000000E+00 -0.00000000000E+00 -0.76744709790E+02  0.76744709790E+02  0.00000000000E+00 0.  1.
         25    2    1    2    0    0  0.10100051917E+03 -0.59778218494E+02  0.23160864892E+03  0.28820442131E+03  0.12507870293E+03 0.  0.
          5    1    3    3  502    0 -0.26225975095E+01  0.25836156970E+02  0.86281907401E+02  0.90202133951E+02  0.41800000000E+01 0. -1.
         -5    1    3    3    0  502  0.10362311668E+03 -0.85614375464E+02  0.14532674152E+03  0.19800228735E+03  0.41800000000E+01 0. -1.
        -11    1    1    2    0    0  0.15397796678E+02  0.19382158616E+02  0.11292964159E+02  0.27208293858E+02  0.00000000000E+00 0. -1.
         11    1    1    2    0    0 -0.11639831585E+03  0.40396059878E+02  0.53242163751E+02  0.13422048125E+03  0.00000000000E+00 0.  1.
</event>
<event>
 7    1  0.2878477E-009  0.9012555E+02  0.7561462E-02  0.1302548E+00
          1   -1    0    0  501    0  0.00000000000E+00  0.00000000000E+00  0.48011979778E+03  0.48011979778E+03  0.00000000000E+00 0. -1.
         -1   -1    0    0    0  501 -0.00000000000E+00 -0.00000000000E+00 -0.21100564151E+02  0.21100564151E+02  0.00000000000E+00 0.  1.
         25    2    1    2    0    0 -0.26742579314E+02  0.32252321416E+01  0.25956037383E+03  0.28938641293E+03  0.12508933071E+03 0.  0.
          5    1    3    3  502    0  0.45217085588E+02  0.41181957002E+00  0.48977064949E+02  0.66790566066E+02  0.41800000000E+01 0.  1.
         -5    1    3    3    0  502 -0.71959664903E+02  0.28134125716E+01  0.21058330888E+03  0.22259584687E+03  0.41800000000E+01 0.  1.
        -11    1    1    2    0    0  0.71418994033E+01 -0.29257862993E+02  0.46203444206E+02  0.55152402763E+02  0.00000000000E+00 0.  1.
         11    1    1    2    0    0  0.19600679911E+02  0.26032630851E+02  0.15325541559E+03  0.15668154623E+03  0.00000000000E+00 0. -1.
</event>
<event>
 7    1  0.2878477E-009  0.1350567E+03  0.7561462E-02  0.1220140E+00
          2   -1    0    0  501    0  0.00000000000E+00  0.00000000000E+00  0.30809287835E+02  0.30809287835E+02  0.00000000000E+00 0. -1.
         -2   -1    0    0    0  501 -0.00000000000E+00 -0.00000000000E+00 -0.81100534841E+03  0.81100534841E+03  0.00000000000E+00 0.  1.
         25    2    1    2    0    0 -0.30918005944E+02 -0.10555345343E+03 -0.33328599310E+03  0.37259194350E+03  0.12509096107E+03 0.  0.
          5    1    3    3  502    0 -0.33241945536E+02 -0.11909090207E+03 -0.33593617290E+03  0.35799197556E+03  0.41800000000E+01 0.  1.
         -5    1    3    3    0  502  0.23239395912E+01  0.13537448639E+02  0.26501798036E+01  0.14599967940E+02  0.41800000000E+01 0.  1.
        -11    1    1    2    0    0  0.53287821956E+02  0.54102730102E+02 -0.16298475195E+03  0.17980747132E+03  0.00000000000E+00 0. -1.
         11    1    1    2    0    0 -0.22369816012E+02  0.51450723328E+02 -0.28392531553E+03  0.28941522143E+03  0.00000000000E+00 0.  1.
</event>
<event>
 7    1  0.2878477E-009  0.1010753E+03  0.7561462E-02  0.1278051E+00
          2   -1    0    0  501    0  0.00000000000E+00  0.00000000000E+00  0.14446463643E+03  0.14446463643E+03  0.00000000000E+00 0. -1.
         -2   -1    0    0    0  501 -0.00000000000E+00 -0.00000000000E+00 -0.11622438890E+03  0.11622438890E+03  0.00000000000E+00 0.  1.
         25    2    1    2    0    0 -0.69002193199E+02  0.97880641301E+01  0.99362560010E+01  0.14353842977E+03  0.12508973887E+03 0.  0.
          5    1    3    3  502    0 -0.69562525048E+02  0.29929277990E+02 -0.42689807201E+02  0.87032169977E+02  0.41800000000E+01 0. -1.
         -5    1    3    3    0  502  0.56033184928E+00 -0.20141213859E+02  0.52626063202E+02  0.56506259792E+02  0.41800000000E+01 0. -1.
        -11    1    1    2    0    0  0.83888563328E+02  0.59085923032E+01  0.33700890537E+02  0.90597751314E+02  0.00000000000E+00 0. -1.
         11    1    1    2    0    0 -0.14886370129E+02 -0.15696656433E+02 -0.15396899008E+02  0.26552844252E+02  0.00000000000E+00 0.  1.
</event>
<event>
 7    1  0.2878477E-009  0.1022667E+03  0.7561462E-02  0.1275600E+00
         -2   -1    0    0    0  501 -0.00000000000E+00  0.00000000000E+00  0.29696051732E+02  0.29696051732E+02  0.00000000000E+00 0.  1.
          2   -1    0    0  501    0  0.00000000000E+00 -0.00000000000E+00 -0.56104653062E+03  0.56104653062E+03  0.00000000000E+00 0. -1.
         25    2    1    2    0    0 -0.56208702332E+02 -0.12925360503E+02 -0.41577011869E+03  0.43799441421E+03  0.12509129515E+03 0.  0.
          5    1    3    3  502    0 -0.83370073740E+02  0.33831599841E+01 -0.16251341393E+03  0.18272957362E+03  0.41800000000E+01 0. -1.
         -5    1    3    3    0  502  0.27161371408E+02 -0.16308520488E+02 -0.25325670476E+03  0.25526484059E+03  0.41800000000E+01 0. -1.
        -11    1    1    2    0    0  0.41023704001E+01 -0.24524918445E+02 -0.69315057858E+02  0.73640194959E+02  0.00000000000E+00 0. -1.
         11    1    1    2    0    0  0.52106331932E+02  0.37450278949E+02 -0.46265302342E+02  0.79107973185E+02  0.00000000000E+00 0.  1.
</event>
<event>
 7    1  0.2878477E-009  0.1953494E+03  0.7561462E-02  0.1153723E+00
          1   -1    0    0  501    0  0.00000000000E+00  0.00000000000E+00  0.18407700542E+04  0.18407700542E+04  0.00000000000E+00 0. -1.
         -1   -1    0    0    0  501 -0.00000000000E+00 -0.00000000000E+00 -0.32695215377E+02  0.32695215377E+02  0.00000000000E+00 0.  1.
         25    2    1    2    0    0 -0.14372901194E+02 -0.16354706790E+03  0.14874629870E+04  0.15017163561E+04  0.12510656503E+03 0.  0.
          5    1    3    3  502    0  0.12430425750E+02  0.18306527409E+02  0.17001104738E+03  0.17149598555E+03  0.41800000000E+01 0.  1.
         -5    1    3    3    0  502 -0.26803326944E+02 -0.18185359531E+03  0.13174519396E+04  0.13302203705E+04  0.41800000000E+01 0.  1.
        -11    1    1    2    0    0  0.46493751180E+02  0.60039691012E+02  0.17007798031E+03  0.18626044342E+03  0.00000000000E+00 0. -1.
         11    1    1    2    0    0 -0.32120849987E+02  0.10350737689E+03  0.15053387155E+03  0.18548847015E+03  0.00000000000E+00 0.  1.
</event>
<event>
 7    1  0.4655699E-009  0.9037066E+02  0.7561462E-02  0.1301957E+00
         -2   -1    0    0    0  501 -0.00000000000E+00  0.00000000000E+00  0.12977640786E+02  0.12977640786E+02  0.00000000000E+00 0. -1.
          2   -1    0    0  501    0  0.00000000000E+00 -0.00000000000E+00 -0.20719807663E+04  0.20719807663E+04  0.00000000000E+00 0.  1.
         25    2    1    2    0    0 -0.46652392318E+02  0.20665044828E+01 -0.18182914587E+04  0.18231899805E+04  0.12512857477E+03 0.  0.
          5    1    3    3  502    0 -0.60373486626E+02  0.21330273518E+02 -0.43663103984E+03  0.44132083092E+03  0.41800000000E+01 0. -1.
         -5    1    3    3    0  502  0.13721094308E+02 -0.19263769035E+02 -0.13816604188E+04  0.13818691496E+04  0.41800000000E+01 0. -1.
        -11    1    1    2    0    0  0.39024944541E+02 -0.38805403004E+02 -0.82526354117E+02  0.99193773608E+02  0.00000000000E+00 0. -1.
         11    1    1    2    0    0  0.76274477770E+01  0.36738898521E+02 -0.15818531275E+03  0.16257465299E+03  0.00000000000E+00 0.  1.
</event>
<event>
 7    1  0.2878477E-009  0.9443612E+02  0.7561462E-02  0.1292451E+00
          2   -1    0    0  501    0  0.00000000000E+00  0.00000000000E+00  0.71096061375E+03  0.71096061375E+03  0.00000000000E+00 0.  1.
         -2   -1    0    0    0  501 -0.00000000000E+00 -0.00000000000E+00 -0.28293937405E+02  0.28293937405E+02  0.00000000000E+00 0. -1.
         25    2    1    2    0    0 -0.51087079178E+02  0.29886857988E+02  0.19282320859E+03  0.23734503414E+03  0.12509500998E+03 0.  0.
          5    1    3    3  502    0 -0.58898041834E+02  0.40056359373E+02  0.20629296184E+03  0.21828364520E+03  0.41800000000E+01 0.  1.
         -5    1    3    3    0  502  0.78109626558E+01 -0.10169501385E+02 -0.13469753243E+02  0.19061388944E+02  0.41800000000E+01 0.  1.
        -11    1    1    2    0    0 -0.24216607763E+02 -0.95593369506E+01  0.66012261013E+02  0.70960859765E+02  0.00000000000E+00 0.  1.
         11    1    1    2    0    0  0.75303686941E+02 -0.20327521038E+02  0.42383120674E+03  0.43094865725E+03  0.00000000000E+00 0. -1.
</event>
<event>
 7    1  0.2878477E-009  0.2390636E+03  0.7561462E-02  0.1120418E+00
         -2   -1    0    0    0  501 -0.00000000000E+00  0.00000000000E+00  0.75112294090E+03  0.75112294090E+03  0.00000000000E+00 0.  1.
          2   -1    0    0  501    0  0.00000000000E+00 -0.00000000000E+00 -0.99920279960E+02  0.99920279960E+02  0.00000000000E+00 0. -1.
         25    2    1    2    0    0  0.14690753863E+03 -0.18747996719E+03  0.20166086245E+03  0.33621721708E+03  0.12507737851E+03 0.  0.
          5    1    3    3  502    0  0.38198463038E+02 -0.39353884356E+02 -0.99968987536E+01  0.55904035428E+02  0.41800000000E+01 0. -1.
         -5    1    3    3    0  502  0.10870907559E+03 -0.14812608283E+03  0.21165776121E+03  0.28031318166E+03  0.41800000000E+01 0. -1.
        -11    1    1    2    0    0 -0.33430915416E+02  0.59889711140E+02  0.20805542076E+03  0.21906953625E+03  0.00000000000E+00 0.  1.
         11    1    1    2    0    0 -0.11347662322E+03  0.12759025605E+03  0.24148637772E+03  0.29575646752E+03  0.00000000000E+00 0. -1.
</event>
<event>
 7    1  0.2878477E-009  0.1493315E+03  0.7561462E-02  0.1201297E+00
          1   -1    0    0  501    0  0.00000000000E+00  0.00000000000E+00  0.28893416303E+03  0.28893416303E+03  0.00000000000E+00 0. -1.
         -1   -1    0    0    0  501 -0.00000000000E+00 -0.00000000000E+00 -0.26342114113E+03  0.26342114113E+03  0.00000000000E+00 0.  1.
         25    2    1    2    0    0 -0.24509462360E+02 -0.13532140408E+03 -0.20012173850E+03  0.27314042990E+03  0.12507752827E+03 0.  0.
          5    1    3    3  502    0  0.28144242142E+02 -0.41918998102E+02 -0.14272677477E+03  0.15145199042E+03  0.41800000000E+01 0. -1.
         -5    1    3    3    0  502 -0.52653704502E+02 -0.93402405978E+02 -0.57394963734E+02  0.12168843948E+03  0.41800000000E+01 0. -1.
        -11    1    1    2    0    0  0.27045836763E+02  0.65967133980E+02  0.18622249524E+03  0.19940400644E+03  0.00000000000E+00 0. -1.
         11    1    1    2    0    0 -0.25363744033E+01  0.69354270100E+02  0.39412265157E+02  0.79810867813E+02  0.00000000000E+00 0.  1.
</event>
<event>
 7    1  0.2878477E-009  0.1183776E+03  0.7561462E-02  0.1245798E+00
         -2   -1    0    0    0  501 -0.00000000000E+00  0.00000000000E+00  0.16851571011E+03  0.16851571011E+03  0.00000000000E+00 0.  1.
          2   -1    0    0  501    0  0.00000000000E+00 -0.00000000000E+00 -0.14307612745E+03  0.14307612745E+03  0.00000000000E+00 0. -1.
         25    2    1    2    0    0 -0.95953065140E+02  0.42949751592E+02 -0.31972622996E+02  0.16649843170E+03  0.12509119579E+03 0.  0.
          5    1    3    3  502    0 -0.34387188597E+02 -0.17371628881E+02 -0.63696725025E+02  0.74558684327E+02  0.41800000000E+01 0. -1.
         -5    1    3    3    0  502 -0.61565876543E+02  0.60321380473E+02  0.31724102029E+02  0.91939747369E+02  0.41800000000E+01 0. -1.
        -11    1    1    2    0    0  0.84420887650E+02 -0.21122092635E+02  0.74918456091E+02  0.11482945673E+03  0.00000000000E+00 0.  1.
         11    1    1    2    0    0  0.11532177491E+02 -0.21827658957E+02 -0.17506250434E+02  0.30263949139E+02  0.00000000000E+00 0. -1.
</event>
<event>
 7    1  0.2878477E-009  0.1621623E+03  0.7561462E-02  0.1186277E+00
          2   -1    0    0  501    0  0.00000000000E+00  0.00000000000E+00  0.37906187517E+03  0.37906187517E+03  0.00000000000E+00 0. -1.
         -2   -1    0    0    0  501 -0.00000000000E+00 -0.00000000000E+00 -0.82340151857E+02  0.82340151857E+02  0.00000000000E+00 0.  1.
         25    2    1    2    0    0 -0.11449199963E+03  0.68492567256E+02  0.20756809721E+03  0.27664319019E+03  0.12508912803E+03 0.  0.
          5    1    3    3  502    0  0.21651579810E+02  0.35166329039E+02  0.35071437934E+02  0.54340958448E+02  0.41800000000E+01 0. -1.
         -5    1    3    3    0  502 -0.13614357944E+03  0.33326238216E+02  0.17249665927E+03  0.22230223174E+03  0.41800000000E+01 0. -1.
        -11    1    1    2    0    0  0.29036616938E+02 -0.45706326890E+02 -0.64365052834E+01  0.54530927383E+02  0.00000000000E+00 0.  1.
         11    1    1    2    0    0  0.85455382695E+02 -0.22786240366E+02  0.95590131393E+02  0.13022790946E+03  0.00000000000E+00 0. -1.
</event>
<event>
 7    1  0.2878477E-009  0.1746247E+03  0.7561462E-02  0.1173109E+00
         -3   -1    0    0    0  501 -0.00000000000E+00  0.00000000000E+00  0.93621562157E+03  0.93621562157E+03  0.00000000000E+00 0.  1.
          3   -1    0    0  501    0  0.00000000000E+00 -0.00000000000E+00 -0.38344745214E+02  0.38344745214E+02  0.00000000000E+00 0. -1.
         25    2    1    2    0    0  0.10465477093E+03 -0.11416961933E+03  0.46209283823E+03  0.50315511324E+03  0.12509178146E+03 0.  0.
          5    1    3    3  502    0  0.11418510121E+03 -0.10964864486E+03  0.46517946935E+03  0.49139645273E+03  0.41800000000E+01 0. -1.
         -5    1    3    3    0  502 -0.95303302786E+01 -0.45209744641E+01 -0.30866311196E+01  0.11758660510E+02  0.41800000000E+01 0. -1.
        -11    1    1    2    0    0 -0.57422366668E+02  0.11893239794E+03  0.33097685902E+03  0.35635365114E+03  0.00000000000E+00 0.  1.
         11    1    1    2    0    0 -0.47232404263E+02 -0.47627786112E+01  0.10480117911E+03  0.11505160240E+03  0.00000000000E+00 0. -1.
</event>
<event>
 7    1  0.2878477E-009  0.1025853E+03  0.7561462E-02  0.1274951E+00
         -1   -1    0    0    0  501 -0.00000000000E+00  0.00000000000E+00  0.59510030826E+02  0.59510030826E+02  0.00000000000E+00 0.  1.
          1   -1    0    0  501    0  0.00000000000E+00 -0.00000000000E+00 -0.25927565572E+03  0.25927565572E+03  0.00000000000E+00 0. -1.
         25    2    1    2    0    0  0.60257380157E+01 -0.79909044306E+01 -0.34392418211E+02  0.13011528607E+03  0.12508790975E+03 0.  0.
          5    1    3    3  502    0  0.17852890008E+02 -0.59844932563E+02  0.64562776583E+01  0.62922949362E+02  0.41800000000E+01 0. -1.
         -5    1    3    3    0  502 -0.11827151992E+02  0.51854028133E+02 -0.40848695869E+02  0.67192336706E+02  0.41800000000E+01 0. -1.
        -11    1    1    2    0    0  0.18927471172E+02 -0.34846330849E+02 -0.56345240184E+02  0.68900667848E+02  0.00000000000E+00 0. -1.
         11    1    1    2    0    0 -0.24953209188E+02  0.42837235279E+02 -0.10902796650E+03  0.11976973263E+03  0.00000000000E+00 0.  1.
</event>
<event>
 7    1  0.2878477E-009  0.1049661E+03  0.7561462E-02  0.1270186E+00
          2   -1    0    0  501    0  0.00000000000E+00  0.00000000000E+00  0.59412397119E+03  0.59412397119E+03  0.00000000000E+00 0.  1.
         -2   -1    0    0    0  501 -0.00000000000E+00 -0.00000000000E+00 -0.24289316095E+02  0.24289316095E+02  0.00000000000E+00 0. -1.
         25    2    1    2    0    0 -0.47364705945E+02 -0.16730248351E+02  0.34634334277E+03  0.37165075551E+03  0.12508899397E+03 0.  0.
          5    1    3    3  502    0 -0.69725225469E+02 -0.47843603437E+02  0.29816656027E+03  0.30995384740E+03  0.41800000000E+01 0.  1.
         -5    1    3    3    0  502  0.22360519524E+02  0.31113355086E+02  0.48176782497E+02  0.61696908106E+02  0.41800000000E+01 0.  1.
        -11    1    1    2    0    0  0.41303895680E+02 -0.22496645233E+02  0.18707149771E+03  0.19289338014E+03  0.00000000000E+00 0.  1.
         11    1    1    2    0    0  0.60608102655E+01  0.39226893584E+02  0.36419814608E+02  0.53869151631E+02  0.00000000000E+00 0. -1.
</event>
<event>
 7    1  0.3382213E-009  0.1152657E+03  0.7561462E-02  0.1251118E+00
         -1   -1    0    0    0  501 -0.00000000000E+00  0.00000000000E+00  0.37780787569E+02  0.37780787569E+02  0.00000000000E+00 0.  1.
          1   -1    0    0  501    0  0.00000000000E+00 -0.00000000000E+00 -0.52702908842E+03  0.52702908842E+03  0.00000000000E+00 0. -1.
         25    2    1    2    0    0 -0.83873979543E+02 -0.13653626311E+02 -0.32703869730E+03  0.36030793108E+03  0.12508489002E+03 0.  0.
          5    1    3    3  502    0 -0.97559366429E+02 -0.10099673611E+02 -0.13093061377E+03  0.16364636081E+03  0.41800000000E+01 0.  1.
         -5    1    3    3    0  502  0.13685386886E+02 -0.35539526997E+01 -0.19610808354E+03  0.19666157027E+03  0.41800000000E+01 0.  1.
        -11    1    1    2    0    0  0.23593985216E+02  0.44152422240E+02 -0.37071428349E+02  0.62292883445E+02  0.00000000000E+00 0.  1.
         11    1    1    2    0    0  0.60279994327E+02 -0.30498795930E+02 -0.12513817520E+03  0.14220906146E+03  0.00000000000E+00 0. -1.
</event>
<event>
 7    1  0.2878477E-009  0.8718090E+02  0.7561462E-02  0.1309826E+00
          1   -1    0    0  501    0  0.00000000000E+00  0.00000000000E+00  0.60606762285E+03  0.60606762285E+03  0.00000000000E+00 0. -1.
         -1   -1    0    0    0  501 -0.00000000000E+00 -0.00000000000E+00 -0.22142134939E+02  0.22142134939E+02  0.00000000000E+00 0.  1.
         25    2    1    2    0    0 -0.24709932466E+02 -0.30827592285E+02  0.29989501240E+03  0.32733073923E+03  0.12508986039E+03 0.  0.
          5    1    3    3  502    0  0.14360734411E+02 -0.44888577031E+02  0.27434912020E+03  0.27839922269E+03  0.41800000000E+01 0.  1.
         -5    1    3    3    0  502 -0.39070666877E+02  0.14060984746E+02  0.25545892199E+02  0.48931516536E+02  0.41800000000E+01 0.  1.
        -11    1    1    2    0    0  0.52095448831E+02  0.18522275077E+02  0.24746808450E+03  0.25356944474E+03  0.00000000000E+00 0. -1.
         11    1    1    2    0    0 -0.27385516364E+02  0.12305317208E+02  0.36562391012E+02  0.47309573816E+02  0.00000000000E+00 0.  1.
</event>
<event>
 7    1  0.3388639E-009  0.1008536E+03  0.7561462E-02  0.1278511E+00
         -4   -1    0    0    0  501 -0.00000000000E+00  0.00000000000E+00  0.17686117924E+02  0.17686117924E+02  0.00000000000E+00 0. -1.
          4   -1    0    0  501    0  0.00000000000E+00 -0.00000000000E+00 -0.92308588772E+03  0.92308588772E+03  0.00000000000E+00 0.  1.
         25    2    1    2    0    0 -0.58952180407E+01  0.17437112809E+01 -0.74792542013E+03  0.75833897554E+03  0.12509106135E+03 0.  0.
          5    1    3    3  502    0 -0.90012802658E+01 -0.61241584114E+02 -0.37222208052E+03  0.37735699848E+03  0.41800000000E+01 0. -1.
         -5    1    3    3    0  502  0.31060622251E+01  0.62985295395E+02 -0.37570333960E+03  0.38098197706E+03  0.41800000000E+01 0. -1.
        -11    1    1    2    0    0  0.29289302082E+02  0.26703741780E+02 -0.29899956959E+02  0.49648368227E+02  0.00000000000E+00 0. -1.
         11    1    1    2    0    0 -0.23394084041E+02 -0.28447453061E+02 -0.12757439271E+03  0.13278466188E+03  0.00000000000E+00 0.  1.
</event>
<event>
 7    1  0.2878477E-009  0.5733535E+03  0.7561462E-02  0.9962285E-01
         -1   -1    0    0    0  501 -0.00000000000E+00  0.00000000000E+00  0.55467096353E+03  0.55467096353E+03  0.00000000000E+00 0.  1.
          1   -1    0    0  501    0  0.00000000000E+00 -0.00000000000E+00 -0.60899138094E+03  0.60899138094E+03  0.00000000000E+00 0. -1.
         25    2    1    2    0    0 -0.18075697468E+03  0.53768578706E+03  0.18582954854E+02  0.58118165490E+03  0.12509076817E+03 0.  0.
          5    1    3    3  502    0  0.11117368755E+02  0.91591024011E+02  0.24373635639E+02  0.95519935520E+02  0.41800000000E+01 0. -1.
         -5    1    3    3    0  502 -0.19187434344E+03  0.44609476305E+03 -0.57906807852E+01  0.48566171938E+03  0.41800000000E+01 0. -1.
        -11    1    1    2    0    0  0.16924784541E+03 -0.45920488255E+03 -0.98335174606E+02  0.49918309657E+03  0.00000000000E+00 0. -1.
         11    1    1    2    0    0  0.11509129275E+02 -0.78480904504E+02  0.25431802349E+02  0.83297592997E+02  0.00000000000E+00 0.  1.
</event>
<event>
 7    1  0.2878477E-009  0.1243751E+03  0.7561462E-02  0.1236049E+00
         -1   -1    0    0    0  501 -0.00000000000E+00  0.00000000000E+00  0.50366471380E+03  0.50366471380E+03  0.00000000000E+00 0.  1.
          1   -1    0    0  501    0  0.00000000000E+00 -0.00000000000E+00 -0.48680076553E+02  0.48680076553E+02  0.00000000000E+00 0. -1.
         25    2    1    2    0    0  0.92565617900E+02  0.44871633233E+02  0.16134599459E+03  0.22860931980E+03  0.12509130283E+03 0.  0.
          5    1    3    3  502    0 -0.10761166997E+02 -0.92359381907E+01 -0.12404617329E+02  0.19299020713E+02  0.41800000000E+01 0. -1.
         -5    1    3    3    0  502  0.10332678490E+03  0.54107571424E+02  0.17375061192E+03  0.20931029909E+03  0.41800000000E+01 0. -1.
        -11    1    1    2    0    0 -0.37451521628E+02 -0.49357880228E+02  0.23544066427E+03  0.24345661463E+03  0.00000000000E+00 0.  1.
         11    1    1    2    0    0 -0.55114096272E+02  0.44862469949E+01  0.58197978382E+02  0.80278855919E+02  0.00000000000E+00 0. -1.
</event>
<event>
 7    1  0.2878477E-009  0.1022687E+03  0.7561462E-02  0.1275596E+00
         -1   -1    0    0    0  501 -0.00000000000E+00  0.00000000000E+00  0.39397286689E+03  0.39397286689E+03  0.00000000000E+00 0.  1.
          1   -1    0    0  501    0  0.00000000000E+00 -0.00000000000E+00 -0.40433376745E+02  0.40433376745E+02  0.00000000000E+00 0. -1.
         25    2    1    2    0    0  0.14879507540E+02 -0.46795894043E+02  0.27145284714E+03  0.30289776082E+03  0.12509656209E+03 0.  0.
          5    1    3    3  502    0  0.59439217637E+02 -0.62257242344E+02  0.19107725616E+03  0.20961148594E+03  0.41800000000E+01 0.  1.
         -5    1    3    3    0  502 -0.44559710097E+02  0.15461348301E+02  0.80375590985E+02  0.93286274883E+02  0.41800000000E+01 0.  1.
        -11    1    1    2    0    0  0.14966569523E+02 -0.62342111532E+00  0.73274033463E+02  0.74789510208E+02  0.00000000000E+00 0.  1.
         11    1    1    2    0    0 -0.29846077063E+02  0.47419315158E+02  0.88126095385E+01  0.56718972602E+02  0.00000000000E+00 0. -1.
</event>
<event>
 7    1  0.2878477E-009  0.1222576E+03  0.7561462E-02  0.1239419E+00
          2   -1    0    0  501    0  0.00000000000E+00  0.00000000000E+00  0.96954140302E+03  0.96954140302E+03  0.00000000000E+00 0. -1.
         -2   -1    0    0    0  501 -0.00000000000E+00 -0.00000000000E+00 -0.21377467134E+02  0.21377467134E+02  0.00000000000E+00 0.  1.
         25    2    1    2    0    0 -0.24098576795E+02  0.67745883819E+02  0.72342771229E+03  0.73767523545E+03  0.12508737711E+03 0.  0.
          5    1    3    3  502    0 -0.66982843037E+02  0.38630321193E+02  0.25853160469E+03  0.26987972506E+03  0.41800000000E+01 0. -1.
         -5    1    3    3    0  502  0.42884266242E+02  0.29115562626E+02  0.46489610760E+03  0.46779551039E+03  0.41800000000E+01 0. -1.
        -11    1    1    2    0    0  0.22683738145E+02  0.18222022304E+02  0.76936882472E+02  0.82254957039E+02  0.00000000000E+00 0. -1.
         11    1    1    2    0    0  0.14148386498E+01 -0.85967906123E+02  0.14779934112E+03  0.17098867766E+03  0.00000000000E+00 0.  1.
</event>
<event>
 7    1  0.2878477E-009  0.2099607E+03  0.7561462E-02  0.1141597E+00
          2   -1    0    0  501    0  0.00000000000E+00  0.00000000000E+00  0.18305911508E+04  0.18305911508E+04  0.00000000000E+00 0. -1.
         -2   -1    0    0    0  501 -0.00000000000E+00 -0.00000000000E+00 -0.24810922183E+02  0.24810922183E+02  0.00000000000E+00 0.  1.
         25    2    1    2    0    0 -0.69004754940E+02  0.15876741899E+03  0.94094116414E+03  0.96487640276E+03  0.12508976254E+03 0.  0.
          5    1    3    3  502    0  0.16242679691E+02 -0.94812271664E+01  0.17437708518E+03  0.17543819010E+03  0.41800000000E+01 0. -1.
         -5    1    3    3    0  502 -0.85247434631E+02  0.16824864615E+03  0.76656407897E+03  0.78943821266E+03  0.41800000000E+01 0. -1.
        -11    1    1    2    0    0  0.81176778452E+02 -0.36296736353E+02  0.38807999959E+03  0.39813717298E+03  0.00000000000E+00 0.  1.
         11    1    1    2    0    0 -0.12172023512E+02 -0.12247068264E+03  0.47675906487E+03  0.49238849723E+03  0.00000000000E+00 0. -1.
</event>
<event>
 7    1  0.2878477E-009  0.1438946E+03  0.7561462E-02  0.1208182E+00
         -2   -1    0    0    0  501 -0.00000000000E+00  0.00000000000E+00  0.12258816049E+03  0.12258816049E+03  0.00000000000E+00 0.  1.
          2   -1    0    0  501    0  0.00000000000E+00 -0.00000000000E+00 -0.17455030984E+03  0.17455030984E+03  0.00000000000E+00 0. -1.
         25    2    1    2    0    0 -0.88115950889E+02  0.42253160251E+02 -0.19996911220E+02  0.15999237776E+03  0.12509170288E+03 0.  0.
          5    1    3    3  502    0  0.48098441068E+01  0.62321437759E+02  0.50752719868E+00  0.62648433249E+02  0.41800000000E+01 0. -1.
         -5    1    3    3    0  502 -0.92925794995E+02 -0.20068277507E+02 -0.20504438419E+02  0.97343944509E+02  0.41800000000E+01 0. -1.
        -11    1    1    2    0    0  0.41748418730E+02 -0.65840351743E+02 -0.39516519385E+01  0.78060860469E+02  0.00000000000E+00 0.  1.
         11    1    1    2    0    0  0.46367532158E+02  0.23587191492E+02 -0.28013586188E+02  0.59085232098E+02  0.00000000000E+00 0. -1.
</event>
<event>
 7    1  0.2878477E-009  0.9888278E+02  0.7561462E-02  0.1282663E+00
          1   -1    0    0  501    0  0.00000000000E+00  0.00000000000E+00  0.44740959312E+02  0.44740959312E+02  0.00000000000E+00 0. -1.
         -1   -1    0    0    0  501 -0.00000000000E+00 -0.00000000000E+00 -0.28666132656E+03  0.28666132656E+03  0.00000000000E+00 0.  1.
         25    2    1    2    0    0 -0.12350506448E+02 -0.29055307334E+02 -0.15429000711E+03  0.20112690142E+03  0.12509947357E+03 0.  0.
          5    1    3    3  502    0  0.50741536651E+01  0.38749709344E+02 -0.97865180604E+01  0.40503522629E+02  0.41800000000E+01 0. -1.
         -5    1    3    3    0  502 -0.17424660113E+02 -0.67805016678E+02 -0.14450348905E+03  0.16062337880E+03  0.41800000000E+01 0. -1.
        -11    1    1    2    0    0 -0.29520076704E+02 -0.99037110387E+01 -0.58080377983E+02  0.65900293835E+02  0.00000000000E+00 0.  1.
         11    1    1    2    0    0  0.41870583152E+02  0.38959018373E+02 -0.29549982150E+02  0.64375090610E+02  0.00000000000E+00 0. -1.
</event>
<event>
 7    1  0.2878477E-009  0.9735443E+02  0.7561462E-02  0.1285960E+00
         -2   -1    0    0    0  501 -0.00000000000E+00  0.00000000000E+00  0.16775770756E+04  0.16775770756E+04  0.00000000000E+00 0.  1.
          2   -1    0    0  501    0  0.00000000000E+00 -0.00000000000E+00 -0.10088371639E+02  0.10088371639E+02  0.00000000000E+00 0. -1.
         25    2    1    2    0    0 -0.48583586368E+02  0.11242954780E+02  0.12600876812E+04  0.12672633985E+04  0.12509511600E+03 0.  0.
          5    1    3    3  502    0 -0.47436776886E+02 -0.26236899955E+02  0.22454677843E+03  0.23103538868E+03  0.41800000000E+01 0.  1.
         -5    1    3    3    0  502 -0.11468094824E+01  0.37479854735E+02  0.10355409028E+04  0.10362280099E+04  0.41800000000E+01 0.  1.
        -11    1    1    2    0    0  0.68719900971E+02 -0.30099099972E+02  0.26828260526E+03  0.27857483176E+03  0.00000000000E+00 0. -1.
         11    1    1    2    0    0 -0.20136314603E+02  0.18856145192E+02  0.13911841746E+03  0.14182721690E+03  0.00000000000E+00 0.  1.
</event>
<event>
 7    1  0.2878477E-009  0.1013195E+03  0.7561462E-02  0.1277545E+00
          2   -1    0    0  501    0  0.00000000000E+00  0.00000000000E+00  0.13614247628E+03  0.13614247628E+03  0.00000000000E+00 0. -1.
         -2   -1    0    0    0  501 -0.00000000000E+00 -0.00000000000E+00 -0.14339906942E+03  0.14339906942E+03  0.00000000000E+00 0.  1.
         25    2    1    2    0    0  0.61460859167E+02  0.49205928083E+02 -0.39561374341E+02  0.15300856212E+03  0.12509139528E+03 0.  0.
          5    1    3    3  502    0  0.42347669252E+02  0.49465267340E+02  0.36297597197E+02  0.74666764537E+02  0.41800000000E+01 0. -1.
         -5    1    3    3    0  502  0.19113189915E+02 -0.25933925691E+00 -0.75858971538E+02  0.78341797582E+02  0.41800000000E+01 0. -1.
        -11    1    1    2    0    0  0.11450053403E+02 -0.43168831900E+02  0.29094098200E+02  0.53302141801E+02  0.00000000000E+00 0. -1.
         11    1    1    2    0    0 -0.72910912570E+02 -0.60370961836E+01  0.32106830031E+01  0.73230841777E+02  0.00000000000E+00 0.  1.
</event>
<event>
 7    1  0.2878477E-009  0.9697039E+02  0.7561462E-02  0.1286799E+00
          2   -1    0    0  501    0  0.00000000000E+00  0.00000000000E+00  0.53675246963E+02  0.53675246963E+02  0.00000000000E+00 0. -1.
         -2   -1    0    0    0  501 -0.00000000000E+00 -0.00000000000E+00 -0.33268468383E+03  0.33268468383E+03  0.00000000000E+00 0.  1.
         25    2    1    2    0    0  0.21971408321E+02 -0.17655282670E+02 -0.42673827196E+02  0.13514659619E+03  0.12509634345E+03 0.  0.
          5    1    3    3  502    0 -0.36325517392E+02  0.32746110328E+02 -0.28248181291E+02  0.56632880040E+02  0.41800000000E+01 0.  1.
         -5    1    3    3    0  502  0.58296925713E+02 -0.50401392998E+02 -0.14425645905E+02  0.78513716149E+02  0.41800000000E+01 0.  1.
        -11    1    1    2    0    0 -0.28074470710E+02 -0.16779966985E+02 -0.39445638370E+02  0.51241600132E+02  0.00000000000E+00 0. -1.
         11    1    1    2    0    0  0.61030623885E+01  0.34435249655E+02 -0.19688997131E+03  0.19997173448E+03  0.00000000000E+00 0.  1.
</event>
<event>
 7    1  0.2878477E-009  0.1264018E+03  0.7561462E-02  0.1232895E+00
         -2   -1    0    0    0  501 -0.00000000000E+00  0.00000000000E+00  0.17294918871E+03  0.17294918871E+03  0.00000000000E+00 0.  1.
          2   -1    0    0  501    0  0.00000000000E+00 -0.00000000000E+00 -0.14218034165E+03  0.14218034165E+03  0.00000000000E+00 0. -1.
         25    2    1    2    0    0 -0.59914952425E+02 -0.91222593485E+02  0.46762035194E+02  0.17247046680E+03  0.12509200972E+03 0.  0.
          5    1    3    3  502    0 -0.73281846836E+02 -0.70561449954E+02  0.80995585902E+02  0.13010343820E+03  0.41800000000E+01 0. -1.
         -5    1    3    3    0  502  0.13366894411E+02 -0.20661143531E+02 -0.34233550708E+02  0.42367028599E+02  0.41800000000E+01 0. -1.
        -11    1    1    2    0    0  0.41701431361E+02  0.10130648983E+02 -0.37300384659E+02  0.56859107644E+02  0.00000000000E+00 0. -1.
         11    1    1    2    0    0  0.18213521065E+02  0.81091944502E+02  0.21307196519E+02  0.85799955922E+02  0.00000000000E+00 0.  1.
</event>
<event>
 7    1  0.2878477E-009  0.1515484E+03  0.7561462E-02  0.1198583E+00
          1   -1    0    0  501    0  0.00000000000E+00  0.00000000000E+00  0.78276968987E+03  0.78276968987E+03  0.00000000000E+00 0. -1.
         -1   -1    0    0    0  501 -0.00000000000E+00 -0.00000000000E+00 -0.35675928110E+02  0.35675928110E+02  0.00000000000E+00 0.  1.
         25    2    1    2    0    0  0.55110705127E+00  0.12672191916E+03  0.38752567949E+03  0.42647750400E+03  0.12509260824E+03 0.  0.
          5    1    3    3  502    0 -0.73511245897E+01 -0.13462246389E+02  0.14761892286E+03  0.14847252237E+03  0.41800000000E+01 0. -1.
         -5    1    3    3    0  502  0.79022316410E+01  0.14018416555E+03  0.23990675663E+03  0.27800498163E+03  0.41800000000E+01 0. -1.
        -11    1    1    2    0    0 -0.37256024879E+02 -0.62841903503E+02  0.24581040210E+03  0.25643687333E+03  0.00000000000E+00 0.  1.
         11    1    1    2    0    0  0.36704917828E+02 -0.63880015661E+02  0.11375768017E+03  0.13553124065E+03  0.00000000000E+00 0. -1.
</event>
<event>
 7    1  0.2878477E-009  0.1584171E+03  0.7561462E-02  0.1190495E+00
          2   -1    0    0  501    0  0.00000000000E+00  0.00000000000E+00  0.35508353139E+03  0.35508353139E+03  0.00000000000E+00 0. -1.
         -2   -1    0    0    0  501 -0.00000000000E+00 -0.00000000000E+00 -0.11297625745E+03  0.11297625745E+03  0.00000000000E+00 0.  1.
         25    2    1    2    0    0 -0.96747746520E+02  0.66332405047E+02  0.25871610763E+03  0.31038998649E+03  0.12509118654E+03 0.  0.
          5    1    3    3  502    0 -0.25390181491E+02 -0.34734613305E+02  0.10124810790E+03  0.11008999242E+03  0.41800000000E+01 0. -1.
         -5    1    3    3    0  502 -0.71357565030E+02  0.10106701835E+03  0.15746799973E+03  0.20029999407E+03  0.41800000000E+01 0. -1.
        -11    1    1    2    0    0  0.49920420242E+01 -0.57411878381E+02 -0.29236662974E+02  0.64620636988E+02  0.00000000000E+00 0.  1.
         11    1    1    2    0    0  0.91755704496E+02 -0.89205266657E+01  0.12627829288E+02  0.93049165370E+02  0.00000000000E+00 0. -1.
</event>
<event>
 7    1  0.2878477E-009  0.1327372E+03  0.7561462E-02  0.1223450E+00
          2   -1    0    0  501    0  0.00000000000E+00  0.00000000000E+00  0.44141429828E+02  0.44141429828E+02  0.00000000000E+00 0. -1.
         -2   -1    0    0    0  501 -0.00000000000E+00 -0.00000000000E+00 -0.54744597166E+03  0.54744597166E+03  0.00000000000E+00 0.  1.
         25    2    1    2    0    0 -0.33147333820E+02 -0.94955551206E+02 -0.35971991794E+03  0.39390373740E+03  0.12508570076E+03 0.  0.
          5    1    3    3  502    0 -0.78311151753E+02 -0.55765022567E+02 -0.26370416761E+03  0.28071290431E+03  0.41800000000E+01 0. -1.
         -5    1    3    3    0  502  0.45163817933E+02 -0.39190528639E+02 -0.96015750334E+02  0.11319083310E+03  0.41800000000E+01 0. -1.
        -11    1    1    2    0    0 -0.86644070531E+01  0.35989217724E+02 -0.98309969491E-01  0.37017636429E+02  0.00000000000E+00 0. -1.
         11    1    1    2    0    0  0.41811740873E+02  0.58966333482E+02 -0.14348631392E+03  0.16066602765E+03  0.00000000000E+00 0.  1.
</event>
<event>
 7    1  0.2878477E-009  0.1115876E+03  0.7561462E-02  0.1257658E+00
         -2   -1    0    0    0  501 -0.00000000000E+00  0.00000000000E+00  0.15074588509E+02  0.15074588509E+02  0.00000000000E+00 0.  1.
          2   -1    0    0  501    0  0.00000000000E+00 -0.00000000000E+00 -0.12865330516E+04  0.12865330516E+04  0.00000000000E+00 0. -1.
         25    2    1    2    0    0  0.66310865558E+01  0.24593672885E+02 -0.10756112110E+04  0.10831600074E+04  0.12508918584E+03 0.  0.
          5    1    3    3  502    0 -0.29006739331E+01  0.75321249216E+02 -0.67837189682E+03  0.68255959981E+03  0.41800000000E+01 0.  1.
         -5    1    3    3    0  502  0.95317604889E+01 -0.50727576331E+02 -0.39723931413E+03  0.40060040758E+03  0.41800000000E+01 0.  1.
        -11    1    1    2    0    0 -0.38980257575E+02  0.17567867037E+02 -0.73014484402E+02  0.84612087584E+02  0.00000000000E+00 0.  1.
         11    1    1    2    0    0  0.32349171019E+02 -0.42161539922E+02 -0.12283276778E+03  0.13383554518E+03  0.00000000000E+00 0. -1.
</event>
<event>
 7    1  0.3889890E-009  0.1249227E+03  0.7561462E-02  0.1235190E+00
         -2   -1    0    0    0  501 -0.00000000000E+00  0.00000000000E+00  0.44123899686E+02  0.44123899686E+02  0.00000000000E+00 0.  1.
          2   -1    0    0  501    0  0.00000000000E+00 -0.00000000000E+00 -0.45535806285E+03  0.45535806285E+03  0.00000000000E+00 0. -1.
         25    2    1    2    0    0 -0.87888012007E+02  0.22724146015E+02 -0.23073616150E+03  0.27771763423E+03  0.12508884312E+03 0.  0.
          5    1    3    3  502    0 -0.92667286710E+01 -0.44739751893E+02 -0.41143360210E+02  0.61626018442E+02  0.41800000000E+01 0. -1.
         -5    1    3    3    0  502 -0.78621283336E+02  0.67463897908E+02 -0.18959280129E+03  0.21609161579E+03  0.41800000000E+01 0. -1.
        -11    1    1    2    0    0  0.37966365796E+02  0.11600190477E+02 -0.10167326324E+02  0.40980286425E+02  0.00000000000E+00 0.  1.
         11    1    1    2    0    0  0.49921646211E+02 -0.34324336492E+02 -0.17033067534E+03  0.18078404188E+03  0.00000000000E+00 0. -1.
</event>
<event>
 7    1  0.2878477E-009  0.8888053E+02  0.7561462E-02  0.1305586E+00
         -1   -1    0    0    0  501 -0.00000000000E+00  0.00000000000E+00  0.12332393311E+03  0.12332393311E+03  0.00000000000E+00 0.  1.
          1   -1    0    0  501    0  0.00000000000E+00 -0.00000000000E+00 -0.17609850407E+03  0.17609850407E+03  0.00000000000E+00 0. -1.
         25    2    1    2    0    0  0.25962319778E+02  0.38345479128E+02 -0.11849379805E+03  0.17841469893E+03  0.12508639734E+03 0.  0.
          5    1    3    3  502    0 -0.47208140423E+02  0.94643973295E+01 -0.20024867177E+02  0.52313010280E+02  0.41800000000E+01 0.  1.
         -5    1    3    3    0  502  0.73170460201E+02  0.28881081799E+02 -0.98468930876E+02  0.12610168865E+03  0.41800000000E+01 0.  1.
        -11    1    1    2    0    0 -0.16725024935E+02 -0.72676451333E+01  0.82506578484E+02  0.84497814280E+02  0.00000000000E+00 0.  1.
         11    1    1    2    0    0 -0.92372948429E+01 -0.31077833995E+02 -0.16787351392E+02  0.36509923974E+02  0.00000000000E+00 0. -1.
</event>
<event>
 7    1  0.2878477E-009  0.1118457E+03  0.7561462E-02  0.1257190E+00
         -2   -1    0    0    0  501 -0.00000000000E+00  0.00000000000E+00  0.10917377503E+03  0.10917377503E+03  0.00000000000E+00 0.  1.
          2   -1    0    0  501    0  0.00000000000E+00 -0.00000000000E+00 -0.17433156706E+03  0.17433156706E+03  0.00000000000E+00 0. -1.
         25    2    1    2    0    0  0.61637836522E+02  0.59887776503E+02 -0.40639392150E+02  0.15711514378E+03  0.12509132482E+03 0.  0.
          5    1    3    3  502    0  0.18509133231E+02  0.63059760305E+02 -0.76385625393E+02  0.10085314844E+03  0.41800000000E+01 0.  1.
         -5    1    3    3    0  502  0.43128703291E+02 -0.31719838019E+01  0.35746233243E+02  0.56261995342E+02  0.41800000000E+01 0.  1.
        -11    1    1    2    0    0 -0.72436726102E+02 -0.69165724312E+02 -0.25197684257E+01  0.10018645588E+03  0.00000000000E+00 0.  1.
         11    1    1    2    0    0  0.10798889580E+02  0.92779478091E+01 -0.21998631452E+02  0.26203742432E+02  0.00000000000E+00 0. -1.
</event>
<event>
 7    1  0.2878477E-009  0.1141395E+03  0.7561462E-02  0.1253091E+00
         -3   -1    0    0    0  501 -0.00000000000E+00  0.00000000000E+00  0.12663017751E+02  0.12663017751E+02  0.00000000000E+00 0.  1.
          3   -1    0    0  501    0  0.00000000000E+00 -0.00000000000E+00 -0.11301803376E+04  0.11301803376E+04  0.00000000000E+00 0. -1.
         25    2    1    2    0    0 -0.85669903315E+01  0.36043787674E+02 -0.75943052255E+03  0.77055512881E+03  0.12509172638E+03 0.  0.
          5    1    3    3  502    0  0.35520338227E+02 -0.30527739568E+02 -0.37200484970E+03  0.37496495558E+03  0.41800000000E+01 0.  1.
         -5    1    3    3    0  502 -0.44087328558E+02  0.66571527242E+02 -0.38742567285E+03  0.39559017323E+03  0.41800000000E+01 0.  1.
        -11    1    1    2    0    0  0.51564343071E+01  0.32381969040E+02 -0.13457799452E+03  0.13851504374E+03  0.00000000000E+00 0. -1.
         11    1    1    2    0    0  0.34105560244E+01 -0.68425756714E+02 -0.22350880276E+03  0.23377318278E+03  0.00000000000E+00 0.  1.
</event>
<event>
 7    1  0.2878477E-009  0.1233605E+03  0.7561462E-02  0.1237654E+00
          2   -1    0    0  501    0  0.00000000000E+00  0.00000000000E+00  0.36169946337E+02  0.36169946337E+02  0.00000000000E+00 0. -1.
         -2   -1    0    0    0  501 -0.00000000000E+00 -0.00000000000E+00 -0.64619281244E+03  0.64619281244E+03  0.00000000000E+00 0.  1.
         25    2    1    2    0    0 -0.39104885406E+02  0.63065873240E+01 -0.11698534408E+03  0.17578872300E+03  0.12508852584E+03 0.  0.
          5    1    3    3  502    0 -0.69989959723E+02 -0.35371691310E+02 -0.61779694537E+02  0.99919738117E+02  0.41800000000E+01 0. -1.
         -5    1    3    3    0  502  0.30885074317E+02  0.41678278634E+02 -0.55205649548E+02  0.75868984885E+02  0.41800000000E+01 0. -1.
        -11    1    1    2    0    0  0.20248139030E+02 -0.57834619299E+02 -0.27403230758E+03  0.28079981467E+03  0.00000000000E+00 0.  1.
         11    1    1    2    0    0  0.18856746376E+02  0.51528031975E+02 -0.21900521444E+03  0.22577422111E+03  0.00000000000E+00 0. -1.
</event>
<event>
 7    1  0.2878477E-009  0.7399022E+02  0.7561462E-02  0.1347027E+00
         -1   -1    0    0    0  501 -0.00000000000E+00  0.00000000000E+00  0.34916013101E+02  0.34916013101E+02  0.00000000000E+00 0.  1.
          1   -1    0    0  501    0  0.00000000000E+00 -0.00000000000E+00 -0.45561530718E+03  0.45561530718E+03  0.00000000000E+00 0. -1.
         25    2    1    2    0    0 -0.33021606362E+02  0.55677565398E+02 -0.24634746045E+03  0.28376818180E+03  0.12508753717E+03 0.  0.
          5    1    3    3  502    0 -0.11866179539E+02  0.10322201650E+02 -0.23054668190E+03  0.23112031282E+03  0.41800000000E+01 0.  1.
         -5    1    3    3    0  502 -0.21155426823E+02  0.45355363748E+02 -0.15800778545E+02  0.52647868974E+02  0.41800000000E+01 0.  1.
        -11    1    1    2    0    0  0.27121108965E+01 -0.50697757786E+02 -0.16785847692E+03  0.17536843064E+03  0.00000000000E+00 0. -1.
         11    1    1    2    0    0  0.30309495465E+02 -0.49798076124E+01 -0.64933567066E+01  0.31394707843E+02  0.00000000000E+00 0.  1.
</event>
<event>
 7    1  0.2878477E-009  0.7706212E+02  0.7561462E-02  0.1337602E+00
         -1   -1    0    0    0  501 -0.00000000000E+00  0.00000000000E+00  0.52897712746E+02  0.52897712746E+02  0.00000000000E+00 0.  1.
          1   -1    0    0  501    0  0.00000000000E+00 -0.00000000000E+00 -0.93926952598E+03  0.93926952598E+03  0.00000000000E+00 0. -1.
         25    2    1    2    0    0  0.17282154301E+02 -0.52058419625E+02 -0.87497024072E+03  0.88556700295E+03  0.12508893897E+03 0.  0.
          5    1    3    3  502    0  0.34735192224E+02 -0.24764310464E+02 -0.82344356573E+03  0.82455841697E+03  0.41800000000E+01 0.  1.
         -5    1    3    3    0  502 -0.17453037923E+02 -0.27294109161E+02 -0.51526674990E+02  0.61008585979E+02  0.41800000000E+01 0.  1.
        -11    1    1    2    0    0 -0.32227505260E+02  0.96668761960E+01 -0.40805484720E+02  0.52888072132E+02  0.00000000000E+00 0. -1.
         11    1    1    2    0    0  0.14945350959E+02  0.42391543429E+02  0.29403912212E+02  0.53712163640E+02  0.00000000000E+00 0.  1.
</event>
<event>
 7    1  0.2878477E-009  0.9621505E+02  0.7561462E-02  0.1288463E+00
          2   -1    0    0  501    0  0.00000000000E+00  0.00000000000E+00  0.54923501211E+03  0.54923501211E+03  0.00000000000E+00 0. -1.
         -2   -1    0    0    0  501 -0.00000000000E+00 -0.00000000000E+00 -0.20802832360E+02  0.20802832360E+02  0.00000000000E+00 0.  1.
         25    2    1    2    0    0  0.40691850046E+02 -0.28581985557E+02  0.38418999729E+03  0.40708761472E+03  0.12508243476E+03 0.  0.
          5    1    3    3  502    0 -0.11176270936E+02  0.42656014796E+02  0.96595083978E+02  0.10626630359E+03  0.41800000000E+01 0. -1.
         -5    1    3    3    0  502  0.51868120982E+02 -0.71238000353E+02  0.28759491331E+03  0.30082131113E+03  0.41800000000E+01 0. -1.
        -11    1    1    2    0    0  0.98205029184E+00  0.16497514260E+02  0.52468302965E+01  0.17339597103E+02  0.00000000000E+00 0.  1.
         11    1    1    2    0    0 -0.41673900338E+02  0.12084471298E+02  0.13899535217E+03  0.14561063265E+03  0.00000000000E+00 0. -1.
</event>
<event>
 7    1  0.2878477E-009  0.1347097E+03  0.7561462E-02  0.1220630E+00
          4   -1    0    0  501    0  0.00000000000E+00  0.00000000000E+00  0.38493998707E+02  0.38493998707E+02  0.00000000000E+00 0. -1.
         -4   -1    0    0    0  501 -0.00000000000E+00 -0.00000000000E+00 -0.58353316329E+03  0.58353316329E+03  0.00000000000E+00 0.  1.
         25    2    1    2    0    0 -0.81086053032E+02 -0.55697336831E+02 -0.23283121511E+03  0.28201946127E+03  0.12508980966E+03 0.  0.
          5    1    3    3  502    0  0.17452467802E+02 -0.26560271882E+02 -0.55199457931E+01  0.32526587223E+02  0.41800000000E+01 0. -1.
         -5    1    3    3    0  502 -0.98538520834E+02 -0.29137064948E+02 -0.22731126932E+03  0.24949287405E+03  0.41800000000E+01 0. -1.
        -11    1    1    2    0    0  0.23831678423E+02  0.71303215423E+02 -0.18184750296E+03  0.19677553649E+03  0.00000000000E+00 0.  1.
         11    1    1    2    0    0  0.57254374609E+02 -0.15605878592E+02 -0.13036044651E+03  0.14323216424E+03  0.00000000000E+00 0. -1.
</event>
<event>
 7    1  0.2878477E-009  0.9246481E+02  0.7561462E-02  0.1296990E+00
         -1   -1    0    0    0  501 -0.00000000000E+00  0.00000000000E+00  0.20393228744E+03  0.20393228744E+03  0.00000000000E+00 0.  1.
          1   -1    0    0  501    0  0.00000000000E+00 -0.00000000000E+00 -0.75428829644E+02  0.75428829644E+02  0.00000000000E+00 0. -1.
         25    2    1    2    0    0  0.51604551161E+02 -0.12532570589E+02  0.10172774102E+03  0.16974986554E+03  0.12508552487E+03 0.  0.
          5    1    3    3  502    0 -0.23434834581E+02  0.19141952425E+01 -0.16419166868E+02  0.28981322535E+02  0.41800000000E+01 0. -1.
         -5    1    3    3    0  502  0.75039385742E+02 -0.14446765831E+02  0.11814690789E+03  0.14076854300E+03  0.41800000000E+01 0. -1.
        -11    1    1    2    0    0 -0.70888873693E+01  0.34256925254E+02  0.44852801668E+02  0.56882010069E+02  0.00000000000E+00 0. -1.
         11    1    1    2    0    0 -0.44515663792E+02 -0.21724354666E+02 -0.18077084893E+02  0.52729241476E+02  0.00000000000E+00 0.  1.
</event>
<event>
 7    1  0.2878477E-009  0.1852615E+03  0.7561462E-02  0.1162806E+00
          2   -1    0    0  501    0  0.00000000000E+00  0.00000000000E+00  0.11557746014E+03  0.11557746014E+03  0.00000000000E+00 0. -1.
         -2   -1    0    0    0  501 -0.00000000000E+00 -0.00000000000E+00 -0.39145994523E+03  0.39145994523E+03  0.00000000000E+00 0.  1.
         25    2    1    2    0    0 -0.10895013875E+03 -0.13262479888E+03 -0.69708770602E+02  0.22353387172E+03  0.12509440074E+03 0.  0.
          5    1    3    3  502    0 -0.68011436766E+00 -0.50903211024E+02 -0.71423776062E+02  0.87809040737E+02  0.41800000000E+01 0.  1.
         -5    1    3    3    0  502 -0.10827002439E+03 -0.81721587853E+02  0.17150054605E+01  0.13572483098E+03  0.41800000000E+01 0.  1.
        -11    1    1    2    0    0  0.92801112616E+02  0.62778427943E+02 -0.16895528302E+03  0.20272904375E+03  0.00000000000E+00 0.  1.
         11    1    1    2    0    0  0.16149026138E+02  0.69846370934E+02 -0.37218431474E+02  0.80774489904E+02  0.00000000000E+00 0. -1.
</event>
<event>
 7    1  0.2878477E-009  0.1409137E+03  0.7561462E-02  0.1212105E+00
         -2   -1    0    0    0  501 -0.00000000000E+00  0.00000000000E+00  0.17470284392E+02  0.17470284392E+02  0.00000000000E+00 0.  1.
          2   -1    0    0  501    0  0.00000000000E+00 -0.00000000000E+00 -0.12416782087E+04  0.12416782087E+04  0.00000000000E+00 0. -1.
         25    2    1    2    0    0 -0.18461325713E+02 -0.95277917144E+02 -0.60358767262E+03  0.62400630826E+03  0.12508833745E+03 0.  0.
          5    1    3    3  502    0 -0.71751151804E+02 -0.57340640476E+02 -0.32038143180E+03  0.33331353269E+03  0.41800000000E+01 0.  1.
         -5    1    3    3    0  502  0.53289826091E+02 -0.37937276668E+02 -0.28320624083E+03  0.29069277557E+03  0.41800000000E+01 0.  1.
        -11    1    1    2    0    0  0.33471022403E+02  0.62475762115E+01 -0.78663951351E+02  0.85716735771E+02  0.00000000000E+00 0.  1.
         11    1    1    2    0    0 -0.15009696690E+02  0.89030340932E+02 -0.54195630036E+03  0.54942544908E+03  0.00000000000E+00 0. -1.
</event>
<event>
 7    1  0.2878477E-009  0.1061818E+03  0.7561462E-02  0.1267808E+00
         -1   -1    0    0    0  501 -0.00000000000E+00  0.00000000000E+00  0.52273323045E+02  0.52273323045E+02  0.00000000000E+00 0.  1.
          1   -1    0    0  501    0  0.00000000000E+00 -0.00000000000E+00 -0.43549422671E+03  0.43549422671E+03  0.00000000000E+00 0. -1.
         25    2    1    2    0    0 -0.14673067225E+02 -0.96891080244E+02 -0.14877985233E+03  0.21767840280E+03  0.12508102276E+03 0.  0.
          5    1    3    3  502    0  0.21275171120E+02 -0.48019654392E+02 -0.14774348541E+03  0.15685703681E+03  0.41800000000E+01 0.  1.
         -5    1    3    3    0  502 -0.35948238345E+02 -0.48871425852E+02 -0.10363669177E+01  0.60821365993E+02  0.41800000000E+01 0.  1.
        -11    1    1    2    0    0  0.15724086193E+02  0.62210495897E+02 -0.47190891410E+02  0.79651571977E+02  0.00000000000E+00 0.  1.
         11    1    1    2    0    0 -0.10510189677E+01  0.34680584347E+02 -0.18725015992E+03  0.19043757498E+03  0.00000000000E+00 0. -1.
</event>
<event>
 7    1  0.2878477E-009  0.9952221E+02  0.7561462E-02  0.1281304E+00
          2   -1    0    0  501    0  0.00000000000E+00  0.00000000000E+00  0.39307637542E+03  0.39307637542E+03  0.00000000000E+00 0. -1.
         -2   -1    0    0    0  501 -0.00000000000E+00 -0.00000000000E+00 -0.39586749283E+02  0.39586749283E+02  0.00000000000E+00 0.  1.
         25    2    1    2    0    0 -0.67620961527E+02 -0.13387325223E+02  0.22708098697E+03  0.26826477162E+03  0.12509355753E+03 0.  0.
          5    1    3    3  502    0  0.30345052087E+02 -0.82696962770E+01  0.16154436672E+02  0.35604048742E+02  0.41800000000E+01 0. -1.
         -5    1    3    3    0  502 -0.97966013614E+02 -0.51176289458E+01  0.21092655030E+03  0.23266072288E+03  0.41800000000E+01 0. -1.
        -11    1    1    2    0    0  0.25440236621E+02  0.76031339298E+01 -0.43292054107E+01  0.26902700689E+02  0.00000000000E+00 0.  1.
         11    1    1    2    0    0  0.42180724907E+02  0.57841912930E+01  0.13073784458E+03  0.13749565240E+03  0.00000000000E+00 0. -1.
</event>
<event>
 7    1  0.2878477E-009  0.1745624E+03  0.7561462E-02  0.1173172E+00
          1   -1    0    0  501    0  0.00000000000E+00  0.00000000000E+00  0.17655306797E+03  0.17655306797E+03  0.00000000000E+00 0. -1.
         -1   -1    0    0    0  501 -0.00000000000E+00 -0.00000000000E+00 -0.21448549415E+03  0.21448549415E+03  0.00000000000E+00 0.  1.
         25    2    1    2    0    0 -0.11134155956E+03 -0.10801324590E+03  0.21187465821E+02  0.20039991568E+03  0.12508962115E+03 0.  0.
          5    1    3    3  502    0 -0.13828579100E+02 -0.77834311390E+02 -0.31802897157E+02  0.85312990201E+02  0.41800000000E+01 0.  1.
         -5    1    3    3    0  502 -0.97512980462E+02 -0.30178934506E+02  0.52990362978E+02  0.11508692547E+03  0.41800000000E+01 0.  1.
        -11    1    1    2    0    0 -0.75358821874E+01  0.15255902154E+02 -0.33665552992E+02  0.37721367010E+02  0.00000000000E+00 0.  1.
         11    1    1    2    0    0  0.11887744175E+03  0.92757343742E+02 -0.25454339006E+02  0.15291727943E+03  0.00000000000E+00 0. -1.
</event>
<event>
 7    1  0.2878477E-009  0.7163061E+02  0.7561462E-02  0.1354634E+00
         -2   -1    0    0    0  501 -0.00000000000E+00  0.00000000000E+00  0.35103186628E+02  0.35103186628E+02  0.00000000000E+00 0.  1.
          2   -1    0    0  501    0  0.00000000000E+00 -0.00000000000E+00 -0.49632760697E+03  0.49632760697E+03  0.00000000000E+00 0. -1.
         25    2    1    2    0    0 -0.57375968144E+02  0.60911887301E+01 -0.16565691218E+03  0.21544939125E+03  0.12508846203E+03 0.  0.
          5    1    3    3  502    0 -0.23827445922E+02  0.15778683876E+01 -0.17764845468E+03  0.17929496005E+03  0.41800000000E+01 0. -1.
         -5    1    3    3    0  502 -0.33548522223E+02  0.45133203425E+01  0.11991542496E+02  0.36154431199E+02  0.41800000000E+01 0. -1.
        -11    1    1    2    0    0  0.37296634917E+00 -0.24886227876E+02 -0.14987292707E+02  0.29053095954E+02  0.00000000000E+00 0.  1.
         11    1    1    2    0    0  0.57003001795E+02  0.18795039146E+02 -0.28058021545E+03  0.28692830640E+03  0.00000000000E+00 0. -1.
</event>
<event>
 7    1  0.2878477E-009  0.2060052E+03  0.7561462E-02  0.1144769E+00
          2   -1    0    0  501    0  0.00000000000E+00  0.00000000000E+00  0.19470043096E+03  0.19470043096E+03  0.00000000000E+00 0. -1.
         -2   -1    0    0    0  501 -0.00000000000E+00 -0.00000000000E+00 -0.41006205685E+03  0.41006205685E+03  0.00000000000E+00 0.  1.
         25    2    1    2    0    0  0.19998084376E+03  0.24142077472E+02  0.66842894398E+02  0.24635553689E+03  0.12509156746E+03 0.  0.
          5    1    3    3  502    0  0.41388025119E+02  0.21788734004E+02 -0.34337494871E+02  0.58174337184E+02  0.41800000000E+01 0.  1.
         -5    1    3    3    0  502  0.15859281864E+03  0.23533434687E+01  0.10118038927E+03  0.18818119971E+03  0.41800000000E+01 0.  1.
        -11    1    1    2    0    0 -0.14869480420E+03  0.22400962690E+01 -0.25370165486E+03  0.29407429759E+03  0.00000000000E+00 0.  1.
         11    1    1    2    0    0 -0.51286039567E+02 -0.26382173741E+02 -0.28502865429E+02  0.64332653322E+02  0.00000000000E+00 0. -1.
</event>
<event>
 7    1  0.2878477E-009  0.1016773E+03  0.7561462E-02  0.1276808E+00
          2   -1    0    0  501    0  0.00000000000E+00  0.00000000000E+00  0.49362775534E+03  0.49362775534E+03  0.00000000000E+00 0. -1.
         -2   -1    0    0    0  501 -0.00000000000E+00 -0.00000000000E+00 -0.24998397960E+02  0.24998397960E+02  0.00000000000E+00 0.  1.
         25    2    1    2    0    0 -0.42707246752E+01  0.27332426118E+01  0.21711324084E+03  0.25062354865E+03  0.12509314163E+03 0.  0.
          5    1    3    3  502    0 -0.40630316261E+02  0.44627945186E+02  0.65682603159E+02  0.89298112235E+02  0.41800000000E+01 0.  1.
         -5    1    3    3    0  502  0.36359591586E+02 -0.41894702574E+02  0.15143063768E+03  0.16132543641E+03  0.41800000000E+01 0.  1.
        -11    1    1    2    0    0 -0.16201281843E+02  0.38181606410E+02  0.75553602467E+02  0.86189694553E+02  0.00000000000E+00 0.  1.
         11    1    1    2    0    0  0.20472006518E+02 -0.40914849021E+02  0.17596251407E+03  0.18181291010E+03  0.00000000000E+00 0. -1.
</event>
<event>
 7    1  0.2878477E-009  0.9427947E+02  0.7561462E-02  0.1292807E+00
         -1   -1    0    0    0  501 -0.00000000000E+00  0.00000000000E+00  0.10058515506E+03  0.10058515506E+03  0.00000000000E+00 0.  1.
          1   -1    0    0  501    0  0.00000000000E+00 -0.00000000000E+00 -0.15522137820E+03  0.15522137820E+03  0.00000000000E+00 0. -1.
         25    2    1    2    0    0  0.38167312735E+02  0.17163078436E+02  0.18082075606E+02  0.13313893349E+03  0.12509076357E+03 0.  0.
          5    1    3    3  502    0  0.20601077830E+02  0.49167973226E+02 -0.38345480041E+02  0.65800776884E+02  0.41800000000E+01 0.  1.
         -5    1    3    3    0  502  0.17566234905E+02 -0.32004894789E+02  0.56427555647E+02  0.67338156609E+02  0.41800000000E+01 0.  1.
        -11    1    1    2    0    0 -0.65618132185E+02 -0.24303684801E+02 -0.56912674116E+02  0.90196789529E+02  0.00000000000E+00 0.  1.
         11    1    1    2    0    0  0.27450819450E+02  0.71406063643E+01 -0.15805624631E+02  0.32470810241E+02  0.00000000000E+00 0. -1.
</event>
<event>
 7    1  0.2878477E-009  0.1247065E+03  0.7561462E-02  0.1235529E+00
          1   -1    0    0  501    0  0.00000000000E+00  0.00000000000E+00  0.17411994501E+04  0.17411994501E+04  0.00000000000E+00 0. -1.
         -1   -1    0    0    0  501 -0.00000000000E+00 -0.00000000000E+00 -0.13497782093E+02  0.13497782093E+02  0.00000000000E+00 0.  1.
         25    2    1    2    0    0  0.39984121582E+02  0.74667403095E+02  0.13446394218E+04  0.13530986880E+04  0.12508770477E+03 0.  0.
          5    1    3    3  502    0 -0.29225245478E+02 -0.81216721260E+00  0.67645674167E+03  0.67710115223E+03  0.41800000000E+01 0.  1.
         -5    1    3    3    0  502  0.69209367060E+02  0.75479570308E+02  0.66818268008E+03  0.67599753578E+03  0.41800000000E+01 0.  1.
        -11    1    1    2    0    0 -0.56972843572E+02 -0.20387294530E+02  0.24317677683E+03  0.25059228135E+03  0.00000000000E+00 0. -1.
         11    1    1    2    0    0  0.16988721990E+02 -0.54280108566E+02  0.13988546946E+03  0.15100626287E+03  0.00000000000E+00 0.  1.
</event>
<event>
 7    1  0.2878477E-009  0.2535410E+03  0.7561462E-02  0.1111087E+00
         -1   -1    0    0    0  501 -0.00000000000E+00  0.00000000000E+00  0.37481468604E+03  0.37481468604E+03  0.00000000000E+00 0.  1.
          1   -1    0    0  501    0  0.00000000000E+00 -0.00000000000E+00 -0.20667607375E+03  0.20667607375E+03  0.00000000000E+00 0. -1.
         25    2    1    2    0    0 -0.16491711996E+03 -0.17813480512E+03  0.17126777030E+03  0.32235006336E+03  0.12508896416E+03 0.  0.
          5    1    3    3  502    0 -0.79857744742E+02 -0.13506697731E+03  0.16342505806E+03  0.22659560842E+03  0.41800000000E+01 0.  1.
         -5    1    3    3    0  502 -0.85059375222E+02 -0.43067827812E+02  0.78427122388E+01  0.95754454940E+02  0.41800000000E+01 0.  1.
        -11    1    1    2    0    0  0.10713778533E+03  0.59074227110E+02 -0.25362477465E+02  0.12494608684E+03  0.00000000000E+00 0. -1.
         11    1    1    2    0    0  0.57779334635E+02  0.11906057801E+03  0.22233319457E+02  0.13419460958E+03  0.00000000000E+00 0.  1.
</event>
<event>
 7    1  0.2878477E-009  0.1337107E+03  0.7561462E-02  0.1222051E+00
         -3   -1    0    0    0  501 -0.00000000000E+00  0.00000000000E+00  0.24864689022E+02  0.24864689022E+02  0.00000000000E+00 0.  1.
          3   -1    0    0  501    0  0.00000000000E+00 -0.00000000000E+00 -0.11811375738E+04  0.11811375738E+04  0.00000000000E+00 0. -1.
         25    2    1    2    0    0  0.94728976572E+02  0.91056524225E+02 -0.57669181111E+03  0.60455450873E+03  0.12509132429E+03 0.  0.
          5    1    3    3  502    0  0.72118681096E+02  0.82759680625E+02 -0.20953989382E+03  0.23658974704E+03  0.41800000000E+01 0. -1.
         -5    1    3    3    0  502  0.22610295476E+02  0.82968435994E+01 -0.36715191729E+03  0.36796476169E+03  0.41800000000E+01 0. -1.
        -11    1    1    2    0    0 -0.58917285701E+02 -0.70327423402E+02 -0.52499385985E+03  0.53295004073E+03  0.00000000000E+00 0. -1.
         11    1    1    2    0    0 -0.35811690871E+02 -0.20729100823E+02 -0.54587213819E+02  0.68497713367E+02  0.00000000000E+00 0.  1.
</event>
<event>
 7    1  0.2878477E-009  0.1205220E+03  0.7561462E-02  0.1242238E+00
         -2   -1    0    0    0  501 -0.00000000000E+00  0.00000000000E+00  0.24149618206E+03  0.24149618206E+03  0.00000000000E+00 0.  1.
          2   -1    0    0  501    0  0.00000000000E+00 -0.00000000000E+00 -0.11272027637E+03  0.11272027637E+03  0.00000000000E+00 0. -1.
         25    2    1    2    0    0  0.77124692819E+02  0.59896990536E+01 -0.31874474459E+02  0.15048651878E+03  0.12508443338E+03 0.  0.
          5    1    3    3  502    0  0.32747056075E+02 -0.57463681931E+02  0.95574969910E+00  0.66278429976E+02  0.41800000000E+01 0. -1.
         -5    1    3    3    0  502  0.44377636744E+02  0.63453380984E+02 -0.32830224158E+02  0.84208088802E+02  0.41800000000E+01 0. -1.
        -11    1    1    2    0    0 -0.46999778052E+02  0.25647447628E+02  0.21182128284E+02  0.57579972781E+02  0.00000000000E+00 0. -1.
         11    1    1    2    0    0 -0.30124914767E+02 -0.31637146681E+02  0.13946825186E+03  0.14614996687E+03  0.00000000000E+00 0.  1.
</event>
<event>
 7    1  0.2878477E-009  0.1511053E+03  0.7561462E-02  0.1199121E+00
         -1   -1    0    0    0  501 -0.00000000000E+00  0.00000000000E+00  0.59039666234E+02  0.59039666234E+02  0.00000000000E+00 0.  1.
          1   -1    0    0  501    0  0.00000000000E+00 -0.00000000000E+00 -0.48950175630E+03  0.48950175630E+03  0.00000000000E+00 0. -1.
         25    2    1    2    0    0 -0.25257926966E+02 -0.12611021669E+03 -0.19086069799E+03  0.26194941767E+03  0.12509173336E+03 0.  0.
          5    1    3    3  502    0  0.13535280463E+02  0.11759471837E+02  0.51818114344E+01  0.19126227146E+02  0.41800000000E+01 0. -1.
         -5    1    3    3    0  502 -0.38793207430E+02 -0.13786968852E+03 -0.19604250942E+03  0.24282319052E+03  0.41800000000E+01 0. -1.
        -11    1    1    2    0    0  0.28135196092E+02  0.20368258199E+02 -0.14051307543E+02  0.37468579435E+02  0.00000000000E+00 0.  1.
         11    1    1    2    0    0 -0.28772691252E+01  0.10574195849E+03 -0.22555008454E+03  0.24912342543E+03  0.00000000000E+00 0. -1.
</event>
<event>
 7    1  0.2878477E-009  0.1158810E+03  0.7561462E-02  0.1250051E+00
          2   -1    0    0  501    0  0.00000000000E+00  0.00000000000E+00  0.85197203278E+03  0.85197203278E+03  0.00000000000E+00 0. -1.
         -2   -1    0    0    0  501 -0.00000000000E+00 -0.00000000000E+00 -0.20938136789E+02  0.20938136789E+02  0.00000000000E+00 0.  1.
         25    2    1    2    0    0  0.56811263583E+02  0.52848247214E+02  0.46918023868E+03  0.49172755147E+03  0.12508169971E+03 0.  0.
          5    1    3    3  502    0  0.72592469769E+02  0.61553032605E+02  0.19604947233E+03  0.21797089368E+03  0.41800000000E+01 0.  1.
         -5    1    3    3    0  502 -0.15781206187E+02 -0.87047853918E+01  0.27313076634E+03  0.27375665778E+03  0.41800000000E+01 0.  1.
        -11    1    1    2    0    0 -0.20166663910E+02  0.24899907696E+02  0.13057887262E+03  0.13445274899E+03  0.00000000000E+00 0.  1.
         11    1    1    2    0    0 -0.36644599672E+02 -0.77748154909E+02  0.23127478469E+03  0.24672986911E+03  0.00000000000E+00 0. -1.
</event>
<event>
 7    1  0.2878477E-009  0.1606416E+03  0.7561462E-02  0.1187974E+00
         -1   -1    0    0    0  501 -0.00000000000E+00  0.00000000000E+00  0.17406838035E+03  0.17406838035E+03  0.00000000000E+00 0.  1.
          1   -1    0    0  501    0  0.00000000000E+00 -0.00000000000E+00 -0.21857345245E+03  0.21857345245E+03  0.00000000000E+00 0. -1.
         25    2    1    2    0    0  0.24962664979E+02  0.15063644194E+03  0.30630028764E+02  0.19971887780E+03  0.12503983046E+03 0.  0.
          5    1    3    3  502    0  0.37982271227E+02  0.10811026196E+03 -0.35394059555E+02  0.12000288963E+03  0.41800000000E+01 0.  1.
         -5    1    3    3    0  502 -0.13019606248E+02  0.42526179986E+02  0.66024088319E+02  0.79715988166E+02  0.41800000000E+01 0.  1.
        -11    1    1    2    0    0  0.15411966137E+02 -0.71096263242E+02  0.51271862665E+01  0.72928015098E+02  0.00000000000E+00 0.  1.
         11    1    1    2    0    0 -0.40374631115E+02 -0.79540178700E+02 -0.80262287132E+02  0.11999493990E+03  0.00000000000E+00 0. -1.
</event>
<event>
 7    1  0.2878477E-009  0.1144073E+03  0.7561462E-02  0.1252619E+00
          2   -1    0    0  501    0  0.00000000000E+00  0.00000000000E+00  0.53994026487E+02  0.53994026487E+02  0.00000000000E+00 0. -1.
         -2   -1    0    0    0  501 -0.00000000000E+00 -0.00000000000E+00 -0.30251370737E+03  0.30251370737E+03  0.00000000000E+00 0.  1.
         25    2    1    2    0    0 -0.14492688700E+02  0.53149673880E+02 -0.85125450727E+02  0.16100159764E+03  0.12506097002E+03 0.  0.
          5    1    3    3  502    0  0.42825233938E+02  0.48719723921E+02 -0.80080616898E+02  0.10314063100E+03  0.41800000000E+01 0. -1.
         -5    1    3    3    0  502 -0.57317922638E+02  0.44299499587E+01 -0.50448338281E+01  0.57860966640E+02  0.41800000000E+01 0. -1.
        -11    1    1    2    0    0  0.25856223016E+02 -0.76203688078E+02 -0.11047993329E+03  0.13667977907E+03  0.00000000000E+00 0.  1.
         11    1    1    2    0    0 -0.11363534316E+02  0.23054014198E+02 -0.52914296867E+02  0.58826357152E+02  0.00000000000E+00 0. -1.
</event>
<event>
 7    1  0.2878477E-009  0.1205785E+03  0.7561462E-02  0.1242146E+00
          1   -1    0    0  501    0  0.00000000000E+00  0.00000000000E+00  0.30649799645E+03  0.30649799645E+03  0.00000000000E+00 0. -1.
         -1   -1    0    0    0  501 -0.00000000000E+00 -0.00000000000E+00 -0.69023399208E+02  0.69023399208E+02  0.00000000000E+00 0.  1.
         25    2    1    2    0    0 -0.88148103314E+02 -0.29308938742E+02  0.94612365050E+02  0.18228492367E+03  0.12508873558E+03 0.  0.
          5    1    3    3  502    0  0.41027551263E+01  0.31598420702E+02  0.57013778436E+02  0.65447201025E+02  0.41800000000E+01 0.  1.
         -5    1    3    3    0  502 -0.92250858440E+02 -0.60907359445E+02  0.37598586615E+02  0.11683772265E+03  0.41800000000E+01 0.  1.
        -11    1    1    2    0    0  0.31235115365E+02  0.27243775325E+02  0.12776402355E+03  0.13431865634E+03  0.00000000000E+00 0. -1.
         11    1    1    2    0    0  0.56912987949E+02  0.20651634179E+01  0.15098208643E+02  0.58917815654E+02  0.00000000000E+00 0.  1.
</event>
<event>
 7    1  0.2878477E-009  0.6810828E+02  0.7561462E-02  0.1366647E+00
          2   -1    0    0  501    0  0.00000000000E+00  0.00000000000E+00  0.71324654627E+02  0.71324654627E+02  0.00000000000E+00 0.  1.
         -2   -1    0    0    0  501 -0.00000000000E+00 -0.00000000000E+00 -0.18027620238E+03  0.18027620238E+03  0.00000000000E+00 0. -1.
         25    2    1    2    0    0 -0.15882721092E+02 -0.14985174046E+02 -0.39263455423E+02  0.13292928944E+03  0.12510699737E+03 0.  0.
          5    1    3    3  502    0 -0.22294249820E+02  0.23369062523E+02 -0.73854730370E+02  0.80716418753E+02  0.41800000000E+01 0. -1.
         -5    1    3    3    0  502  0.64115287277E+01 -0.38354236569E+02  0.34591274947E+02  0.52212870692E+02  0.41800000000E+01 0. -1.
        -11    1    1    2    0    0  0.21878343463E+02 -0.19638780451E+02  0.10423023025E+02  0.31192675731E+02  0.00000000000E+00 0.  1.
         11    1    1    2    0    0 -0.59956223703E+01  0.34623954497E+02 -0.80111115357E+02  0.87478891833E+02  0.00000000000E+00 0. -1.
</event>
<event>
 7    1  0.2878477E-009  0.9234412E+02  0.7561462E-02  0.1297272E+00
          2   -1    0    0  501    0  0.00000000000E+00  0.00000000000E+00  0.55347637055E+03  0.55347637055E+03  0.00000000000E+00 0. -1.
         -2   -1    0    0    0  501 -0.00000000000E+00 -0.00000000000E+00 -0.30929537693E+02  0.30929537693E+02  0.00000000000E+00 0.  1.
         25    2    1    2    0    0  0.91557604857E+00  0.10800839707E+02  0.44994219979E+03  0.46713311292E+03  0.12509142903E+03 0.  0.
          5    1    3    3  502    0  0.50430211310E+02  0.34975388766E+02  0.32112668230E+03  0.32696529253E+03  0.41800000000E+01 0.  1.
         -5    1    3    3    0  502 -0.49514635261E+02 -0.24174549060E+02  0.12881551748E+03  0.14016782039E+03  0.41800000000E+01 0.  1.
        -11    1    1    2    0    0  0.35052549902E+01  0.28324641280E+02 -0.61752589497E+01  0.29201129076E+02  0.00000000000E+00 0.  1.
         11    1    1    2    0    0 -0.44208310388E+01 -0.39125480987E+02  0.78779892020E+02  0.88071666251E+02  0.00000000000E+00 0. -1.
</event>
<event>
 7    1  0.2878477E-009  0.6154805E+02  0.7561462E-02  0.1391448E+00
          1   -1    0    0  501    0  0.00000000000E+00  0.00000000000E+00  0.15515998645E+03  0.15515998645E+03  0.00000000000E+00 0. -1.
         -1   -1    0    0    0  501 -0.00000000000E+00 -0.00000000000E+00 -0.96502506331E+02  0.96502506331E+02  0.00000000000E+00 0.  1.
         25    2    1    2    0    0  0.56653289450E+01 -0.40135619433E+02 -0.78324022359E+01  0.13172583725E+03  0.12508951106E+03 0.  0.
          5    1    3    3  502    0  0.42953798091E+01 -0.89933063007E+01  0.57876909061E+02  0.58877320323E+02  0.41800000000E+01 0. -1.
         -5    1    3    3    0  502  0.13699491359E+01 -0.31142313132E+02 -0.65709311297E+02  0.72848516931E+02  0.41800000000E+01 0. -1.
        -11    1    1    2    0    0 -0.32163641528E+02 -0.68402074756E+00  0.63493088232E+02  0.71178226825E+02  0.00000000000E+00 0. -1.
         11    1    1    2    0    0  0.26498312583E+02  0.40819640180E+02  0.29967941190E+01  0.48758428699E+02  0.00000000000E+00 0.  1.
</event>
<event>
 7    1  0.2878477E-009  0.2740481E+03  0.7561462E-02  0.1098985E+00
         -2   -1    0    0    0  501 -0.00000000000E+00  0.00000000000E+00  0.61966581689E+02  0.61966581689E+02  0.00000000000E+00 0.  1.
          2   -1    0    0  501    0  0.00000000000E+00 -0.00000000000E+00 -0.13182887888E+04  0.13182887888E+04  0.00000000000E+00 0. -1.
         25    2    1    2    0    0 -0.24565856488E+03 -0.96080228329E+02 -0.64841253544E+03  0.71110238169E+03  0.12509292688E+03 0.  0.
          5    1    3    3  502    0 -0.72709987426E+02  0.15800001968E+02 -0.27167243368E+03  0.28170865439E+03  0.41800000000E+01 0. -1.
         -5    1    3    3    0  502 -0.17294857745E+03 -0.11188023030E+03 -0.37674010176E+03  0.42939372730E+03  0.41800000000E+01 0. -1.
        -11    1    1    2    0    0  0.18876945211E+03  0.93358763784E+02 -0.38231205690E+03  0.43647711702E+03  0.00000000000E+00 0.  1.
         11    1    1    2    0    0  0.56889112764E+02  0.27214645442E+01 -0.22559761476E+03  0.23267587178E+03  0.00000000000E+00 0. -1.
</event>
<event>
 7    1  0.2878477E-009  0.9747582E+02  0.7561462E-02  0.1285695E+00
         -2   -1    0    0    0  501 -0.00000000000E+00  0.00000000000E+00  0.42916398116E+02  0.42916398116E+02  0.00000000000E+00 0.  1.
          2   -1    0    0  501    0  0.00000000000E+00 -0.00000000000E+00 -0.12305549009E+04  0.12305549009E+04  0.00000000000E+00 0. -1.
         25    2    1    2    0    0  0.29276074193E+01  0.57009782390E+02 -0.11566188950E+04  0.11647632739E+04  0.12509008650E+03 0.  0.
          5    1    3    3  502    0  0.16961581933E+02 -0.37759025791E+02 -0.35301169400E+03  0.35545487448E+03  0.41800000000E+01 0.  1.
         -5    1    3    3    0  502 -0.14033974513E+02  0.94768808181E+02 -0.80360720102E+03  0.80930839942E+03  0.41800000000E+01 0.  1.
        -11    1    1    2    0    0  0.14409301140E+00 -0.46605471325E+02  0.24143672252E+02  0.52488166571E+02  0.00000000000E+00 0.  1.
         11    1    1    2    0    0 -0.30717004307E+01 -0.10404311065E+02 -0.55163280012E+02  0.56219858537E+02  0.00000000000E+00 0. -1.
</event>
<event>
 7    1  0.2878477E-009  0.1829989E+03  0.7561462E-02  0.1164932E+00
          2   -1    0    0  501    0  0.00000000000E+00  0.00000000000E+00  0.27301830803E+04  0.27301830803E+04  0.00000000000E+00 0. -1.
         -2   -1    0    0    0  501 -0.00000000000E+00 -0.00000000000E+00 -0.19075985770E+02  0.19075985770E+02  0.00000000000E+00 0.  1.
         25    2    1    2    0    0 -0.14324842851E+03 -0.80189881461E+02  0.20923686210E+04  0.21025230930E+04  0.12508549537E+03 0.  0.
          5    1    3    3  502    0 -0.82632099600E+02 -0.10556368933E+03  0.11359914381E+04  0.11438818891E+04  0.41800000000E+01 0.  1.
         -5    1    3    3    0  502 -0.60616328914E+02  0.25373807873E+02  0.95637718297E+03  0.95864120397E+03  0.41800000000E+01 0.  1.
        -11    1    1    2    0    0  0.31273374095E+02  0.63865304840E+01  0.33275105894E+02  0.46109048691E+02  0.00000000000E+00 0.  1.
         11    1    1    2    0    0  0.11197505442E+03  0.73803350977E+02  0.58546336760E+03  0.60062692433E+03  0.00000000000E+00 0. -1.
</event>
<event>
 7    1  0.2878477E-009  0.1201623E+03  0.7561462E-02  0.1242830E+00
          2   -1    0    0  501    0  0.00000000000E+00  0.00000000000E+00  0.11089547380E+03  0.11089547380E+03  0.00000000000E+00 0. -1.
         -2   -1    0    0    0  501 -0.00000000000E+00 -0.00000000000E+00 -0.14980042714E+03  0.14980042714E+03  0.00000000000E+00 0.  1.
         25    2    1    2    0    0  0.60123539221E+02  0.34409201594E+02 -0.16966674169E+02  0.14400389686E+03  0.12510164330E+03 0.  0.
          5    1    3    3  502    0 -0.39166728223E+02  0.86098637671E+01 -0.40471144216E+01  0.40521770555E+02  0.41800000000E+01 0. -1.
         -5    1    3    3    0  502  0.99290267444E+02  0.25799337827E+02 -0.12919559748E+02  0.10348212631E+03  0.41800000000E+01 0. -1.
        -11    1    1    2    0    0 -0.52627159586E+02  0.89046179758E+01 -0.42437116558E+02  0.68189581383E+02  0.00000000000E+00 0.  1.
         11    1    1    2    0    0 -0.74963796350E+01 -0.43313819570E+02  0.20498837390E+02  0.48502422699E+02  0.00000000000E+00 0. -1.
</event>
<event>
 7    1  0.2878477E-009  0.1465806E+03  0.7561462E-02  0.1204739E+00
          2   -1    0    0  501    0  0.00000000000E+00  0.00000000000E+00  0.25945400738E+04  0.25945400738E+04  0.00000000000E+00 0. -1.
         -2   -1    0    0    0  501 -0.00000000000E+00 -0.00000000000E+00 -0.14137096907E+02  0.14137096907E+02  0.00000000000E+00 0.  1.
         25    2    1    2    0    0  0.81218901957E+02  0.54209629937E+02  0.21811899771E+04  0.21869551914E+04  0.12509236160E+03 0.  0.
          5    1    3    3  502    0  0.10487584021E+03  0.73143051400E+02  0.17184140026E+04  0.17231694648E+04  0.41800000000E+01 0.  1.
         -5    1    3    3    0  502 -0.23656938252E+02 -0.18933421463E+02  0.46277597445E+03  0.46378572650E+03  0.41800000000E+01 0.  1.
        -11    1    1    2    0    0 -0.55010647035E-01 -0.53475474630E+02  0.13092955130E+03  0.14142905224E+03  0.00000000000E+00 0.  1.
         11    1    1    2    0    0 -0.81163891310E+02 -0.73415530743E+00  0.26828344849E+03  0.28029292708E+03  0.00000000000E+00 0. -1.
</event>
<event>
 7    1  0.2878477E-009  0.1816885E+03  0.7561462E-02  0.1166179E+00
          1   -1    0    0  501    0  0.00000000000E+00  0.00000000000E+00  0.39181900864E+03  0.39181900864E+03  0.00000000000E+00 0. -1.
         -1   -1    0    0    0  501 -0.00000000000E+00 -0.00000000000E+00 -0.89739244550E+02  0.89739244550E+02  0.00000000000E+00 0.  1.
         25    2    1    2    0    0  0.15051249680E+03  0.19377853595E+02  0.18149707002E+03  0.26761472128E+03  0.12508772809E+03 0.  0.
          5    1    3    3  502    0  0.41533471182E+02  0.58204763810E+02  0.31774658240E+02  0.78357673937E+02  0.41800000000E+01 0. -1.
         -5    1    3    3    0  502  0.10897902561E+03 -0.38826910215E+02  0.14972241178E+03  0.18925704735E+03  0.41800000000E+01 0. -1.
        -11    1    1    2    0    0 -0.15009945526E+03  0.63706673757E+01  0.10951602437E+03  0.18591447352E+03  0.00000000000E+00 0. -1.
         11    1    1    2    0    0 -0.41304153488E+00 -0.25748520970E+02  0.11066669702E+02  0.28029058381E+02  0.00000000000E+00 0.  1.
</event>
<event>
 7    1  0.2878477E-009  0.8783758E+02  0.7561462E-02  0.1308174E+00
         -1   -1    0    0    0  501 -0.00000000000E+00  0.00000000000E+00  0.21303156280E+02  0.21303156280E+02  0.00000000000E+00 0.  1.
          1   -1    0    0  501    0  0.00000000000E+00 -0.00000000000E+00 -0.56435034111E+03  0.56435034111E+03  0.00000000000E+00 0. -1.
         25    2    1    2    0    0 -0.12639939561E+02 -0.15536193776E+02 -0.32469979675E+03  0.34853616165E+03  0.12508539714E+03 0.  0.
          5    1    3    3  502    0 -0.27636734781E+02 -0.58258810776E+02 -0.26890352449E+03  0.27655823261E+03  0.41800000000E+01 0.  1.
         -5    1    3    3    0  502  0.14996795220E+02  0.42722617000E+02 -0.55796272266E+02  0.71977929040E+02  0.41800000000E+01 0.  1.
        -11    1    1    2    0    0  0.38847680764E+01  0.39698308158E+02 -0.20363445985E+03  0.20750431401E+03  0.00000000000E+00 0. -1.
         11    1    1    2    0    0  0.87551714850E+01 -0.24162114382E+02 -0.14712928228E+02  0.29613021733E+02  0.00000000000E+00 0.  1.
</event>
<event>
 7    1  0.2878477E-009  0.1631980E+03  0.7561462E-02  0.1185133E+00
         -1   -1    0    0    0  501 -0.00000000000E+00  0.00000000000E+00  0.88860278689E+02  0.88860278689E+02  0.00000000000E+00 0.  1.
          1   -1    0    0  501    0  0.00000000000E+00 -0.00000000000E+00 -0.42991967019E+03  0.42991967019E+03  0.00000000000E+00 0. -1.
         25    2    1    2    0    0 -0.13569478163E+03 -0.66748343751E+01 -0.29667600735E+03  0.34945924533E+03  0.12508990220E+03 0.  0.
          5    1    3    3  502    0 -0.15718421928E+03 -0.85959169081E+01 -0.28213614389E+03  0.32310841008E+03  0.41800000000E+01 0. -1.
         -5    1    3    3    0  502  0.21489437651E+02  0.19210825330E+01 -0.14539863461E+02  0.26350835245E+02  0.41800000000E+01 0. -1.
        -11    1    1    2    0    0  0.13631092712E+02 -0.17832395745E+02  0.19188528796E+02  0.29529657361E+02  0.00000000000E+00 0.  1.
         11    1    1    2    0    0  0.12206368891E+03  0.24507230120E+02 -0.63571912946E+02  0.13979104619E+03  0.00000000000E+00 0. -1.
</event>
<event>
 7    1  0.2878477E-009  0.1643659E+03  0.7561462E-02  0.1183854E+00
          2   -1    0    0  501    0  0.00000000000E+00  0.00000000000E+00  0.18586401729E+04  0.18586401729E+04  0.00000000000E+00 0. -1.
         -2   -1    0    0    0  501 -0.00000000000E+00 -0.00000000000E+00 -0.18376211100E+02  0.18376211100E+02  0.00000000000E+00 0.  1.
         25    2    1    2    0    0 -0.14032303443E+03 -0.52906831758E+02  0.11130893446E+04  0.11300915129E+04  0.12509696893E+03 0.  0.
          5    1    3    3  502    0 -0.89556245714E+02 -0.67271529036E+02  0.41098492125E+03  0.42599513807E+03  0.41800000000E+01 0. -1.
         -5    1    3    3    0  502 -0.50766788713E+02  0.14364697278E+02  0.70210442336E+03  0.70409637484E+03  0.41800000000E+01 0. -1.
        -11    1    1    2    0    0  0.85420576125E+02 -0.28531331431E+01  0.27325223612E+03  0.28630682796E+03  0.00000000000E+00 0.  1.
         11    1    1    2    0    0  0.54902458301E+02  0.55759964901E+02  0.45392238105E+03  0.46061804310E+03  0.00000000000E+00 0. -1.
</event>
<event>
 7    1  0.2878477E-009  0.9447752E+02  0.7561462E-02  0.1292357E+00
          2   -1    0    0  501    0  0.00000000000E+00  0.00000000000E+00  0.99673248644E+02  0.99673248644E+02  0.00000000000E+00 0. -1.
         -2   -1    0    0    0  501 -0.00000000000E+00 -0.00000000000E+00 -0.14210319627E+03  0.14210319627E+03  0.00000000000E+00 0.  1.
         25    2    1    2    0    0 -0.22795911410E+02  0.23760896646E+02 -0.58001028850E+02  0.14175784546E+03  0.12508770369E+03 0.  0.
          5    1    3    3  502    0 -0.58425068406E+02 -0.18567368857E+02  0.61602116545E-01  0.61446822532E+02  0.41800000000E+01 0. -1.
         -5    1    3    3    0  502  0.35629156996E+02  0.42328265503E+02 -0.58062630967E+02  0.80311022927E+02  0.41800000000E+01 0. -1.
        -11    1    1    2    0    0  0.37732685577E+02  0.64889327311E+01  0.42243372095E+02  0.57011966243E+02  0.00000000000E+00 0. -1.
         11    1    1    2    0    0 -0.14936774167E+02 -0.30249829378E+02 -0.26672290868E+02  0.43006633210E+02  0.00000000000E+00 0.  1.
</event>
<event>
 7    1  0.2878477E-009  0.1247086E+03  0.7561462E-02  0.1235525E+00
         -2   -1    0    0    0  501 -0.00000000000E+00  0.00000000000E+00  0.21606486469E+03  0.21606486469E+03  0.00000000000E+00 0.  1.
          2   -1    0    0  501    0  0.00000000000E+00 -0.00000000000E+00 -0.11259280435E+03  0.11259280435E+03  0.00000000000E+00 0. -1.
         25    2    1    2    0    0 -0.44490120616E+02  0.38190577870E+02  0.12461886021E+03  0.18605016361E+03  0.12508761724E+03 0.  0.
          5    1    3    3  502    0  0.57136563976E+01  0.69836673624E+02  0.34882516326E+02  0.78384113171E+02  0.41800000000E+01 0. -1.
         -5    1    3    3    0  502 -0.50203777013E+02 -0.31646095754E+02  0.89736343882E+02  0.10766605043E+03  0.41800000000E+01 0. -1.
        -11    1    1    2    0    0 -0.33527686605E+02 -0.16210429215E+01  0.27736352418E+02  0.43543527587E+02  0.00000000000E+00 0.  1.
         11    1    1    2    0    0  0.78017807221E+02 -0.36569534949E+02 -0.48883152283E+02  0.99063977848E+02  0.00000000000E+00 0. -1.
</event>
<event>
 7    1  0.2878477E-009  0.1463773E+03  0.7561462E-02  0.1204997E+00
          1   -1    0    0  501    0  0.00000000000E+00  0.00000000000E+00  0.47322439689E+02  0.47322439689E+02  0.00000000000E+00 0. -1.
         -1   -1    0    0    0  501 -0.00000000000E+00 -0.00000000000E+00 -0.89566093695E+03  0.89566093695E+03  0.00000000000E+00 0.  1.
         25    2    1    2    0    0 -0.23132517881E+02  0.12341774912E+03 -0.72438991412E+03  0.74575723098E+03  0.12508415449E+03 0.  0.
          5    1    3    3  502    0  0.32032398608E+02  0.32219916778E+02 -0.75933645614E+02  0.88586615998E+02  0.41800000000E+01 0. -1.
         -5    1    3    3    0  502 -0.55164916489E+02  0.91197832337E+02 -0.64845626850E+03  0.65717061498E+03  0.41800000000E+01 0. -1.
        -11    1    1    2    0    0  0.31114797731E+02 -0.20555468021E+02 -0.73415559227E+02  0.82343805110E+02  0.00000000000E+00 0.  1.
         11    1    1    2    0    0 -0.79822798495E+01 -0.10286228109E+03 -0.50533023914E+02  0.11488234055E+03  0.00000000000E+00 0. -1.
</event>
<event>
 7    1  0.2878477E-009  0.7056999E+02  0.7561462E-02  0.1358165E+00
         -3   -1    0    0    0  501 -0.00000000000E+00  0.00000000000E+00  0.18363953453E+03  0.18363953453E+03  0.00000000000E+00 0.  1.
          3   -1    0    0  501    0  0.00000000000E+00 -0.00000000000E+00 -0.51416829116E+02  0.51416829116E+02  0.00000000000E+00 0. -1.
         25    2    1    2    0    0  0.14166994310E+02  0.30597582548E+02  0.70283607125E+02  0.14739149985E+03  0.12509017952E+03 0.  0.
          5    1    3    3  502    0  0.31247136369E+02  0.46152217368E+02  0.96922998832E+02  0.11188364850E+03  0.41800000000E+01 0. -1.
         -5    1    3    3    0  502 -0.17080142060E+02 -0.15554634820E+02 -0.26639391706E+02  0.35507851352E+02  0.41800000000E+01 0. -1.
        -11    1    1    2    0    0  0.14280175022E+02 -0.30105074860E+02  0.37432009263E+02  0.50113812951E+02  0.00000000000E+00 0.  1.
         11    1    1    2    0    0 -0.28447169332E+02 -0.49250768852E+00  0.24507089024E+02  0.37551050841E+02  0.00000000000E+00 0. -1.
</event>
<event>
 7    1  0.2878477E-009  0.9788480E+02  0.7561462E-02  0.1284808E+00
         -1   -1    0    0    0  501 -0.00000000000E+00  0.00000000000E+00  0.33641804918E+02  0.33641804918E+02  0.00000000000E+00 0.  1.
          1   -1    0    0  501    0  0.00000000000E+00 -0.00000000000E+00 -0.58649300728E+03  0.58649300728E+03  0.00000000000E+00 0. -1.
         25    2    1    2    0    0 -0.41253006948E+02  0.21225206076E+02 -0.46814265637E+03  0.48678250287E+03  0.12508932182E+03 0.  0.
          5    1    3    3  502    0 -0.12133372484E+02  0.69585938193E+02 -0.18572129410E+03  0.19874429049E+03  0.41800000000E+01 0. -1.
         -5    1    3    3    0  502 -0.29119634464E+02 -0.48360732117E+02 -0.28242136227E+03  0.28803821238E+03  0.41800000000E+01 0. -1.
        -11    1    1    2    0    0  0.30493267765E+02 -0.37847889750E+02 -0.23645624334E+01  0.48661003823E+02  0.00000000000E+00 0.  1.
         11    1    1    2    0    0  0.10759739183E+02  0.16622683674E+02 -0.82343983561E+02  0.84691305507E+02  0.00000000000E+00 0. -1.
</event>
<event>
 7    1  0.2878477E-009  0.3189611E+03  0.7561462E-02  0.1076128E+00
         -1   -1    0    0    0  501 -0.00000000000E+00  0.00000000000E+00  0.11451369573E+04  0.11451369573E+04  0.00000000000E+00 0.  1.
          1   -1    0    0  501    0  0.00000000000E+00 -0.00000000000E+00 -0.95617274812E+02  0.95617274812E+02  0.00000000000E+00 0. -1.
         25    2    1    2    0    0  0.29974167596E+03 -0.85831741857E+02  0.49622976625E+03  0.59925255683E+03  0.12508991061E+03 0.  0.
          5    1    3    3  502    0  0.11689900305E+03 -0.30668880001E+01  0.95444950896E+02  0.15100329059E+03  0.41800000000E+01 0.  1.
         -5    1    3    3    0  502  0.18284267291E+03 -0.82764853857E+02  0.40078481536E+03  0.44824926625E+03  0.41800000000E+01 0.  1.
        -11    1    1    2    0    0 -0.93570296135E+02 -0.74579067033E+01  0.21385492618E+03  0.23354860338E+03  0.00000000000E+00 0.  1.
         11    1    1    2    0    0 -0.20617137983E+03  0.93289648560E+02  0.33943499001E+03  0.40795307185E+03  0.00000000000E+00 0. -1.
</event>
<event>
 7    1  0.2878477E-009  0.1832862E+03  0.7561462E-02  0.1164660E+00
         -1   -1    0    0    0  501 -0.00000000000E+00  0.00000000000E+00  0.75872772174E+03  0.75872772174E+03  0.00000000000E+00 0.  1.
          1   -1    0    0  501    0  0.00000000000E+00 -0.00000000000E+00 -0.50503058609E+02  0.50503058609E+02  0.00000000000E+00 0. -1.
         25    2    1    2    0    0 -0.85780979407E+01 -0.16021496911E+03  0.43996081977E+03  0.48472164230E+03  0.12508847866E+03 0.  0.
          5    1    3    3  502    0 -0.54249886678E+02 -0.14540107911E+03  0.33542650571E+03  0.36961187365E+03  0.41800000000E+01 0.  1.
         -5    1    3    3    0  502  0.45671788737E+02 -0.14813890005E+02  0.10453431406E+03  0.11510976865E+03  0.41800000000E+01 0.  1.
        -11    1    1    2    0    0 -0.10784932866E+02  0.72809865013E+02  0.19630360307E+03  0.20964898235E+03  0.00000000000E+00 0.  1.
         11    1    1    2    0    0  0.19363030807E+02  0.87405104100E+02  0.71960240294E+02  0.11486015570E+03  0.00000000000E+00 0. -1.
</event>
<event>
 7    1  0.2878477E-009  0.3888961E+03  0.7561462E-02  0.1047694E+00
         -2   -1    0    0    0  501 -0.00000000000E+00  0.00000000000E+00  0.47656161194E+03  0.47656161194E+03  0.00000000000E+00 0.  1.
          2   -1    0    0  501    0  0.00000000000E+00 -0.00000000000E+00 -0.35144948181E+03  0.35144948181E+03  0.00000000000E+00 0. -1.
         25    2    1    2    0    0  0.17600544750E+02 -0.38395131840E+03 -0.25747207915E+02  0.40501728980E+03  0.12509073602E+03 0.  0.
          5    1    3    3  502    0 -0.21469365170E+01 -0.16119793682E+03 -0.72015673994E+02  0.17661572374E+03  0.41800000000E+01 0.  1.
         -5    1    3    3    0  502  0.19747481267E+02 -0.22275338158E+03  0.46268466079E+02  0.22840156606E+03  0.41800000000E+01 0.  1.
        -11    1    1    2    0    0  0.30399545098E+02  0.21788850878E+03  0.61665285919E+02  0.22847788096E+03  0.00000000000E+00 0.  1.
         11    1    1    2    0    0 -0.48000089847E+02  0.16606280963E+03  0.89194052126E+02  0.19451592300E+03  0.00000000000E+00 0. -1.
</event>
<event>
 7    1  0.2878477E-009  0.1492833E+03  0.7561462E-02  0.1201356E+00
          1   -1    0    0  501    0  0.00000000000E+00  0.00000000000E+00  0.62192469781E+03  0.62192469781E+03  0.00000000000E+00 0. -1.
         -1   -1    0    0    0  501 -0.00000000000E+00 -0.00000000000E+00 -0.39464093305E+02  0.39464093305E+02  0.00000000000E+00 0.  1.
         25    2    1    2    0    0  0.73503978730E+02  0.85885194929E+02  0.33824249855E+03  0.37793477493E+03  0.12509038603E+03 0.  0.
          5    1    3    3  502    0  0.10021529432E+03  0.88931774361E+02  0.31429965305E+03  0.34169242018E+03  0.41800000000E+01 0.  1.
         -5    1    3    3    0  502 -0.26711315586E+02 -0.30465794323E+01  0.23942845502E+02  0.36242354743E+02  0.41800000000E+01 0.  1.
        -11    1    1    2    0    0  0.95327386690E+01 -0.42627251468E+02  0.12138944303E+03  0.12900911810E+03  0.00000000000E+00 0. -1.
         11    1    1    2    0    0 -0.83036717399E+02 -0.43257943460E+02  0.12282866293E+03  0.15444489809E+03  0.00000000000E+00 0.  1.
</event>
<event>
 7    1  0.2878477E-009  0.1319991E+03  0.7561462E-02  0.1224519E+00
          2   -1    0    0  501    0  0.00000000000E+00  0.00000000000E+00  0.12023384659E+04  0.12023384659E+04  0.00000000000E+00 0. -1.
         -2   -1    0    0    0  501 -0.00000000000E+00 -0.00000000000E+00 -0.19135937059E+02  0.19135937059E+02  0.00000000000E+00 0.  1.
         25    2    1    2    0    0  0.23674856428E+02  0.78518421250E+02  0.92443799432E+03  0.93646007574E+03  0.12508487843E+03 0.  0.
          5    1    3    3  502    0 -0.24868007111E+02 -0.22651091210E+02  0.30980453925E+03  0.31165335655E+03  0.41800000000E+01 0. -1.
         -5    1    3    3    0  502  0.48542863539E+02  0.10116951246E+03  0.61463345507E+03  0.62480671919E+03  0.41800000000E+01 0. -1.
        -11    1    1    2    0    0 -0.13322240889E+02  0.17075953577E+02  0.68355229013E+02  0.71704306888E+02  0.00000000000E+00 0.  1.
         11    1    1    2    0    0 -0.10352615539E+02 -0.95594374826E+02  0.19040930547E+03  0.21331002029E+03  0.00000000000E+00 0. -1.
</event>
<event>
 7    1  0.2878477E-009  0.1369515E+03  0.7561462E-02  0.1217491E+00
          2   -1    0    0  501    0  0.00000000000E+00  0.00000000000E+00  0.29371385265E+03  0.29371385265E+03  0.00000000000E+00 0. -1.
         -2   -1    0    0    0  501 -0.00000000000E+00 -0.00000000000E+00 -0.74660277707E+02  0.74660277707E+02  0.00000000000E+00 0.  1.
         25    2    1    2    0    0 -0.41019348732E+02  0.90145012594E+02  0.10356208188E+03  0.19021234067E+03  0.12508764717E+03 0.  0.
          5    1    3    3  502    0  0.41230588596E+02  0.17289712233E+02  0.10392531048E+02  0.46090917616E+02  0.41800000000E+01 0.  1.
         -5    1    3    3    0  502 -0.82249937328E+02  0.72855300360E+02  0.93169550837E+02  0.14412142306E+03  0.41800000000E+01 0.  1.
        -11    1    1    2    0    0 -0.98072365354E+01  0.51226040923E+01  0.51437991646E+02  0.52614541200E+02  0.00000000000E+00 0. -1.
         11    1    1    2    0    0  0.50826585268E+02 -0.95267616686E+02  0.64053501416E+02  0.12554724849E+03  0.00000000000E+00 0.  1.
</event>
<event>
 7    1  0.2878477E-009  0.1186258E+03  0.7561462E-02  0.1245381E+00
         -1   -1    0    0    0  501 -0.00000000000E+00  0.00000000000E+00  0.56073945481E+02  0.56073945481E+02  0.00000000000E+00 0.  1.
          1   -1    0    0  501    0  0.00000000000E+00 -0.00000000000E+00 -0.43964181221E+03  0.43964181221E+03  0.00000000000E+00 0. -1.
         25    2    1    2    0    0  0.36271075624E+02 -0.73040052625E+02 -0.32989764178E+03  0.36211992540E+03  0.12509175075E+03 0.  0.
          5    1    3    3  502    0  0.12111782357E+02 -0.99659112706E+02 -0.29578866526E+03  0.31238924584E+03  0.41800000000E+01 0.  1.
         -5    1    3    3    0  502  0.24159293267E+02  0.26619060081E+02 -0.34108976520E+02  0.49730679565E+02  0.41800000000E+01 0.  1.
        -11    1    1    2    0    0 -0.41538114633E+02  0.17966155897E+02  0.12878095010E+02  0.47053618948E+02  0.00000000000E+00 0.  1.
         11    1    1    2    0    0  0.52670390087E+01  0.55073896728E+02 -0.66548319958E+02  0.86542213341E+02  0.00000000000E+00 0. -1.
</event>
<event>
 7    1  0.2878477E-009  0.5702424E+02  0.7561462E-02  0.1410762E+00
         -1   -1    0    0    0  501 -0.00000000000E+00  0.00000000000E+00  0.25241884827E+02  0.25241884827E+02  0.00000000000E+00 0.  1.
          1   -1    0    0  501    0  0.00000000000E+00 -0.00000000000E+00 -0.11911027955E+04  0.11911027955E+04  0.00000000000E+00 0. -1.
         25    2    1    2    0    0 -0.52972872776E+02  0.12077571742E+02 -0.10538095659E+04  0.10625977765E+04  0.12508973007E+03 0.  0.
          5    1    3    3  502    0 -0.17254747174E+02  0.11044689282E+02 -0.22705344734E+02  0.30866106668E+02  0.41800000000E+01 0.  1.
         -5    1    3    3    0  502 -0.35718125602E+02  0.10328824595E+01 -0.10311042211E+04  0.10317316698E+04  0.41800000000E+01 0.  1.
        -11    1    1    2    0    0  0.17444959845E+02 -0.12784307638E+02 -0.11599473446E+03  0.11799382852E+03  0.00000000000E+00 0. -1.
         11    1    1    2    0    0  0.35527912932E+02  0.70673589613E+00  0.39433896225E+01  0.35753075317E+02  0.00000000000E+00 0.  1.
</event>
<event>
 7    1  0.2878477E-009  0.8923140E+02  0.7561462E-02  0.1304724E+00
          2   -1    0    0  501    0  0.00000000000E+00  0.00000000000E+00  0.17079216812E+04  0.17079216812E+04  0.00000000000E+00 0. -1.
         -2   -1    0    0    0  501 -0.00000000000E+00 -0.00000000000E+00 -0.14218326227E+02  0.14218326227E+02  0.00000000000E+00 0.  1.
         25    2    1    2    0    0  0.13251498653E+02  0.23134744480E+02  0.15055239203E+04  0.15109468209E+04  0.12508877722E+03 0.  0.
          5    1    3    3  502    0  0.36291352681E+02  0.44252484752E+02  0.13903746211E+04  0.13915582647E+04  0.41800000000E+01 0.  1.
         -5    1    3    3    0  502 -0.23039854028E+02 -0.21117740272E+02  0.11514929920E+03  0.11938855613E+03  0.41800000000E+01 0.  1.
        -11    1    1    2    0    0 -0.48532198702E+02 -0.24241577632E+02  0.74495000019E+02  0.92154942487E+02  0.00000000000E+00 0.  1.
         11    1    1    2    0    0  0.35280700048E+02  0.11068331523E+01  0.11368443459E+03  0.11903824404E+03  0.00000000000E+00 0. -1.
</event>
<event>
 7    1  0.6463153E-009  0.2193266E+03  0.7561462E-02  0.1134386E+00
         -1   -1    0    0    0  501 -0.00000000000E+00  0.00000000000E+00  0.17662585387E+03  0.17662585387E+03  0.00000000000E+00 0.  1.
          1   -1    0    0  501    0  0.00000000000E+00 -0.00000000000E+00 -0.33736220354E+03  0.33736220354E+03  0.00000000000E+00 0. -1.
         25    2    1    2    0    0  0.11662903917E+03  0.17445561886E+03 -0.14561277667E+03  0.28439742690E+03  0.12506686200E+03 0.  0.
          5    1    3    3  502    0  0.11268973421E+03  0.15787904659E+03 -0.69185834483E+02  0.20598281880E+03  0.41800000000E+01 0.  1.
         -5    1    3    3    0  502  0.39393049628E+01  0.16576572273E+02 -0.76426942190E+02  0.78414608106E+02  0.41800000000E+01 0.  1.
        -11    1    1    2    0    0 -0.33453274507E+02 -0.12700011892E+03  0.62205291947E+01  0.13147945377E+03  0.00000000000E+00 0.  1.
         11    1    1    2    0    0 -0.83175764662E+02 -0.47455499942E+02 -0.21344102188E+02  0.98111176734E+02  0.00000000000E+00 0. -1.
</event>
<event>
 7    1  0.2878477E-009  0.1116157E+03  0.7561462E-02  0.1257607E+00
         -1   -1    0    0    0  501 -0.00000000000E+00  0.00000000000E+00  0.10334021954E+04  0.10334021954E+04  0.00000000000E+00 0.  1.
          1   -1    0    0  501    0  0.00000000000E+00 -0.00000000000E+00 -0.14799693850E+02  0.14799693850E+02  0.00000000000E+00 0. -1.
         25    2    1    2    0    0  0.26349634631E+02  0.51485784666E+02  0.52178684318E+03  0.53968064744E+03  0.12509437334E+03 0.  0.
          5    1    3    3  502    0  0.62049577903E+02  0.48622019018E+02  0.46996301319E+03  0.47654690957E+03  0.41800000000E+01 0. -1.
         -5    1    3    3    0  502 -0.35699943272E+02  0.28637656478E+01  0.51823829988E+02  0.63133737874E+02  0.41800000000E+01 0. -1.
        -11    1    1    2    0    0 -0.55409345074E+02 -0.80775137647E+01  0.27417427771E+03  0.27983383696E+03  0.00000000000E+00 0. -1.
         11    1    1    2    0    0  0.29059710443E+02 -0.43408270902E+02  0.22264138070E+03  0.22868740489E+03  0.00000000000E+00 0.  1.
</event>
<event>
 7    1  0.3256861E-009  0.1214785E+03  0.7561462E-02  0.1240678E+00
          2   -1    0    0  501    0  0.00000000000E+00  0.00000000000E+00  0.16802828636E+04  0.16802828636E+04  0.00000000000E+00 0. -1.
         -2   -1    0    0    0  501 -0.00000000000E+00 -0.00000000000E+00 -0.11499290078E+02  0.11499290078E+02  0.00000000000E+00 0.  1.
         25    2    1    2    0    0  0.47006750158E+02 -0.61219597036E+02  0.11458510602E+04  0.11552401067E+04  0.12509028107E+03 0.  0.
          5    1    3    3  502    0  0.76411465895E+02 -0.32153921836E+02  0.41563657192E+03  0.42384409766E+03  0.41800000000E+01 0. -1.
         -5    1    3    3    0  502 -0.29404715737E+02 -0.29065675200E+02  0.73021448825E+03  0.73139600904E+03  0.41800000000E+01 0. -1.
        -11    1    1    2    0    0 -0.73130166505E+02  0.33934447162E+02  0.31162020668E+03  0.32187997945E+03  0.00000000000E+00 0. -1.
         11    1    1    2    0    0  0.26123416347E+02  0.27285149874E+02  0.21131230669E+03  0.21466206755E+03  0.00000000000E+00 0.  1.
</event>
<event>
 6    1  0.2878477E-009  0.1256013E+03  0.7561462E-02  0.1234133E+00
         -4   -1    0    0    0  501 -0.00000000000E+00  0.00000000000E+00  0.12093328187E+03  0.12093328187E+03  0.00000000000E+00 0.  1.
          4   -1    0    0  501    0  0.00000000000E+00 -0.00000000000E+00 -0.22074156463E+03  0.22074156463E+03  0.00000000000E+00 0. -1.
          5    1    1    2  502    0 -0.40246002202E+01  0.10607089356E+03  0.26660794219E+01  0.10626293920E+03  0.41800000000E+01 0.  1.
         -5    1    1    2    0  502  0.17000093858E+02  0.11751064900E+02 -0.80266293268E+02  0.82989402651E+02  0.41800000000E+01 0.  1.
        -11    1    1    2    0    0  0.11632528202E+02 -0.58842036569E+02 -0.54301060948E+02  0.80909246691E+02  0.00000000000E+00 0. -1.
         11    1    1    2    0    0 -0.24608021840E+02 -0.58979921892E+02  0.32092992034E+02  0.71513257952E+02  0.00000000000E+00 0.  1.
</event>
<event>
 7    1  0.2878477E-009  0.1194044E+03  0.7561462E-02  0.1244083E+00
         -2   -1    0    0    0  501 -0.00000000000E+00  0.00000000000E+00  0.94901513000E+02  0.94901513000E+02  0.00000000000E+00 0.  1.
          2   -1    0    0  501    0  0.00000000000E+00 -0.00000000000E+00 -0.25469939283E+03  0.25469939283E+03  0.00000000000E+00 0. -1.
         25    2    1    2    0    0  0.28225999143E+02 -0.87557105165E+02 -0.16643612918E+03  0.22762387668E+03  0.12509472590E+03 0.  0.
          5    1    3    3  502    0 -0.32625247538E+02 -0.76412472707E+02 -0.13380289938E+03  0.15755621551E+03  0.41800000000E+01 0.  1.
         -5    1    3    3    0  502  0.60851246682E+02 -0.11144632459E+02 -0.32633229792E+02  0.70067661171E+02  0.41800000000E+01 0.  1.
        -11    1    1    2    0    0 -0.16300361810E+02  0.72986981132E+02  0.39145461228E+02  0.84410712262E+02  0.00000000000E+00 0.  1.
         11    1    1    2    0    0 -0.11925637333E+02  0.14570124034E+02 -0.32507211880E+02  0.37566316886E+02  0.00000000000E+00 0. -1.
</event>
<event>
 7    1  0.2878477E-009  0.1144872E+03  0.7561462E-02  0.1252479E+00
         -2   -1    0    0    0  501 -0.00000000000E+00  0.00000000000E+00  0.49870855136E+02  0.49870855136E+02  0.00000000000E+00 0.  1.
          2   -1    0    0  501    0  0.00000000000E+00 -0.00000000000E+00 -0.33128460816E+03  0.33128460816E+03  0.00000000000E+00 0. -1.
         25    2    1    2    0    0 -0.64108177533E+02 -0.40586919206E+01 -0.19425168519E+03  0.23980889778E+03  0.12509300080E+03 0.  0.
          5    1    3    3  502    0 -0.39558090864E+02 -0.63064157211E+02 -0.84114752730E+02  0.11240415697E+03  0.41800000000E+01 0.  1.
         -5    1    3    3    0  502 -0.24550086669E+02  0.59005465290E+02 -0.11013693246E+03  0.12740474081E+03  0.41800000000E+01 0.  1.
        -11    1    1    2    0    0 -0.12123825674E+01 -0.20534751200E+02 -0.64905117210E+02  0.68086857163E+02  0.00000000000E+00 0. -1.
         11    1    1    2    0    0  0.65320560101E+02  0.24593443121E+02 -0.22256950625E+02  0.73259708350E+02  0.00000000000E+00 0.  1.
</event>
<event>
 7    1  0.2878477E-009  0.1676144E+03  0.7561462E-02  0.1180359E+00
         -2   -1    0    0    0  501 -0.00000000000E+00  0.00000000000E+00  0.23455792143E+03  0.23455792143E+03  0.00000000000E+00 0.  1.
          2   -1    0    0  501    0  0.00000000000E+00 -0.00000000000E+00 -0.14360959890E+03  0.14360959890E+03  0.00000000000E+00 0. -1.
         25    2    1    2    0    0  0.13810729768E+03  0.46772541756E+02  0.75114777257E+02  0.20626236849E+03  0.12506253858E+03 0.  0.
          5    1    3    3  502    0  0.64927630242E+02 -0.23287038900E+02  0.78789061142E+02  0.10480015222E+03  0.41800000000E+01 0. -1.
         -5    1    3    3    0  502  0.73179667442E+02  0.70059580656E+02 -0.36742838849E+01  0.10146221627E+03  0.41800000000E+01 0. -1.
        -11    1    1    2    0    0 -0.96335048192E+02 -0.67957004855E+02  0.32335087079E+02  0.12224628369E+03  0.00000000000E+00 0.  1.
         11    1    1    2    0    0 -0.41772249492E+02  0.21184463099E+02 -0.16501541798E+02  0.49658868152E+02  0.00000000000E+00 0. -1.
</event>
<event>
 7    1  0.2878477E-009  0.2317059E+03  0.7561462E-02  0.1125445E+00
         -2   -1    0    0    0  501 -0.00000000000E+00  0.00000000000E+00  0.36874939870E+02  0.36874939870E+02  0.00000000000E+00 0.  1.
          2   -1    0    0  501    0  0.00000000000E+00 -0.00000000000E+00 -0.15741740472E+04  0.15741740472E+04  0.00000000000E+00 0. -1.
         25    2    1    2    0    0 -0.30006658945E+02 -0.21234694393E+03 -0.74509060880E+03  0.78536557573E+03  0.12508975991E+03 0.  0.
          5    1    3    3  502    0 -0.75365521868E+02 -0.15175616476E+03 -0.56759279070E+03  0.59235879658E+03  0.41800000000E+01 0. -1.
         -5    1    3    3    0  502  0.45358862923E+02 -0.60590779165E+02 -0.17749781811E+03  0.19300677915E+03  0.41800000000E+01 0. -1.
        -11    1    1    2    0    0  0.19683094147E+02  0.32652123923E+02 -0.55688844298E+02  0.67489501192E+02  0.00000000000E+00 0. -1.
         11    1    1    2    0    0  0.10323564797E+02  0.17969482000E+03 -0.73651965421E+03  0.75819391013E+03  0.00000000000E+00 0.  1.
</event>
<event>
 7    1  0.2878477E-009  0.1119854E+03  0.7561462E-02  0.1256937E+00
         -1   -1    0    0    0  501 -0.00000000000E+00  0.00000000000E+00  0.15822766603E+02  0.15822766603E+02  0.00000000000E+00 0.  1.
          1   -1    0    0  501    0  0.00000000000E+00 -0.00000000000E+00 -0.80102143787E+03  0.80102143787E+03  0.00000000000E+00 0. -1.
         25    2    1    2    0    0  0.29793659469E+02  0.50798477594E+01 -0.44654734460E+03  0.46472081152E+03  0.12508970658E+03 0.  0.
          5    1    3    3  502    0  0.56437558727E+02 -0.44574696446E+02 -0.23927078155E+03  0.24988013307E+03  0.41800000000E+01 0.  1.
         -5    1    3    3    0  502 -0.26643899258E+02  0.49654544205E+02 -0.20727656305E+03  0.21484067845E+03  0.41800000000E+01 0.  1.
        -11    1    1    2    0    0 -0.20082546120E+02  0.42425251340E+02 -0.14082489808E+03  0.14844144478E+03  0.00000000000E+00 0.  1.
         11    1    1    2    0    0 -0.97111133488E+01 -0.47505099099E+02 -0.19782642858E+03  0.20368194816E+03  0.00000000000E+00 0. -1.
</event>
<event>
 7    1  0.2878477E-009  0.2463075E+03  0.7561462E-02  0.1115661E+00
         -1   -1    0    0    0  501 -0.00000000000E+00  0.00000000000E+00  0.17634881520E+04  0.17634881520E+04  0.00000000000E+00 0.  1.
          1   -1    0    0  501    0  0.00000000000E+00 -0.00000000000E+00 -0.39722293034E+02  0.39722293034E+02  0.00000000000E+00 0. -1.
         25    2    1    2    0    0  0.23859171787E+03  0.31015807764E+02  0.80368075739E+03  0.84819695507E+03  0.12508927460E+03 0.  0.
          5    1    3    3  502    0  0.22485940577E+03  0.40642475957E+02  0.57337849390E+03  0.61724705984E+03  0.41800000000E+01 0.  1.
         -5    1    3    3    0  502  0.13732312097E+02 -0.96266681928E+01  0.23030226349E+03  0.23094989523E+03  0.41800000000E+01 0.  1.
        -11    1    1    2    0    0 -0.93977475217E+02  0.14704250833E+02  0.23874645995E+03  0.25699776843E+03  0.00000000000E+00 0. -1.
         11    1    1    2    0    0 -0.14461424265E+03 -0.45720058597E+02  0.68133864160E+03  0.69801572150E+03  0.00000000000E+00 0.  1.
</event>
<event>
 7    1  0.2878477E-009  0.1196948E+03  0.7561462E-02  0.1243601E+00
          2   -1    0    0  501    0  0.00000000000E+00  0.00000000000E+00  0.67441842060E+03  0.67441842060E+03  0.00000000000E+00 0. -1.
         -2   -1    0    0    0  501 -0.00000000000E+00 -0.00000000000E+00 -0.23233962395E+02  0.23233962395E+02  0.00000000000E+00 0.  1.
         25    2    1    2    0    0 -0.48382703008E+02 -0.30622903967E+02  0.43304206344E+03  0.45437081022E+03  0.12509498899E+03 0.  0.
          5    1    3    3  502    0 -0.24455801672E+02  0.46750180326E+02  0.12310628986E+03  0.13400110671E+03  0.41800000000E+01 0.  1.
         -5    1    3    3    0  502 -0.23926901336E+02 -0.77373084293E+02  0.30993577358E+03  0.32036970351E+03  0.41800000000E+01 0.  1.
        -11    1    1    2    0    0  0.74472710937E+02  0.25939010911E+02  0.18295421925E+03  0.19922666313E+03  0.00000000000E+00 0.  1.
         11    1    1    2    0    0 -0.26090007928E+02  0.46838930559E+01  0.35188175510E+02  0.44054909642E+02  0.00000000000E+00 0. -1.
</event>
<event>
 7    1  0.4544495E-009  0.1367265E+03  0.7561462E-02  0.1217803E+00
         -1   -1    0    0    0  501 -0.00000000000E+00  0.00000000000E+00  0.80858348809E+02  0.80858348809E+02  0.00000000000E+00 0.  1.
          1   -1    0    0  501    0  0.00000000000E+00 -0.00000000000E+00 -0.28925821734E+03  0.28925821734E+03  0.00000000000E+00 0. -1.
         25    2    1    2    0    0 -0.98345128288E+02 -0.35226899771E+02 -0.82397423011E+02  0.18261677450E+03  0.12508737860E+03 0.  0.
          5    1    3    3  502    0  0.14983586330E+02  0.14744986879E+01 -0.59143703237E+02  0.61172968199E+02  0.41800000000E+01 0.  1.
         -5    1    3    3    0  502 -0.11332871462E+03 -0.36701398459E+02 -0.23253719774E+02  0.12144380630E+03  0.41800000000E+01 0.  1.
        -11    1    1    2    0    0  0.30019533950E+02  0.59073356348E+02 -0.54964884792E+02  0.86092812760E+02  0.00000000000E+00 0.  1.
         11    1    1    2    0    0  0.68325594338E+02 -0.23846456576E+02 -0.71037560728E+02  0.10140697889E+03  0.00000000000E+00 0. -1.
</event>
<event>
 7    1  0.2878477E-009  0.1261103E+03  0.7561462E-02  0.1233344E+00
         -2   -1    0    0    0  501 -0.00000000000E+00  0.00000000000E+00  0.31040225016E+03  0.31040225016E+03  0.00000000000E+00 0.  1.
          2   -1    0    0  501    0  0.00000000000E+00 -0.00000000000E+00 -0.29076002950E+03  0.29076002950E+03  0.00000000000E+00 0. -1.
         25    2    1    2    0    0 -0.32665159798E+02  0.11365110677E+03 -0.24303059571E+03  0.29781693221E+03  0.12508983942E+03 0.  0.
          5    1    3    3  502    0 -0.23332776016E+02  0.19833875435E+02  0.60174922027E+01  0.31487833584E+02  0.41800000000E+01 0.  1.
         -5    1    3    3    0  502 -0.93323837819E+01  0.93817231333E+02 -0.24904808791E+03  0.26632909863E+03  0.41800000000E+01 0.  1.
        -11    1    1    2    0    0  0.25424122935E+02 -0.18326109395E+02  0.16006327461E+03  0.16310267990E+03  0.00000000000E+00 0.  1.
         11    1    1    2    0    0  0.72410368629E+01 -0.95324997373E+02  0.10260954176E+03  0.14024266754E+03  0.00000000000E+00 0. -1.
</event>
<event>
 7    1  0.2878477E-009  0.1783624E+03  0.7561462E-02  0.1169397E+00
          1   -1    0    0  501    0  0.00000000000E+00  0.00000000000E+00  0.15178328455E+03  0.15178328455E+03  0.00000000000E+00 0. -1.
         -1   -1    0    0    0  501 -0.00000000000E+00 -0.00000000000E+00 -0.21757623835E+03  0.21757623835E+03  0.00000000000E+00 0.  1.
         25    2    1    2    0    0  0.12710411058E+03 -0.72170489710E+02 -0.31757735184E+02  0.19499316842E+03  0.12509895074E+03 0.  0.
          5    1    3    3  502    0  0.13415375573E+03 -0.93148320712E+02 -0.10003938625E+02  0.16368075946E+03  0.41800000000E+01 0. -1.
         -5    1    3    3    0  502 -0.70496451532E+01  0.20977831002E+02 -0.21753796559E+02  0.31312408963E+02  0.41800000000E+01 0. -1.
        -11    1    1    2    0    0 -0.91184984768E+02  0.10946478322E+01 -0.22204519596E+02  0.93855955546E+02  0.00000000000E+00 0.  1.
         11    1    1    2    0    0 -0.35919125812E+02  0.71075841878E+02 -0.11830699024E+02  0.80510398938E+02  0.00000000000E+00 0. -1.
</event>
<event>
 7    1  0.2878477E-009  0.1154477E+03  0.7561462E-02  0.1250802E+00
         -1   -1    0    0    0  501 -0.00000000000E+00  0.00000000000E+00  0.21040437625E+03  0.21040437625E+03  0.00000000000E+00 0.  1.
          1   -1    0    0  501    0  0.00000000000E+00 -0.00000000000E+00 -0.12041173720E+03  0.12041173720E+03  0.00000000000E+00 0. -1.
         25    2    1    2    0    0 -0.11097609366E+03  0.36351001006E+00  0.15058237060E+02  0.16790600442E+03  0.12509936176E+03 0.  0.
          5    1    3    3  502    0 -0.36712244323E+02 -0.19693829125E+02  0.64114066598E+02  0.76574941884E+02  0.41800000000E+01 0. -1.
         -5    1    3    3    0  502 -0.74263849337E+02  0.20057339135E+02 -0.49055829538E+02  0.91331062531E+02  0.41800000000E+01 0. -1.
        -11    1    1    2    0    0  0.79709720290E+02 -0.70256913282E+01  0.95733377129E+02  0.12477130818E+03  0.00000000000E+00 0.  1.
         11    1    1    2    0    0  0.31266373370E+02  0.66621813182E+01 -0.20798975147E+02  0.38138800857E+02  0.00000000000E+00 0. -1.
</event>
<event>
 7    1  0.2878477E-009  0.1204635E+03  0.7561462E-02  0.1242334E+00
          1   -1    0    0  501    0  0.00000000000E+00  0.00000000000E+00  0.91386487947E+02  0.91386487947E+02  0.00000000000E+00 0. -1.
         -1   -1    0    0    0  501 -0.00000000000E+00 -0.00000000000E+00 -0.21887008545E+03  0.21887008545E+03  0.00000000000E+00 0.  1.
         25    2    1    2    0    0 -0.89395615591E+02  0.37869278803E+01 -0.88750848167E+02  0.17756821794E+03  0.12509133489E+03 0.  0.
          5    1    3    3  502    0  0.29075987909E+02 -0.11087945022E+02 -0.33573050184E+02  0.45967137134E+02  0.41800000000E+01 0. -1.
         -5    1    3    3    0  502 -0.11847160350E+03  0.14874872903E+02 -0.55177797983E+02  0.13160108081E+03  0.41800000000E+01 0. -1.
        -11    1    1    2    0    0  0.32456037717E+02  0.35252745223E+01 -0.62533712071E+02  0.70542803249E+02  0.00000000000E+00 0.  1.
         11    1    1    2    0    0  0.56939577874E+02 -0.73122024026E+01  0.23800962732E+02  0.62145552209E+02  0.00000000000E+00 0. -1.
</event>
<event>
 7    1  0.2878477E-009  0.2230684E+03  0.7561462E-02  0.1131616E+00
         -2   -1    0    0    0  501 -0.00000000000E+00  0.00000000000E+00  0.11180198019E+03  0.11180198019E+03  0.00000000000E+00 0.  1.
          2   -1    0    0  501    0  0.00000000000E+00 -0.00000000000E+00 -0.46706754728E+03  0.46706754728E+03  0.00000000000E+00 0. -1.
         25    2    1    2    0    0  0.19930228433E+03  0.12187671724E+02 -0.20613679455E+03  0.31306337799E+03  0.12508541358E+03 0.  0.
          5    1    3    3  502    0  0.13018034142E+03  0.61694924276E+02 -0.93167307291E+02  0.17161236704E+03  0.41800000000E+01 0. -1.
         -5    1    3    3    0  502  0.69121942911E+02 -0.49507252552E+02 -0.11296948726E+03  0.14145101095E+03  0.41800000000E+01 0. -1.
        -11    1    1    2    0    0 -0.10904856457E+02  0.22799114996E+02 -0.43544186390E+01  0.25645204242E+02  0.00000000000E+00 0.  1.
         11    1    1    2    0    0 -0.18839742787E+03 -0.34986786719E+02 -0.14477435389E+03  0.24016094524E+03  0.00000000000E+00 0. -1.
</event>
<event>
 7    1  0.2878477E-009  0.9968886E+02  0.7561462E-02  0.1280952E+00
          2   -1    0    0  501    0  0.00000000000E+00  0.00000000000E+00  0.93204820721E+02  0.93204820721E+02  0.00000000000E+00 0. -1.
         -2   -1    0    0    0  501 -0.00000000000E+00 -0.00000000000E+00 -0.23312301237E+03  0.23312301237E+03  0.00000000000E+00 0.  1.
         25    2    1    2    0    0 -0.35255556946E+02  0.54935399756E+02 -0.25280758857E+01  0.14111950235E+03  0.12508984904E+03 0.  0.
          5    1    3    3  502    0  0.24042583520E+02  0.53587794598E+02 -0.39681685137E+02  0.71005676446E+02  0.41800000000E+01 0. -1.
         -5    1    3    3    0  502 -0.59298140466E+02  0.13476051575E+01  0.37153609251E+02  0.70113825904E+02  0.41800000000E+01 0. -1.
        -11    1    1    2    0    0 -0.64419144310E+01 -0.33568978455E+02  0.56903916158E+01  0.34651913840E+02  0.00000000000E+00 0. -1.
         11    1    1    2    0    0  0.41697471377E+02 -0.21366421301E+02 -0.14308050738E+03  0.15055641690E+03  0.00000000000E+00 0.  1.
</event>
<event>
 7    1  0.2878477E-009  0.1163791E+03  0.7561462E-02  0.1249193E+00
          2   -1    0    0  501    0  0.00000000000E+00  0.00000000000E+00  0.46965334814E+03  0.46965334814E+03  0.00000000000E+00 0. -1.
         -2   -1    0    0    0  501 -0.00000000000E+00 -0.00000000000E+00 -0.36499276239E+02  0.36499276239E+02  0.00000000000E+00 0.  1.
         25    2    1    2    0    0  0.43295934895E+02  0.56218153564E+02  0.21456876217E+03  0.25830764119E+03  0.12509222611E+03 0.  0.
          5    1    3    3  502    0  0.68581271694E+02  0.18018659923E+02  0.48561795965E+02  0.86045240194E+02  0.41800000000E+01 0.  1.
         -5    1    3    3    0  502 -0.25285336800E+02  0.38199493642E+02  0.16600696620E+03  0.17226240100E+03  0.41800000000E+01 0.  1.
        -11    1    1    2    0    0 -0.42136982852E+01 -0.73051376315E+02  0.15401909875E+03  0.17051727659E+03  0.00000000000E+00 0. -1.
         11    1    1    2    0    0 -0.39082236610E+02  0.16833222751E+02  0.64566210982E+02  0.77327706595E+02  0.00000000000E+00 0.  1.
</event>
<event>
 7    1  0.2878477E-009  0.9854290E+02  0.7561462E-02  0.1283390E+00
         -2   -1    0    0    0  501 -0.00000000000E+00  0.00000000000E+00  0.30505077223E+02  0.30505077223E+02  0.00000000000E+00 0.  1.
          2   -1    0    0  501    0  0.00000000000E+00 -0.00000000000E+00 -0.60249222211E+03  0.60249222211E+03  0.00000000000E+00 0. -1.
         25    2    1    2    0    0  0.36904290821E+02 -0.68808922258E+02 -0.37959837755E+03  0.40723367874E+03  0.12509095250E+03 0.  0.
          5    1    3    3  502    0  0.12391856010E+02 -0.32426662239E+02 -0.35509314605E+03  0.35681039964E+03  0.41800000000E+01 0. -1.
         -5    1    3    3    0  502  0.24512434811E+02 -0.36382260019E+02 -0.24505231505E+02  0.50423279104E+02  0.41800000000E+01 0. -1.
        -11    1    1    2    0    0  0.29444778180E+02  0.24049967495E+02 -0.65921633735E+02  0.76098999289E+02  0.00000000000E+00 0.  1.
         11    1    1    2    0    0 -0.66349069001E+02  0.44758954763E+02 -0.12646713359E+03  0.14966462130E+03  0.00000000000E+00 0. -1.
</event>
<event>
 7    1  0.2878477E-009  0.8106377E+02  0.7561462E-02  0.1326059E+00
         -1   -1    0    0    0  501 -0.00000000000E+00  0.00000000000E+00  0.24276688562E+02  0.24276688562E+02  0.00000000000E+00 0.  1.
          1   -1    0    0  501    0  0.00000000000E+00 -0.00000000000E+00 -0.85362324348E+03  0.85362324348E+03  0.00000000000E+00 0. -1.
         25    2    1    2    0    0  0.24235046680E+02 -0.41997335921E+01 -0.73026301600E+03  0.74130802978E+03  0.12509415345E+03 0.  0.
          5    1    3    3  502    0 -0.48701191736E+01  0.37942622860E+02 -0.77523690966E+02  0.86549152227E+02  0.41800000000E+01 0.  1.
         -5    1    3    3    0  502  0.29105165854E+02 -0.42142356452E+02 -0.65273932503E+03  0.65475887755E+03  0.41800000000E+01 0.  1.
        -11    1    1    2    0    0 -0.46620962451E+02  0.12690798377E+02 -0.10161382762E+03  0.11251640088E+03  0.00000000000E+00 0. -1.
         11    1    1    2    0    0  0.22385915771E+02 -0.84910647850E+01  0.25302886996E+01  0.24075501386E+02  0.00000000000E+00 0.  1.
</event>
<event>
 7    1  0.2878477E-009  0.9901057E+02  0.7561462E-02  0.1282390E+00
          1   -1    0    0  501    0  0.00000000000E+00  0.00000000000E+00  0.24905029249E+03  0.24905029249E+03  0.00000000000E+00 0.  1.
         -1   -1    0    0    0  501 -0.00000000000E+00 -0.00000000000E+00 -0.49403363483E+02  0.49403363483E+02  0.00000000000E+00 0. -1.
         25    2    1    2    0    0 -0.82041104389E+01  0.26330997911E+01  0.83866255089E+02  0.15089654897E+03  0.12514782900E+03 0.  0.
          5    1    3    3  502    0  0.54835140812E+02 -0.56257185100E+01  0.15435390446E+02  0.57395688469E+02  0.41800000000E+01 0. -1.
         -5    1    3    3    0  502 -0.63039251251E+02  0.82588183010E+01  0.68430864642E+02  0.93500860497E+02  0.41800000000E+01 0. -1.
        -11    1    1    2    0    0  0.67297037820E+01  0.37885865755E+02  0.93912900466E+02  0.10149019958E+03  0.00000000000E+00 0.  1.
         11    1    1    2    0    0  0.14744066569E+01 -0.40518965546E+02  0.21867773450E+02  0.46066907424E+02  0.00000000000E+00 0. -1.
</event>
<event>
 7    1  0.2878477E-009  0.1110938E+03  0.7561462E-02  0.1258558E+00
          3   -1    0    0  501    0  0.00000000000E+00  0.00000000000E+00  0.11532826981E+03  0.11532826981E+03  0.00000000000E+00 0. -1.
         -3   -1    0    0    0  501 -0.00000000000E+00 -0.00000000000E+00 -0.18469448736E+03  0.18469448736E+03  0.00000000000E+00 0.  1.
         25    2    1    2    0    0  0.88480129735E+02 -0.14764382454E+02 -0.78493940114E+02  0.17278786841E+03  0.12509048120E+03 0.  0.
          5    1    3    3  502    0  0.10084612484E+03 -0.25538495124E+02 -0.10071458523E+03  0.14485529230E+03  0.41800000000E+01 0.  1.
         -5    1    3    3    0  502 -0.12365995102E+02  0.10774112670E+02  0.22220645117E+02  0.27932576109E+02  0.41800000000E+01 0.  1.
        -11    1    1    2    0    0 -0.78510977201E+01  0.18846260582E+02  0.36639430960E+02  0.41943642836E+02  0.00000000000E+00 0. -1.
         11    1    1    2    0    0 -0.80629032015E+02 -0.40818781288E+01 -0.27511708402E+02  0.85291245928E+02  0.00000000000E+00 0.  1.
</event>
<event>
 7    1  0.2878477E-009  0.1905003E+03  0.7561462E-02  0.1158011E+00
          3   -1    0    0  501    0  0.00000000000E+00  0.00000000000E+00  0.68316061653E+02  0.68316061653E+02  0.00000000000E+00 0. -1.
         -3   -1    0    0    0  501 -0.00000000000E+00 -0.00000000000E+00 -0.58151203001E+03  0.58151203001E+03  0.00000000000E+00 0.  1.
         25    2    1    2    0    0 -0.24816929775E+02  0.16221554734E+03 -0.21984624743E+03  0.30151158116E+03  0.12508835781E+03 0.  0.
          5    1    3    3  502    0 -0.72840719442E+02  0.11900054662E+03 -0.16899165451E+03  0.21918611315E+03  0.41800000000E+01 0. -1.
         -5    1    3    3    0  502  0.48023789667E+02  0.43215000719E+02 -0.50854592926E+02  0.82325468008E+02  0.41800000000E+01 0. -1.
        -11    1    1    2    0    0 -0.15894235446E+02 -0.10644521317E+03 -0.11721340028E+03  0.15912947977E+03  0.00000000000E+00 0.  1.
         11    1    1    2    0    0  0.40711165221E+02 -0.55770334169E+02 -0.17613632064E+03  0.18918703073E+03  0.00000000000E+00 0. -1.
</event>
<event>
 7    1  0.2878477E-009  0.9757491E+02  0.7561462E-02  0.1285480E+00
         -2   -1    0    0    0  501 -0.00000000000E+00  0.00000000000E+00  0.16074867861E+03  0.16074867861E+03  0.00000000000E+00 0.  1.
          2   -1    0    0  501    0  0.00000000000E+00 -0.00000000000E+00 -0.29627640382E+03  0.29627640382E+03  0.00000000000E+00 0. -1.
         25    2    1    2    0    0  0.20535493371E+02 -0.18998871902E+01  0.12649412255E+03  0.17908745217E+03  0.12508491685E+03 0.  0.
          5    1    3    3  502    0  0.46950560050E+02 -0.50780770518E+02  0.55099232168E+02  0.88523666491E+02  0.41800000000E+01 0. -1.
         -5    1    3    3    0  502 -0.26415066679E+02  0.48880883328E+02  0.71394890385E+02  0.90563785675E+02  0.41800000000E+01 0. -1.
        -11    1    1    2    0    0  0.24214306560E+02 -0.53868070412E+01 -0.20452970758E+02  0.32150806290E+02  0.00000000000E+00 0.  1.
         11    1    1    2    0    0 -0.44749799930E+02  0.72866942315E+01 -0.24156887700E+03  0.24578682398E+03  0.00000000000E+00 0. -1.
</event>
<event>
 6    1  0.2878477E-009  0.1485139E+03  0.7561462E-02  0.1202311E+00
          2   -1    0    0  501    0  0.00000000000E+00  0.00000000000E+00  0.98267572309E+03  0.98267572309E+03  0.00000000000E+00 0. -1.
         -2   -1    0    0    0  501 -0.00000000000E+00 -0.00000000000E+00 -0.24040312265E+02  0.24040312265E+02  0.00000000000E+00 0.  1.
          5    1    1    2  502    0 -0.16437518145E+01 -0.28290890069E+02  0.14630263972E+03  0.14908055262E+03  0.41800000000E+01 0. -1.
         -5    1    1    2    0  502  0.18324606967E+02  0.13106457512E+03  0.48717559286E+03  0.50484774413E+03  0.41800000000E+01 0. -1.
        -11    1    1    2    0    0 -0.44739050274E+02 -0.20806222707E+02  0.99264304990E+02  0.11085072741E+03  0.00000000000E+00 0.  1.
         11    1    1    2    0    0  0.28058195122E+02 -0.81967462348E+02  0.22589287326E+03  0.24193701119E+03  0.00000000000E+00 0. -1.
</event>
<event>
 7    1  0.2878477E-009  0.1278421E+03  0.7561462E-02  0.1230693E+00
         -1   -1    0    0    0  501 -0.00000000000E+00  0.00000000000E+00  0.75363255487E+02  0.75363255487E+02  0.00000000000E+00 0.  1.
          1   -1    0    0  501    0  0.00000000000E+00 -0.00000000000E+00 -0.30408863700E+03  0.30408863700E+03  0.00000000000E+00 0. -1.
         25    2    1    2    0    0 -0.87672487742E+02  0.53686429497E+02 -0.15157365927E+03  0.22179114976E+03  0.12509213449E+03 0.  0.
          5    1    3    3  502    0 -0.84804310245E+01  0.37119994412E+02  0.11252746235E+02  0.39923782302E+02  0.41800000000E+01 0. -1.
         -5    1    3    3    0  502 -0.79192056718E+02  0.16566435085E+02 -0.16282640550E+03  0.18186736746E+03  0.41800000000E+01 0. -1.
        -11    1    1    2    0    0  0.10514030511E+03 -0.55346992748E+02 -0.59937252756E+02  0.13307985434E+03  0.00000000000E+00 0.  1.
         11    1    1    2    0    0 -0.17467817364E+02  0.16605632511E+01 -0.17214469490E+02  0.24580888381E+02  0.00000000000E+00 0. -1.
</event>
<event>
 7    1  0.2878477E-009  0.8664325E+02  0.7561462E-02  0.1311190E+00
         -2   -1    0    0    0  501 -0.00000000000E+00  0.00000000000E+00  0.38526903466E+02  0.38526903466E+02  0.00000000000E+00 0.  1.
          2   -1    0    0  501    0  0.00000000000E+00 -0.00000000000E+00 -0.44606824875E+03  0.44606824875E+03  0.00000000000E+00 0. -1.
         25    2    1    2    0    0 -0.39665244577E+02 -0.48370074350E+02 -0.30211202153E+03  0.33291462060E+03  0.12508986904E+03 0.  0.
          5    1    3    3  502    0  0.25254868708E+02 -0.25715098984E+02 -0.17873261086E+02  0.40447503892E+02  0.41800000000E+01 0. -1.
         -5    1    3    3    0  502 -0.64920113285E+02 -0.22654975366E+02 -0.28423876044E+03  0.29246711671E+03  0.41800000000E+01 0. -1.
        -11    1    1    2    0    0  0.19037300993E+02  0.42655530605E+02 -0.27477852026E+01  0.46791702724E+02  0.00000000000E+00 0. -1.
         11    1    1    2    0    0  0.20627943584E+02  0.57145437447E+01 -0.10268153855E+03  0.10488882889E+03  0.00000000000E+00 0.  1.
</event>
<event>
 7    1  0.2878477E-009  0.1833515E+03  0.7561462E-02  0.1164598E+00
         -1   -1    0    0    0  501 -0.00000000000E+00  0.00000000000E+00  0.20887490213E+03  0.20887490213E+03  0.00000000000E+00 0.  1.
          1   -1    0    0  501    0  0.00000000000E+00 -0.00000000000E+00 -0.27550133853E+03  0.27550133853E+03  0.00000000000E+00 0. -1.
         25    2    1    2    0    0 -0.11194684057E+03  0.13204156274E+03  0.91923942326E+02  0.23251719131E+03  0.12508862328E+03 0.  0.
          5    1    3    3  502    0 -0.56893234486E+02  0.52978071839E+02 -0.24243177654E+02  0.81539685361E+02  0.41800000000E+01 0.  1.
         -5    1    3    3    0  502 -0.55053606084E+02  0.79063490906E+02  0.11616711998E+03  0.15097750595E+03  0.41800000000E+01 0.  1.
        -11    1    1    2    0    0 -0.13451582046E+02 -0.63689685024E+01 -0.27239622339E+02  0.31040390534E+02  0.00000000000E+00 0.  1.
         11    1    1    2    0    0  0.12539842262E+03 -0.12567259424E+03 -0.13131075639E+03  0.22081865882E+03  0.00000000000E+00 0. -1.
</event>
<event>
 7    1  0.2878477E-009  0.1327866E+03  0.7561462E-02  0.1223379E+00
         -2   -1    0    0    0  501 -0.00000000000E+00  0.00000000000E+00  0.54746846520E+02  0.54746846520E+02  0.00000000000E+00 0.  1.
          2   -1    0    0  501    0  0.00000000000E+00 -0.00000000000E+00 -0.45391772153E+03  0.45391772153E+03  0.00000000000E+00 0. -1.
         25    2    1    2    0    0  0.27188681067E+02  0.10965290717E+03 -0.21269816895E+03  0.27138713658E+03  0.12508989727E+03 0.  0.
          5    1    3    3  502    0  0.62518683989E+02  0.45668272380E+02 -0.16947671207E+03  0.18637061271E+03  0.41800000000E+01 0.  1.
         -5    1    3    3    0  502 -0.35330002922E+02  0.63984634789E+02 -0.43221456879E+02  0.85016523866E+02  0.41800000000E+01 0.  1.
        -11    1    1    2    0    0  0.13101513525E+01 -0.33370198593E+02 -0.13913251297E+03  0.14308439054E+03  0.00000000000E+00 0. -1.
         11    1    1    2    0    0 -0.28498832420E+02 -0.76282708577E+02 -0.47340193089E+02  0.94193040925E+02  0.00000000000E+00 0.  1.
</event>
<event>
 7    1  0.2878477E-009  0.9470583E+02  0.7561462E-02  0.1291840E+00
          1   -1    0    0  501    0  0.00000000000E+00  0.00000000000E+00  0.20895560300E+03  0.20895560300E+03  0.00000000000E+00 0. -1.
         -1   -1    0    0    0  501 -0.00000000000E+00 -0.00000000000E+00 -0.73413722437E+02  0.73413722437E+02  0.00000000000E+00 0.  1.
         25    2    1    2    0    0  0.56350571251E+01 -0.38433362261E+02  0.12763264395E+03  0.18286822327E+03  0.12506725422E+03 0.  0.
          5    1    3    3  502    0  0.35598805824E+02 -0.64875256679E+02  0.12135670323E+03  0.14220054755E+03  0.41800000000E+01 0.  1.
         -5    1    3    3    0  502 -0.29963748699E+02  0.26441894418E+02  0.62759407157E+01  0.40667675719E+02  0.41800000000E+01 0.  1.
        -11    1    1    2    0    0 -0.29860924922E+02  0.41032483701E+02 -0.26569352830E+02  0.57282371334E+02  0.00000000000E+00 0.  1.
         11    1    1    2    0    0  0.24225867797E+02 -0.25991214394E+01  0.34478589444E+02  0.42218730829E+02  0.00000000000E+00 0. -1.
</event>
<event>
 7    1  0.2878477E-009  0.1840851E+03  0.7561462E-02  0.1163907E+00
          1   -1    0    0  501    0  0.00000000000E+00  0.00000000000E+00  0.12316922269E+03  0.12316922269E+03  0.00000000000E+00 0. -1.
         -1   -1    0    0    0  501 -0.00000000000E+00 -0.00000000000E+00 -0.31528411207E+03  0.31528411207E+03  0.00000000000E+00 0.  1.
         25    2    1    2    0    0  0.15878673266E+03  0.39912889190E+02 -0.97673614472E+02  0.22802311379E+03  0.12509252681E+03 0.  0.
          5    1    3    3  502    0  0.15643239828E+03  0.71779652106E+02 -0.71158788778E+02  0.18629132913E+03  0.41800000000E+01 0.  1.
         -5    1    3    3    0  502  0.23543343855E+01 -0.31866762916E+02 -0.26514825694E+02  0.41731784658E+02  0.41800000000E+01 0.  1.
        -11    1    1    2    0    0 -0.12686775191E+03 -0.30160272585E+02 -0.11272758838E+03  0.17237336714E+03  0.00000000000E+00 0.  1.
         11    1    1    2    0    0 -0.31918980752E+02 -0.97526166053E+01  0.18286313473E+02  0.38056853829E+02  0.00000000000E+00 0. -1.
</event>
<event>
 7    1  0.2878477E-009  0.2137677E+03  0.7561462E-02  0.1138617E+00
         -2   -1    0    0    0  501 -0.00000000000E+00  0.00000000000E+00  0.17514079123E+03  0.17514079123E+03  0.00000000000E+00 0.  1.
          2   -1    0    0  501    0  0.00000000000E+00 -0.00000000000E+00 -0.35404292568E+03  0.35404292568E+03  0.00000000000E+00 0. -1.
         25    2    1    2    0    0 -0.13761462447E+03  0.13759888751E+03 -0.20918920488E+03  0.31189550824E+03  0.12508975142E+03 0.  0.
          5    1    3    3  502    0 -0.15101031638E+03  0.81903056630E+02 -0.17391812968E+03  0.24449379250E+03  0.41800000000E+01 0. -1.
         -5    1    3    3    0  502  0.13395691914E+02  0.55695830877E+02 -0.35271075201E+02  0.67401715741E+02  0.41800000000E+01 0. -1.
        -11    1    1    2    0    0  0.98552743974E+02 -0.72535865851E+02  0.59379295276E+02  0.13601468997E+03  0.00000000000E+00 0.  1.
         11    1    1    2    0    0  0.39061880495E+02 -0.65063021656E+02 -0.29092224847E+02  0.81273518697E+02  0.00000000000E+00 0. -1.
</event>
<event>
 7    1  0.2878477E-009  0.3642336E+03  0.7561462E-02  0.1056920E+00
          1   -1    0    0  501    0  0.00000000000E+00  0.00000000000E+00  0.29334496414E+03  0.29334496414E+03  0.00000000000E+00 0. -1.
         -1   -1    0    0    0  501 -0.00000000000E+00 -0.00000000000E+00 -0.45949163228E+03  0.45949163228E+03  0.00000000000E+00 0.  1.
         25    2    1    2    0    0 -0.64490780588E+02 -0.34455756528E+03 -0.91188690864E+02  0.38320236007E+03  0.12509874041E+03 0.  0.
          5    1    3    3  502    0 -0.76070407655E+02 -0.11342269775E+03 -0.66880604304E+01  0.13679772600E+03  0.41800000000E+01 0.  1.
         -5    1    3    3    0  502  0.11579627067E+02 -0.23113486753E+03 -0.84500630434E+02  0.24640463408E+03  0.41800000000E+01 0.  1.
        -11    1    1    2    0    0  0.37182389301E+02  0.40081671549E+02  0.84153275174E+00  0.54678868365E+02  0.00000000000E+00 0.  1.
         11    1    1    2    0    0  0.27308391287E+02  0.30447589373E+03 -0.75799510030E+02  0.31495536798E+03  0.00000000000E+00 0. -1.
</event>
<event>
 6    1  0.2878477E-009  0.1353700E+03  0.7561462E-02  0.1219698E+00
         -2   -1    0    0    0  501 -0.00000000000E+00  0.00000000000E+00  0.11314720052E+03  0.11314720052E+03  0.00000000000E+00 0.  1.
          2   -1    0    0  501    0  0.00000000000E+00 -0.00000000000E+00 -0.22353890906E+03  0.22353890906E+03  0.00000000000E+00 0. -1.
          5    1    1    2  502    0 -0.78846784117E+02 -0.81470779447E+02 -0.53144190388E+02  0.12528399994E+03  0.41800000000E+01 0.  1.
         -5    1    1    2    0  502  0.21862869002E+02  0.93282812275E+00  0.39028911655E+02  0.44939776972E+02  0.41800000000E+01 0.  1.
        -11    1    1    2    0    0  0.17439935279E+02 -0.20258893678E+02 -0.26560196542E+02  0.37683128266E+02  0.00000000000E+00 0.  1.
         11    1    1    2    0    0  0.39543979836E+02  0.10079684500E+03 -0.69716233266E+02  0.12877920439E+03  0.00000000000E+00 0. -1.
</event>
<event>
 7    1  0.2878477E-009  0.1201872E+03  0.7561462E-02  0.1242789E+00
          1   -1    0    0  501    0  0.00000000000E+00  0.00000000000E+00  0.28885146170E+04  0.28885146170E+04  0.00000000000E+00 0.  1.
         -1   -1    0    0    0  501 -0.00000000000E+00 -0.00000000000E+00 -0.93811907786E+01  0.93811907786E+01  0.00000000000E+00 0. -1.
         25    2    1    2    0    0 -0.42596748561E+02 -0.28933613845E+02  0.25015009623E+04  0.25051559334E+04  0.12509016549E+03 0.  0.
          5    1    3    3  502    0  0.42209825439E+02  0.14143930185E+01  0.58665190600E+03  0.58818500583E+03  0.41800000000E+01 0. -1.
         -5    1    3    3    0  502 -0.84806574000E+02 -0.30348006864E+02  0.19148490563E+04  0.19169709276E+04  0.41800000000E+01 0. -1.
        -11    1    1    2    0    0  0.35256829836E+02  0.63389961691E+02  0.24547413036E+03  0.25596656026E+03  0.00000000000E+00 0.  1.
         11    1    1    2    0    0  0.73399187241E+01 -0.34456347846E+02  0.13215833361E+03  0.13677331412E+03  0.00000000000E+00 0. -1.
</event>
<event>
 7    1  0.2878477E-009  0.1061994E+03  0.7561462E-02  0.1267774E+00
         -1   -1    0    0    0  501 -0.00000000000E+00  0.00000000000E+00  0.15235523907E+02  0.15235523907E+02  0.00000000000E+00 0.  1.
          1   -1    0    0  501    0  0.00000000000E+00 -0.00000000000E+00 -0.11050247493E+04  0.11050247493E+04  0.00000000000E+00 0. -1.
         25    2    1    2    0    0  0.87197777052E+01 -0.14366946162E+02 -0.92259780053E+03  0.93119174283E+03  0.12509563027E+03 0.  0.
          5    1    3    3  502    0 -0.56088516576E+02 -0.18119304774E+02 -0.52390813689E+03  0.52722996804E+03  0.41800000000E+01 0. -1.
         -5    1    3    3    0  502  0.64808294281E+02  0.37523586118E+01 -0.39868966363E+03  0.40396177479E+03  0.41800000000E+01 0. -1.
        -11    1    1    2    0    0 -0.66184153567E+01  0.51068337855E+02 -0.99820382802E+02  0.11232046731E+03  0.00000000000E+00 0. -1.
         11    1    1    2    0    0 -0.21013623485E+01 -0.36701391693E+02 -0.67371042039E+02  0.76748063046E+02  0.00000000000E+00 0.  1.
</event>
<event>
 7    1  0.2878477E-009  0.1687791E+03  0.7561462E-02  0.1179127E+00
          4   -1    0    0  501    0  0.00000000000E+00  0.00000000000E+00  0.22499764020E+03  0.22499764020E+03  0.00000000000E+00 0. -1.
         -4   -1    0    0    0  501 -0.00000000000E+00 -0.00000000000E+00 -0.16450693734E+03  0.16450693734E+03  0.00000000000E+00 0.  1.
         25    2    1    2    0    0  0.11085172913E+03 -0.11355034785E+03  0.46464084312E+02  0.20733708003E+03  0.12509183139E+03 0.  0.
          5    1    3    3  502    0  0.28704908847E+01 -0.56155798347E+02  0.62221349788E+02  0.83968340315E+02  0.41800000000E+01 0.  1.
         -5    1    3    3    0  502  0.10798123824E+03 -0.57394549500E+02 -0.15757265476E+02  0.12336873972E+03  0.41800000000E+01 0.  1.
        -11    1    1    2    0    0 -0.83746462098E+02  0.81769768587E+02  0.49773858858E+02  0.12718963006E+03  0.00000000000E+00 0. -1.
         11    1    1    2    0    0 -0.27105267029E+02  0.31780579260E+02 -0.35747240315E+02  0.54977867446E+02  0.00000000000E+00 0.  1.
</event>
<event>
 7    1  0.2878477E-009  0.1551730E+03  0.7561462E-02  0.1194257E+00
         -1   -1    0    0    0  501 -0.00000000000E+00  0.00000000000E+00  0.30752123440E+02  0.30752123440E+02  0.00000000000E+00 0.  1.
          1   -1    0    0  501    0  0.00000000000E+00 -0.00000000000E+00 -0.98829358206E+03  0.98829358206E+03  0.00000000000E+00 0. -1.
         25    2    1    2    0    0  0.13476247336E+03  0.42875246977E+01 -0.56788358573E+03  0.59692413718E+03  0.12508937412E+03 0.  0.
          5    1    3    3  502    0  0.65996444288E+02  0.32355496501E+02 -0.46015044465E+03  0.46600248167E+03  0.41800000000E+01 0.  1.
         -5    1    3    3    0  502  0.68766029068E+02 -0.28067971803E+02 -0.10773314108E+03  0.13092165551E+03  0.41800000000E+01 0.  1.
        -11    1    1    2    0    0 -0.14770014763E+03  0.25075796713E+01 -0.35395224832E+03  0.38354115250E+03  0.00000000000E+00 0. -1.
         11    1    1    2    0    0  0.12937674275E+02 -0.67951043690E+01 -0.35705624572E+02  0.38580415823E+02  0.00000000000E+00 0.  1.
</event>
<event>
 7    1  0.2878477E-009  0.9787163E+02  0.7561462E-02  0.1284836E+00
         -2   -1    0    0    0  501 -0.00000000000E+00  0.00000000000E+00  0.22732962524E+02  0.22732962524E+02  0.00000000000E+00 0.  1.
          2   -1    0    0  501    0  0.00000000000E+00 -0.00000000000E+00 -0.63693440518E+03  0.63693440518E+03  0.00000000000E+00 0. -1.
         25    2    1    2    0    0 -0.33015812897E+02 -0.53653021824E+01 -0.24219784741E+03  0.27463809758E+03  0.12508979568E+03 0.  0.
          5    1    3    3  502    0  0.32145227186E+02 -0.57421180809E+01 -0.11490015694E+02  0.34868042841E+02  0.41800000000E+01 0. -1.
         -5    1    3    3    0  502 -0.65161040082E+02  0.37681589849E+00 -0.23070783172E+03  0.23977005474E+03  0.41800000000E+01 0. -1.
        -11    1    1    2    0    0  0.26288073634E+02  0.47805443282E+02 -0.24330770392E+03  0.24934927714E+03  0.00000000000E+00 0.  1.
         11    1    1    2    0    0  0.67277392622E+01 -0.42440141100E+02 -0.12869589133E+03  0.13567999299E+03  0.00000000000E+00 0. -1.
</event>
<event>
 7    1  0.2878477E-009  0.1099223E+03  0.7561462E-02  0.1260714E+00
          2   -1    0    0  501    0  0.00000000000E+00  0.00000000000E+00  0.71484494183E+03  0.71484494183E+03  0.00000000000E+00 0. -1.
         -2   -1    0    0    0  501 -0.00000000000E+00 -0.00000000000E+00 -0.68004236889E+02  0.68004236889E+02  0.00000000000E+00 0.  1.
         25    2    1    2    0    0 -0.42506465181E+02 -0.79867845355E+02  0.63569276206E+03  0.65416985136E+03  0.12508890596E+03 0.  0.
          5    1    3    3  502    0 -0.41896203432E+02 -0.62520412796E+02  0.63129877541E+03  0.63578275386E+03  0.41800000000E+01 0.  1.
         -5    1    3    3    0  502 -0.61026174900E+00 -0.17347432559E+02  0.43939866506E+01  0.18387097500E+02  0.41800000000E+01 0.  1.
        -11    1    1    2    0    0  0.68826001437E+02  0.42440880330E+02  0.16771059485E+02  0.82580356219E+02  0.00000000000E+00 0. -1.
         11    1    1    2    0    0 -0.26319536256E+02  0.37426965025E+02 -0.56231166002E+01  0.46098971139E+02  0.00000000000E+00 0.  1.
</event>
<event>
 7    1  0.2878477E-009  0.1023231E+03  0.7561462E-02  0.1275485E+00
         -2   -1    0    0    0  501 -0.00000000000E+00  0.00000000000E+00  0.39370886733E+03  0.39370886733E+03  0.00000000000E+00 0.  1.
          2   -1    0    0  501    0  0.00000000000E+00 -0.00000000000E+00 -0.37910820151E+02  0.37910820151E+02  0.00000000000E+00 0. -1.
         25    2    1    2    0    0  0.23423845174E+02  0.27836939016E+02  0.12262210992E+03  0.17890733583E+03  0.12509229103E+03 0.  0.
          5    1    3    3  502    0  0.56912327095E+02 -0.89181423399E+01  0.11464836616E+03  0.12837549026E+03  0.41800000000E+01 0.  1.
         -5    1    3    3    0  502 -0.33488481921E+02  0.36755081356E+02  0.79737437671E+01  0.50531845568E+02  0.41800000000E+01 0.  1.
        -11    1    1    2    0    0 -0.55974646497E+02 -0.30180962527E+01  0.12274823633E+03  0.13494220792E+03  0.00000000000E+00 0. -1.
         11    1    1    2    0    0  0.32550801323E+02 -0.24818842764E+02  0.11042770092E+03  0.11777014373E+03  0.00000000000E+00 0.  1.
</event>
<event>
 7    1  0.2878477E-009  0.2015472E+03  0.7561462E-02  0.1148440E+00
          2   -1    0    0  501    0  0.00000000000E+00  0.00000000000E+00  0.32562812441E+03  0.32562812441E+03  0.00000000000E+00 0. -1.
         -2   -1    0    0    0  501 -0.00000000000E+00 -0.00000000000E+00 -0.14929333823E+03  0.14929333823E+03  0.00000000000E+00 0.  1.
         25    2    1    2    0    0  0.89045304178E+02  0.16066981171E+03  0.14658815071E+03  0.26623812983E+03  0.12510316245E+03 0.  0.
          5    1    3    3  502    0  0.18718821050E+02 -0.42068899593E+01 -0.15125851521E+02  0.24786205213E+02  0.41800000000E+01 0.  1.
         -5    1    3    3    0  502  0.70326483128E+02  0.16487670167E+03  0.16171400223E+03  0.24145192461E+03  0.41800000000E+01 0.  1.
        -11    1    1    2    0    0 -0.77864075364E+02 -0.49143035180E+02  0.29205578554E+02  0.96596159124E+02  0.00000000000E+00 0.  1.
         11    1    1    2    0    0 -0.11181228815E+02 -0.11152677653E+03  0.54105692426E+00  0.11208717368E+03  0.00000000000E+00 0. -1.
</event>
<event>
 7    1  0.2878477E-009  0.9110459E+02  0.7561462E-02  0.1300199E+00
         -2   -1    0    0    0  501 -0.00000000000E+00  0.00000000000E+00  0.75477851896E+02  0.75477851896E+02  0.00000000000E+00 0.  1.
          2   -1    0    0  501    0  0.00000000000E+00 -0.00000000000E+00 -0.17482402897E+03  0.17482402897E+03  0.00000000000E+00 0. -1.
         25    2    1    2    0    0 -0.34051667245E+02 -0.70793984560E+01 -0.66682609582E+02  0.14596022674E+03  0.12509269941E+03 0.  0.
          5    1    3    3  502    0 -0.67236686026E+02  0.33897130471E+02 -0.28056227049E+02  0.80463728961E+02  0.41800000000E+01 0. -1.
         -5    1    3    3    0  502  0.33185018781E+02 -0.40976528927E+02 -0.38626382532E+02  0.65496497784E+02  0.41800000000E+01 0. -1.
        -11    1    1    2    0    0  0.29875956113E+02 -0.13584579820E+02  0.26086298236E+02  0.41923841883E+02  0.00000000000E+00 0.  1.
         11    1    1    2    0    0  0.41757111318E+01  0.20663978276E+02 -0.58749865729E+02  0.62417812240E+02  0.00000000000E+00 0. -1.
</event>
<event>
 7    1  0.2878477E-009  0.1315946E+03  0.7561462E-02  0.1225109E+00
          2   -1    0    0  501    0  0.00000000000E+00  0.00000000000E+00  0.20333622928E+03  0.20333622928E+03  0.00000000000E+00 0. -1.
         -2   -1    0    0    0  501 -0.00000000000E+00 -0.00000000000E+00 -0.18122465903E+03  0.18122465903E+03  0.00000000000E+00 0.  1.
         25    2    1    2    0    0  0.43725479301E+02 -0.56631345106E+02 -0.75654807524E+02  0.16276135849E+03  0.12509429695E+03 0.  0.
          5    1    3    3  502    0  0.85160164439E+02 -0.36464376699E+02 -0.29267105894E+02  0.97241659091E+02  0.41800000000E+01 0. -1.
         -5    1    3    3    0  502 -0.41434685138E+02 -0.20166968407E+02 -0.46387701629E+02  0.65519699401E+02  0.41800000000E+01 0. -1.
        -11    1    1    2    0    0 -0.44912140252E+02  0.84817291255E+02 -0.22243656511E+02  0.98518290143E+02  0.00000000000E+00 0.  1.
         11    1    1    2    0    0  0.11866609511E+01 -0.28185946149E+02  0.12001003429E+03  0.12328123967E+03  0.00000000000E+00 0. -1.
</event>
<event>
 7    1  0.2878477E-009  0.8702902E+02  0.7561462E-02  0.1310210E+00
         -1   -1    0    0    0  501 -0.00000000000E+00  0.00000000000E+00  0.11041683429E+03  0.11041683429E+03  0.00000000000E+00 0.  1.
          1   -1    0    0  501    0  0.00000000000E+00 -0.00000000000E+00 -0.14035080183E+03  0.14035080183E+03  0.00000000000E+00 0. -1.
         25    2    1    2    0    0 -0.29811614085E+02 -0.23959996429E+02  0.36509207200E+02  0.13580816418E+03  0.12509245175E+03 0.  0.
          5    1    3    3  502    0  0.21425961736E+02 -0.19100374067E+02  0.68966137682E+02  0.74817756399E+02  0.41800000000E+01 0.  1.
         -5    1    3    3    0  502 -0.51237575821E+02 -0.48596223614E+01 -0.32456930482E+02  0.60990407785E+02  0.41800000000E+01 0.  1.
        -11    1    1    2    0    0 -0.30197911496E+02  0.61468307708E+01 -0.26996955054E+02  0.40969903214E+02  0.00000000000E+00 0.  1.
         11    1    1    2    0    0  0.60009525581E+02  0.17813165658E+02 -0.39446219691E+02  0.73989568718E+02  0.00000000000E+00 0. -1.
</event>
<event>
 6    1  0.2878477E-009  0.1016724E+03  0.7561462E-02  0.1276818E+00
         -1   -1    0    0    0  501 -0.00000000000E+00  0.00000000000E+00  0.14768879321E+03  0.14768879321E+03  0.00000000000E+00 0.  1.
          1   -1    0    0  501    0  0.00000000000E+00 -0.00000000000E+00 -0.11843844521E+03  0.11843844521E+03  0.00000000000E+00 0. -1.
          5    1    1    2  502    0  0.33391801050E+02 -0.33190020488E+02 -0.67003383382E+02  0.81997046422E+02  0.41800000000E+01 0.  1.
         -5    1    1    2    0  502  0.25975936919E+02  0.37890519527E+02  0.37610508756E+02  0.59518598251E+02  0.41800000000E+01 0.  1.
        -11    1    1    2    0    0  0.16882501767E+02 -0.25801128575E+02  0.16290314739E+02  0.34872502863E+02  0.00000000000E+00 0.  1.
         11    1    1    2    0    0 -0.76250239736E+02  0.21100629536E+02  0.42352907890E+02  0.89739090888E+02  0.00000000000E+00 0. -1.
</event>
<event>
 7    1  0.2878477E-009  0.1249343E+03  0.7561462E-02  0.1235172E+00
         -2   -1    0    0    0  501 -0.00000000000E+00  0.00000000000E+00  0.30661969677E+03  0.30661969677E+03  0.00000000000E+00 0.  1.
          2   -1    0    0  501    0  0.00000000000E+00 -0.00000000000E+00 -0.74436852793E+02  0.74436852793E+02  0.00000000000E+00 0. -1.
         25    2    1    2    0    0  0.29616026150E+02  0.10048644932E+03  0.13385138777E+03  0.21104067898E+03  0.12508932279E+03 0.  0.
          5    1    3    3  502    0 -0.23633174563E+01 -0.14812932915E+02  0.76899152910E+02  0.78459928430E+02  0.41800000000E+01 0. -1.
         -5    1    3    3    0  502  0.31979343606E+02  0.11529938224E+03  0.56952234861E+02  0.13258075056E+03  0.41800000000E+01 0. -1.
        -11    1    1    2    0    0  0.99486339183E+01 -0.48366063222E+01  0.57807378939E+02  0.58856275259E+02  0.00000000000E+00 0.  1.
         11    1    1    2    0    0 -0.39564660068E+02 -0.95649843001E+02  0.40524077262E+02  0.11115959531E+03  0.00000000000E+00 0. -1.
</event>
<event>
 7    1  0.3096727E-009  0.1429005E+03  0.7561462E-02  0.1209479E+00
         -4   -1    0    0    0  501 -0.00000000000E+00  0.00000000000E+00  0.17274076699E+03  0.17274076699E+03  0.00000000000E+00 0. -1.
          4   -1    0    0  501    0  0.00000000000E+00 -0.00000000000E+00 -0.20416555079E+03  0.20416555079E+03  0.00000000000E+00 0.  1.
         25    2    1    2    0    0  0.10244659000E+03 -0.70855471482E+02  0.72442858465E+02  0.19081736328E+03  0.12508995461E+03 0.  0.
          5    1    3    3  502    0  0.20419131635E+02 -0.73926768445E+02 -0.62054598458E+01  0.77058991438E+02  0.41800000000E+01 0. -1.
         -5    1    3    3    0  502  0.82027458369E+02  0.30712969629E+01  0.78648318311E+02  0.11375837184E+03  0.41800000000E+01 0. -1.
        -11    1    1    2    0    0 -0.38586643266E+02  0.41015245715E+02  0.48484032769E+01  0.56521557249E+02  0.00000000000E+00 0. -1.
         11    1    1    2    0    0 -0.63859946739E+02  0.29840225768E+02 -0.10871604554E+03  0.12956739725E+03  0.00000000000E+00 0.  1.
</event>
<event>
 7    1  0.2878477E-009  0.1407035E+03  0.7561462E-02  0.1212385E+00
          2   -1    0    0  501    0  0.00000000000E+00  0.00000000000E+00  0.11397224343E+04  0.11397224343E+04  0.00000000000E+00 0. -1.
         -2   -1    0    0    0  501 -0.00000000000E+00 -0.00000000000E+00 -0.30364717348E+02  0.30364717348E+02  0.00000000000E+00 0.  1.
         25    2    1    2    0    0  0.76766388048E+02 -0.54585514999E+02  0.95165525598E+03  0.96445436847E+03  0.12510733731E+03 0.  0.
          5    1    3    3  502    0 -0.26146778315E+01  0.35847689067E+02  0.22547321357E+03  0.22835834951E+03  0.41800000000E+01 0. -1.
         -5    1    3    3    0  502  0.79381065880E+02 -0.90433204066E+02  0.72618204241E+03  0.73609601896E+03  0.41800000000E+01 0. -1.
        -11    1    1    2    0    0 -0.94497316522E+02  0.45058045140E+02  0.10101807196E+03  0.14548065550E+03  0.00000000000E+00 0.  1.
         11    1    1    2    0    0  0.17730928474E+02  0.95274698590E+01  0.56684389006E+02  0.60152127672E+02  0.00000000000E+00 0. -1.
</event>
<event>
 7    1  0.2878477E-009  0.1459561E+03  0.7561462E-02  0.1205532E+00
         -2   -1    0    0    0  501 -0.00000000000E+00  0.00000000000E+00  0.36000355558E+02  0.36000355558E+02  0.00000000000E+00 0. -1.
          2   -1    0    0  501    0  0.00000000000E+00 -0.00000000000E+00 -0.13244303722E+04  0.13244303722E+04  0.00000000000E+00 0.  1.
         25    2    1    2    0    0 -0.12030060564E+03  0.96292505746E+01 -0.11211946527E+04  0.11345891173E+04  0.12510019041E+03 0.  0.
          5    1    3    3  502    0  0.39083378855E+01  0.42254745558E+02 -0.20150935781E+03  0.20597143567E+03  0.41800000000E+01 0. -1.
         -5    1    3    3    0  502 -0.12420894353E+03 -0.32625494984E+02 -0.91968529488E+03  0.92861768161E+03  0.41800000000E+01 0. -1.
        -11    1    1    2    0    0  0.81913787940E+02 -0.43013446365E+01 -0.37042186312E+02  0.90002743220E+02  0.00000000000E+00 0. -1.
         11    1    1    2    0    0  0.38386817705E+02 -0.53279059381E+01 -0.13019317768E+03  0.13583886730E+03  0.00000000000E+00 0.  1.
</event>
<event>
 7    1  0.2878477E-009  0.3282735E+03  0.7561462E-02  0.1071903E+00
         -2   -1    0    0    0  501 -0.00000000000E+00  0.00000000000E+00  0.13900047732E+03  0.13900047732E+03  0.00000000000E+00 0.  1.
          2   -1    0    0  501    0  0.00000000000E+00 -0.00000000000E+00 -0.85679502140E+03  0.85679502140E+03  0.00000000000E+00 0. -1.
         25    2    1    2    0    0 -0.75802267600E+02  0.31834323231E+03 -0.36865833252E+03  0.50857232103E+03  0.12509373383E+03 0.  0.
          5    1    3    3  502    0 -0.77264622547E+01  0.99770199614E+02 -0.39619884822E+02  0.10770793204E+03  0.41800000000E+01 0.  1.
         -5    1    3    3    0  502 -0.68075805346E+02  0.21857303270E+03 -0.32903844770E+03  0.40086438899E+03  0.41800000000E+01 0.  1.
        -11    1    1    2    0    0  0.17195411596E+02 -0.54439291420E+02 -0.11983310402E+03  0.13273767908E+03  0.00000000000E+00 0. -1.
         11    1    1    2    0    0  0.58606856004E+02 -0.26390394089E+03 -0.22930310754E+03  0.35448549860E+03  0.00000000000E+00 0.  1.
</event>
<event>
 7    1  0.2878477E-009  0.2131368E+03  0.7561462E-02  0.1139106E+00
         -3   -1    0    0    0  501 -0.00000000000E+00  0.00000000000E+00  0.17132763082E+03  0.17132763082E+03  0.00000000000E+00 0.  1.
          3   -1    0    0  501    0  0.00000000000E+00 -0.00000000000E+00 -0.30762378792E+03  0.30762378792E+03  0.00000000000E+00 0. -1.
         25    2    1    2    0    0  0.31260371213E+02 -0.19808034847E+03 -0.45272639812E+02  0.24064618836E+03  0.12509172954E+03 0.  0.
          5    1    3    3  502    0  0.41491422657E+01 -0.16560896159E+03  0.15550294197E+02  0.16644166422E+03  0.41800000000E+01 0. -1.
         -5    1    3    3    0  502  0.27111228947E+02 -0.32471386879E+02 -0.60822934009E+02  0.74204524137E+02  0.41800000000E+01 0. -1.
        -11    1    1    2    0    0 -0.70596501681E+01  0.19324440665E+03 -0.69265730490E+02  0.20540443223E+03  0.00000000000E+00 0.  1.
         11    1    1    2    0    0 -0.24200721045E+02  0.48359418228E+01 -0.21757786799E+02  0.32900798148E+02  0.00000000000E+00 0. -1.
</event>
<event>
 7    1  0.2878477E-009  0.1231250E+03  0.7561462E-02  0.1238029E+00
          2   -1    0    0  501    0  0.00000000000E+00  0.00000000000E+00  0.62854694601E+03  0.62854694601E+03  0.00000000000E+00 0. -1.
         -2   -1    0    0    0  501 -0.00000000000E+00 -0.00000000000E+00 -0.28016278477E+02  0.28016278477E+02  0.00000000000E+00 0.  1.
         25    2    1    2    0    0 -0.19188800623E+02 -0.68419820852E+02  0.27280341869E+03  0.30841371892E+03  0.12509130591E+03 0.  0.
          5    1    3    3  502    0  0.33040807427E+02 -0.81032948100E+02  0.14078903797E+03  0.16582237257E+03  0.41800000000E+01 0. -1.
         -5    1    3    3    0  502 -0.52229608049E+02  0.12613127247E+02  0.13201438072E+03  0.14259134635E+03  0.41800000000E+01 0. -1.
        -11    1    1    2    0    0  0.44758007923E+02  0.18053895836E+02  0.23228159184E+03  0.23724240839E+03  0.00000000000E+00 0. -1.
         11    1    1    2    0    0 -0.25569207301E+02  0.50365925016E+02  0.95445656995E+02  0.11090709718E+03  0.00000000000E+00 0.  1.
</event>
<event>
 7    1  0.2878477E-009  0.1832223E+03  0.7561462E-02  0.1164720E+00
         -2   -1    0    0    0  501 -0.00000000000E+00  0.00000000000E+00  0.13097491738E+03  0.13097491738E+03  0.00000000000E+00 0.  1.
          2   -1    0    0  501    0  0.00000000000E+00 -0.00000000000E+00 -0.31319817805E+03  0.31319817805E+03  0.00000000000E+00 0. -1.
         25    2    1    2    0    0 -0.12814102630E+03 -0.10772834192E+03 -0.51410978177E+02  0.21521263163E+03  0.12509144599E+03 0.  0.
          5    1    3    3  502    0 -0.12188801575E+03 -0.40049250732E+02  0.24505007453E+01  0.12839045222E+03  0.41800000000E+01 0. -1.
         -5    1    3    3    0  502 -0.62530105507E+01 -0.67679091193E+02 -0.53861478923E+02  0.86822179409E+02  0.41800000000E+01 0. -1.
        -11    1    1    2    0    0  0.43822314099E+02  0.19575460747E+02  0.27509635337E+01  0.48074542919E+02  0.00000000000E+00 0.  1.
         11    1    1    2    0    0  0.84318712197E+02  0.88152881177E+02 -0.13356324602E+03  0.18088592089E+03  0.00000000000E+00 0. -1.
</event>
<event>
 7    1  0.2878477E-009  0.1046725E+03  0.7561462E-02  0.1270766E+00
          2   -1    0    0  501    0  0.00000000000E+00  0.00000000000E+00  0.11802399104E+03  0.11802399104E+03  0.00000000000E+00 0. -1.
         -2   -1    0    0    0  501 -0.00000000000E+00 -0.00000000000E+00 -0.15103760609E+03  0.15103760609E+03  0.00000000000E+00 0.  1.
         25    2    1    2    0    0  0.19530904973E+02 -0.19279361948E+02 -0.90542848111E+02  0.15683993360E+03  0.12509039684E+03 0.  0.
          5    1    3    3  502    0  0.45507846306E+02 -0.53272939982E+02 -0.89632426716E+02  0.11384381638E+03  0.41800000000E+01 0. -1.
         -5    1    3    3    0  502 -0.25976941333E+02  0.33993578034E+02 -0.91042139499E+00  0.42996117216E+02  0.41800000000E+01 0. -1.
        -11    1    1    2    0    0  0.66967648463E+00 -0.36674815741E+02  0.18600209804E+02  0.41127343471E+02  0.00000000000E+00 0.  1.
         11    1    1    2    0    0 -0.20200581458E+02  0.55954177689E+02  0.38929023261E+02  0.71094320055E+02  0.00000000000E+00 0. -1.
</event>
<event>
 7    1  0.2878477E-009  0.8706863E+02  0.7561462E-02  0.1310110E+00
         -3   -1    0    0    0  501 -0.00000000000E+00  0.00000000000E+00  0.42839113380E+02  0.42839113380E+02  0.00000000000E+00 0.  1.
          3   -1    0    0  501    0  0.00000000000E+00 -0.00000000000E+00 -0.27809099575E+03  0.27809099575E+03  0.00000000000E+00 0. -1.
         25    2    1    2    0    0  0.12878032630E+02 -0.23238157637E+02 -0.12738698920E+03  0.18050556248E+03  0.12509579279E+03 0.  0.
          5    1    3    3  502    0  0.34160183018E+02  0.40651654036E+02 -0.27437944533E+02  0.59914841900E+02  0.41800000000E+01 0. -1.
         -5    1    3    3    0  502 -0.21282150388E+02 -0.63889811673E+02 -0.99949044664E+02  0.12059072058E+03  0.41800000000E+01 0. -1.
        -11    1    1    2    0    0  0.15536247236E+02 -0.16590506253E+01  0.87048418691E+01  0.17885796016E+02  0.00000000000E+00 0.  1.
         11    1    1    2    0    0 -0.28414279866E+02  0.24897208262E+02 -0.11656973504E+03  0.12253875064E+03  0.00000000000E+00 0. -1.
</event>
<event>
 7    1  0.2878477E-009  0.1296124E+03  0.7561462E-02  0.1228032E+00
         -1   -1    0    0    0  501 -0.00000000000E+00  0.00000000000E+00  0.85862958263E+02  0.85862958263E+02  0.00000000000E+00 0.  1.
          1   -1    0    0  501    0  0.00000000000E+00 -0.00000000000E+00 -0.21160806511E+03  0.21160806511E+03  0.00000000000E+00 0. -1.
         25    2    1    2    0    0 -0.17078973460E+02 -0.76078249319E+02 -0.78819378511E+02  0.16715301164E+03  0.12509214011E+03 0.  0.
          5    1    3    3  502    0 -0.65952820762E+02 -0.57385846333E+02 -0.22930146596E+02  0.90477477577E+02  0.41800000000E+01 0. -1.
         -5    1    3    3    0  502  0.48873847302E+02 -0.18692402986E+02 -0.55889231915E+02  0.76675534061E+02  0.41800000000E+01 0. -1.
        -11    1    1    2    0    0  0.47810430744E+02  0.74391347836E+02 -0.45640080001E+02  0.99513450465E+02  0.00000000000E+00 0. -1.
         11    1    1    2    0    0 -0.30731457285E+02  0.16869014827E+01 -0.12856483356E+01  0.30804561271E+02  0.00000000000E+00 0.  1.
</event>
<event>
 7    1  0.2878477E-009  0.1392098E+03  0.7561462E-02  0.1214396E+00
          2   -1    0    0  501    0  0.00000000000E+00  0.00000000000E+00  0.20270058571E+03  0.20270058571E+03  0.00000000000E+00 0. -1.
         -2   -1    0    0    0  501 -0.00000000000E+00 -0.00000000000E+00 -0.12056458047E+03  0.12056458047E+03  0.00000000000E+00 0.  1.
         25    2    1    2    0    0 -0.55319410546E+02 -0.95204548012E+02  0.13249364447E+02  0.16716880528E+03  0.12508285516E+03 0.  0.
          5    1    3    3  502    0  0.37798686852E+02 -0.37352816835E+02 -0.11900623648E+02  0.54617496248E+02  0.41800000000E+01 0. -1.
         -5    1    3    3    0  502 -0.93118097398E+02 -0.57851731177E+02  0.25149988095E+02  0.11255130903E+03  0.41800000000E+01 0. -1.
        -11    1    1    2    0    0  0.20928315336E+02  0.93491727437E+01  0.58740392835E+02  0.63054223999E+02  0.00000000000E+00 0. -1.
         11    1    1    2    0    0  0.34391095210E+02  0.85855375268E+02  0.10146247960E+02  0.93042136905E+02  0.00000000000E+00 0.  1.
</event>
<event>
 7    1  0.2878477E-009  0.3384832E+03  0.7561462E-02  0.1067444E+00
          1   -1    0    0  501    0  0.00000000000E+00  0.00000000000E+00  0.24336994332E+03  0.24336994332E+03  0.00000000000E+00 0. -1.
         -1   -1    0    0    0  501 -0.00000000000E+00 -0.00000000000E+00 -0.52690520323E+03  0.52690520323E+03  0.00000000000E+00 0.  1.
         25    2    1    2    0    0  0.21820238926E+03 -0.24346981031E+03 -0.39377918753E+02  0.35225332991E+03  0.12506780854E+03 0.  0.
          5    1    3    3  502    0  0.77969036762E+02 -0.16174250512E+03  0.16936966391E+02  0.18039994979E+03  0.41800000000E+01 0.  1.
         -5    1    3    3    0  502  0.14023335250E+03 -0.81727305192E+02 -0.56314885144E+02  0.17185338012E+03  0.41800000000E+01 0.  1.
        -11    1    1    2    0    0 -0.12000579199E+03  0.79749353067E+02 -0.13833056335E+03  0.19974156849E+03  0.00000000000E+00 0.  1.
         11    1    1    2    0    0 -0.98196597275E+02  0.16372045724E+03 -0.10582677781E+03  0.21828024816E+03  0.00000000000E+00 0. -1.
</event>
<event>
 7    1  0.2878477E-009  0.1053407E+03  0.7561462E-02  0.1269450E+00
          2   -1    0    0  501    0  0.00000000000E+00  0.00000000000E+00  0.11118699721E+03  0.11118699721E+03  0.00000000000E+00 0. -1.
         -2   -1    0    0    0  501 -0.00000000000E+00 -0.00000000000E+00 -0.12481154115E+03  0.12481154115E+03  0.00000000000E+00 0.  1.
         25    2    1    2    0    0  0.16673830849E+02 -0.25938489095E+02 -0.42813552880E+02  0.13575921845E+03  0.12508694269E+03 0.  0.
          5    1    3    3  502    0 -0.42742505965E+02 -0.34977898172E+02  0.92246472758E+01  0.56151061379E+02  0.41800000000E+01 0. -1.
         -5    1    3    3    0  502  0.59416336814E+02  0.90394090767E+01 -0.52038200156E+02  0.79608157072E+02  0.41800000000E+01 0. -1.
        -11    1    1    2    0    0  0.37149736882E+02  0.59004463131E+01  0.18109920645E+02  0.41747903455E+02  0.00000000000E+00 0. -1.
         11    1    1    2    0    0 -0.53823567731E+02  0.20038042782E+02  0.11079088290E+02  0.58491416458E+02  0.00000000000E+00 0.  1.
</event>
<event>
 7    1  0.2878477E-009  0.1038231E+03  0.7561462E-02  0.1272456E+00
          2   -1    0    0  501    0  0.00000000000E+00  0.00000000000E+00  0.85652242249E+02  0.85652242249E+02  0.00000000000E+00 0. -1.
         -2   -1    0    0    0  501 -0.00000000000E+00 -0.00000000000E+00 -0.17715498818E+03  0.17715498818E+03  0.00000000000E+00 0.  1.
         25    2    1    2    0    0  0.10958030574E+02  0.57823958037E+02 -0.51310150750E+02  0.14746807953E+03  0.12510161611E+03 0.  0.
          5    1    3    3  502    0  0.61145705476E+02  0.20214996491E+01 -0.34801386203E+02  0.70508812503E+02  0.41800000000E+01 0. -1.
         -5    1    3    3    0  502 -0.50187674901E+02  0.55802458388E+02 -0.16508764547E+02  0.76959267025E+02  0.41800000000E+01 0. -1.
        -11    1    1    2    0    0 -0.21442792806E+02 -0.12896960427E+02 -0.60094008776E+02  0.65095428736E+02  0.00000000000E+00 0.  1.
         11    1    1    2    0    0  0.10484762232E+02 -0.44926997610E+02  0.19901413599E+02  0.50243722161E+02  0.00000000000E+00 0. -1.
</event>
<event>
 7    1  0.2878477E-009  0.3695218E+03  0.7561462E-02  0.1054876E+00
          1   -1    0    0  501    0  0.00000000000E+00  0.00000000000E+00  0.12590520212E+04  0.12590520212E+04  0.00000000000E+00 0. -1.
         -1   -1    0    0    0  501 -0.00000000000E+00 -0.00000000000E+00 -0.11495506425E+03  0.11495506425E+03  0.00000000000E+00 0.  1.
         25    2    1    2    0    0 -0.29112987639E+03 -0.21250180492E+03  0.67792254586E+03  0.77790790221E+03  0.12509238233E+03 0.  0.
          5    1    3    3  502    0 -0.15778280210E+03 -0.70926700598E+02  0.21650879175E+03  0.27716337926E+03  0.41800000000E+01 0. -1.
         -5    1    3    3    0  502 -0.13334707428E+03 -0.14157510432E+03  0.46141375411E+03  0.50074452295E+03  0.41800000000E+01 0. -1.
        -11    1    1    2    0    0  0.12180273760E+03  0.14452962455E+03  0.24123168340E+03  0.30645953131E+03  0.00000000000E+00 0.  1.
         11    1    1    2    0    0  0.16932713878E+03  0.67972180373E+02  0.22494272774E+03  0.28963965197E+03  0.00000000000E+00 0. -1.
</event>
<event>
 7    1  0.2878477E-009  0.1148107E+03  0.7561462E-02  0.1251912E+00
          2   -1    0    0  501    0  0.00000000000E+00  0.00000000000E+00  0.10032010195E+04  0.10032010195E+04  0.00000000000E+00 0. -1.
         -2   -1    0    0    0  501 -0.00000000000E+00 -0.00000000000E+00 -0.16311127156E+02  0.16311127156E+02  0.00000000000E+00 0.  1.
         25    2    1    2    0    0 -0.30389884062E+02  0.59636935635E+02  0.61501496399E+03  0.63116640453E+03  0.12509002810E+03 0.  0.
          5    1    3    3  502    0 -0.54623102286E+02  0.79375585977E+02  0.55553635600E+03  0.56384597382E+03  0.41800000000E+01 0. -1.
         -5    1    3    3    0  502  0.24233218224E+02 -0.19738650342E+02  0.59478607987E+02  0.67320430709E+02  0.41800000000E+01 0. -1.
        -11    1    1    2    0    0 -0.24780500540E+02 -0.30349590016E+02  0.23022776827E+03  0.23353799713E+03  0.00000000000E+00 0.  1.
         11    1    1    2    0    0  0.55170384602E+02 -0.29287345619E+02  0.14164716009E+03  0.15480774500E+03  0.00000000000E+00 0. -1.
</event>
<event>
 7    1  0.2878477E-009  0.1131432E+03  0.7561462E-02  0.1254857E+00
          1   -1    0    0  501    0  0.00000000000E+00  0.00000000000E+00  0.13525180429E+03  0.13525180429E+03  0.00000000000E+00 0. -1.
         -1   -1    0    0    0  501 -0.00000000000E+00 -0.00000000000E+00 -0.10040204252E+03  0.10040204252E+03  0.00000000000E+00 0.  1.
         25    2    1    2    0    0 -0.40965175879E+02 -0.15525594181E+01  0.16497927754E+02  0.13267414630E+03  0.12509872661E+03 0.  0.
          5    1    3    3  502    0  0.37024697300E+02 -0.29042123290E+02 -0.38942341690E+01  0.47401588529E+02  0.41800000000E+01 0. -1.
         -5    1    3    3    0  502 -0.77989873179E+02  0.27489563872E+02  0.20392161923E+02  0.85272557767E+02  0.41800000000E+01 0. -1.
        -11    1    1    2    0    0 -0.17245268538E+02  0.27543861727E+02 -0.88325404356E+01  0.33676065333E+02  0.00000000000E+00 0. -1.
         11    1    1    2    0    0  0.58210444417E+02 -0.25991302308E+02  0.27184374453E+02  0.69303635181E+02  0.00000000000E+00 0.  1.
</event>
<event>
 7    1  0.2878477E-009  0.1075516E+03  0.7561462E-02  0.1265172E+00
         -2   -1    0    0    0  501 -0.00000000000E+00  0.00000000000E+00  0.99580219933E+02  0.99580219933E+02  0.00000000000E+00 0.  1.
          2   -1    0    0  501    0  0.00000000000E+00 -0.00000000000E+00 -0.21320501138E+03  0.21320501138E+03  0.00000000000E+00 0. -1.
         25    2    1    2    0    0  0.63247100243E+02  0.15007347178E+02 -0.13678448499E+03  0.19642638176E+03  0.12509161426E+03 0.  0.
          5    1    3    3  502    0  0.87952189660E+02  0.29474985320E+02 -0.13927108553E+03  0.16738658874E+03  0.41800000000E+01 0. -1.
         -5    1    3    3    0  502 -0.24705089417E+02 -0.14467638142E+02  0.24866005370E+01  0.29039793022E+02  0.41800000000E+01 0. -1.
        -11    1    1    2    0    0  0.93992366351E+01  0.12497256208E+02 -0.21631272196E+02  0.26691552949E+02  0.00000000000E+00 0. -1.
         11    1    1    2    0    0 -0.72646336878E+02 -0.27504603386E+02  0.44790965736E+02  0.89667296607E+02  0.00000000000E+00 0.  1.
</event>
<event>
 7    1  0.2878477E-009  0.1285495E+03  0.7561462E-02  0.1229624E+00
         -2   -1    0    0    0  501 -0.00000000000E+00  0.00000000000E+00  0.10455100780E+03  0.10455100780E+03  0.00000000000E+00 0.  1.
          2   -1    0    0  501    0  0.00000000000E+00 -0.00000000000E+00 -0.24439056734E+03  0.24439056734E+03  0.00000000000E+00 0. -1.
         25    2    1    2    0    0 -0.37419252848E+02 -0.10473754067E+03 -0.32004311367E+02  0.17041581079E+03  0.12508844755E+03 0.  0.
          5    1    3    3  502    0 -0.33934499968E+01  0.17496346978E+02 -0.39198053848E+02  0.43261963501E+02  0.41800000000E+01 0. -1.
         -5    1    3    3    0  502 -0.34025802852E+02 -0.12223388765E+03  0.71937424817E+01  0.12715384729E+03  0.41800000000E+01 0. -1.
        -11    1    1    2    0    0  0.29282422232E+02  0.65158244793E+02 -0.93140894739E+01  0.72040331613E+02  0.00000000000E+00 0.  1.
         11    1    1    2    0    0  0.81368306165E+01  0.39579295880E+02 -0.98521158694E+02  0.10648543274E+03  0.00000000000E+00 0. -1.
</event>
<event>
 7    1  0.2878477E-009  0.1938729E+03  0.7561462E-02  0.1155014E+00
          1   -1    0    0  501    0  0.00000000000E+00  0.00000000000E+00  0.18862354354E+03  0.18862354354E+03  0.00000000000E+00 0. -1.
         -1   -1    0    0    0  501 -0.00000000000E+00 -0.00000000000E+00 -0.21734186794E+03  0.21734186794E+03  0.00000000000E+00 0.  1.
         25    2    1    2    0    0 -0.81986295853E+02  0.14921114988E+03 -0.14681181495E+02  0.21178015455E+03  0.12509826863E+03 0.  0.
          5    1    3    3  502    0 -0.23891804677E+02  0.14985592506E+03 -0.20745609892E+02  0.15321706607E+03  0.41800000000E+01 0.  1.
         -5    1    3    3    0  502 -0.58094491176E+02 -0.64477518247E+00  0.60644283972E+01  0.58563088476E+02  0.41800000000E+01 0.  1.
        -11    1    1    2    0    0  0.21370937680E+02 -0.60258145822E+01 -0.30612204598E+02  0.37817118995E+02  0.00000000000E+00 0.  1.
         11    1    1    2    0    0  0.60615358173E+02 -0.14318533529E+03  0.16575061696E+02  0.15636813793E+03  0.00000000000E+00 0. -1.
</event>
<event>
 7    1  0.2878477E-009  0.1321457E+03  0.7561462E-02  0.1224306E+00
          1   -1    0    0  501    0  0.00000000000E+00  0.00000000000E+00  0.81906357604E+03  0.81906357604E+03  0.00000000000E+00 0. -1.
         -1   -1    0    0    0  501 -0.00000000000E+00 -0.00000000000E+00 -0.28614965838E+02  0.28614965838E+02  0.00000000000E+00 0.  1.
         25    2    1    2    0    0  0.10509225280E+03 -0.26514708702E+02  0.41489842175E+03  0.44668120547E+03  0.12504394259E+03 0.  0.
          5    1    3    3  502    0  0.47121370621E+01  0.15328460341E+02  0.24076922586E+03  0.24133888715E+03  0.41800000000E+01 0.  1.
         -5    1    3    3    0  502  0.10038011574E+03 -0.41843169043E+02  0.17412919589E+03  0.20534231832E+03  0.41800000000E+01 0.  1.
        -11    1    1    2    0    0 -0.52248476103E+02 -0.31023087516E+02  0.19559803769E+03  0.20481925584E+03  0.00000000000E+00 0.  1.
         11    1    1    2    0    0 -0.52843776702E+02  0.57537796218E+02  0.17995215076E+03  0.19617808057E+03  0.00000000000E+00 0. -1.
</event>
<event>
 7    1  0.2878477E-009  0.7808467E+02  0.7561462E-02  0.1334576E+00
          1   -1    0    0  501    0  0.00000000000E+00  0.00000000000E+00  0.21714544231E+03  0.21714544231E+03  0.00000000000E+00 0. -1.
         -1   -1    0    0    0  501 -0.00000000000E+00 -0.00000000000E+00 -0.58734041839E+02  0.58734041839E+02  0.00000000000E+00 0.  1.
         25    2    1    2    0    0  0.27296676809E+02 -0.15722490432E+01  0.94889105317E+02  0.15936999077E+03  0.12508905276E+03 0.  0.
          5    1    3    3  502    0  0.70006035736E+01 -0.46969038299E+02 -0.47755192514E+01  0.47910092812E+02  0.41800000000E+01 0. -1.
         -5    1    3    3    0  502  0.20296073235E+02  0.45396789255E+02  0.99664624569E+02  0.11145989796E+03  0.41800000000E+01 0. -1.
        -11    1    1    2    0    0 -0.47679310567E+01  0.25376447280E+02  0.76892895495E+02  0.81112358002E+02  0.00000000000E+00 0. -1.
         11    1    1    2    0    0 -0.22528745752E+02 -0.23804198237E+02 -0.13370600343E+02  0.35397135370E+02  0.00000000000E+00 0.  1.
</event>
<event>
 7    1  0.2878477E-009  0.1361291E+03  0.7561462E-02  0.1218635E+00
          1   -1    0    0  501    0  0.00000000000E+00  0.00000000000E+00  0.59410561308E+03  0.59410561308E+03  0.00000000000E+00 0. -1.
         -1   -1    0    0    0  501 -0.00000000000E+00 -0.00000000000E+00 -0.32662352984E+02  0.32662352984E+02  0.00000000000E+00 0.  1.
         25    2    1    2    0    0 -0.47745442736E+02  0.73724524564E+02  0.28123917621E+03  0.32009047683E+03  0.12508999279E+03 0.  0.
          5    1    3    3  502    0 -0.87741669438E+02  0.49248825880E+02  0.15005762052E+03  0.18071748472E+03  0.41800000000E+01 0. -1.
         -5    1    3    3    0  502  0.39996226703E+02  0.24475698684E+02  0.13118155569E+03  0.13937299211E+03  0.41800000000E+01 0. -1.
        -11    1    1    2    0    0 -0.18153082788E+02 -0.52018295521E+02  0.11610523279E+03  0.12851405591E+03  0.00000000000E+00 0. -1.
         11    1    1    2    0    0  0.65898525523E+02 -0.21706229044E+02  0.16409885109E+03  0.17816343333E+03  0.00000000000E+00 0.  1.
</event>
<event>
 7    1  0.2878477E-009  0.8686866E+02  0.7561462E-02  0.1310617E+00
          1   -1    0    0  501    0  0.00000000000E+00  0.00000000000E+00  0.69632453653E+03  0.69632453653E+03  0.00000000000E+00 0. -1.
         -1   -1    0    0    0  501 -0.00000000000E+00 -0.00000000000E+00 -0.28479566047E+02  0.28479566047E+02  0.00000000000E+00 0.  1.
         25    2    1    2    0    0  0.12034529872E+02 -0.47716400221E+02  0.56274838387E+03  0.57858174086E+03  0.12509757214E+03 0.  0.
          5    1    3    3  502    0  0.14975016280E+02 -0.61153096800E+02  0.56048889733E+03  0.56402945737E+03  0.41800000000E+01 0. -1.
         -5    1    3    3    0  502 -0.29404864088E+01  0.13436696580E+02  0.22594865426E+01  0.14552283488E+02  0.41800000000E+01 0. -1.
        -11    1    1    2    0    0 -0.43411604915E+02  0.56415282654E+01  0.71713279695E+02  0.84018978613E+02  0.00000000000E+00 0. -1.
         11    1    1    2    0    0  0.31377075044E+02  0.42074871955E+02  0.33383306920E+02  0.62203383101E+02  0.00000000000E+00 0.  1.
</event>
<event>
 7    1  0.2878477E-009  0.1081283E+03  0.7561462E-02  0.1264076E+00
          2   -1    0    0  501    0  0.00000000000E+00  0.00000000000E+00  0.58940118290E+03  0.58940118290E+03  0.00000000000E+00 0. -1.
         -2   -1    0    0    0  501 -0.00000000000E+00 -0.00000000000E+00 -0.20280889596E+02  0.20280889596E+02  0.00000000000E+00 0.  1.
         25    2    1    2    0    0 -0.72803133353E+01 -0.49187149391E+01  0.36775540287E+03  0.38854705064E+03  0.12509027742E+03 0.  0.
          5    1    3    3  502    0 -0.99647290918E+01  0.59571551749E+02  0.18802806915E+03  0.19753504193E+03  0.41800000000E+01 0. -1.
         -5    1    3    3    0  502  0.26844157564E+01 -0.64490266688E+02  0.17972733371E+03  0.19101200871E+03  0.41800000000E+01 0. -1.
        -11    1    1    2    0    0 -0.35058893725E+02  0.26083103856E+02  0.10652106323E+03  0.11513553425E+03  0.00000000000E+00 0. -1.
         11    1    1    2    0    0  0.42339207060E+02 -0.21164388917E+02  0.94843827205E+02  0.10599948760E+03  0.00000000000E+00 0.  1.
</event>
<event>
 7    1  0.2878477E-009  0.1130644E+03  0.7561462E-02  0.1254998E+00
          2   -1    0    0  501    0  0.00000000000E+00  0.00000000000E+00  0.69445230196E+03  0.69445230196E+03  0.00000000000E+00 0. -1.
         -2   -1    0    0    0  501 -0.00000000000E+00 -0.00000000000E+00 -0.21764282663E+02  0.21764282663E+02  0.00000000000E+00 0.  1.
         25    2    1    2    0    0 -0.31830089461E+02  0.42332013785E+02  0.42425651657E+03  0.44547315382E+03  0.12509030713E+03 0.  0.
          5    1    3    3  502    0 -0.21113009197E+02  0.87025897134E+02  0.28530830937E+03  0.29906114713E+03  0.41800000000E+01 0. -1.
         -5    1    3    3    0  502 -0.10717080265E+02 -0.44693883349E+02  0.13894820720E+03  0.14641200669E+03  0.41800000000E+01 0. -1.
        -11    1    1    2    0    0  0.52425832439E+02 -0.12190712411E+02  0.21363278656E+03  0.22030898499E+03  0.00000000000E+00 0. -1.
         11    1    1    2    0    0 -0.20595742978E+02 -0.30141301374E+02  0.34798716176E+02  0.50434445817E+02  0.00000000000E+00 0.  1.
</event>
<event>
 7    1  0.2878477E-009  0.1196110E+03  0.7561462E-02  0.1243740E+00
          4   -1    0    0  501    0  0.00000000000E+00  0.00000000000E+00  0.75775916579E+02  0.75775916579E+02  0.00000000000E+00 0. -1.
         -4   -1    0    0    0  501 -0.00000000000E+00 -0.00000000000E+00 -0.24324635671E+03  0.24324635671E+03  0.00000000000E+00 0.  1.
         25    2    1    2    0    0  0.82399868995E+00 -0.71643725791E+02 -0.13697381204E+03  0.19884852975E+03  0.12508161408E+03 0.  0.
          5    1    3    3  502    0 -0.96163414461E+01 -0.97436379714E+02 -0.55435351824E+02  0.11259161934E+03  0.41800000000E+01 0. -1.
         -5    1    3    3    0  502  0.10440340136E+02  0.25792653923E+02 -0.81538460218E+02  0.86256910409E+02  0.41800000000E+01 0. -1.
        -11    1    1    2    0    0  0.74164487186E+01 -0.19866007634E+02 -0.17267055282E+02  0.27346172841E+02  0.00000000000E+00 0.  1.
         11    1    1    2    0    0 -0.82404474085E+01  0.91509733425E+02 -0.13229572809E+02  0.92827570699E+02  0.00000000000E+00 0. -1.
</event>
<event>
 7    1  0.3836860E-009  0.1573137E+03  0.7561462E-02  0.1191763E+00
         -2   -1    0    0    0  501 -0.00000000000E+00  0.00000000000E+00  0.38555257214E+02  0.38555257214E+02  0.00000000000E+00 0. -1.
          2   -1    0    0  501    0  0.00000000000E+00 -0.00000000000E+00 -0.78316449000E+03  0.78316449000E+03  0.00000000000E+00 0.  1.
         25    2    1    2    0    0  0.11948111185E+03  0.56424545449E+02 -0.32579995668E+03  0.37316313731E+03  0.12508257215E+03 0.  0.
          5    1    3    3  502    0  0.64403947164E+02  0.94640600967E+02 -0.21430219563E+03  0.24299715063E+03  0.41800000000E+01 0. -1.
         -5    1    3    3    0  502  0.55077164691E+02 -0.38216055518E+02 -0.11149776104E+03  0.13016598668E+03  0.41800000000E+01 0. -1.
        -11    1    1    2    0    0 -0.69736708296E+02 -0.25067107164E+02 -0.35128850077E+03  0.35901974753E+03  0.00000000000E+00 0.  1.
         11    1    1    2    0    0 -0.49744403559E+02 -0.31357438285E+02 -0.67520775343E+02  0.89536862376E+02  0.00000000000E+00 0. -1.
</event>
<event>
 7    1  0.2878477E-009  0.1319153E+03  0.7561462E-02  0.1224641E+00
          2   -1    0    0  501    0  0.00000000000E+00  0.00000000000E+00  0.26460126659E+03  0.26460126659E+03  0.00000000000E+00 0.  1.
         -2   -1    0    0    0  501 -0.00000000000E+00 -0.00000000000E+00 -0.92162246893E+02  0.92162246893E+02  0.00000000000E+00 0. -1.
         25    2    1    2    0    0  0.35842190252E+02  0.10119404684E+03  0.54877999227E+02  0.17373283571E+03  0.12508639289E+03 0.  0.
          5    1    3    3  502    0  0.68495496453E+02  0.99612157768E+02  0.14830178600E+02  0.12186722942E+03  0.41800000000E+01 0. -1.
         -5    1    3    3    0  502 -0.32653306200E+02  0.15818890698E+01  0.40047820627E+02  0.51865606290E+02  0.41800000000E+01 0. -1.
        -11    1    1    2    0    0 -0.23767152261E+02 -0.33065791197E+02 -0.62501196986E+01  0.41198156152E+02  0.00000000000E+00 0. -1.
         11    1    1    2    0    0 -0.12075037992E+02 -0.68128255641E+02  0.12381114017E+03  0.14183252162E+03  0.00000000000E+00 0.  1.
</event>
<event>
 7    1  0.2878477E-009  0.4278033E+03  0.7561462E-02  0.1034556E+00
          2   -1    0    0  501    0  0.00000000000E+00  0.00000000000E+00  0.28906571076E+04  0.28906571076E+04  0.00000000000E+00 0. -1.
         -2   -1    0    0    0  501 -0.00000000000E+00 -0.00000000000E+00 -0.63830321721E+02  0.63830321721E+02  0.00000000000E+00 0.  1.
         25    2    1    2    0    0  0.14396636408E+02 -0.41510631704E+03  0.14067956848E+04  0.14721560045E+04  0.12509470489E+03 0.  0.
          5    1    3    3  502    0 -0.50295675504E+02 -0.26475489016E+03  0.83943503130E+03  0.88164247346E+03  0.41800000000E+01 0.  1.
         -5    1    3    3    0  502  0.64692311912E+02 -0.15035142688E+03  0.56736065348E+03  0.59051353101E+03  0.41800000000E+01 0.  1.
        -11    1    1    2    0    0 -0.43241861026E+02  0.16438889675E+03  0.65778267883E+03  0.67939062438E+03  0.00000000000E+00 0.  1.
         11    1    1    2    0    0  0.28845224618E+02  0.25071742029E+03  0.76224842227E+03  0.80294080048E+03  0.00000000000E+00 0. -1.
</event>
<event>
 7    1  0.2878477E-009  0.1369725E+03  0.7561462E-02  0.1217462E+00
          2   -1    0    0  501    0  0.00000000000E+00  0.00000000000E+00  0.81071914548E+03  0.81071914548E+03  0.00000000000E+00 0. -1.
         -2   -1    0    0    0  501 -0.00000000000E+00 -0.00000000000E+00 -0.31027977332E+02  0.31027977332E+02  0.00000000000E+00 0.  1.
         25    2    1    2    0    0 -0.49849926732E+02 -0.83224386603E+02  0.58356840177E+03  0.60465766283E+03  0.12508995144E+03 0.  0.
          5    1    3    3  502    0 -0.15637147973E+01  0.32495031466E+02  0.12657676782E+03  0.13075749625E+03  0.41800000000E+01 0.  1.
         -5    1    3    3    0  502 -0.48286211935E+02 -0.11571941807E+03  0.45699163395E+03  0.47390016658E+03  0.41800000000E+01 0.  1.
        -11    1    1    2    0    0  0.50400785475E+02  0.22900900499E+02  0.36143031409E+02  0.66113607824E+02  0.00000000000E+00 0.  1.
         11    1    1    2    0    0 -0.55085874262E+00  0.60323486104E+02  0.15997973497E+03  0.17097585216E+03  0.00000000000E+00 0. -1.
</event>
<event>
 7    1  0.2878477E-009  0.8668009E+02  0.7561462E-02  0.1311096E+00
         -2   -1    0    0    0  501 -0.00000000000E+00  0.00000000000E+00  0.12303405655E+03  0.12303405655E+03  0.00000000000E+00 0.  1.
          2   -1    0    0  501    0  0.00000000000E+00 -0.00000000000E+00 -0.10284989792E+03  0.10284989792E+03  0.00000000000E+00 0. -1.
         25    2    1    2    0    0 -0.28101333367E+02  0.23132495783E+01  0.27310660051E+02  0.13110724247E+03  0.12509276884E+03 0.  0.
          5    1    3    3  502    0  0.41376964984E+02  0.95125987132E+01  0.41712511057E+02  0.59665306035E+02  0.41800000000E+01 0.  1.
         -5    1    3    3    0  502 -0.69478298352E+02 -0.71993491349E+01 -0.14401851006E+02  0.71441936439E+02  0.41800000000E+01 0.  1.
        -11    1    1    2    0    0 -0.17566701229E+01 -0.23846113053E+02 -0.39223078003E+02  0.45936617700E+02  0.00000000000E+00 0. -1.
         11    1    1    2    0    0  0.29858003490E+02  0.21532863475E+02  0.32096576587E+02  0.48840094292E+02  0.00000000000E+00 0.  1.
</event>
<event>
 7    1  0.2878477E-009  0.1049220E+03  0.7561462E-02  0.1270273E+00
          2   -1    0    0  501    0  0.00000000000E+00  0.00000000000E+00  0.24815130179E+03  0.24815130179E+03  0.00000000000E+00 0. -1.
         -2   -1    0    0    0  501 -0.00000000000E+00 -0.00000000000E+00 -0.68974748214E+02  0.68974748214E+02  0.00000000000E+00 0.  1.
         25    2    1    2    0    0  0.33199097819E+02  0.69718613602E+01  0.21687254808E+02  0.13140987276E+03  0.12508969058E+03 0.  0.
          5    1    3    3  502    0 -0.32589532294E+02 -0.36556201156E+02  0.17946475455E+02  0.52325728274E+02  0.41800000000E+01 0.  1.
         -5    1    3    3    0  502  0.65788630113E+02  0.43528062516E+02  0.37407793530E+01  0.79084144484E+02  0.41800000000E+01 0.  1.
        -11    1    1    2    0    0 -0.56177889157E+02  0.38241714689E+01  0.14844370583E+03  0.15876433264E+03  0.00000000000E+00 0.  1.
         11    1    1    2    0    0  0.22978791338E+02 -0.10796032829E+02  0.90455929392E+01  0.26951844609E+02  0.00000000000E+00 0. -1.
</event>
<event>
 7    1  0.2878477E-009  0.1892902E+03  0.7561462E-02  0.1159103E+00
         -1   -1    0    0    0  501 -0.00000000000E+00  0.00000000000E+00  0.86317316848E+02  0.86317316848E+02  0.00000000000E+00 0.  1.
          1   -1    0    0  501    0  0.00000000000E+00 -0.00000000000E+00 -0.46601736781E+03  0.46601736781E+03  0.00000000000E+00 0. -1.
         25    2    1    2    0    0  0.75025744254E+02  0.15017360524E+03 -0.21701002439E+03  0.30153299634E+03  0.12509125943E+03 0.  0.
          5    1    3    3  502    0  0.26882076598E+01  0.13526511638E+03 -0.13827977988E+03  0.19350102866E+03  0.41800000000E+01 0. -1.
         -5    1    3    3    0  502  0.72337536594E+02  0.14908488859E+02 -0.78730244507E+02  0.10803196768E+03  0.41800000000E+01 0. -1.
        -11    1    1    2    0    0 -0.41266912630E+02 -0.10527192978E+03 -0.47499981017E+02  0.12264332625E+03  0.00000000000E+00 0.  1.
         11    1    1    2    0    0 -0.33758831624E+02 -0.44901675459E+02 -0.11519004556E+03  0.12815836207E+03  0.00000000000E+00 0. -1.
</event>
<event>
 7    1  0.2878477E-009  0.1205150E+03  0.7561462E-02  0.1242250E+00
         -1   -1    0    0    0  501 -0.00000000000E+00  0.00000000000E+00  0.15819252675E+03  0.15819252675E+03  0.00000000000E+00 0.  1.
          1   -1    0    0  501    0  0.00000000000E+00 -0.00000000000E+00 -0.11887926886E+03  0.11887926886E+03  0.00000000000E+00 0. -1.
         25    2    1    2    0    0 -0.52398748038E+02 -0.55572478766E+02  0.53364713145E+02  0.15597604729E+03  0.12508719170E+03 0.  0.
          5    1    3    3  502    0 -0.11181170272E+02  0.40013595364E+02  0.21896559361E+02  0.47149104917E+02  0.41800000000E+01 0. -1.
         -5    1    3    3    0  502 -0.41217577765E+02 -0.95586074130E+02  0.31468153784E+02  0.10882694238E+03  0.41800000000E+01 0. -1.
        -11    1    1    2    0    0  0.64782561693E+02  0.46880339009E+02  0.21205289365E+02  0.82729745449E+02  0.00000000000E+00 0.  1.
         11    1    1    2    0    0 -0.12383813655E+02  0.86921397572E+01 -0.35256744627E+02  0.38366002866E+02  0.00000000000E+00 0. -1.
</event>
<event>
 7    1  0.2878477E-009  0.1062583E+03  0.7561462E-02  0.1267660E+00
         -1   -1    0    0    0  501 -0.00000000000E+00  0.00000000000E+00  0.44033524053E+03  0.44033524053E+03  0.00000000000E+00 0.  1.
          1   -1    0    0  501    0  0.00000000000E+00 -0.00000000000E+00 -0.28713369778E+02  0.28713369778E+02  0.00000000000E+00 0. -1.
         25    2    1    2    0    0 -0.15392663059E+02 -0.26628585309E+02  0.25535089454E+03  0.28600027728E+03  0.12508422615E+03 0.  0.
          5    1    3    3  502    0 -0.14542982832E+02  0.49896232910E+02  0.10623504365E+03  0.11834056493E+03  0.41800000000E+01 0. -1.
         -5    1    3    3    0  502 -0.84968022738E+00 -0.76524818219E+02  0.14911585089E+03  0.16765971235E+03  0.41800000000E+01 0. -1.
        -11    1    1    2    0    0  0.46353444541E+02  0.65072189623E+01  0.12875296544E+03  0.13699748840E+03  0.00000000000E+00 0.  1.
         11    1    1    2    0    0 -0.30960781482E+02  0.20121366347E+02  0.27518010775E+02  0.46050844625E+02  0.00000000000E+00 0. -1.
</event>
<event>
 7    1  0.2878477E-009  0.1011403E+03  0.7561462E-02  0.1277916E+00
          2   -1    0    0  501    0  0.00000000000E+00  0.00000000000E+00  0.30909982629E+03  0.30909982629E+03  0.00000000000E+00 0. -1.
         -2   -1    0    0    0  501 -0.00000000000E+00 -0.00000000000E+00 -0.43295354928E+02  0.43295354928E+02  0.00000000000E+00 0.  1.
         25    2    1    2    0    0  0.28567939107E+02  0.27676264237E+02  0.12876228986E+03  0.18387649770E+03  0.12509490946E+03 0.  0.
          5    1    3    3  502    0  0.21650477391E+02 -0.47829068269E+02  0.35068709622E+02  0.63274400331E+02  0.41800000000E+01 0.  1.
         -5    1    3    3    0  502  0.69174617157E+01  0.75505332506E+02  0.93693580235E+02  0.12060209737E+03  0.41800000000E+01 0.  1.
        -11    1    1    2    0    0 -0.11930053675E+02  0.19940562360E+02  0.10767225180E+03  0.11015110538E+03  0.00000000000E+00 0. -1.
         11    1    1    2    0    0 -0.16637885431E+02 -0.47616826597E+02  0.29369929703E+02  0.58367578137E+02  0.00000000000E+00 0.  1.
</event>
<event>
 7    1  0.2878477E-009  0.2008984E+03  0.7561462E-02  0.1148983E+00
          2   -1    0    0  501    0  0.00000000000E+00  0.00000000000E+00  0.84808797495E+03  0.84808797495E+03  0.00000000000E+00 0.  1.
         -2   -1    0    0    0  501 -0.00000000000E+00 -0.00000000000E+00 -0.54639185694E+02  0.54639185694E+02  0.00000000000E+00 0. -1.
         25    2    1    2    0    0 -0.16479622880E+02 -0.17930957072E+03  0.50074219222E+03  0.54664105951E+03  0.12510077835E+03 0.  0.
          5    1    3    3  502    0  0.34331472912E+02 -0.90585238259E+02  0.13088197419E+03  0.16288615346E+03  0.41800000000E+01 0. -1.
         -5    1    3    3    0  502 -0.50811095792E+02 -0.88724332459E+02  0.36986021804E+03  0.38375490604E+03  0.41800000000E+01 0. -1.
        -11    1    1    2    0    0 -0.37194841895E+02  0.10042087747E+03  0.16404193735E+03  0.19590192981E+03  0.00000000000E+00 0. -1.
         11    1    1    2    0    0  0.53674464775E+02  0.78888693248E+02  0.12866465968E+03  0.16018417132E+03  0.00000000000E+00 0.  1.
</event>
<event>
 7    1  0.2878477E-009  0.1105894E+03  0.7561462E-02  0.1259482E+00
         -2   -1    0    0    0  501 -0.00000000000E+00  0.00000000000E+00  0.34408268663E+02  0.34408268663E+02  0.00000000000E+00 0.  1.
          2   -1    0    0  501    0  0.00000000000E+00 -0.00000000000E+00 -0.37823170898E+03  0.37823170898E+03  0.00000000000E+00 0. -1.
         25    2    1    2    0    0  0.73189561042E+01  0.32339425848E+02 -0.16829447752E+03  0.21231731339E+03  0.12512475701E+03 0.  0.
          5    1    3    3  502    0 -0.38076595706E+02  0.61457035922E+02 -0.73544955993E+02  0.10321398818E+03  0.41800000000E+01 0. -1.
         -5    1    3    3    0  502  0.45395551810E+02 -0.29117610074E+02 -0.94749521528E+02  0.10910332520E+03  0.41800000000E+01 0. -1.
        -11    1    1    2    0    0 -0.47063931209E+02 -0.71253664021E+01 -0.68644501973E+02  0.83533538884E+02  0.00000000000E+00 0.  1.
         11    1    1    2    0    0  0.39744975105E+02 -0.25214059446E+02 -0.10688446082E+03  0.11678912537E+03  0.00000000000E+00 0. -1.
</event>
<event>
 7    1  0.2878477E-009  0.9551263E+02  0.7561462E-02  0.1290026E+00
          1   -1    0    0  501    0  0.00000000000E+00  0.00000000000E+00  0.97452899199E+03  0.97452899199E+03  0.00000000000E+00 0. -1.
         -1   -1    0    0    0  501 -0.00000000000E+00 -0.00000000000E+00 -0.18689642500E+02  0.18689642500E+02  0.00000000000E+00 0.  1.
         25    2    1    2    0    0  0.65470621324E+02  0.20067136393E+02  0.67791559633E+03  0.69275253903E+03  0.12508969727E+03 0.  0.
          5    1    3    3  502    0  0.18096438867E+02  0.22877265169E+02  0.26601545387E+02  0.39698425388E+02  0.41800000000E+01 0.  1.
         -5    1    3    3    0  502  0.47374182457E+02 -0.28101287765E+01  0.65131405094E+03  0.65305411364E+03  0.41800000000E+01 0.  1.
        -11    1    1    2    0    0  0.18828295139E+02 -0.22805278417E+02  0.63430401729E+02  0.69985722008E+02  0.00000000000E+00 0.  1.
         11    1    1    2    0    0 -0.84298916463E+02  0.27381420247E+01  0.21449335143E+03  0.23048037345E+03  0.00000000000E+00 0. -1.
</event>
<event>
 7    1  0.2878477E-009  0.8470766E+02  0.7561462E-02  0.1316199E+00
         -1   -1    0    0    0  501 -0.00000000000E+00  0.00000000000E+00  0.52678197391E+02  0.52678197391E+02  0.00000000000E+00 0.  1.
          1   -1    0    0  501    0  0.00000000000E+00 -0.00000000000E+00 -0.35954462948E+03  0.35954462948E+03  0.00000000000E+00 0. -1.
         25    2    1    2    0    0 -0.43774171455E+02  0.57327283537E+02 -0.23638624734E+03  0.27699963939E+03  0.12509095396E+03 0.  0.
          5    1    3    3  502    0  0.96116143955E+01  0.88894133345E+01 -0.19147109947E+03  0.19196369223E+03  0.41800000000E+01 0.  1.
         -5    1    3    3    0  502 -0.53385785851E+02  0.48437870202E+02 -0.44915147872E+02  0.85035947157E+02  0.41800000000E+01 0.  1.
        -11    1    1    2    0    0  0.36379040755E+02 -0.13163824944E+02  0.12731320387E+02  0.40728459487E+02  0.00000000000E+00 0.  1.
         11    1    1    2    0    0  0.73951307003E+01 -0.44163458592E+02 -0.83211505130E+02  0.94494727995E+02  0.00000000000E+00 0. -1.
</event>
<event>
 7    1  0.2878477E-009  0.1008712E+03  0.7561462E-02  0.1278475E+00
          1   -1    0    0  501    0  0.00000000000E+00  0.00000000000E+00  0.47544824906E+03  0.47544824906E+03  0.00000000000E+00 0. -1.
         -1   -1    0    0    0  501 -0.00000000000E+00 -0.00000000000E+00 -0.30441640507E+02  0.30441640507E+02  0.00000000000E+00 0.  1.
         25    2    1    2    0    0 -0.17676587577E+00 -0.28287950246E+01  0.14085929090E+03  0.18840298822E+03  0.12508522219E+03 0.  0.
          5    1    3    3  502    0  0.56542191830E+02  0.70456393667E+01  0.10748487922E+03  0.12172564295E+03  0.41800000000E+01 0. -1.
         -5    1    3    3    0  502 -0.56718957706E+02 -0.98744343913E+01  0.33374411681E+02  0.66677345274E+02  0.41800000000E+01 0. -1.
        -11    1    1    2    0    0 -0.43145776044E+02 -0.26039409690E+01  0.19889769743E+03  0.20354024796E+03  0.00000000000E+00 0.  1.
         11    1    1    2    0    0  0.43322541920E+02  0.54327359936E+01  0.10524962023E+03  0.11394665339E+03  0.00000000000E+00 0. -1.
</event>
<event>
 7    1  0.2878477E-009  0.3508416E+03  0.7561462E-02  0.1062270E+00
          1   -1    0    0  501    0  0.00000000000E+00  0.00000000000E+00  0.92219051132E+02  0.92219051132E+02  0.00000000000E+00 0. -1.
         -1   -1    0    0    0  501 -0.00000000000E+00 -0.00000000000E+00 -0.14422153179E+04  0.14422153179E+04  0.00000000000E+00 0.  1.
         25    2    1    2    0    0  0.31890878872E+03 -0.13724345126E+03 -0.67782577810E+03  0.77177388039E+03  0.12509419071E+03 0.  0.
          5    1    3    3  502    0  0.22943916341E+03 -0.62845539198E+02 -0.54777421706E+03  0.59721516791E+03  0.41800000000E+01 0. -1.
         -5    1    3    3    0  502  0.89469625311E+02 -0.74397912065E+02 -0.13005156104E+03  0.17455871248E+03  0.41800000000E+01 0. -1.
        -11    1    1    2    0    0 -0.24354732604E+03  0.10922981614E+03 -0.41689383253E+03  0.49502214128E+03  0.00000000000E+00 0.  1.
         11    1    1    2    0    0 -0.75361462681E+02  0.28013635122E+02 -0.25527665614E+03  0.26763834736E+03  0.00000000000E+00 0. -1.
</event>
<event>
 7    1  0.2878477E-009  0.1028224E+03  0.7561462E-02  0.1274470E+00
         -1   -1    0    0    0  501 -0.00000000000E+00  0.00000000000E+00  0.17025848223E+03  0.17025848223E+03  0.00000000000E+00 0.  1.
          1   -1    0    0  501    0  0.00000000000E+00 -0.00000000000E+00 -0.79393629154E+02  0.79393629154E+02  0.00000000000E+00 0. -1.
         25    2    1    2    0    0 -0.30636654138E+02 -0.27247033035E+02  0.71320019736E+02  0.14971660994E+03  0.12509001835E+03 0.  0.
          5    1    3    3  502    0  0.33121478342E+02 -0.45064958624E+02  0.56368347420E+01  0.56366028148E+02  0.41800000000E+01 0.  1.
         -5    1    3    3    0  502 -0.63758132479E+02  0.17817925589E+02  0.65683184994E+02  0.93350581790E+02  0.41800000000E+01 0.  1.
        -11    1    1    2    0    0  0.17092256540E+02 -0.24424610054E+02 -0.17834506877E+02  0.34738688022E+02  0.00000000000E+00 0. -1.
         11    1    1    2    0    0  0.13544397597E+02  0.51671643089E+02  0.37379340221E+02  0.65196813428E+02  0.00000000000E+00 0.  1.
</event>
<event>
 7    1  0.2878477E-009  0.1478172E+03  0.7561462E-02  0.1203181E+00
          1   -1    0    0  501    0  0.00000000000E+00  0.00000000000E+00  0.20391509378E+03  0.20391509378E+03  0.00000000000E+00 0. -1.
         -1   -1    0    0    0  501 -0.00000000000E+00 -0.00000000000E+00 -0.15315122831E+03  0.15315122831E+03  0.00000000000E+00 0.  1.
         25    2    1    2    0    0 -0.10437882059E+03  0.61295005449E+02 -0.44326775389E+02  0.17962130543E+03  0.12508770710E+03 0.  0.
          5    1    3    3  502    0 -0.30355985114E+02 -0.38781509966E+02 -0.15233694050E+02  0.51720684276E+02  0.41800000000E+01 0.  1.
         -5    1    3    3    0  502 -0.74022835479E+02  0.10007651542E+03 -0.29093081339E+02  0.12790062116E+03  0.41800000000E+01 0.  1.
        -11    1    1    2    0    0  0.72590175651E+02 -0.48981236060E+02  0.12964339211E+02  0.88524398773E+02  0.00000000000E+00 0.  1.
         11    1    1    2    0    0  0.31788644942E+02 -0.12313769390E+02  0.82126301645E+02  0.88920617889E+02  0.00000000000E+00 0. -1.
</event>
<event>
 7    1  0.2878477E-009  0.2696166E+03  0.7561462E-02  0.1101499E+00
         -1   -1    0    0    0  501 -0.00000000000E+00  0.00000000000E+00  0.33754773918E+03  0.33754773918E+03  0.00000000000E+00 0.  1.
          1   -1    0    0  501    0  0.00000000000E+00 -0.00000000000E+00 -0.26088855051E+03  0.26088855051E+03  0.00000000000E+00 0. -1.
         25    2    1    2    0    0 -0.24480871273E+03  0.10529313203E+03 -0.29945881438E+02  0.29589945183E+03  0.12506710317E+03 0.  0.
          5    1    3    3  502    0 -0.13705203938E+03  0.50517793142E+02  0.45862669449E+02  0.15315405895E+03  0.41800000000E+01 0. -1.
         -5    1    3    3    0  502 -0.10775667335E+03  0.54775338893E+02 -0.75808550887E+02  0.14274539288E+03  0.41800000000E+01 0. -1.
        -11    1    1    2    0    0  0.22998338683E+03 -0.81258925941E+02  0.11935517493E+03  0.27155299491E+03  0.00000000000E+00 0.  1.
         11    1    1    2    0    0  0.14825325904E+02 -0.24034206093E+02 -0.12750104822E+02  0.30983842945E+02  0.00000000000E+00 0. -1.
</event>
<event>
 7    1  0.2878477E-009  0.1126884E+03  0.7561462E-02  0.1255671E+00
         -4   -1    0    0    0  501 -0.00000000000E+00  0.00000000000E+00  0.58456323073E+02  0.58456323073E+02  0.00000000000E+00 0.  1.
          4   -1    0    0  501    0  0.00000000000E+00 -0.00000000000E+00 -0.25203978080E+03  0.25203978080E+03  0.00000000000E+00 0. -1.
         25    2    1    2    0    0  0.39456703938E+02 -0.33729635816E+02 -0.12414391786E+03  0.18371858642E+03  0.12508511836E+03 0.  0.
          5    1    3    3  502    0  0.48405251192E+02  0.35508856442E+02 -0.32368140833E+02  0.68330931281E+02  0.41800000000E+01 0. -1.
         -5    1    3    3    0  502 -0.89485472533E+01 -0.69238492258E+02 -0.91775777029E+02  0.11538765513E+03  0.41800000000E+01 0. -1.
        -11    1    1    2    0    0  0.16611492432E+02  0.35466584295E+02 -0.57264947425E+02  0.69376469253E+02  0.00000000000E+00 0. -1.
         11    1    1    2    0    0 -0.56068196370E+02 -0.17369484786E+01 -0.12174592444E+02  0.57401048208E+02  0.00000000000E+00 0.  1.
</event>
<event>
 7    1  0.2878477E-009  0.9840225E+02  0.7561462E-02  0.1283692E+00
         -1   -1    0    0    0  501 -0.00000000000E+00  0.00000000000E+00  0.20859181578E+02  0.20859181578E+02  0.00000000000E+00 0. -1.
          1   -1    0    0  501    0  0.00000000000E+00 -0.00000000000E+00 -0.74011407879E+03  0.74011407879E+03  0.00000000000E+00 0.  1.
         25    2    1    2    0    0  0.37836636745E+02  0.14821267843E+02 -0.56285395997E+03  0.57801688600E+03  0.12509060390E+03 0.  0.
          5    1    3    3  502    0  0.72900223254E+01  0.53403691294E+02 -0.46765601455E+03  0.47077034636E+03  0.41800000000E+01 0.  1.
         -5    1    3    3    0  502  0.30546614419E+02 -0.38582423451E+02 -0.95197945423E+02  0.10724653964E+03  0.41800000000E+01 0.  1.
        -11    1    1    2    0    0 -0.42017873723E+02 -0.45766386083E+02 -0.11892400417E+03  0.13417519359E+03  0.00000000000E+00 0.  1.
         11    1    1    2    0    0  0.41812369785E+01  0.30945118240E+02 -0.37476933066E+02  0.48781180773E+02  0.00000000000E+00 0. -1.
</event>
<event>
 7    1  0.2878477E-009  0.1312273E+03  0.7561462E-02  0.1225646E+00
         -2   -1    0    0    0  501 -0.00000000000E+00  0.00000000000E+00  0.95186586304E+01  0.95186586304E+01  0.00000000000E+00 0.  1.
          2   -1    0    0  501    0  0.00000000000E+00 -0.00000000000E+00 -0.22160834286E+04  0.22160834286E+04  0.00000000000E+00 0. -1.
         25    2    1    2    0    0 -0.73090137283E+02 -0.39817863420E+02 -0.15759643248E+04  0.15831105358E+04  0.12509110806E+03 0.  0.
          5    1    3    3  502    0 -0.53856761374E+02 -0.80184635339E+02 -0.12924654802E+04  0.12960766244E+04  0.41800000000E+01 0. -1.
         -5    1    3    3    0  502 -0.19233375909E+02  0.40366771920E+02 -0.28349884460E+03  0.28703391144E+03  0.41800000000E+01 0. -1.
        -11    1    1    2    0    0  0.89244485700E+02  0.13898022050E+02 -0.51835889838E+03  0.52616887096E+03  0.00000000000E+00 0. -1.
         11    1    1    2    0    0 -0.16154348417E+02  0.25919841369E+02 -0.11224154684E+03  0.11632268045E+03  0.00000000000E+00 0.  1.
</event>
<event>
 7    1  0.2878477E-009  0.7919093E+02  0.7561462E-02  0.1331363E+00
          1   -1    0    0  501    0  0.00000000000E+00  0.00000000000E+00  0.11652359658E+03  0.11652359658E+03  0.00000000000E+00 0. -1.
         -1   -1    0    0    0  501 -0.00000000000E+00 -0.00000000000E+00 -0.16982628312E+03  0.16982628312E+03  0.00000000000E+00 0.  1.
         25    2    1    2    0    0  0.77713642281E+02  0.73647377421E+01 -0.76927188490E+02  0.16628501796E+03  0.12505704822E+03 0.  0.
          5    1    3    3  502    0  0.33712328874E+02  0.35723944105E+01  0.33153581601E+02  0.47601633301E+02  0.41800000000E+01 0.  1.
         -5    1    3    3    0  502  0.44001313408E+02  0.37923433316E+01 -0.11008077009E+03  0.11868338466E+03  0.41800000000E+01 0.  1.
        -11    1    1    2    0    0 -0.14688281075E+02 -0.82183056906E+01 -0.31898413708E+02  0.36066534993E+02  0.00000000000E+00 0.  1.
         11    1    1    2    0    0 -0.63025361206E+02  0.85356794849E+00  0.55522915653E+02  0.83998326746E+02  0.00000000000E+00 0. -1.
</event>
<event>
 7    1  0.2878477E-009  0.1106655E+03  0.7561462E-02  0.1259342E+00
         -1   -1    0    0    0  501 -0.00000000000E+00  0.00000000000E+00  0.28457637446E+02  0.28457637446E+02  0.00000000000E+00 0.  1.
          1   -1    0    0  501    0  0.00000000000E+00 -0.00000000000E+00 -0.74153073504E+03  0.74153073504E+03  0.00000000000E+00 0. -1.
         25    2    1    2    0    0 -0.43589819571E+02 -0.18402789590E+02 -0.61186238293E+03  0.62630837548E+03  0.12509144860E+03 0.  0.
          5    1    3    3  502    0 -0.18345893730E+02  0.52364745755E+02 -0.32560394595E+03  0.33032414449E+03  0.41800000000E+01 0. -1.
         -5    1    3    3    0  502 -0.25243925841E+02 -0.70767535345E+02 -0.28625843698E+03  0.29598423099E+03  0.41800000000E+01 0. -1.
        -11    1    1    2    0    0  0.49115213367E+02 -0.18974899013E+02 -0.24301284323E+02  0.57990545750E+02  0.00000000000E+00 0.  1.
         11    1    1    2    0    0 -0.55253937957E+01  0.37377688602E+02 -0.76909430342E+02  0.85689451261E+02  0.00000000000E+00 0. -1.
</event>
<event>
 7    1  0.2878477E-009  0.5924941E+02  0.7561462E-02  0.1401009E+00
          2   -1    0    0  501    0  0.00000000000E+00  0.00000000000E+00  0.14540207269E+04  0.14540207269E+04  0.00000000000E+00 0.  1.
         -2   -1    0    0    0  501 -0.00000000000E+00 -0.00000000000E+00 -0.27289319632E+02  0.27289319632E+02  0.00000000000E+00 0. -1.
         25    2    1    2    0    0 -0.21136560176E+02  0.41411371154E+01  0.13589102326E+04  0.13648253645E+04  0.12508937587E+03 0.  0.
          5    1    3    3  502    0 -0.31078052164E+02  0.18373166615E+02  0.13322022971E+04  0.13326979596E+04  0.41800000000E+01 0.  1.
         -5    1    3    3    0  502  0.99414919875E+01 -0.14232029500E+02  0.26707935516E+02  0.32127404908E+02  0.41800000000E+01 0.  1.
        -11    1    1    2    0    0  0.40409833489E+02 -0.13850279162E+02 -0.26338396904E+01  0.42798621321E+02  0.00000000000E+00 0. -1.
         11    1    1    2    0    0 -0.19273273312E+02  0.97091420469E+01  0.70455014266E+02  0.73686060681E+02  0.00000000000E+00 0.  1.
</event>
<event>
 7    1  0.2878477E-009  0.1936661E+03  0.7561462E-02  0.1155196E+00
         -2   -1    0    0    0  501 -0.00000000000E+00  0.00000000000E+00  0.12540287513E+03  0.12540287513E+03  0.00000000000E+00 0.  1.
          2   -1    0    0  501    0  0.00000000000E+00 -0.00000000000E+00 -0.38247008953E+03  0.38247008953E+03  0.00000000000E+00 0. -1.
         25    2    1    2    0    0 -0.12796734871E+03 -0.12968109994E+03 -0.69555946298E+02  0.23168596017E+03  0.12509006538E+03 0.  0.
          5    1    3    3  502    0 -0.13056648455E+03 -0.89660533893E+02 -0.94295494972E+02  0.18437931283E+03  0.41800000000E+01 0. -1.
         -5    1    3    3    0  502  0.25991358465E+01 -0.40020566051E+02  0.24739548675E+02  0.47306647343E+02  0.41800000000E+01 0. -1.
        -11    1    1    2    0    0  0.14059920253E+02  0.43544968483E+02 -0.96619220517E+02  0.10690705969E+03  0.00000000000E+00 0.  1.
         11    1    1    2    0    0  0.11390742845E+03  0.86136131462E+02 -0.90892047578E+02  0.16927994480E+03  0.00000000000E+00 0. -1.
</event>
<event>
 6    1  0.2878477E-009  0.8988767E+02  0.7561462E-02  0.1303124E+00
         -4   -1    0    0    0  501 -0.00000000000E+00  0.00000000000E+00  0.22531752046E+03  0.22531752046E+03  0.00000000000E+00 0.  1.
          4   -1    0    0  501    0  0.00000000000E+00 -0.00000000000E+00 -0.61626800196E+02  0.61626800196E+02  0.00000000000E+00 0. -1.
          5    1    1    2  502    0 -0.46299475532E+02 -0.70862471979E+01  0.73475226442E+02  0.87234956495E+02  0.41800000000E+01 0. -1.
         -5    1    1    2    0  502  0.65577941245E+02 -0.32672548598E+02  0.22051211083E+02  0.76626954266E+02  0.41800000000E+01 0. -1.
        -11    1    1    2    0    0  0.12148560722E+02  0.72418444565E+01  0.75897622271E+02  0.77204150829E+02  0.00000000000E+00 0.  1.
         11    1    1    2    0    0 -0.31427026435E+02  0.32516951340E+02 -0.77333395295E+01  0.45878259070E+02  0.00000000000E+00 0. -1.
</event>
<event>
 7    1  0.2878477E-009  0.1217487E+03  0.7561462E-02  0.1240240E+00
         -1   -1    0    0    0  501 -0.00000000000E+00  0.00000000000E+00  0.33031189277E+03  0.33031189277E+03  0.00000000000E+00 0.  1.
          1   -1    0    0  501    0  0.00000000000E+00 -0.00000000000E+00 -0.60810526937E+02  0.60810526937E+02  0.00000000000E+00 0. -1.
         25    2    1    2    0    0 -0.22356064836E+02 -0.84800125564E+02  0.94215877600E+02  0.17948920426E+03  0.12509551520E+03 0.  0.
          5    1    3    3  502    0  0.46308865247E+02 -0.52568459792E+02  0.71520835891E+02  0.10020307546E+03  0.41800000000E+01 0. -1.
         -5    1    3    3    0  502 -0.68664930083E+02 -0.32231665773E+02  0.22695041710E+02  0.79286128799E+02  0.41800000000E+01 0. -1.
        -11    1    1    2    0    0 -0.66871335491E+01  0.56164798502E+02  0.15710907453E+03  0.16698042893E+03  0.00000000000E+00 0.  1.
         11    1    1    2    0    0  0.29043198385E+02  0.28635327062E+02  0.18176413697E+02  0.44652786512E+02  0.00000000000E+00 0. -1.
</event>
<event>
 7    1  0.2878477E-009  0.1016742E+03  0.7561462E-02  0.1276814E+00
         -2   -1    0    0    0  501 -0.00000000000E+00  0.00000000000E+00  0.13302507236E+02  0.13302507236E+02  0.00000000000E+00 0.  1.
          2   -1    0    0  501    0  0.00000000000E+00 -0.00000000000E+00 -0.92883746064E+03  0.92883746064E+03  0.00000000000E+00 0. -1.
         25    2    1    2    0    0 -0.12685271370E+02 -0.84639411421E+01 -0.49328994722E+03  0.50913175095E+03  0.12509042085E+03 0.  0.
          5    1    3    3  502    0  0.46075515090E+02 -0.15026851355E+02 -0.35980491136E+03  0.36307823674E+03  0.41800000000E+01 0.  1.
         -5    1    3    3    0  502 -0.58760786460E+02  0.65629102132E+01 -0.13348503586E+03  0.14605351421E+03  0.41800000000E+01 0.  1.
        -11    1    1    2    0    0  0.17455493053E+02 -0.41613676856E+02 -0.22212448201E+03  0.22666203442E+03  0.00000000000E+00 0. -1.
         11    1    1    2    0    0 -0.47702216830E+01  0.50077617998E+02 -0.20012052417E+03  0.20634618250E+03  0.00000000000E+00 0.  1.
</event>
<event>
 7    1  0.2878477E-009  0.9820419E+02  0.7561462E-02  0.1284118E+00
         -1   -1    0    0    0  501 -0.00000000000E+00  0.00000000000E+00  0.29863468651E+03  0.29863468651E+03  0.00000000000E+00 0.  1.
          1   -1    0    0  501    0  0.00000000000E+00 -0.00000000000E+00 -0.47861907137E+02  0.47861907137E+02  0.00000000000E+00 0. -1.
         25    2    1    2    0    0  0.22767262579E+02  0.39215913855E+02  0.17192116167E+03  0.21739618812E+03  0.12509188875E+03 0.  0.
          5    1    3    3  502    0 -0.16606425595E+02  0.75741435119E+02  0.84950696526E+02  0.11509401203E+03  0.41800000000E+01 0. -1.
         -5    1    3    3    0  502  0.39373688174E+02 -0.36525521264E+02  0.86970465148E+02  0.10230217609E+03  0.41800000000E+01 0. -1.
        -11    1    1    2    0    0 -0.20793705602E+02  0.43763824377E+01  0.82612623917E+02  0.85301679622E+02  0.00000000000E+00 0.  1.
         11    1    1    2    0    0 -0.19735569777E+01 -0.43592296293E+02 -0.37610062205E+01  0.43798725906E+02  0.00000000000E+00 0. -1.
</event>
<event>
 7    1  0.2878477E-009  0.1083592E+03  0.7561462E-02  0.1263639E+00
         -1   -1    0    0    0  501 -0.00000000000E+00  0.00000000000E+00  0.22040181801E+02  0.22040181801E+02  0.00000000000E+00 0.  1.
          1   -1    0    0  501    0  0.00000000000E+00 -0.00000000000E+00 -0.66599734354E+03  0.66599734354E+03  0.00000000000E+00 0. -1.
         25    2    1    2    0    0  0.10696045437E+02 -0.44359927984E+02 -0.44593567431E+03  0.46538914450E+03  0.12508485761E+03 0.  0.
          5    1    3    3  502    0  0.36403619347E+02 -0.79914164636E+02 -0.26680048195E+03  0.28091184878E+03  0.41800000000E+01 0.  1.
         -5    1    3    3    0  502 -0.25707573910E+02  0.35554236652E+02 -0.17913519235E+03  0.18447729573E+03  0.41800000000E+01 0.  1.
        -11    1    1    2    0    0 -0.70293909007E+01 -0.19519154938E+02 -0.11983765192E+03  0.12162019801E+03  0.00000000000E+00 0. -1.
         11    1    1    2    0    0 -0.36666545359E+01  0.63879082922E+02 -0.78183835511E+02  0.10102818283E+03  0.00000000000E+00 0.  1.
</event>
<event>
 7    1  0.2878477E-009  0.1245271E+03  0.7561462E-02  0.1235810E+00
          1   -1    0    0  501    0  0.00000000000E+00  0.00000000000E+00  0.52638063558E+03  0.52638063558E+03  0.00000000000E+00 0. -1.
         -1   -1    0    0    0  501 -0.00000000000E+00 -0.00000000000E+00 -0.37122739623E+02  0.37122739623E+02  0.00000000000E+00 0.  1.
         25    2    1    2    0    0  0.51718460368E+02 -0.65476198953E+02  0.21541147808E+03  0.26270407659E+03  0.12509754274E+03 0.  0.
          5    1    3    3  502    0  0.62465500911E+02 -0.84832527364E+02  0.21579082700E+03  0.24017004376E+03  0.41800000000E+01 0.  1.
         -5    1    3    3    0  502 -0.10747040543E+02  0.19356328411E+02 -0.37934892563E+00  0.22534032830E+02  0.41800000000E+01 0.  1.
        -11    1    1    2    0    0 -0.54257450427E+02 -0.12936878129E+01  0.88952305071E+02  0.10420200158E+03  0.00000000000E+00 0.  1.
         11    1    1    2    0    0  0.25389900591E+01  0.66769886766E+02  0.18489411281E+03  0.19659729704E+03  0.00000000000E+00 0. -1.
</event>
<event>
 7    1  0.2878477E-009  0.1079262E+03  0.7561462E-02  0.1264459E+00
          2   -1    0    0  501    0  0.00000000000E+00  0.00000000000E+00  0.27584216470E+03  0.27584216470E+03  0.00000000000E+00 0. -1.
         -2   -1    0    0    0  501 -0.00000000000E+00 -0.00000000000E+00 -0.63605034911E+02  0.63605034911E+02  0.00000000000E+00 0.  1.
         25    2    1    2    0    0 -0.49671939068E+02 -0.30522281667E+02  0.54630865045E+02  0.14842981834E+03  0.12509183965E+03 0.  0.
          5    1    3    3  502    0 -0.88156336197E+02 -0.26800395630E+02  0.58697903534E+02  0.10932848255E+03  0.41800000000E+01 0.  1.
         -5    1    3    3    0  502  0.38484397129E+02 -0.37218860375E+01 -0.40670384890E+01  0.39101335785E+02  0.41800000000E+01 0.  1.
        -11    1    1    2    0    0 -0.11025781463E+02  0.20404761707E+02  0.15242181870E+01  0.23243179608E+02  0.00000000000E+00 0.  1.
         11    1    1    2    0    0  0.60697720530E+02  0.10117519960E+02  0.15608204656E+03  0.16777420167E+03  0.00000000000E+00 0. -1.
</event>
<event>
 6    1  0.2878477E-009  0.1112417E+03  0.7561462E-02  0.1258288E+00
         -1   -1    0    0    0  501 -0.00000000000E+00  0.00000000000E+00  0.45951441475E+03  0.45951441475E+03  0.00000000000E+00 0.  1.
          1   -1    0    0  501    0  0.00000000000E+00 -0.00000000000E+00 -0.37253807159E+02  0.37253807159E+02  0.00000000000E+00 0. -1.
          5    1    1    2  502    0  0.11491976538E+02 -0.29804801772E+02  0.19924152160E+03  0.20182925472E+03  0.41800000000E+01 0. -1.
         -5    1    1    2    0  502 -0.62295105036E+02  0.54694558179E+02  0.12205505801E+03  0.14760448636E+03  0.41800000000E+01 0. -1.
        -11    1    1    2    0    0 -0.82432259470E+01  0.27263643781E+02  0.25086384680E+02  0.37955022626E+02  0.00000000000E+00 0.  1.
         11    1    1    2    0    0  0.59046354445E+02 -0.52153400188E+02  0.75877643305E+02  0.10937945821E+03  0.00000000000E+00 0. -1.
</event>
<event>
 7    1  0.2878477E-009  0.1157403E+03  0.7561462E-02  0.1250294E+00
          3   -1    0    0  501    0  0.00000000000E+00  0.00000000000E+00  0.71561070505E+02  0.71561070505E+02  0.00000000000E+00 0. -1.
         -3   -1    0    0    0  501 -0.00000000000E+00 -0.00000000000E+00 -0.24842083537E+03  0.24842083537E+03  0.00000000000E+00 0.  1.
         25    2    1    2    0    0 -0.13734262821E+02 -0.76966163080E+02 -0.89656391223E+02  0.17262127557E+03  0.12508963209E+03 0.  0.
          5    1    3    3  502    0 -0.43999695962E+02  0.14708068364E+02 -0.10601204953E+02  0.47771942249E+02  0.41800000000E+01 0.  1.
         -5    1    3    3    0  502  0.30265433141E+02 -0.91674231444E+02 -0.79055186270E+02  0.12484933332E+03  0.41800000000E+01 0.  1.
        -11    1    1    2    0    0 -0.52490231167E+01  0.66273081842E+02 -0.10106741390E+02  0.67244478152E+02  0.00000000000E+00 0. -1.
         11    1    1    2    0    0  0.18983285938E+02  0.10693081239E+02 -0.77096632256E+02  0.80116152158E+02  0.00000000000E+00 0.  1.
</event>
<event>
 7    1  0.2878477E-009  0.1280501E+03  0.7561462E-02  0.1230378E+00
          3   -1    0    0  501    0  0.00000000000E+00  0.00000000000E+00  0.16883884615E+02  0.16883884615E+02  0.00000000000E+00 0. -1.
         -3   -1    0    0    0  501 -0.00000000000E+00 -0.00000000000E+00 -0.14645378418E+04  0.14645378418E+04  0.00000000000E+00 0.  1.
         25    2    1    2    0    0 -0.10735790697E+03 -0.15497306145E+02 -0.95008478748E+03  0.96440361468E+03  0.12508933573E+03 0.  0.
          5    1    3    3  502    0 -0.10511388922E+02  0.11595365892E+02 -0.10195995200E+02  0.19140860100E+02  0.41800000000E+01 0.  1.
         -5    1    3    3    0  502 -0.96846518044E+02 -0.27092672037E+02 -0.93988879228E+03  0.94526275458E+03  0.41800000000E+01 0.  1.
        -11    1    1    2    0    0  0.20761031619E+02 -0.33753149620E+02 -0.11267084212E+03  0.11943623490E+03  0.00000000000E+00 0. -1.
         11    1    1    2    0    0  0.86596875346E+02  0.49250455765E+02 -0.38489832754E+03  0.39758187679E+03  0.00000000000E+00 0.  1.
</event>
<event>
 7    1  0.2878477E-009  0.7412520E+02  0.7561462E-02  0.1346602E+00
         -2   -1    0    0    0  501 -0.00000000000E+00  0.00000000000E+00  0.82791609506E+02  0.82791609506E+02  0.00000000000E+00 0.  1.
          2   -1    0    0  501    0  0.00000000000E+00 -0.00000000000E+00 -0.17218459073E+03  0.17218459073E+03  0.00000000000E+00 0. -1.
         25    2    1    2    0    0  0.48106431701E+02 -0.31742291842E+02 -0.52574493533E+02  0.14742079947E+03  0.12508802055E+03 0.  0.
          5    1    3    3  502    0  0.40833053216E+02  0.10300388726E+02 -0.84139460303E+02  0.94182574943E+02  0.41800000000E+01 0.  1.
         -5    1    3    3    0  502  0.72733784851E+01 -0.42042680568E+02  0.31564966770E+02  0.53238224530E+02  0.41800000000E+01 0.  1.
        -11    1    1    2    0    0  0.25411923537E+00  0.10056426404E+02  0.24512693394E+02  0.26496573854E+02  0.00000000000E+00 0.  1.
         11    1    1    2    0    0 -0.48360550936E+02  0.21685865437E+02 -0.61331181088E+02  0.81058826911E+02  0.00000000000E+00 0. -1.
</event>
<event>
 7    1  0.2878477E-009  0.1157514E+03  0.7561462E-02  0.1250275E+00
          2   -1    0    0  501    0  0.00000000000E+00  0.00000000000E+00  0.87975705586E+02  0.87975705586E+02  0.00000000000E+00 0. -1.
         -2   -1    0    0    0  501 -0.00000000000E+00 -0.00000000000E+00 -0.17834851963E+03  0.17834851963E+03  0.00000000000E+00 0.  1.
         25    2    1    2    0    0 -0.45447459717E+02 -0.53923496699E+01 -0.52829563245E+01  0.13330477085E+03  0.12509078014E+03 0.  0.
          5    1    3    3  502    0 -0.10046260562E+02 -0.62570691787E+02  0.97884262285E+01  0.64259664720E+02  0.41800000000E+01 0. -1.
         -5    1    3    3    0  502 -0.35401199156E+02  0.57178342117E+02 -0.15071382553E+02  0.69045106133E+02  0.41800000000E+01 0. -1.
        -11    1    1    2    0    0  0.72944899595E+02  0.28944299414E+01 -0.50528203837E+02  0.88783081072E+02  0.00000000000E+00 0. -1.
         11    1    1    2    0    0 -0.27497439878E+02  0.24979197286E+01 -0.34561653882E+02  0.44236373290E+02  0.00000000000E+00 0.  1.
</event>
<event>
 7    1  0.2878477E-009  0.1569208E+03  0.7561462E-02  0.1192218E+00
         -1   -1    0    0    0  501 -0.00000000000E+00  0.00000000000E+00  0.31922956768E+02  0.31922956768E+02  0.00000000000E+00 0.  1.
          1   -1    0    0  501    0  0.00000000000E+00 -0.00000000000E+00 -0.93702105141E+03  0.93702105141E+03  0.00000000000E+00 0. -1.
         25    2    1    2    0    0  0.20514585852E+01  0.13409369582E+03 -0.47032837222E+03  0.50481858150E+03  0.12509074614E+03 0.  0.
          5    1    3    3  502    0 -0.29204881046E+02  0.27132114576E+02 -0.29028012796E+03  0.29303430141E+03  0.41800000000E+01 0. -1.
         -5    1    3    3    0  502  0.31256339631E+02  0.10696158124E+03 -0.18004824427E+03  0.21178428009E+03  0.41800000000E+01 0. -1.
        -11    1    1    2    0    0  0.44102606661E+02 -0.53110258060E+02 -0.19634879321E+03  0.20813117984E+03  0.00000000000E+00 0.  1.
         11    1    1    2    0    0 -0.46154065247E+02 -0.80983437757E+02 -0.23842092920E+03  0.25599424683E+03  0.00000000000E+00 0. -1.
</event>
<event>
 7    1  0.2878477E-009  0.1691733E+03  0.7561462E-02  0.1178713E+00
          1   -1    0    0  501    0  0.00000000000E+00  0.00000000000E+00  0.82809221393E+02  0.82809221393E+02  0.00000000000E+00 0. -1.
         -1   -1    0    0    0  501 -0.00000000000E+00 -0.00000000000E+00 -0.36250970691E+03  0.36250970691E+03  0.00000000000E+00 0.  1.
         25    2    1    2    0    0  0.13106850224E+03 -0.21665054717E+02 -0.11918634072E+03  0.21794843404E+03  0.12509120356E+03 0.  0.
          5    1    3    3  502    0 -0.22401221945E+02 -0.46454392892E+01 -0.35020813012E+02  0.42039559879E+02  0.41800000000E+01 0.  1.
         -5    1    3    3    0  502  0.15346972419E+03 -0.17019615428E+02 -0.84165527713E+02  0.17590887416E+03  0.41800000000E+01 0.  1.
        -11    1    1    2    0    0 -0.30862456021E+02  0.47952922927E+02 -0.49317960175E+02  0.75393867156E+02  0.00000000000E+00 0. -1.
         11    1    1    2    0    0 -0.10020604622E+03 -0.26287868210E+02 -0.11119618462E+03  0.15197662711E+03  0.00000000000E+00 0.  1.
</event>
<event>
 7    1  0.2878477E-009  0.1431256E+03  0.7561462E-02  0.1209184E+00
         -1   -1    0    0    0  501 -0.00000000000E+00  0.00000000000E+00  0.43369001251E+02  0.43369001251E+02  0.00000000000E+00 0.  1.
          1   -1    0    0  501    0  0.00000000000E+00 -0.00000000000E+00 -0.51053064130E+03  0.51053064130E+03  0.00000000000E+00 0. -1.
         25    2    1    2    0    0 -0.65608149319E+02  0.73764397501E+02 -0.21024482930E+03  0.26381213545E+03  0.12509332102E+03 0.  0.
          5    1    3    3  502    0 -0.73430488321E+02  0.10175269971E+03 -0.14214659333E+03  0.18965435642E+03  0.41800000000E+01 0.  1.
         -5    1    3    3    0  502  0.78223390012E+01 -0.27988302207E+02 -0.68098235971E+02  0.74157779027E+02  0.41800000000E+01 0.  1.
        -11    1    1    2    0    0 -0.86124789864E+01 -0.53794701252E+02 -0.13940172413E+03  0.14966925325E+03  0.00000000000E+00 0. -1.
         11    1    1    2    0    0  0.74220628306E+02 -0.19969696249E+02 -0.11751508661E+03  0.14041825386E+03  0.00000000000E+00 0.  1.
</event>
<event>
 7    1  0.2878477E-009  0.7632504E+02  0.7561462E-02  0.1339816E+00
          1   -1    0    0  501    0  0.00000000000E+00  0.00000000000E+00  0.11172729470E+03  0.11172729470E+03  0.00000000000E+00 0. -1.
         -1   -1    0    0    0  501 -0.00000000000E+00 -0.00000000000E+00 -0.11833697938E+03  0.11833697938E+03  0.00000000000E+00 0.  1.
         25    2    1    2    0    0  0.30727358779E+02 -0.89910931524E+01 -0.26020960161E+02  0.13171398401E+03  0.12508586205E+03 0.  0.
          5    1    3    3  502    0  0.72160012974E-01 -0.28066143421E+02 -0.69484856207E+02  0.75055521154E+02  0.41800000000E+01 0.  1.
         -5    1    3    3    0  502  0.30655198766E+02  0.19075050269E+02  0.43463896046E+02  0.56658462860E+02  0.41800000000E+01 0.  1.
        -11    1    1    2    0    0 -0.32170334595E+02  0.43103325806E+02 -0.82430033541E+01  0.54412996864E+02  0.00000000000E+00 0. -1.
         11    1    1    2    0    0  0.14429758158E+01 -0.34112232653E+02  0.27654278838E+02  0.43937293201E+02  0.00000000000E+00 0.  1.
</event>
<event>
 7    1  0.2878477E-009  0.1272869E+03  0.7561462E-02  0.1231538E+00
          2   -1    0    0  501    0  0.00000000000E+00  0.00000000000E+00  0.48353975643E+03  0.48353975643E+03  0.00000000000E+00 0.  1.
         -2   -1    0    0    0  501 -0.00000000000E+00 -0.00000000000E+00 -0.45154127075E+02  0.45154127075E+02  0.00000000000E+00 0. -1.
         25    2    1    2    0    0  0.57834047555E+02 -0.44316650481E+02  0.35934471746E+03  0.38740805754E+03  0.12509050527E+03 0.  0.
          5    1    3    3  502    0 -0.39385567806E+02 -0.66019503695E+01  0.11026268788E+03  0.11734624595E+03  0.41800000000E+01 0. -1.
         -5    1    3    3    0  502  0.97219615361E+02 -0.37714700112E+02  0.24908202958E+03  0.27006181158E+03  0.41800000000E+01 0. -1.
        -11    1    1    2    0    0  0.11982319419E+02  0.38129786043E+02  0.66394307562E+01  0.40515905557E+02  0.00000000000E+00 0. -1.
         11    1    1    2    0    0 -0.69816366974E+02  0.61868644377E+01  0.72401481132E+02  0.10076992041E+03  0.00000000000E+00 0.  1.
</event>
<event>
 7    1  0.2878477E-009  0.7355935E+02  0.7561462E-02  0.1348391E+00
         -2   -1    0    0    0  501 -0.00000000000E+00  0.00000000000E+00  0.28308329711E+03  0.28308329711E+03  0.00000000000E+00 0. -1.
          2   -1    0    0  501    0  0.00000000000E+00 -0.00000000000E+00 -0.48677402385E+02  0.48677402385E+02  0.00000000000E+00 0.  1.
         25    2    1    2    0    0 -0.33304151124E+02 -0.28662794972E+01  0.17038229057E+03  0.21399783241E+03  0.12509022862E+03 0.  0.
          5    1    3    3  502    0 -0.43084489298E+02 -0.14455980735E+01  0.33020909168E-01  0.43310927747E+02  0.41800000000E+01 0.  1.
         -5    1    3    3    0  502  0.97803381748E+01 -0.14206814237E+01  0.17034926966E+03  0.17068690466E+03  0.41800000000E+01 0.  1.
        -11    1    1    2    0    0 -0.22167912189E+02 -0.22935984231E+02  0.41608128764E+01  0.32168121911E+02  0.00000000000E+00 0. -1.
         11    1    1    2    0    0  0.55472063313E+02  0.25802263729E+02  0.59862791286E+02  0.85594745179E+02  0.00000000000E+00 0.  1.
</event>
<event>
 7    1  0.2878477E-009  0.1143554E+03  0.7561462E-02  0.1252710E+00
          2   -1    0    0  501    0  0.00000000000E+00  0.00000000000E+00  0.75853148801E+02  0.75853148801E+02  0.00000000000E+00 0. -1.
         -2   -1    0    0    0  501 -0.00000000000E+00 -0.00000000000E+00 -0.28502463291E+03  0.28502463291E+03  0.00000000000E+00 0.  1.
         25    2    1    2    0    0 -0.21633638775E+02  0.89767850957E+02 -0.68706673985E+02  0.16998204465E+03  0.12508799727E+03 0.  0.
          5    1    3    3  502    0 -0.20804220639E+01 -0.22112442957E+02  0.16460740694E+02  0.27959196585E+02  0.41800000000E+01 0.  1.
         -5    1    3    3    0  502 -0.19553216711E+02  0.11188029391E+03 -0.85167414678E+02  0.14202284807E+03  0.41800000000E+01 0.  1.
        -11    1    1    2    0    0  0.14304698984E+02 -0.68032694741E+02 -0.26107686575E+02  0.74260913441E+02  0.00000000000E+00 0. -1.
         11    1    1    2    0    0  0.73289397918E+01 -0.21735156215E+02 -0.11435712355E+03  0.11663482362E+03  0.00000000000E+00 0.  1.
</event>
<event>
 7    1  0.2878477E-009  0.8120569E+02  0.7561462E-02  0.1325664E+00
         -1   -1    0    0    0  501 -0.00000000000E+00  0.00000000000E+00  0.58682175974E+02  0.58682175974E+02  0.00000000000E+00 0.  1.
          1   -1    0    0  501    0  0.00000000000E+00 -0.00000000000E+00 -0.21849037741E+03  0.21849037741E+03  0.00000000000E+00 0. -1.
         25    2    1    2    0    0  0.52869525631E+01  0.32582892640E+02 -0.98293292784E+02  0.16247424166E+03  0.12508681400E+03 0.  0.
          5    1    3    3  502    0  0.33870534861E+02  0.10301148317E+02  0.18466633386E+02  0.40147425036E+02  0.41800000000E+01 0.  1.
         -5    1    3    3    0  502 -0.28583582298E+02  0.22281744324E+02 -0.11675992617E+03  0.12232681663E+03  0.41800000000E+01 0.  1.
        -11    1    1    2    0    0  0.24873818911E+02 -0.49717440096E+02 -0.16739273674E+02  0.58058022702E+02  0.00000000000E+00 0.  1.
         11    1    1    2    0    0 -0.30160771474E+02  0.17134547456E+02 -0.44775634982E+02  0.56640289022E+02  0.00000000000E+00 0. -1.
</event>
<event>
 7    1  0.2878477E-009  0.6029635E+02  0.7561462E-02  0.1396592E+00
         -2   -1    0    0    0  501 -0.00000000000E+00  0.00000000000E+00  0.37387735050E+02  0.37387735050E+02  0.00000000000E+00 0.  1.
          2   -1    0    0  501    0  0.00000000000E+00 -0.00000000000E+00 -0.32846089035E+03  0.32846089035E+03  0.00000000000E+00 0. -1.
         25    2    1    2    0    0 -0.12403970605E+02  0.67376779775E+01 -0.20613098196E+03  0.24152660760E+03  0.12508343480E+03 0.  0.
          5    1    3    3  502    0 -0.11976821639E+02 -0.16853068373E+02  0.10508255270E+02  0.23566204594E+02  0.41800000000E+01 0.  1.
         -5    1    3    3    0  502 -0.42714896609E+00  0.23590746351E+02 -0.21663923723E+03  0.21796040300E+03  0.41800000000E+01 0.  1.
        -11    1    1    2    0    0 -0.48887252910E+01  0.32390802030E+02 -0.43042597477E+01  0.33039224312E+02  0.00000000000E+00 0.  1.
         11    1    1    2    0    0  0.17292695896E+02 -0.39128480008E+02 -0.80637913588E+02  0.91282793488E+02  0.00000000000E+00 0. -1.
</event>
<event>
 7    1  0.2878477E-009  0.1770031E+03  0.7561462E-02  0.1170735E+00
         -2   -1    0    0    0  501 -0.00000000000E+00  0.00000000000E+00  0.17021917011E+02  0.17021917011E+02  0.00000000000E+00 0.  1.
          2   -1    0    0  501    0  0.00000000000E+00 -0.00000000000E+00 -0.24185052410E+04  0.24185052410E+04  0.00000000000E+00 0. -1.
         25    2    1    2    0    0  0.53236924830E+02 -0.13800716250E+03 -0.18516825834E+04  0.18617878484E+04  0.12508179630E+03 0.  0.
          5    1    3    3  502    0 -0.31678487054E+02 -0.44340789122E+00 -0.32048503303E+03  0.32207429569E+03  0.41800000000E+01 0.  1.
         -5    1    3    3    0  502  0.84915411884E+02 -0.13756375461E+03 -0.15311975504E+04  0.15397135527E+04  0.41800000000E+01 0.  1.
        -11    1    1    2    0    0 -0.35103291004E+02  0.18925247733E+02 -0.90328458853E+02  0.98740247720E+02  0.00000000000E+00 0.  1.
         11    1    1    2    0    0 -0.18133633826E+02  0.11908191477E+03 -0.45947228175E+03  0.47499906189E+03  0.00000000000E+00 0. -1.
</event>
<event>
 7    1  0.2878477E-009  0.9042777E+02  0.7561462E-02  0.1301819E+00
         -1   -1    0    0    0  501 -0.00000000000E+00  0.00000000000E+00  0.48157774009E+03  0.48157774009E+03  0.00000000000E+00 0.  1.
          1   -1    0    0  501    0  0.00000000000E+00 -0.00000000000E+00 -0.32895909527E+02  0.32895909527E+02  0.00000000000E+00 0. -1.
         25    2    1    2    0    0  0.17783145423E+02  0.49789841568E+02  0.18904018170E+03  0.23276366866E+03  0.12508983399E+03 0.  0.
          5    1    3    3  502    0 -0.33913654641E+02  0.86224221490E+01  0.30917679005E+01  0.35376737605E+02  0.41800000000E+01 0.  1.
         -5    1    3    3    0  502  0.51696800064E+02  0.41167419419E+02  0.18594841380E+03  0.19738693106E+03  0.41800000000E+01 0.  1.
        -11    1    1    2    0    0  0.19517640767E+02 -0.33332728831E+02  0.31184658143E+02  0.49643650308E+02  0.00000000000E+00 0. -1.
         11    1    1    2    0    0 -0.37300786189E+02 -0.16457112737E+02  0.22845699072E+03  0.23206633065E+03  0.00000000000E+00 0.  1.
</event>
<event>
 7    1  0.2878477E-009  0.2200222E+03  0.7561462E-02  0.1133867E+00
          2   -1    0    0  501    0  0.00000000000E+00  0.00000000000E+00  0.16786871819E+03  0.16786871819E+03  0.00000000000E+00 0. -1.
         -2   -1    0    0    0  501 -0.00000000000E+00 -0.00000000000E+00 -0.52012880689E+03  0.52012880689E+03  0.00000000000E+00 0.  1.
         25    2    1    2    0    0 -0.49850195955E+02 -0.20357528726E+03 -0.38606029330E+03  0.45674893380E+03  0.12509635825E+03 0.  0.
          5    1    3    3  502    0 -0.19912979837E+02 -0.13253400327E+03 -0.12078347406E+03  0.18046581060E+03  0.41800000000E+01 0. -1.
         -5    1    3    3    0  502 -0.29937216118E+02 -0.71041283983E+02 -0.26527681924E+03  0.27628312320E+03  0.41800000000E+01 0. -1.
        -11    1    1    2    0    0 -0.27240401489E+02  0.53020202887E+02  0.98570148527E+01  0.60418061284E+02  0.00000000000E+00 0. -1.
         11    1    1    2    0    0  0.77090597444E+02  0.15055508437E+03  0.23943189740E+02  0.17083053000E+03  0.00000000000E+00 0.  1.
</event>
<event>
 7    1  0.2878477E-009  0.9786013E+02  0.7561462E-02  0.1284861E+00
         -2   -1    0    0    0  501 -0.00000000000E+00  0.00000000000E+00  0.82482460891E+03  0.82482460891E+03  0.00000000000E+00 0.  1.
          2   -1    0    0  501    0  0.00000000000E+00 -0.00000000000E+00 -0.21104960238E+02  0.21104960238E+02  0.00000000000E+00 0. -1.
         25    2    1    2    0    0 -0.48374363623E+02  0.34769689728E+01  0.63997121533E+03  0.65388222360E+03  0.12508652013E+03 0.  0.
          5    1    3    3  502    0  0.17554117943E+02 -0.45322767241E+02  0.31161188007E+03  0.31540725497E+03  0.41800000000E+01 0. -1.
         -5    1    3    3    0  502 -0.65928481566E+02  0.48799736214E+02  0.32835933526E+03  0.33847496863E+03  0.41800000000E+01 0. -1.
        -11    1    1    2    0    0  0.36568950197E+02  0.17649634560E+02  0.16284294693E+03  0.16782914850E+03  0.00000000000E+00 0.  1.
         11    1    1    2    0    0  0.11805413426E+02 -0.21126603533E+02  0.90548641024E+00  0.24218197056E+02  0.00000000000E+00 0. -1.
</event>
<event>
 7    1  0.2878477E-009  0.9204067E+02  0.7561462E-02  0.1297984E+00
         -1   -1    0    0    0  501 -0.00000000000E+00  0.00000000000E+00  0.21455571988E+03  0.21455571988E+03  0.00000000000E+00 0.  1.
          1   -1    0    0  501    0  0.00000000000E+00 -0.00000000000E+00 -0.64408214776E+02  0.64408214776E+02  0.00000000000E+00 0. -1.
         25    2    1    2    0    0 -0.34043891093E+02 -0.25013525084E+02  0.71033101803E+02  0.14992468439E+03  0.12508815483E+03 0.  0.
          5    1    3    3  502    0 -0.54275805354E+02 -0.28188063599E+02 -0.13563391328E+02  0.62784297086E+02  0.41800000000E+01 0. -1.
         -5    1    3    3    0  502  0.20231914261E+02  0.31745385142E+01  0.84596493131E+02  0.87140387304E+02  0.41800000000E+01 0. -1.
        -11    1    1    2    0    0  0.61881005386E+02  0.36410359147E+02  0.53658952631E+02  0.89634012954E+02  0.00000000000E+00 0.  1.
         11    1    1    2    0    0 -0.27837114293E+02 -0.11396834063E+02  0.25455450672E+02  0.39405237314E+02  0.00000000000E+00 0. -1.
</event>
<event>
 7    1  0.2878477E-009  0.7100781E+02  0.7561462E-02  0.1356699E+00
          3   -1    0    0  501    0  0.00000000000E+00  0.00000000000E+00  0.75771264957E+02  0.75771264957E+02  0.00000000000E+00 0. -1.
         -3   -1    0    0    0  501 -0.00000000000E+00 -0.00000000000E+00 -0.15989468046E+03  0.15989468046E+03  0.00000000000E+00 0.  1.
         25    2    1    2    0    0  0.22776695012E+02  0.21576055302E+02 -0.39476501318E+02  0.13487153340E+03  0.12509049671E+03 0.  0.
          5    1    3    3  502    0  0.31643392387E+02  0.33741154756E+02  0.35389817428E+02  0.58392477115E+02  0.41800000000E+01 0. -1.
         -5    1    3    3    0  502 -0.88666973752E+01 -0.12165099453E+02 -0.74866318746E+02  0.76479056281E+02  0.41800000000E+01 0. -1.
        -11    1    1    2    0    0 -0.25027454186E+02  0.23786635728E+02 -0.43266528492E+02  0.55354945489E+02  0.00000000000E+00 0.  1.
         11    1    1    2    0    0  0.22507591745E+01 -0.45362691030E+02 -0.13803856950E+01  0.45439466535E+02  0.00000000000E+00 0. -1.
</event>
<event>
 7    1  0.2878477E-009  0.1128514E+03  0.7561462E-02  0.1255379E+00
          2   -1    0    0  501    0  0.00000000000E+00  0.00000000000E+00  0.10593945158E+04  0.10593945158E+04  0.00000000000E+00 0. -1.
         -2   -1    0    0    0  501 -0.00000000000E+00 -0.00000000000E+00 -0.25530681369E+02  0.25530681369E+02  0.00000000000E+00 0.  1.
         25    2    1    2    0    0 -0.36344685068E+02  0.79860576671E+02  0.80786848924E+03  0.82219096641E+03  0.12509133266E+03 0.  0.
          5    1    3    3  502    0 -0.37523428528E+02  0.78670627283E+02  0.25901638637E+03  0.27332039092E+03  0.41800000000E+01 0. -1.
         -5    1    3    3    0  502  0.11787434600E+01  0.11899493879E+01  0.54885210287E+03  0.54887057549E+03  0.41800000000E+01 0. -1.
        -11    1    1    2    0    0  0.26787565115E+02 -0.10430614747E+03  0.17854286456E+03  0.20850635609E+03  0.00000000000E+00 0.  1.
         11    1    1    2    0    0  0.95571199532E+01  0.24445570797E+02  0.47452480679E+02  0.54227874714E+02  0.00000000000E+00 0. -1.
</event>
<event>
 7    1  0.2878477E-009  0.1147971E+03  0.7561462E-02  0.1251936E+00
         -1   -1    0    0    0  501 -0.00000000000E+00  0.00000000000E+00  0.25068813896E+02  0.25068813896E+02  0.00000000000E+00 0.  1.
          1   -1    0    0  501    0  0.00000000000E+00 -0.00000000000E+00 -0.54473088499E+03  0.54473088499E+03  0.00000000000E+00 0. -1.
         25    2    1    2    0    0 -0.96388769289E+01 -0.38327022537E+02 -0.25148622651E+03  0.28364514668E+03  0.12508948200E+03 0.  0.
          5    1    3    3  502    0 -0.63022762529E+02 -0.43142194625E+02 -0.13075561953E+03  0.15148472528E+03  0.41800000000E+01 0.  1.
         -5    1    3    3    0  502  0.53383885600E+02  0.48151720882E+01 -0.12073060699E+03  0.13216042141E+03  0.41800000000E+01 0.  1.
        -11    1    1    2    0    0  0.47843410394E+02  0.38061158992E+02 -0.17850051671E+03  0.18867982989E+03  0.00000000000E+00 0.  1.
         11    1    1    2    0    0 -0.38204533465E+02  0.26586354517E+00 -0.89675327872E+02  0.97474722311E+02  0.00000000000E+00 0. -1.
</event>
<event>
 7    1  0.2878477E-009  0.1047690E+03  0.7561462E-02  0.1270575E+00
         -1   -1    0    0    0  501 -0.00000000000E+00  0.00000000000E+00  0.10297928284E+03  0.10297928284E+03  0.00000000000E+00 0.  1.
          1   -1    0    0  501    0  0.00000000000E+00 -0.00000000000E+00 -0.21120078171E+03  0.21120078171E+03  0.00000000000E+00 0. -1.
         25    2    1    2    0    0  0.57950858633E+02 -0.80822488356E+02 -0.56445425866E+02  0.16949269825E+03  0.12510440447E+03 0.  0.
          5    1    3    3  502    0  0.97473582538E+01 -0.11828044061E+02  0.39034752838E+02  0.42143777101E+02  0.41800000000E+01 0. -1.
         -5    1    3    3    0  502  0.48203500379E+02 -0.68994444295E+02 -0.95480178704E+02  0.12734892115E+03  0.41800000000E+01 0. -1.
        -11    1    1    2    0    0  0.38818895066E+01  0.27382747410E+02 -0.56415696853E+02  0.62830046739E+02  0.00000000000E+00 0. -1.
         11    1    1    2    0    0 -0.61832748139E+02  0.53439740946E+02  0.46396238487E+01  0.81857319553E+02  0.00000000000E+00 0.  1.
</event>
<event>
 7    1  0.2878477E-009  0.1105319E+03  0.7561462E-02  0.1259588E+00
         -2   -1    0    0    0  501 -0.00000000000E+00  0.00000000000E+00  0.84690642518E+02  0.84690642518E+02  0.00000000000E+00 0.  1.
          2   -1    0    0  501    0  0.00000000000E+00 -0.00000000000E+00 -0.16735047090E+03  0.16735047090E+03  0.00000000000E+00 0. -1.
         25    2    1    2    0    0  0.10112262271E+02  0.34960921039E+02 -0.99613102833E+01  0.13065572394E+03  0.12508863516E+03 0.  0.
          5    1    3    3  502    0 -0.54212261459E+02 -0.47176016995E+01 -0.36362214740E+01  0.54698442070E+02  0.41800000000E+01 0. -1.
         -5    1    3    3    0  502  0.64324523730E+02  0.39678522739E+02 -0.63250888093E+01  0.75957281865E+02  0.41800000000E+01 0. -1.
        -11    1    1    2    0    0 -0.18783395004E+02  0.24405394081E+02 -0.46832060174E+02  0.56050700694E+02  0.00000000000E+00 0.  1.
         11    1    1    2    0    0  0.86711327329E+01 -0.59366315121E+02 -0.25866457928E+02  0.65334688793E+02  0.00000000000E+00 0. -1.
</event>
<event>
 7    1  0.2878477E-009  0.1011615E+03  0.7561462E-02  0.1277872E+00
         -2   -1    0    0    0  501 -0.00000000000E+00  0.00000000000E+00  0.22395737709E+03  0.22395737709E+03  0.00000000000E+00 0.  1.
          2   -1    0    0  501    0  0.00000000000E+00 -0.00000000000E+00 -0.62359547165E+02  0.62359547165E+02  0.00000000000E+00 0. -1.
         25    2    1    2    0    0  0.95408299115E+01 -0.33902374528E+02  0.56255073931E+02  0.14156258492E+03  0.12503972837E+03 0.  0.
          5    1    3    3  502    0 -0.31859042054E+02  0.35433602087E+02  0.30357859264E+02  0.56653426521E+02  0.41800000000E+01 0. -1.
         -5    1    3    3    0  502  0.41399871966E+02 -0.69335976616E+02  0.25897214668E+02  0.84909158396E+02  0.41800000000E+01 0. -1.
        -11    1    1    2    0    0 -0.27864395677E+01  0.53152594390E+02  0.11140931752E+03  0.12347063848E+03  0.00000000000E+00 0.  1.
         11    1    1    2    0    0 -0.67543903438E+01 -0.19250219862E+02 -0.60665615235E+01  0.21283700861E+02  0.00000000000E+00 0. -1.
</event>
<event>
 7    1  0.2878477E-009  0.1088034E+03  0.7561462E-02  0.1262802E+00
         -1   -1    0    0    0  501 -0.00000000000E+00  0.00000000000E+00  0.16413156931E+03  0.16413156931E+03  0.00000000000E+00 0.  1.
          1   -1    0    0  501    0  0.00000000000E+00 -0.00000000000E+00 -0.99821857388E+02  0.99821857388E+02  0.00000000000E+00 0. -1.
         25    2    1    2    0    0 -0.50395757942E+02  0.45291046551E+02  0.16988229056E+02  0.14327533166E+03  0.12509280323E+03 0.  0.
          5    1    3    3  502    0 -0.54706189430E+02  0.70104714532E+02 -0.26469228576E+02  0.92873734839E+02  0.41800000000E+01 0. -1.
         -5    1    3    3    0  502  0.43104314876E+01 -0.24813667981E+02  0.43457457631E+02  0.50401596821E+02  0.41800000000E+01 0. -1.
        -11    1    1    2    0    0  0.69699528840E+02 -0.22618009457E+02  0.52907121890E+02  0.90381205010E+02  0.00000000000E+00 0.  1.
         11    1    1    2    0    0 -0.19303770898E+02 -0.22673037094E+02 -0.55856390264E+01  0.30296890026E+02  0.00000000000E+00 0. -1.
</event>
<event>
 7    1  0.2878477E-009  0.1266012E+03  0.7561462E-02  0.1232588E+00
         -2   -1    0    0    0  501 -0.00000000000E+00  0.00000000000E+00  0.89872224579E+02  0.89872224579E+02  0.00000000000E+00 0. -1.
          2   -1    0    0  501    0  0.00000000000E+00 -0.00000000000E+00 -0.20545290449E+03  0.20545290449E+03  0.00000000000E+00 0.  1.
         25    2    1    2    0    0 -0.87424994359E+00  0.73100250926E+02 -0.25797224876E+02  0.14717092964E+03  0.12509746090E+03 0.  0.
          5    1    3    3  502    0  0.43557549950E+02 -0.14445391626E+02 -0.23084779531E+01  0.46138172562E+02  0.41800000000E+01 0. -1.
         -5    1    3    3    0  502 -0.44431799894E+02  0.87545642552E+02 -0.23488746923E+02  0.10103275708E+03  0.41800000000E+01 0. -1.
        -11    1    1    2    0    0  0.77501345956E+01  0.16901405543E+02 -0.42203340434E+02  0.46117719364E+02  0.00000000000E+00 0.  1.
         11    1    1    2    0    0 -0.68758846520E+01 -0.90001656470E+02 -0.47580114597E+02  0.10203648006E+03  0.00000000000E+00 0. -1.
</event>
<event>
 7    1  0.2878477E-009  0.1159490E+03  0.7561462E-02  0.1249934E+00
         -1   -1    0    0    0  501 -0.00000000000E+00  0.00000000000E+00  0.37686753368E+03  0.37686753368E+03  0.00000000000E+00 0.  1.
          1   -1    0    0  501    0  0.00000000000E+00 -0.00000000000E+00 -0.38174131186E+02  0.38174131186E+02  0.00000000000E+00 0. -1.
         25    2    1    2    0    0  0.13731329011E-01 -0.44823458494E+02  0.23866209323E+03  0.27315803607E+03  0.12508627145E+03 0.  0.
          5    1    3    3  502    0 -0.11794538615E+02 -0.87396871906E+02  0.15148130721E+03  0.17533220809E+03  0.41800000000E+01 0.  1.
         -5    1    3    3    0  502  0.11808269944E+02  0.42573413412E+02  0.87180786015E+02  0.97825827974E+02  0.41800000000E+01 0.  1.
        -11    1    1    2    0    0 -0.21100585030E+02 -0.21207062061E+02  0.41513036941E+02  0.51169389345E+02  0.00000000000E+00 0.  1.
         11    1    1    2    0    0  0.21086853701E+02  0.66030520555E+02  0.58518272325E+02  0.90714239454E+02  0.00000000000E+00 0. -1.
</event>
<event>
 7    1  0.2878477E-009  0.1035878E+03  0.7561462E-02  0.1272927E+00
          4   -1    0    0  501    0  0.00000000000E+00  0.00000000000E+00  0.66889333896E+02  0.66889333896E+02  0.00000000000E+00 0.  1.
         -4   -1    0    0    0  501 -0.00000000000E+00 -0.00000000000E+00 -0.21279577519E+03  0.21279577519E+03  0.00000000000E+00 0. -1.
         25    2    1    2    0    0 -0.35211974918E+02 -0.37318143381E+02 -0.79304437193E+02  0.15675062582E+03  0.12509611479E+03 0.  0.
          5    1    3    3  502    0  0.42702041796E+02 -0.24270347687E+02 -0.74019977840E+01  0.49847528741E+02  0.41800000000E+01 0.  1.
         -5    1    3    3    0  502 -0.77914016714E+02 -0.13047795694E+02 -0.71902439409E+02  0.10690309708E+03  0.41800000000E+01 0.  1.
        -11    1    1    2    0    0  0.52153425237E+02  0.25070597071E+02 -0.52328373597E+01  0.58102471447E+02  0.00000000000E+00 0.  1.
         11    1    1    2    0    0 -0.16941450319E+02  0.12247546309E+02 -0.61369166742E+02  0.64832011816E+02  0.00000000000E+00 0. -1.
</event>
<event>
 7    1  0.2878477E-009  0.1309123E+03  0.7561462E-02  0.1226108E+00
         -2   -1    0    0    0  501 -0.00000000000E+00  0.00000000000E+00  0.79157218719E+02  0.79157218719E+02  0.00000000000E+00 0.  1.
          2   -1    0    0  501    0  0.00000000000E+00 -0.00000000000E+00 -0.36866040823E+03  0.36866040823E+03  0.00000000000E+00 0. -1.
         25    2    1    2    0    0  0.81984816551E+02 -0.36740651924E+02 -0.28018227470E+03  0.31971189543E+03  0.12506879456E+03 0.  0.
          5    1    3    3  502    0  0.10983089114E+03 -0.25022006401E+02 -0.16000112324E+03  0.19572112122E+03  0.41800000000E+01 0.  1.
         -5    1    3    3    0  502 -0.27846074588E+02 -0.11718645523E+02 -0.12018115146E+03  0.12399077421E+03  0.41800000000E+01 0.  1.
        -11    1    1    2    0    0  0.15104440588E+02  0.91884537135E+01  0.16228816836E+02  0.23998881287E+02  0.00000000000E+00 0.  1.
         11    1    1    2    0    0 -0.97089257140E+02  0.27552198211E+02 -0.25549731646E+02  0.10410685023E+03  0.00000000000E+00 0. -1.
</event>
<event>
 7    1  0.2878477E-009  0.1088110E+03  0.7561462E-02  0.1262788E+00
          1   -1    0    0  501    0  0.00000000000E+00  0.00000000000E+00  0.95607944224E+02  0.95607944224E+02  0.00000000000E+00 0. -1.
         -1   -1    0    0    0  501 -0.00000000000E+00 -0.00000000000E+00 -0.19054917441E+03  0.19054917441E+03  0.00000000000E+00 0.  1.
         25    2    1    2    0    0  0.18331614988E+02  0.76599247078E+02 -0.66780373797E+02  0.16220447025E+03  0.12508868487E+03 0.  0.
          5    1    3    3  502    0 -0.28210403555E+02  0.41627500814E+02  0.22732631000E+02  0.55343659121E+02  0.41800000000E+01 0. -1.
         -5    1    3    3    0  502  0.46542018543E+02  0.34971746263E+02 -0.89513004797E+02  0.10686081113E+03  0.41800000000E+01 0. -1.
        -11    1    1    2    0    0 -0.38617134163E+02 -0.11031378674E+02  0.15004394331E+02  0.42873140958E+02  0.00000000000E+00 0.  1.
         11    1    1    2    0    0  0.20285519174E+02 -0.65567868403E+02 -0.43165250720E+02  0.81079507428E+02  0.00000000000E+00 0. -1.
</event>
<event>
 7    1  0.2878477E-009  0.1349264E+03  0.7561462E-02  0.1220324E+00
         -1   -1    0    0    0  501 -0.00000000000E+00  0.00000000000E+00  0.32729978729E+03  0.32729978729E+03  0.00000000000E+00 0.  1.
          1   -1    0    0  501    0  0.00000000000E+00 -0.00000000000E+00 -0.65070344221E+02  0.65070344221E+02  0.00000000000E+00 0. -1.
         25    2    1    2    0    0 -0.33215425490E+02  0.86557254007E+02  0.16716592218E+03  0.22843836568E+03  0.12507685103E+03 0.  0.
          5    1    3    3  502    0 -0.37236025893E+02  0.11766849077E+03  0.12494548257E+03  0.17567367861E+03  0.41800000000E+01 0. -1.
         -5    1    3    3    0  502  0.40206004032E+01 -0.31111236759E+02  0.42220439611E+02  0.52764687066E+02  0.41800000000E+01 0. -1.
        -11    1    1    2    0    0  0.35231709047E+01 -0.84903832060E+02  0.10263188130E+03  0.13324554961E+03  0.00000000000E+00 0.  1.
         11    1    1    2    0    0  0.29692254586E+02 -0.16534219467E+01 -0.75683604137E+01  0.30686216219E+02  0.00000000000E+00 0. -1.
</event>
<event>
 7    1  0.2878477E-009  0.1595871E+03  0.7561462E-02  0.1189164E+00
          1   -1    0    0  501    0  0.00000000000E+00  0.00000000000E+00  0.22345735172E+04  0.22345735172E+04  0.00000000000E+00 0. -1.
         -1   -1    0    0    0  501 -0.00000000000E+00 -0.00000000000E+00 -0.15584093756E+02  0.15584093756E+02  0.00000000000E+00 0.  1.
         25    2    1    2    0    0 -0.92428126257E+02 -0.97356014671E+02  0.12215677120E+04  0.12352722591E+04  0.12509487117E+03 0.  0.
          5    1    3    3  502    0 -0.31404035781E+02 -0.37881929204E+02  0.11168981457E+03  0.12212019122E+03  0.41800000000E+01 0.  1.
         -5    1    3    3    0  502 -0.61024090475E+02 -0.59474085466E+02  0.11098778975E+04  0.11131520678E+04  0.41800000000E+01 0.  1.
        -11    1    1    2    0    0  0.91125825494E+02  0.12616777164E+03  0.89709974521E+03  0.91049995910E+03  0.00000000000E+00 0. -1.
         11    1    1    2    0    0  0.13023007630E+01 -0.28811756968E+02  0.10032196617E+03  0.10438539277E+03  0.00000000000E+00 0.  1.
</event>
<event>
 7    1  0.4257199E-009  0.1011372E+03  0.7561462E-02  0.1277922E+00
         -1   -1    0    0    0  501 -0.00000000000E+00  0.00000000000E+00  0.10565333637E+03  0.10565333637E+03  0.00000000000E+00 0.  1.
          1   -1    0    0  501    0  0.00000000000E+00 -0.00000000000E+00 -0.16563214726E+03  0.16563214726E+03  0.00000000000E+00 0. -1.
         25    2    1    2    0    0 -0.35858650974E+02 -0.55412927172E+02  0.52568782582E+01  0.14152888537E+03  0.12508539194E+03 0.  0.
          5    1    3    3  502    0 -0.71515420079E+02 -0.54715144704E+01 -0.20701614501E+02  0.74769124795E+02  0.41800000000E+01 0.  1.
         -5    1    3    3    0  502  0.35656769104E+02 -0.49941412701E+02  0.25958492759E+02  0.66759760574E+02  0.41800000000E+01 0.  1.
        -11    1    1    2    0    0  0.11482789637E+02  0.35919554052E+02  0.17320141830E+02  0.41497664201E+02  0.00000000000E+00 0.  1.
         11    1    1    2    0    0  0.24375861337E+02  0.19493373120E+02 -0.82555830979E+02  0.88258934053E+02  0.00000000000E+00 0. -1.
</event>
<event>
 7    1  0.2878477E-009  0.7793427E+02  0.7561462E-02  0.1335018E+00
          3   -1    0    0  501    0  0.00000000000E+00  0.00000000000E+00  0.32718387452E+03  0.32718387452E+03  0.00000000000E+00 0.  1.
         -3   -1    0    0    0  501 -0.00000000000E+00 -0.00000000000E+00 -0.50347811359E+02  0.50347811359E+02  0.00000000000E+00 0. -1.
         25    2    1    2    0    0  0.41662115199E+02 -0.15635886320E+02  0.77666498686E+02  0.15382080498E+03  0.12509413352E+03 0.  0.
          5    1    3    3  502    0  0.34602337382E+01  0.78630813457E+01  0.10212021076E+03  0.10256613043E+03  0.41800000000E+01 0. -1.
         -5    1    3    3    0  502  0.38201881460E+02 -0.23498967665E+02 -0.24453712075E+02  0.51254674545E+02  0.41800000000E+01 0. -1.
        -11    1    1    2    0    0 -0.67764548741E+02  0.26811079552E+02  0.13187809998E+03  0.15067415607E+03  0.00000000000E+00 0. -1.
         11    1    1    2    0    0  0.26102433542E+02 -0.11175193233E+02  0.67291464501E+02  0.73036724840E+02  0.00000000000E+00 0.  1.
</event>
<event>
 7    1  0.2878477E-009  0.1086808E+03  0.7561462E-02  0.1263033E+00
          2   -1    0    0  501    0  0.00000000000E+00  0.00000000000E+00  0.41969753572E+03  0.41969753572E+03  0.00000000000E+00 0. -1.
         -2   -1    0    0    0  501 -0.00000000000E+00 -0.00000000000E+00 -0.51920215731E+02  0.51920215731E+02  0.00000000000E+00 0.  1.
         25    2    1    2    0    0 -0.38451741791E+02 -0.85366641297E+02  0.25860614460E+03  0.30214408109E+03  0.12509159771E+03 0.  0.
          5    1    3    3  502    0  0.11669551106E+02 -0.62846822260E+02  0.23250604097E+03  0.24116888892E+03  0.41800000000E+01 0. -1.
         -5    1    3    3    0  502 -0.50121292897E+02 -0.22519819037E+02  0.26100103626E+02  0.60975192172E+02  0.41800000000E+01 0. -1.
        -11    1    1    2    0    0 -0.50368773435E+01  0.93004804854E+01 -0.14476115786E+02  0.17928385284E+02  0.00000000000E+00 0.  1.
         11    1    1    2    0    0  0.43488619134E+02  0.76066160812E+02  0.12364729118E+03  0.15154528508E+03  0.00000000000E+00 0. -1.
</event>
<event>
 7    1  0.2878477E-009  0.8318354E+02  0.7561462E-02  0.1320252E+00
          2   -1    0    0  501    0  0.00000000000E+00  0.00000000000E+00  0.62410429111E+03  0.62410429111E+03  0.00000000000E+00 0. -1.
         -2   -1    0    0    0  501 -0.00000000000E+00 -0.00000000000E+00 -0.38814941531E+02  0.38814941531E+02  0.00000000000E+00 0.  1.
         25    2    1    2    0    0  0.33589933781E+02 -0.26871742718E+02  0.53020740617E+03  0.54645514195E+03  0.12507179698E+03 0.  0.
          5    1    3    3  502    0  0.35267286842E+02 -0.38891318145E+02  0.53099005764E+03  0.53359556769E+03  0.41800000000E+01 0. -1.
         -5    1    3    3    0  502 -0.16773530606E+01  0.12019575427E+02 -0.78265147234E+00  0.12859574257E+02  0.41800000000E+01 0. -1.
        -11    1    1    2    0    0  0.16580845589E+02 -0.24159094824E+02  0.26151657861E+02  0.39274616638E+02  0.00000000000E+00 0.  1.
         11    1    1    2    0    0 -0.50170779371E+02  0.51030837542E+02  0.28930285553E+02  0.77189474056E+02  0.00000000000E+00 0. -1.
</event>
<event>
 7    1  0.2878477E-009  0.1537912E+03  0.7561462E-02  0.1195890E+00
          2   -1    0    0  501    0  0.00000000000E+00  0.00000000000E+00  0.70717977176E+02  0.70717977176E+02  0.00000000000E+00 0. -1.
         -2   -1    0    0    0  501 -0.00000000000E+00 -0.00000000000E+00 -0.45385533959E+03  0.45385533959E+03  0.00000000000E+00 0.  1.
         25    2    1    2    0    0 -0.11156276556E+03 -0.48302028880E+02 -0.31907404002E+03  0.36364078929E+03  0.12508814479E+03 0.  0.
          5    1    3    3  502    0  0.88608179700E+01  0.26655433449E+02 -0.28330640413E+02  0.40113885547E+02  0.41800000000E+01 0. -1.
         -5    1    3    3    0  502 -0.12042358353E+03 -0.74957462329E+02 -0.29074339961E+03  0.32352690375E+03  0.41800000000E+01 0. -1.
        -11    1    1    2    0    0  0.64488648508E+02  0.60735716384E+02 -0.11575803797E+02  0.89339869401E+02  0.00000000000E+00 0. -1.
         11    1    1    2    0    0  0.47074117057E+02 -0.12433687504E+02 -0.52487518588E+02  0.71592658067E+02  0.00000000000E+00 0.  1.
</event>
<event>
 7    1  0.2878477E-009  0.1383030E+03  0.7561462E-02  0.1215631E+00
         -1   -1    0    0    0  501 -0.00000000000E+00  0.00000000000E+00  0.65851291096E+03  0.65851291096E+03  0.00000000000E+00 0.  1.
          1   -1    0    0  501    0  0.00000000000E+00 -0.00000000000E+00 -0.31593505969E+02  0.31593505969E+02  0.00000000000E+00 0. -1.
         25    2    1    2    0    0  0.38363066236E+02  0.81311067505E+02  0.26911664760E+03  0.31009220153E+03  0.12510071495E+03 0.  0.
          5    1    3    3  502    0  0.81253143748E+02  0.54683366631E+02  0.13587860556E+03  0.16754943093E+03  0.41800000000E+01 0.  1.
         -5    1    3    3    0  502 -0.42890077512E+02  0.26627700874E+02  0.13323804205E+03  0.14254277060E+03  0.41800000000E+01 0.  1.
        -11    1    1    2    0    0  0.25577473512E+02 -0.51223348015E+02  0.15287223932E+03  0.16324202917E+03  0.00000000000E+00 0. -1.
         11    1    1    2    0    0 -0.63940539749E+02 -0.30087719490E+02  0.20493051807E+03  0.21677218623E+03  0.00000000000E+00 0.  1.
</event>
<event>
 7    1  0.2878477E-009  0.9262481E+02  0.7561462E-02  0.1296617E+00
          1   -1    0    0  501    0  0.00000000000E+00  0.00000000000E+00  0.53694534764E+03  0.53694534764E+03  0.00000000000E+00 0. -1.
         -1   -1    0    0    0  501 -0.00000000000E+00 -0.00000000000E+00 -0.22605302058E+02  0.22605302058E+02  0.00000000000E+00 0.  1.
         25    2    1    2    0    0 -0.18662973862E+02 -0.99015601824E+01  0.29945335109E+03  0.32521765035E+03  0.12509141908E+03 0.  0.
          5    1    3    3  502    0  0.85469966247E+01  0.49268428059E+02  0.20048719743E+03  0.20667127979E+03  0.41800000000E+01 0. -1.
         -5    1    3    3    0  502 -0.27209970486E+02 -0.59169988241E+02  0.98966153664E+02  0.11854637056E+03  0.41800000000E+01 0. -1.
        -11    1    1    2    0    0  0.32361436605E+02 -0.19212347662E+02  0.34357640341E+02  0.50959045631E+02  0.00000000000E+00 0.  1.
         11    1    1    2    0    0 -0.13698462744E+02  0.29113907844E+02  0.18052905415E+03  0.18337395372E+03  0.00000000000E+00 0. -1.
</event>
<event>
 7    1  0.2878477E-009  0.1484303E+03  0.7561462E-02  0.1202415E+00
         -2   -1    0    0    0  501 -0.00000000000E+00  0.00000000000E+00  0.27228309700E+02  0.27228309700E+02  0.00000000000E+00 0. -1.
          2   -1    0    0  501    0  0.00000000000E+00 -0.00000000000E+00 -0.10081024645E+04  0.10081024645E+04  0.00000000000E+00 0.  1.
         25    2    1    2    0    0  0.62264659156E+02  0.91452842082E+02 -0.68266735689E+03  0.70279608857E+03  0.12508841610E+03 0.  0.
          5    1    3    3  502    0 -0.19811133276E+02  0.81400145988E+02 -0.32178313940E+03  0.33253620249E+03  0.41800000000E+01 0. -1.
         -5    1    3    3    0  502  0.82075792432E+02  0.10052696094E+02 -0.36088421749E+03  0.37025988608E+03  0.41800000000E+01 0. -1.
        -11    1    1    2    0    0  0.12303906479E+02 -0.33674675628E+02 -0.25561851258E+02  0.44031558376E+02  0.00000000000E+00 0. -1.
         11    1    1    2    0    0 -0.74568565634E+02 -0.57778166454E+02 -0.27264494661E+03  0.28850312722E+03  0.00000000000E+00 0.  1.
</event>
<event>
 7    1  0.2878477E-009  0.1399001E+03  0.7561462E-02  0.1213463E+00
         -1   -1    0    0    0  501 -0.00000000000E+00  0.00000000000E+00  0.90234198154E+02  0.90234198154E+02  0.00000000000E+00 0.  1.
          1   -1    0    0  501    0  0.00000000000E+00 -0.00000000000E+00 -0.27257736225E+03  0.27257736225E+03  0.00000000000E+00 0. -1.
         25    2    1    2    0    0 -0.88475629671E+02 -0.69681506578E+02 -0.91411324591E+02  0.19153763276E+03  0.12508870890E+03 0.  0.
          5    1    3    3  502    0  0.13829236520E+02 -0.46248426832E+01  0.21165011134E+02  0.26039720599E+02  0.41800000000E+01 0.  1.
         -5    1    3    3    0  502 -0.10230486619E+03 -0.65056663895E+02 -0.11257633572E+03  0.16549791216E+03  0.41800000000E+01 0.  1.
        -11    1    1    2    0    0  0.10624271400E+03  0.66306234685E+02 -0.87731806724E+02  0.15290814546E+03  0.00000000000E+00 0. -1.
         11    1    1    2    0    0 -0.17767084327E+02  0.33752718932E+01 -0.32000327839E+01  0.18365782195E+02  0.00000000000E+00 0.  1.
</event>
<event>
 7    1  0.2878477E-009  0.1319429E+03  0.7561462E-02  0.1224601E+00
          1   -1    0    0  501    0  0.00000000000E+00  0.00000000000E+00  0.80002495554E+03  0.80002495554E+03  0.00000000000E+00 0. -1.
         -1   -1    0    0    0  501 -0.00000000000E+00 -0.00000000000E+00 -0.28797906007E+02  0.28797906007E+02  0.00000000000E+00 0.  1.
         25    2    1    2    0    0  0.30959040700E+01  0.98949670624E+02  0.52542739556E+03  0.54910832765E+03  0.12508151563E+03 0.  0.
          5    1    3    3  502    0 -0.18222361408E+02 -0.22102046532E+02  0.18277298585E+03  0.18505132172E+03  0.41800000000E+01 0. -1.
         -5    1    3    3    0  502  0.21318265478E+02  0.12105171716E+03  0.34265440971E+03  0.36405700593E+03  0.41800000000E+01 0. -1.
        -11    1    1    2    0    0 -0.27237625198E+02 -0.63136424247E+02  0.67858708365E+02  0.96606938644E+02  0.00000000000E+00 0.  1.
         11    1    1    2    0    0  0.24141721128E+02 -0.35813246377E+02  0.17794094561E+03  0.18310759526E+03  0.00000000000E+00 0. -1.
</event>
<event>
 6    1  0.2878477E-009  0.1404146E+03  0.7561462E-02  0.1212772E+00
         -2   -1    0    0    0  501 -0.00000000000E+00  0.00000000000E+00  0.10755455664E+03  0.10755455664E+03  0.00000000000E+00 0.  1.
          2   -1    0    0  501    0  0.00000000000E+00 -0.00000000000E+00 -0.26576728944E+03  0.26576728944E+03  0.00000000000E+00 0. -1.
          5    1    1    2  502    0 -0.47235997451E+02 -0.54166716572E+02  0.22828701902E+02  0.75524133030E+02  0.41800000000E+01 0.  1.
         -5    1    1    2    0  502 -0.38145746231E+02 -0.19398615111E+02 -0.10178194111E+03  0.11049181037E+03  0.41800000000E+01 0.  1.
        -11    1    1    2    0    0 -0.30532577022E+02  0.43731071086E+01 -0.31565498542E+02  0.44133241707E+02  0.00000000000E+00 0. -1.
         11    1    1    2    0    0  0.11591432070E+03  0.69192224575E+02 -0.47693995059E+02  0.14317266097E+03  0.00000000000E+00 0.  1.
</event>
<event>
 7    1  0.2878477E-009  0.2369541E+03  0.7561462E-02  0.1121839E+00
         -2   -1    0    0    0  501 -0.00000000000E+00  0.00000000000E+00  0.63114508694E+02  0.63114508694E+02  0.00000000000E+00 0.  1.
          2   -1    0    0  501    0  0.00000000000E+00 -0.00000000000E+00 -0.12989307653E+04  0.12989307653E+04  0.00000000000E+00 0. -1.
         25    2    1    2    0    0 -0.16279624449E+03 -0.15987151093E+03 -0.94998729184E+03  0.98497975079E+03  0.12509091728E+03 0.  0.
          5    1    3    3  502    0 -0.96765112298E+01 -0.31605927965E+02 -0.34559501545E+02  0.48004177934E+02  0.41800000000E+01 0.  1.
         -5    1    3    3    0  502 -0.15311973326E+03 -0.12826558296E+03 -0.91542779030E+03  0.93697557286E+03  0.41800000000E+01 0.  1.
        -11    1    1    2    0    0  0.79229799652E+01  0.50709267733E+02 -0.95976150631E+02  0.10883760809E+03  0.00000000000E+00 0. -1.
         11    1    1    2    0    0  0.15487326452E+03  0.10916224319E+03 -0.18985281409E+03  0.26822791507E+03  0.00000000000E+00 0.  1.
</event>
<event>
 7    1  0.2878477E-009  0.1102259E+03  0.7561462E-02  0.1260152E+00
         -1   -1    0    0    0  501 -0.00000000000E+00  0.00000000000E+00  0.44741412035E+03  0.44741412035E+03  0.00000000000E+00 0.  1.
          1   -1    0    0  501    0  0.00000000000E+00 -0.00000000000E+00 -0.39326185936E+02  0.39326185936E+02  0.00000000000E+00 0. -1.
         25    2    1    2    0    0 -0.56726750263E+02 -0.46260238802E+02  0.26659254472E+03  0.30344251177E+03  0.12509132328E+03 0.  0.
          5    1    3    3  502    0 -0.26545393615E+02  0.25518781987E+02  0.19195998964E+03  0.19550441473E+03  0.41800000000E+01 0. -1.
         -5    1    3    3    0  502 -0.30181356649E+02 -0.71779020788E+02  0.74632555077E+02  0.10793809704E+03  0.41800000000E+01 0. -1.
        -11    1    1    2    0    0  0.73565333169E+02  0.23750959409E+02  0.13316835763E+03  0.15397979670E+03  0.00000000000E+00 0.  1.
         11    1    1    2    0    0 -0.16838582906E+02  0.22509279392E+02  0.83270320609E+01  0.29317997817E+02  0.00000000000E+00 0. -1.
</event>
<event>
 7    1  0.2878477E-009  0.1142759E+03  0.7561462E-02  0.1252850E+00
         -2   -1    0    0    0  501 -0.00000000000E+00  0.00000000000E+00  0.25016688283E+02  0.25016688283E+02  0.00000000000E+00 0. -1.
          2   -1    0    0  501    0  0.00000000000E+00 -0.00000000000E+00 -0.61983465171E+03  0.61983465171E+03  0.00000000000E+00 0.  1.
         25    2    1    2    0    0 -0.53989166319E+01  0.57578727732E+02 -0.28030438187E+03  0.31235182263E+03  0.12509458988E+03 0.  0.
          5    1    3    3  502    0 -0.38996915303E+02  0.74154457817E+02 -0.11231495296E+03  0.14018474979E+03  0.41800000000E+01 0. -1.
         -5    1    3    3    0  502  0.33597998672E+02 -0.16575730085E+02 -0.16798942892E+03  0.17216707284E+03  0.41800000000E+01 0. -1.
        -11    1    1    2    0    0 -0.21712453324E+02  0.17024251209E+02 -0.10128565656E+03  0.10497637822E+03  0.00000000000E+00 0.  1.
         11    1    1    2    0    0  0.27111369956E+02 -0.74602978941E+02 -0.21322792499E+03  0.22752313914E+03  0.00000000000E+00 0. -1.
</event>
<event>
 7    1  0.2878477E-009  0.1011992E+03  0.7561462E-02  0.1277794E+00
         -1   -1    0    0    0  501 -0.00000000000E+00  0.00000000000E+00  0.46225606525E+02  0.46225606525E+02  0.00000000000E+00 0.  1.
          1   -1    0    0  501    0  0.00000000000E+00 -0.00000000000E+00 -0.54402030575E+03  0.54402030575E+03  0.00000000000E+00 0. -1.
         25    2    1    2    0    0 -0.52745725563E+02 -0.27472480845E+02 -0.44889828663E+03  0.46978212374E+03  0.12509485714E+03 0.  0.
          5    1    3    3  502    0 -0.21485916654E+02  0.37538962721E+02 -0.31174515965E+03  0.31475917032E+03  0.41800000000E+01 0. -1.
         -5    1    3    3    0  502 -0.31259808909E+02 -0.65011443566E+02 -0.13715312698E+03  0.15502295342E+03  0.41800000000E+01 0. -1.
        -11    1    1    2    0    0  0.88388669184E+01 -0.20094789729E+02  0.17244617911E+02  0.27915998810E+02  0.00000000000E+00 0.  1.
         11    1    1    2    0    0  0.43906858644E+02  0.47567270574E+02 -0.66141030512E+02  0.92547789725E+02  0.00000000000E+00 0. -1.
</event>
<event>
 7    1  0.2878477E-009  0.9461282E+02  0.7561462E-02  0.1292051E+00
          2   -1    0    0  501    0  0.00000000000E+00  0.00000000000E+00  0.12187620340E+04  0.12187620340E+04  0.00000000000E+00 0.  1.
         -2   -1    0    0    0  501 -0.00000000000E+00 -0.00000000000E+00 -0.13789928033E+02  0.13789928033E+02  0.00000000000E+00 0. -1.
         25    2    1    2    0    0  0.25200589061E+02  0.16863982288E+02  0.96262232210E+03  0.97118961513E+03  0.12509224572E+03 0.  0.
          5    1    3    3  502    0 -0.22910131995E+01 -0.41958959535E+02  0.67412248549E+03  0.67544385471E+03  0.41800000000E+01 0. -1.
         -5    1    3    3    0  502  0.27491602261E+02  0.58822941823E+02  0.28849983662E+03  0.29574576042E+03  0.41800000000E+01 0. -1.
        -11    1    1    2    0    0 -0.10263091933E+02  0.30546350477E+02  0.32736137246E+02  0.45935446719E+02  0.00000000000E+00 0. -1.
         11    1    1    2    0    0 -0.14937497129E+02 -0.47410332765E+02  0.20961364658E+03  0.21542690014E+03  0.00000000000E+00 0.  1.
</event>
<event>
 7    1  0.2878477E-009  0.1173241E+03  0.7561462E-02  0.1247578E+00
         -1   -1    0    0    0  501 -0.00000000000E+00  0.00000000000E+00  0.29736569091E+03  0.29736569091E+03  0.00000000000E+00 0.  1.
          1   -1    0    0  501    0  0.00000000000E+00 -0.00000000000E+00 -0.48800163616E+02  0.48800163616E+02  0.00000000000E+00 0. -1.
         25    2    1    2    0    0 -0.47239209011E+02 -0.83582644847E+00  0.10267757697E+03  0.16859051331E+03  0.12509130622E+03 0.  0.
          5    1    3    3  502    0  0.25546716060E+02 -0.42312971883E+02  0.43025095738E+02  0.65663182639E+02  0.41800000000E+01 0.  1.
         -5    1    3    3    0  502 -0.72785925071E+02  0.41477145434E+02  0.59652481228E+02  0.10292733067E+03  0.41800000000E+01 0.  1.
        -11    1    1    2    0    0  0.71458901061E+02 -0.13925058541E+02  0.10799911804E+03  0.13024627171E+03  0.00000000000E+00 0. -1.
         11    1    1    2    0    0 -0.24219692051E+02  0.14760884990E+02  0.37888832280E+02  0.47329069506E+02  0.00000000000E+00 0.  1.
</event>
<event>
 7    1  0.2878477E-009  0.1941031E+03  0.7561462E-02  0.1154812E+00
          2   -1    0    0  501    0  0.00000000000E+00  0.00000000000E+00  0.14376219520E+04  0.14376219520E+04  0.00000000000E+00 0. -1.
         -2   -1    0    0    0  501 -0.00000000000E+00 -0.00000000000E+00 -0.42737639826E+02  0.42737639826E+02  0.00000000000E+00 0.  1.
         25    2    1    2    0    0  0.16545838571E+03 -0.73919536319E+02  0.11033473282E+04  0.11251062931E+04  0.12509304143E+03 0.  0.
          5    1    3    3  502    0  0.39397574725E+02  0.16736181366E+02  0.50841601633E+03  0.51023189504E+03  0.41800000000E+01 0.  1.
         -5    1    3    3    0  502  0.12606081098E+03 -0.90655717685E+02  0.59493131184E+03  0.61487439809E+03  0.41800000000E+01 0.  1.
        -11    1    1    2    0    0 -0.11251911950E+03  0.77784128606E+02  0.14471769498E+03  0.19913345815E+03  0.00000000000E+00 0.  1.
         11    1    1    2    0    0 -0.52939266211E+02 -0.38645922873E+01  0.14681928901E+03  0.15611984053E+03  0.00000000000E+00 0. -1.
</event>
<event>
 7    1  0.2878477E-009  0.1208284E+03  0.7561462E-02  0.1241737E+00
          2   -1    0    0  501    0  0.00000000000E+00  0.00000000000E+00  0.28913098582E+03  0.28913098582E+03  0.00000000000E+00 0.  1.
         -2   -1    0    0    0  501 -0.00000000000E+00 -0.00000000000E+00 -0.14288894744E+03  0.14288894744E+03  0.00000000000E+00 0. -1.
         25    2    1    2    0    0  0.76536517346E+02 -0.21911572936E+02  0.23718794088E+03  0.27971940147E+03  0.12508744439E+03 0.  0.
          5    1    3    3  502    0  0.36672825458E+01 -0.60433152761E+02  0.13752762443E+03  0.15032276872E+03  0.41800000000E+01 0.  1.
         -5    1    3    3    0  502  0.72869234800E+02  0.38521579826E+02  0.99660316448E+02  0.12939663275E+03  0.41800000000E+01 0.  1.
        -11    1    1    2    0    0 -0.37857626164E+02 -0.18811144881E+02  0.34984935734E+01  0.42418138665E+02  0.00000000000E+00 0.  1.
         11    1    1    2    0    0 -0.38678891182E+02  0.40722717816E+02 -0.94444396073E+02  0.10988239313E+03  0.00000000000E+00 0. -1.
</event>
<event>
 7    1  0.2878477E-009  0.8947776E+02  0.7561462E-02  0.1304121E+00
         -2   -1    0    0    0  501 -0.00000000000E+00  0.00000000000E+00  0.25764615800E+02  0.25764615800E+02  0.00000000000E+00 0.  1.
          2   -1    0    0  501    0  0.00000000000E+00 -0.00000000000E+00 -0.67346352719E+03  0.67346352719E+03  0.00000000000E+00 0. -1.
         25    2    1    2    0    0 -0.57887732588E+02 -0.53892670231E+01 -0.48284684588E+03  0.50216359103E+03  0.12508861578E+03 0.  0.
          5    1    3    3  502    0 -0.74810116408E+02  0.51733218400E+01 -0.14139629336E+03  0.16010528084E+03  0.41800000000E+01 0. -1.
         -5    1    3    3    0  502  0.16922383820E+02 -0.10562588863E+02 -0.34145055252E+03  0.34205831019E+03  0.41800000000E+01 0. -1.
        -11    1    1    2    0    0  0.69912895556E+02 -0.85693656131E+00 -0.16900090853E+03  0.18289301350E+03  0.00000000000E+00 0. -1.
         11    1    1    2    0    0 -0.12025162968E+02  0.62462035844E+01  0.41488430217E+01  0.14171538450E+02  0.00000000000E+00 0.  1.
</event>
<event>
 7    1  0.2878477E-009  0.1145260E+03  0.7561462E-02  0.1252411E+00
         -2   -1    0    0    0  501 -0.00000000000E+00  0.00000000000E+00  0.53710330806E+02  0.53710330806E+02  0.00000000000E+00 0.  1.
          2   -1    0    0  501    0  0.00000000000E+00 -0.00000000000E+00 -0.59233064856E+03  0.59233064856E+03  0.00000000000E+00 0. -1.
         25    2    1    2    0    0  0.21851508983E+02  0.32669552461E+02 -0.38949299826E+02  0.13678178218E+03  0.12508964736E+03 0.  0.
          5    1    3    3  502    0 -0.52158710552E+02  0.17131502302E+02 -0.21132977661E+02  0.58975372846E+02  0.41800000000E+01 0. -1.
         -5    1    3    3    0  502  0.74010219535E+02  0.15538050158E+02 -0.17816322166E+02  0.77806409336E+02  0.41800000000E+01 0. -1.
        -11    1    1    2    0    0  0.22416306557E+02 -0.46712072340E+02 -0.25191268089E+03  0.25718574473E+03  0.00000000000E+00 0.  1.
         11    1    1    2    0    0 -0.44267815540E+02  0.14042519879E+02 -0.24775833704E+03  0.25207345245E+03  0.00000000000E+00 0. -1.
</event>
<event>
 7    1  0.2878477E-009  0.1962830E+03  0.7561462E-02  0.1152914E+00
         -4   -1    0    0    0  501 -0.00000000000E+00  0.00000000000E+00  0.14198452360E+03  0.14198452360E+03  0.00000000000E+00 0.  1.
          4   -1    0    0  501    0  0.00000000000E+00 -0.00000000000E+00 -0.33913221743E+03  0.33913221743E+03  0.00000000000E+00 0. -1.
         25    2    1    2    0    0  0.16784811656E+03  0.64469752673E+02 -0.32972437511E+02  0.22150341895E+03  0.12508894327E+03 0.  0.
          5    1    3    3  502    0  0.94124818739E+02 -0.88121291973E+00 -0.68716655918E+02  0.11661779126E+03  0.41800000000E+01 0.  1.
         -5    1    3    3    0  502  0.73723297819E+02  0.65350965592E+02  0.35744218408E+02  0.10488562768E+03  0.41800000000E+01 0.  1.
        -11    1    1    2    0    0 -0.10605359715E+03 -0.83607984967E+02 -0.96420416612E+02  0.16593540116E+03  0.00000000000E+00 0. -1.
         11    1    1    2    0    0 -0.61794519407E+02  0.19138232294E+02 -0.67754839713E+02  0.93677920924E+02  0.00000000000E+00 0.  1.
</event>
<event>
 7    1  0.2878477E-009  0.1247004E+03  0.7561462E-02  0.1235538E+00
         -2   -1    0    0    0  501 -0.00000000000E+00  0.00000000000E+00  0.29451476862E+02  0.29451476862E+02  0.00000000000E+00 0.  1.
          2   -1    0    0  501    0  0.00000000000E+00 -0.00000000000E+00 -0.53732971383E+03  0.53732971383E+03  0.00000000000E+00 0. -1.
         25    2    1    2    0    0  0.56972835708E+02 -0.22292177666E+02 -0.27256056574E+03  0.30607049003E+03  0.12508811964E+03 0.  0.
          5    1    3    3  502    0  0.93233074821E+02 -0.34353123190E+02 -0.17624279520E+03  0.20236486497E+03  0.41800000000E+01 0.  1.
         -5    1    3    3    0  502 -0.36260239113E+02  0.12060945524E+02 -0.96317770538E+02  0.10370562506E+03  0.41800000000E+01 0.  1.
        -11    1    1    2    0    0  0.83890464043E+01 -0.27878766273E+02 -0.75127132246E+02  0.80571010344E+02  0.00000000000E+00 0. -1.
         11    1    1    2    0    0 -0.65361882112E+02  0.50170943939E+02 -0.16019053899E+03  0.18013969032E+03  0.00000000000E+00 0.  1.
</event>
<event>
 7    1  0.2878477E-009  0.2794007E+03  0.7561462E-02  0.1096017E+00
          2   -1    0    0  501    0  0.00000000000E+00  0.00000000000E+00  0.57477897914E+03  0.57477897914E+03  0.00000000000E+00 0. -1.
         -2   -1    0    0    0  501 -0.00000000000E+00 -0.00000000000E+00 -0.14273256578E+03  0.14273256578E+03  0.00000000000E+00 0.  1.
         25    2    1    2    0    0 -0.14380257021E+03 -0.22096616895E+03  0.17540263463E+03  0.34046892286E+03  0.12509107151E+03 0.  0.
          5    1    3    3  502    0 -0.12183591729E+03 -0.23537007277E+03  0.16242169258E+03  0.31087190371E+03  0.41800000000E+01 0.  1.
         -5    1    3    3    0  502 -0.21966652917E+02  0.14403903814E+02  0.12980942051E+02  0.29597019140E+02  0.41800000000E+01 0.  1.
        -11    1    1    2    0    0  0.89082173515E+02  0.97390649495E+02  0.78965303820E+02  0.15380536874E+03  0.00000000000E+00 0.  1.
         11    1    1    2    0    0  0.54720396695E+02  0.12357551946E+03  0.17767847490E+03  0.22323725332E+03  0.00000000000E+00 0. -1.
</event>
<event>
 7    1  0.2878477E-009  0.1527302E+03  0.7561462E-02  0.1197158E+00
          1   -1    0    0  501    0  0.00000000000E+00  0.00000000000E+00  0.30732167679E+03  0.30732167679E+03  0.00000000000E+00 0. -1.
         -1   -1    0    0    0  501 -0.00000000000E+00 -0.00000000000E+00 -0.93702915206E+02  0.93702915206E+02  0.00000000000E+00 0.  1.
         25    2    1    2    0    0  0.11277161095E+03 -0.62643825166E+02  0.10478783984E+03  0.20801454776E+03  0.12509146906E+03 0.  0.
          5    1    3    3  502    0 -0.16721966850E+02 -0.39433842770E+02  0.48554472815E+02  0.64881903188E+02  0.41800000000E+01 0. -1.
         -5    1    3    3    0  502  0.12949357780E+03 -0.23209982396E+02  0.56233367024E+02  0.14313264457E+03  0.41800000000E+01 0. -1.
        -11    1    1    2    0    0 -0.80363542902E+02  0.32984578996E+02  0.13325856711E+02  0.87885493322E+02  0.00000000000E+00 0.  1.
         11    1    1    2    0    0 -0.32408068050E+02  0.29659246170E+02  0.95505065036E+02  0.10512455092E+03  0.00000000000E+00 0. -1.
</event>
<event>
 7    1  0.2878477E-009  0.9718792E+02  0.7561462E-02  0.1286323E+00
         -1   -1    0    0    0  501 -0.00000000000E+00  0.00000000000E+00  0.24837446391E+02  0.24837446391E+02  0.00000000000E+00 0.  1.
          1   -1    0    0  501    0  0.00000000000E+00 -0.00000000000E+00 -0.52728484057E+03  0.52728484057E+03  0.00000000000E+00 0. -1.
         25    2    1    2    0    0 -0.24032104321E+01 -0.30781340420E+02 -0.33198341777E+03  0.35610014070E+03  0.12506420030E+03 0.  0.
          5    1    3    3  502    0  0.51002482583E+02 -0.25632272194E+02 -0.25999300364E+03  0.26621814542E+03  0.41800000000E+01 0.  1.
         -5    1    3    3    0  502 -0.53405693016E+02 -0.51490682259E+01 -0.71990414125E+02  0.89881995282E+02  0.41800000000E+01 0.  1.
        -11    1    1    2    0    0  0.13693029395E+02 -0.23871045543E+02 -0.16106811833E+02  0.31886599956E+02  0.00000000000E+00 0.  1.
         11    1    1    2    0    0 -0.11289818963E+02  0.54652385962E+02 -0.15435716458E+03  0.16413554630E+03  0.00000000000E+00 0. -1.
</event>
<event>
 7    1  0.2878477E-009  0.9067800E+02  0.7561462E-02  0.1301218E+00
          1   -1    0    0  501    0  0.00000000000E+00  0.00000000000E+00  0.52428043136E+03  0.52428043136E+03  0.00000000000E+00 0. -1.
         -1   -1    0    0    0  501 -0.00000000000E+00 -0.00000000000E+00 -0.45556898241E+02  0.45556898241E+02  0.00000000000E+00 0.  1.
         25    2    1    2    0    0  0.97089784423E+01 -0.42316165870E+02  0.72328290594E+02  0.15087119147E+03  0.12508322285E+03 0.  0.
          5    1    3    3  502    0  0.23208248557E+02 -0.55925856394E+02 -0.14044591837E+02  0.62298051128E+02  0.41800000000E+01 0.  1.
         -5    1    3    3    0  502 -0.13499270115E+02  0.13609690524E+02  0.86372882431E+02  0.88573140338E+02  0.41800000000E+01 0.  1.
        -11    1    1    2    0    0  0.15515844361E+02  0.65177627535E+02  0.24333912560E+03  0.25239412554E+03  0.00000000000E+00 0. -1.
         11    1    1    2    0    0 -0.25224822803E+02 -0.22861461665E+02  0.16305611692E+03  0.16657201260E+03  0.00000000000E+00 0.  1.
</event>
<event>
 7    1  0.2878477E-009  0.1325892E+03  0.7561462E-02  0.1223664E+00
          2   -1    0    0  501    0  0.00000000000E+00  0.00000000000E+00  0.53349731603E+02  0.53349731603E+02  0.00000000000E+00 0. -1.
         -2   -1    0    0    0  501 -0.00000000000E+00 -0.00000000000E+00 -0.34118317034E+03  0.34118317034E+03  0.00000000000E+00 0.  1.
         25    2    1    2    0    0  0.58652237703E+02 -0.53135839814E+02 -0.14682248855E+03  0.20848861531E+03  0.12508859704E+03 0.  0.
          5    1    3    3  502    0  0.81228174038E+02 -0.76421391696E+02 -0.13120013407E+03  0.17224747588E+03  0.41800000000E+01 0. -1.
         -5    1    3    3    0  502 -0.22575936335E+02  0.23285551882E+02 -0.15622354479E+02  0.36241139432E+02  0.41800000000E+01 0. -1.
        -11    1    1    2    0    0  0.21180294027E+02  0.31851697095E+02 -0.52592751518E+02  0.65031784345E+02  0.00000000000E+00 0. -1.
         11    1    1    2    0    0 -0.79832531730E+02  0.21284142718E+02 -0.88418198666E+02  0.12101250228E+03  0.00000000000E+00 0.  1.
</event>
<event>
 7    1  0.2878477E-009  0.9710599E+02  0.7561462E-02  0.1286502E+00
         -2   -1    0    0    0  501 -0.00000000000E+00  0.00000000000E+00  0.21790862146E+03  0.21790862146E+03  0.00000000000E+00 0.  1.
          2   -1    0    0  501    0  0.00000000000E+00 -0.00000000000E+00 -0.52804659197E+02  0.52804659197E+02  0.00000000000E+00 0. -1.
         25    2    1    2    0    0 -0.12662254127E+02  0.48431824776E+01  0.87899343297E+02  0.15348550187E+03  0.12509082954E+03 0.  0.
          5    1    3    3  502    0 -0.24168981850E+02  0.52948818887E+02  0.72754134325E+01  0.58805791771E+02  0.41800000000E+01 0. -1.
         -5    1    3    3    0  502  0.11506727722E+02 -0.48105636409E+02  0.80623929864E+02  0.94679710097E+02  0.41800000000E+01 0. -1.
        -11    1    1    2    0    0  0.39986929974E+02 -0.29280285536E+02  0.31857555510E+02  0.58916835734E+02  0.00000000000E+00 0.  1.
         11    1    1    2    0    0 -0.27324675847E+02  0.24437103058E+02  0.45347063460E+02  0.58310943059E+02  0.00000000000E+00 0. -1.
</event>
<event>
 7    1  0.2878477E-009  0.1643849E+03  0.7561462E-02  0.1183833E+00
         -1   -1    0    0    0  501 -0.00000000000E+00  0.00000000000E+00  0.18407351555E+03  0.18407351555E+03  0.00000000000E+00 0.  1.
          1   -1    0    0  501    0  0.00000000000E+00 -0.00000000000E+00 -0.17073026689E+03  0.17073026689E+03  0.00000000000E+00 0. -1.
         25    2    1    2    0    0 -0.12255753333E+03 -0.27077159957E+02 -0.53062052433E+02  0.18496900129E+03  0.12507768971E+03 0.  0.
          5    1    3    3  502    0  0.11759570227E+02 -0.35712116479E+02 -0.30148780493E+02  0.48374209250E+02  0.41800000000E+01 0. -1.
         -5    1    3    3    0  502 -0.13431710355E+03  0.86349565225E+01 -0.22913271939E+02  0.13659479204E+03  0.41800000000E+01 0. -1.
        -11    1    1    2    0    0  0.91217950832E+00  0.34402612136E+02  0.16098460423E+02  0.37993844517E+02  0.00000000000E+00 0.  1.
         11    1    1    2    0    0  0.12164535382E+03 -0.73254521787E+01  0.50306840668E+02  0.13184093664E+03  0.00000000000E+00 0. -1.
</event>
<event>
 7    1  0.2878477E-009  0.9328269E+02  0.7561462E-02  0.1295091E+00
          2   -1    0    0  501    0  0.00000000000E+00  0.00000000000E+00  0.28244564637E+03  0.28244564637E+03  0.00000000000E+00 0. -1.
         -2   -1    0    0    0  501 -0.00000000000E+00 -0.00000000000E+00 -0.53398999250E+02  0.53398999250E+02  0.00000000000E+00 0.  1.
         25    2    1    2    0    0  0.52718623633E+01 -0.47200634486E+02  0.15124399407E+03  0.20193783631E+03  0.12509377108E+03 0.  0.
          5    1    3    3  502    0  0.14701029640E+02  0.36404502576E+02  0.88474218123E+02  0.96884300859E+02  0.41800000000E+01 0.  1.
         -5    1    3    3    0  502 -0.94291672769E+01 -0.83605137062E+02  0.62769775943E+02  0.10505353545E+03  0.41800000000E+01 0.  1.
        -11    1    1    2    0    0 -0.22979610033E+02  0.20439318716E+02 -0.16070829338E+02  0.34700140957E+02  0.00000000000E+00 0.  1.
         11    1    1    2    0    0  0.17707747670E+02  0.26761315769E+02  0.93873482390E+02  0.99206668351E+02  0.00000000000E+00 0. -1.
</event>
<event>
 7    1  0.2878477E-009  0.6050412E+02  0.7561462E-02  0.1395728E+00
         -1   -1    0    0    0  501 -0.00000000000E+00  0.00000000000E+00  0.92084659688E+02  0.92084659688E+02  0.00000000000E+00 0.  1.
          1   -1    0    0  501    0  0.00000000000E+00 -0.00000000000E+00 -0.11072092738E+03  0.11072092738E+03  0.00000000000E+00 0. -1.
         25    2    1    2    0    0 -0.50275963881E+01 -0.20677248561E+01 -0.14745227379E+01  0.12521601280E+03  0.12508926186E+03 0.  0.
          5    1    3    3  502    0  0.37573446313E+02 -0.14965899586E+02  0.45055218234E+02  0.60689266830E+02  0.41800000000E+01 0. -1.
         -5    1    3    3    0  502 -0.42601042701E+02  0.12898174729E+02 -0.46529740972E+02  0.64526745970E+02  0.41800000000E+01 0. -1.
        -11    1    1    2    0    0  0.20103657334E+02 -0.14664747217E+01 -0.42986683186E+02  0.47478021417E+02  0.00000000000E+00 0. -1.
         11    1    1    2    0    0 -0.15076060946E+02  0.35341995778E+01  0.25824938233E+02  0.30111552850E+02  0.00000000000E+00 0.  1.
</event>
<event>
 7    1  0.2878477E-009  0.1957331E+03  0.7561462E-02  0.1153390E+00
         -1   -1    0    0    0  501 -0.00000000000E+00  0.00000000000E+00  0.59907246699E+02  0.59907246699E+02  0.00000000000E+00 0.  1.
          1   -1    0    0  501    0  0.00000000000E+00 -0.00000000000E+00 -0.75198567086E+03  0.75198567086E+03  0.00000000000E+00 0. -1.
         25    2    1    2    0    0  0.11370815661E+03  0.13319693319E+03 -0.26381080912E+03  0.34046293868E+03  0.12509157331E+03 0.  0.
          5    1    3    3  502    0  0.11043569904E+03  0.45562218229E+02 -0.10549230280E+03  0.15943041649E+03  0.41800000000E+01 0.  1.
         -5    1    3    3    0  502  0.32724575693E+01  0.87634714962E+02 -0.15831850632E+03  0.18103252219E+03  0.41800000000E+01 0.  1.
        -11    1    1    2    0    0 -0.11461450880E+03 -0.10352648327E+03 -0.27581319289E+03  0.31611253651E+03  0.00000000000E+00 0. -1.
         11    1    1    2    0    0  0.90635218643E+00 -0.29670449918E+02 -0.15245442214E+03  0.15531744237E+03  0.00000000000E+00 0.  1.
</event>
<event>
 7    1  0.2878477E-009  0.2823275E+03  0.7561462E-02  0.1094424E+00
         -2   -1    0    0    0  501 -0.00000000000E+00  0.00000000000E+00  0.87657494917E+02  0.87657494917E+02  0.00000000000E+00 0.  1.
          2   -1    0    0  501    0  0.00000000000E+00 -0.00000000000E+00 -0.16035758387E+04  0.16035758387E+04  0.00000000000E+00 0. -1.
         25    2    1    2    0    0  0.78600035878E+02  0.25925175045E+03 -0.23766866511E+03  0.38147511927E+03  0.12508971380E+03 0.  0.
          5    1    3    3  502    0  0.93151821795E+02  0.20223696507E+03 -0.23298479127E+03  0.32229867718E+03  0.41800000000E+01 0. -1.
         -5    1    3    3    0  502 -0.14551785918E+02  0.57014785377E+02 -0.46838738347E+01  0.59176442096E+02  0.41800000000E+01 0. -1.
        -11    1    1    2    0    0  0.10318759214E+02 -0.10033383372E+03 -0.54337596018E+03  0.55265793135E+03  0.00000000000E+00 0. -1.
         11    1    1    2    0    0 -0.88918795092E+02 -0.15891791673E+03 -0.73487371851E+03  0.75710028301E+03  0.00000000000E+00 0.  1.
</event>
<event>
 7    1  0.2878477E-009  0.1370659E+03  0.7561462E-02  0.1217332E+00
         -2   -1    0    0    0  501 -0.00000000000E+00  0.00000000000E+00  0.12323649273E+03  0.12323649273E+03  0.00000000000E+00 0.  1.
          2   -1    0    0  501    0  0.00000000000E+00 -0.00000000000E+00 -0.19800100018E+03  0.19800100018E+03  0.00000000000E+00 0. -1.
         25    2    1    2    0    0  0.26002035738E+02 -0.99474967116E+02 -0.84136276065E+02  0.18247865145E+03  0.12509264703E+03 0.  0.
          5    1    3    3  502    0 -0.32005126228E+02 -0.98358439459E+02 -0.58572353638E+02  0.11894075722E+03  0.41800000000E+01 0.  1.
         -5    1    3    3    0  502  0.58007161967E+02 -0.11165276569E+01 -0.25563922428E+02  0.63537894231E+02  0.41800000000E+01 0.  1.
        -11    1    1    2    0    0  0.10593850161E+02  0.48800409779E+02  0.44646358771E+02  0.66985125269E+02  0.00000000000E+00 0.  1.
         11    1    1    2    0    0 -0.36595885899E+02  0.50674557337E+02 -0.35274590155E+02  0.71773716196E+02  0.00000000000E+00 0. -1.
</event>
<event>
 7    1  0.2878477E-009  0.1432895E+03  0.7561462E-02  0.1208970E+00
         -3   -1    0    0    0  501 -0.00000000000E+00  0.00000000000E+00  0.20379433606E+02  0.20379433606E+02  0.00000000000E+00 0.  1.
          3   -1    0    0  501    0  0.00000000000E+00 -0.00000000000E+00 -0.13825800578E+04  0.13825800578E+04  0.00000000000E+00 0. -1.
         25    2    1    2    0    0 -0.61455355942E+02  0.98748736041E+02 -0.94402236369E+03  0.95935096439E+03  0.12509187057E+03 0.  0.
          5    1    3    3  502    0 -0.29599195687E+02 -0.26717342686E+02 -0.17822555155E+03  0.18267935956E+03  0.41800000000E+01 0.  1.
         -5    1    3    3    0  502 -0.31856160256E+02  0.12546607873E+03 -0.76579681214E+03  0.77667160483E+03  0.41800000000E+01 0.  1.
        -11    1    1    2    0    0  0.58063464836E+02 -0.85900029860E+02 -0.41763034544E+03  0.43030836212E+03  0.00000000000E+00 0. -1.
         11    1    1    2    0    0  0.33918911065E+01 -0.12848706181E+02 -0.54791508136E+00  0.13300164914E+02  0.00000000000E+00 0.  1.
</event>
<event>
 7    1  0.2878477E-009  0.9041665E+02  0.7561462E-02  0.1301846E+00
         -2   -1    0    0    0  501 -0.00000000000E+00  0.00000000000E+00  0.28965526325E+03  0.28965526325E+03  0.00000000000E+00 0. -1.
          2   -1    0    0  501    0  0.00000000000E+00 -0.00000000000E+00 -0.76230352939E+02  0.76230352939E+02  0.00000000000E+00 0.  1.
         25    2    1    2    0    0  0.16881292505E+02 -0.33113721222E+02  0.23304823035E+03  0.26709944095E+03  0.12509651121E+03 0.  0.
          5    1    3    3  502    0  0.96781525865E+01  0.33777120827E+02  0.14237241808E+02  0.38140948902E+02  0.41800000000E+01 0. -1.
         -5    1    3    3    0  502  0.72031399181E+01 -0.66890842049E+02  0.21881098854E+03  0.22895849205E+03  0.41800000000E+01 0. -1.
        -11    1    1    2    0    0  0.15737968851E+02 -0.13780480174E+02  0.20256755014E+02  0.29119090320E+02  0.00000000000E+00 0.  1.
         11    1    1    2    0    0 -0.32619261356E+02  0.46894201396E+02 -0.39880075047E+02  0.69667084923E+02  0.00000000000E+00 0. -1.
</event>
<event>
 7    1  0.3278897E-009  0.1354505E+03  0.7561462E-02  0.1219585E+00
         -1   -1    0    0    0  501 -0.00000000000E+00  0.00000000000E+00  0.42388376408E+02  0.42388376408E+02  0.00000000000E+00 0.  1.
          1   -1    0    0  501    0  0.00000000000E+00 -0.00000000000E+00 -0.57739772180E+03  0.57739772180E+03  0.00000000000E+00 0. -1.
         25    2    1    2    0    0 -0.10754424215E+03 -0.31430229879E+02 -0.28638593019E+03  0.33199111045E+03  0.12509025957E+03 0.  0.
          5    1    3    3  502    0  0.64831930789E+01  0.17089238822E+02  0.12271228454E+01  0.18789680851E+02  0.41800000000E+01 0.  1.
         -5    1    3    3    0  502 -0.11402743522E+03 -0.48519468701E+02 -0.28761305303E+03  0.31320142960E+03  0.41800000000E+01 0.  1.
        -11    1    1    2    0    0  0.16964749473E+02  0.33506852846E+02 -0.21519808349E+02  0.43285263817E+02  0.00000000000E+00 0.  1.
         11    1    1    2    0    0  0.90579492672E+02 -0.20766229671E+01 -0.22710360685E+03  0.24450972394E+03  0.00000000000E+00 0. -1.
</event>
<event>
 6    1  0.2918658E-009  0.9617161E+02  0.7561462E-02  0.1288559E+00
         -2   -1    0    0    0  501 -0.00000000000E+00  0.00000000000E+00  0.10233928025E+03  0.10233928025E+03  0.00000000000E+00 0. -1.
          2   -1    0    0  501    0  0.00000000000E+00 -0.00000000000E+00 -0.13626795894E+03  0.13626795894E+03  0.00000000000E+00 0.  1.
          5    1    1    2  502    0 -0.11466520562E+02 -0.73690879755E+02  0.35256415863E+02  0.82597300878E+02  0.41800000000E+01 0.  1.
         -5    1    1    2    0  502 -0.28680834057E+01  0.36729624830E+02 -0.31451710224E+02  0.48620712855E+02  0.41800000000E+01 0.  1.
        -11    1    1    2    0    0  0.34023116851E+02  0.47352666023E+02 -0.54270740410E+02  0.79656517150E+02  0.00000000000E+00 0.  1.
         11    1    1    2    0    0 -0.19688512884E+02 -0.10391411098E+02  0.16537356079E+02  0.27732708311E+02  0.00000000000E+00 0. -1.
</event>
<event>
 7    1  0.2878477E-009  0.1164578E+03  0.7561462E-02  0.1249058E+00
         -1   -1    0    0    0  501 -0.00000000000E+00  0.00000000000E+00  0.10430766152E+03  0.10430766152E+03  0.00000000000E+00 0.  1.
          1   -1    0    0  501    0  0.00000000000E+00 -0.00000000000E+00 -0.25016904051E+03  0.25016904051E+03  0.00000000000E+00 0. -1.
         25    2    1    2    0    0  0.39664760196E+02  0.88596998264E+02 -0.15481080284E+03  0.22144240221E+03  0.12509049332E+03 0.  0.
          5    1    3    3  502    0  0.51656548755E+02  0.31698295206E+02 -0.53166630396E+01  0.60982950520E+02  0.41800000000E+01 0.  1.
         -5    1    3    3    0  502 -0.11991788559E+02  0.56898703058E+02 -0.14949413980E+03  0.16045945169E+03  0.41800000000E+01 0.  1.
        -11    1    1    2    0    0 -0.43695020625E+02 -0.25400859642E+02 -0.29918240945E+02  0.58732951903E+02  0.00000000000E+00 0. -1.
         11    1    1    2    0    0  0.40302604289E+01 -0.63196138622E+02  0.38867664795E+02  0.74301347919E+02  0.00000000000E+00 0.  1.
</event>
<event>
 7    1  0.2878477E-009  0.2110015E+03  0.7561462E-02  0.1140775E+00
          1   -1    0    0  501    0  0.00000000000E+00  0.00000000000E+00  0.13490245467E+03  0.13490245467E+03  0.00000000000E+00 0. -1.
         -1   -1    0    0    0  501 -0.00000000000E+00 -0.00000000000E+00 -0.34445295250E+03  0.34445295250E+03  0.00000000000E+00 0.  1.
         25    2    1    2    0    0 -0.13123638017E+03 -0.12786903920E+03 -0.80016304625E+02  0.23584794665E+03  0.12509263075E+03 0.  0.
          5    1    3    3  502    0 -0.12101380892E+03 -0.14936919809E+03 -0.52703147856E+02  0.19937550873E+03  0.41800000000E+01 0. -1.
         -5    1    3    3    0  502 -0.10222571249E+02  0.21500158890E+02 -0.27313156769E+02  0.36472437921E+02  0.41800000000E+01 0. -1.
        -11    1    1    2    0    0  0.91993228631E+02  0.24823892030E+02 -0.50460557950E+02  0.10782044165E+03  0.00000000000E+00 0. -1.
         11    1    1    2    0    0  0.39243151538E+02  0.10304514717E+03 -0.79073635256E+02  0.13568701887E+03  0.00000000000E+00 0.  1.
</event>
<event>
 7    1  0.2878477E-009  0.1080054E+03  0.7561462E-02  0.1264309E+00
          1   -1    0    0  501    0  0.00000000000E+00  0.00000000000E+00  0.18556083970E+03  0.18556083970E+03  0.00000000000E+00 0. -1.
         -1   -1    0    0    0  501 -0.00000000000E+00 -0.00000000000E+00 -0.64961454348E+02  0.64961454348E+02  0.00000000000E+00 0.  1.
         25    2    1    2    0    0  0.76911420783E+01 -0.14352719662E+02  0.66722717202E+02  0.14267430616E+03  0.12505551735E+03 0.  0.
          5    1    3    3  502    0 -0.98710413947E+01 -0.67851245711E+02  0.45298409585E+02  0.82283943232E+02  0.41800000000E+01 0. -1.
         -5    1    3    3    0  502  0.17562183473E+02  0.53498526049E+02  0.21424307617E+02  0.60390362928E+02  0.41800000000E+01 0. -1.
        -11    1    1    2    0    0 -0.38304369310E+02 -0.21328160086E+02  0.13493579642E+02  0.45871470572E+02  0.00000000000E+00 0.  1.
         11    1    1    2    0    0  0.30613227232E+02  0.35680879747E+02  0.40383088503E+02  0.61976517312E+02  0.00000000000E+00 0. -1.
</event>
<event>
 7    1  0.2878477E-009  0.1439969E+03  0.7561462E-02  0.1208050E+00
          3   -1    0    0  501    0  0.00000000000E+00  0.00000000000E+00  0.13648854885E+02  0.13648854885E+02  0.00000000000E+00 0. -1.
         -3   -1    0    0    0  501 -0.00000000000E+00 -0.00000000000E+00 -0.22712809724E+04  0.22712809724E+04  0.00000000000E+00 0.  1.
         25    2    1    2    0    0 -0.11952324665E+03 -0.46276565827E+02 -0.16081580126E+04  0.16181003116E+04  0.12509635391E+03 0.  0.
          5    1    3    3  502    0 -0.71450048755E+02  0.65467529667E+01 -0.12898467383E+04  0.12918475336E+04  0.41800000000E+01 0. -1.
         -5    1    3    3    0  502 -0.48073197892E+02 -0.52823318794E+02 -0.31831127432E+03  0.32625277796E+03  0.41800000000E+01 0. -1.
        -11    1    1    2    0    0  0.53064229180E+01 -0.14326705493E+02 -0.26587191854E+02  0.30664171033E+02  0.00000000000E+00 0. -1.
         11    1    1    2    0    0  0.11421682373E+03  0.60603271320E+02 -0.62288691301E+03  0.63616534464E+03  0.00000000000E+00 0.  1.
</event>
<event>
 6    1  0.2878477E-009  0.1877000E+03  0.7561462E-02  0.1160552E+00
         -1   -1    0    0    0  501 -0.00000000000E+00  0.00000000000E+00  0.44842123701E+02  0.44842123701E+02  0.00000000000E+00 0.  1.
          1   -1    0    0  501    0  0.00000000000E+00 -0.00000000000E+00 -0.81621570000E+03  0.81621570000E+03  0.00000000000E+00 0. -1.
          5    1    1    2  502    0  0.11926935827E+02 -0.12545169292E+03 -0.26170278099E+03  0.29049302407E+03  0.41800000000E+01 0.  1.
         -5    1    1    2    0  502 -0.69850135650E+02 -0.18279569739E+02 -0.18593638658E+03  0.19950688303E+03  0.41800000000E+01 0.  1.
        -11    1    1    2    0    0  0.37242311079E+02  0.15064794427E+03 -0.30541002159E+03  0.34257418778E+03  0.00000000000E+00 0. -1.
         11    1    1    2    0    0  0.20680888744E+02 -0.69166816177E+01 -0.18324387140E+02  0.28483728827E+02  0.00000000000E+00 0.  1.
</event>
<event>
 7    1  0.2878477E-009  0.8786997E+02  0.7561462E-02  0.1308093E+00
         -2   -1    0    0    0  501 -0.00000000000E+00  0.00000000000E+00  0.31522820941E+02  0.31522820941E+02  0.00000000000E+00 0. -1.
          2   -1    0    0  501    0  0.00000000000E+00 -0.00000000000E+00 -0.10055125840E+04  0.10055125840E+04  0.00000000000E+00 0.  1.
         25    2    1    2    0    0  0.12976403567E+02  0.24738803662E+02 -0.91252185250E+03  0.92148003982E+03  0.12509571154E+03 0.  0.
          5    1    3    3  502    0  0.54504229596E+02  0.50057057052E+02 -0.41483147123E+03  0.42140128373E+03  0.41800000000E+01 0.  1.
         -5    1    3    3    0  502 -0.41527826029E+02 -0.25318253390E+02 -0.49769038127E+03  0.50007875609E+03  0.41800000000E+01 0.  1.
        -11    1    1    2    0    0 -0.24961793838E+02 -0.30576112971E+02 -0.82039951341E+02  0.91041438104E+02  0.00000000000E+00 0.  1.
         11    1    1    2    0    0  0.11985390272E+02  0.58373093094E+01  0.20572040735E+02  0.24513927061E+02  0.00000000000E+00 0. -1.
</event>
<event>
 7    1  0.2878477E-009  0.2756026E+03  0.7561462E-02  0.1098115E+00
          1   -1    0    0  501    0  0.00000000000E+00  0.00000000000E+00  0.27228018120E+03  0.27228018120E+03  0.00000000000E+00 0. -1.
         -1   -1    0    0    0  501 -0.00000000000E+00 -0.00000000000E+00 -0.51160584191E+03  0.51160584191E+03  0.00000000000E+00 0.  1.
         25    2    1    2    0    0  0.25276307907E+03  0.63576002035E+02 -0.37825236939E+03  0.47608646404E+03  0.12510948853E+03 0.  0.
          5    1    3    3  502    0  0.21939982970E+03  0.96994763008E+02 -0.33396987064E+03  0.41121480544E+03  0.41800000000E+01 0. -1.
         -5    1    3    3    0  502  0.33363249371E+02 -0.33418760973E+02 -0.44282498755E+02  0.64871658600E+02  0.41800000000E+01 0. -1.
        -11    1    1    2    0    0 -0.82885937347E+02 -0.41113851989E+02  0.94028670108E+01  0.92999147003E+02  0.00000000000E+00 0.  1.
         11    1    1    2    0    0 -0.16987714172E+03 -0.22462150046E+02  0.12952384166E+03  0.21480041206E+03  0.00000000000E+00 0. -1.
</event>
<event>
 7    1  0.2878477E-009  0.8130112E+02  0.7561462E-02  0.1325399E+00
         -1   -1    0    0    0  501 -0.00000000000E+00  0.00000000000E+00  0.43727563242E+02  0.43727563242E+02  0.00000000000E+00 0.  1.
          1   -1    0    0  501    0  0.00000000000E+00 -0.00000000000E+00 -0.45430733678E+03  0.45430733678E+03  0.00000000000E+00 0. -1.
         25    2    1    2    0    0  0.97102965870E+01 -0.34394066324E+02 -0.37004153572E+03  0.39224278943E+03  0.12508567483E+03 0.  0.
          5    1    3    3  502    0  0.23124373696E+02  0.40474978760E+02 -0.83218054203E+02  0.95476057260E+02  0.41800000000E+01 0.  1.
         -5    1    3    3    0  502 -0.13414077109E+02 -0.74869045083E+02 -0.28682348152E+03  0.29676673217E+03  0.41800000000E+01 0.  1.
        -11    1    1    2    0    0  0.24914283715E+01  0.22319107818E+02 -0.68995280587E+02  0.72558242346E+02  0.00000000000E+00 0. -1.
         11    1    1    2    0    0 -0.12201724959E+02  0.12074958506E+02  0.28457042771E+02  0.33233868239E+02  0.00000000000E+00 0.  1.
</event>
<event>
 7    1  0.2878477E-009  0.1502346E+03  0.7561462E-02  0.1200185E+00
          1   -1    0    0  501    0  0.00000000000E+00  0.00000000000E+00  0.40826953377E+02  0.40826953377E+02  0.00000000000E+00 0. -1.
         -1   -1    0    0    0  501 -0.00000000000E+00 -0.00000000000E+00 -0.62690169101E+03  0.62690169101E+03  0.00000000000E+00 0.  1.
         25    2    1    2    0    0 -0.11029077864E+03  0.31060372760E+02 -0.33366372894E+03  0.37431013600E+03  0.12509113194E+03 0.  0.
          5    1    3    3  502    0 -0.12957388799E+03  0.53049294907E+02 -0.27757884811E+03  0.31091977978E+03  0.41800000000E+01 0. -1.
         -5    1    3    3    0  502  0.19283109353E+02 -0.21988922148E+02 -0.56084880826E+02  0.63390356213E+02  0.41800000000E+01 0. -1.
        -11    1    1    2    0    0  0.85572275864E+02  0.65738573236E+01 -0.87873622185E+02  0.12283160616E+03  0.00000000000E+00 0. -1.
         11    1    1    2    0    0  0.24718502775E+02 -0.37634230083E+02 -0.16453738651E+03  0.17058690223E+03  0.00000000000E+00 0.  1.
</event>
<event>
 7    1  0.2878477E-009  0.1435218E+03  0.7561462E-02  0.1208667E+00
         -4   -1    0    0    0  501 -0.00000000000E+00  0.00000000000E+00  0.38605456552E+03  0.38605456552E+03  0.00000000000E+00 0.  1.
          4   -1    0    0  501    0  0.00000000000E+00 -0.00000000000E+00 -0.67681655580E+02  0.67681655580E+02  0.00000000000E+00 0. -1.
         25    2    1    2    0    0 -0.10460596263E+03  0.38659492953E+02  0.23110457311E+03  0.28547228696E+03  0.12509252214E+03 0.  0.
          5    1    3    3  502    0 -0.93541069385E+02 -0.25216564265E+02  0.10079262009E+03  0.13986576221E+03  0.41800000000E+01 0. -1.
         -5    1    3    3    0  502 -0.11064893250E+02  0.63876057218E+02  0.13031195303E+03  0.14560652475E+03  0.41800000000E+01 0. -1.
        -11    1    1    2    0    0  0.46604274493E+02  0.11974010118E+02 -0.46708727111E+01  0.48344103790E+02  0.00000000000E+00 0. -1.
         11    1    1    2    0    0  0.58001688142E+02 -0.50633503070E+02  0.91939209536E+02  0.11991983035E+03  0.00000000000E+00 0.  1.
</event>
<event>
 7    1  0.2878477E-009  0.1085377E+03  0.7561462E-02  0.1263302E+00
         -1   -1    0    0    0  501 -0.00000000000E+00  0.00000000000E+00  0.72260235084E+02  0.72260235084E+02  0.00000000000E+00 0.  1.
          1   -1    0    0  501    0  0.00000000000E+00 -0.00000000000E+00 -0.17628050837E+03  0.17628050837E+03  0.00000000000E+00 0. -1.
         25    2    1    2    0    0 -0.14615134655E+01  0.14184558126E+02 -0.28475230924E+02  0.12907912449E+03  0.12508894392E+03 0.  0.
          5    1    3    3  502    0 -0.42293228457E+02  0.53088855340E+02 -0.61612125088E+01  0.68283062865E+02  0.41800000000E+01 0. -1.
         -5    1    3    3    0  502  0.40831714992E+02 -0.38904297214E+02 -0.22314018415E+02  0.60796061622E+02  0.41800000000E+01 0. -1.
        -11    1    1    2    0    0  0.41142975268E+02  0.14424880715E+02 -0.36961892493E+02  0.57157703717E+02  0.00000000000E+00 0. -1.
         11    1    1    2    0    0 -0.39681461803E+02 -0.28609438841E+02 -0.38583149868E+02  0.62303915249E+02  0.00000000000E+00 0.  1.
</event>
<event>
 7    1  0.2878477E-009  0.1780755E+03  0.7561462E-02  0.1169679E+00
          1   -1    0    0  501    0  0.00000000000E+00  0.00000000000E+00  0.21463169832E+03  0.21463169832E+03  0.00000000000E+00 0. -1.
         -1   -1    0    0    0  501 -0.00000000000E+00 -0.00000000000E+00 -0.17535690040E+03  0.17535690040E+03  0.00000000000E+00 0.  1.
         25    2    1    2    0    0  0.16471335295E+03  0.10636446696E+02 -0.95292004319E+01  0.20732084460E+03  0.12508998485E+03 0.  0.
          5    1    3    3  502    0  0.80839243130E+02  0.43753601401E+02  0.44398933611E+02  0.10216701313E+03  0.41800000000E+01 0.  1.
         -5    1    3    3    0  502  0.83874109816E+02 -0.33117154705E+02 -0.53928134043E+02  0.10515383148E+03  0.41800000000E+01 0.  1.
        -11    1    1    2    0    0 -0.12910739278E+03  0.15017992149E+02  0.23736449994E+02  0.13212750667E+03  0.00000000000E+00 0.  1.
         11    1    1    2    0    0 -0.35605960163E+02 -0.25654438845E+02  0.25067548363E+02  0.50540247452E+02  0.00000000000E+00 0. -1.
</event>
<event>
 7    1  0.2878477E-009  0.1330571E+03  0.7561462E-02  0.1222989E+00
         -3   -1    0    0    0  501 -0.00000000000E+00  0.00000000000E+00  0.81566925333E+03  0.81566925333E+03  0.00000000000E+00 0.  1.
          3   -1    0    0  501    0  0.00000000000E+00 -0.00000000000E+00 -0.35360194656E+02  0.35360194656E+02  0.00000000000E+00 0. -1.
         25    2    1    2    0    0  0.10137797098E+03 -0.26450209193E+02  0.61035531282E+03  0.63178970053E+03  0.12509001258E+03 0.  0.
          5    1    3    3  502    0  0.12685006062E+03 -0.26029283230E+02  0.56439786969E+03  0.57907761930E+03  0.41800000000E+01 0.  1.
         -5    1    3    3    0  502 -0.25472089634E+02 -0.42092596337E+00  0.45957443134E+02  0.52712081237E+02  0.41800000000E+01 0.  1.
        -11    1    1    2    0    0 -0.43312186014E+02 -0.67734915473E+01  0.13858161971E+03  0.14535023552E+03  0.00000000000E+00 0.  1.
         11    1    1    2    0    0 -0.58065784969E+02  0.33223700740E+02  0.31372126149E+02  0.73889511935E+02  0.00000000000E+00 0. -1.
</event>
<event>
 7    1  0.2878477E-009  0.8294242E+02  0.7561462E-02  0.1320903E+00
         -1   -1    0    0    0  501 -0.00000000000E+00  0.00000000000E+00  0.68202470950E+02  0.68202470950E+02  0.00000000000E+00 0.  1.
          1   -1    0    0  501    0  0.00000000000E+00 -0.00000000000E+00 -0.18294848462E+03  0.18294848462E+03  0.00000000000E+00 0. -1.
         25    2    1    2    0    0 -0.18664265494E+02 -0.15753430203E+02 -0.72999291509E+02  0.14687779281E+03  0.12509062351E+03 0.  0.
          5    1    3    3  502    0 -0.63115350054E+02 -0.32140864239E+02 -0.16164731302E+02  0.72769179633E+02  0.41800000000E+01 0. -1.
         -5    1    3    3    0  502  0.44451084560E+02  0.16387434036E+02 -0.56834560207E+02  0.74108613176E+02  0.41800000000E+01 0. -1.
        -11    1    1    2    0    0 -0.80008828553E+01 -0.82530068394E+01 -0.62010498738E+02  0.63066855020E+02  0.00000000000E+00 0. -1.
         11    1    1    2    0    0  0.26665148349E+02  0.24006437042E+02  0.20263776582E+02  0.41206307737E+02  0.00000000000E+00 0.  1.
</event>
<event>
 7    1  0.2897071E-009  0.1041878E+03  0.7561462E-02  0.1271728E+00
          2   -1    0    0  501    0  0.00000000000E+00  0.00000000000E+00  0.60246686520E+03  0.60246686520E+03  0.00000000000E+00 0. -1.
         -2   -1    0    0    0  501 -0.00000000000E+00 -0.00000000000E+00 -0.23534370478E+02  0.23534370478E+02  0.00000000000E+00 0.  1.
         25    2    1    2    0    0  0.27846114268E+02 -0.31842326155E+02  0.38517082762E+03  0.40717920894E+03  0.12509597088E+03 0.  0.
          5    1    3    3  502    0  0.41476233678E+02  0.34718943092E+02  0.97626878959E+02  0.11168779192E+03  0.41800000000E+01 0. -1.
         -5    1    3    3    0  502 -0.13630119410E+02 -0.66561269248E+02  0.28754394866E+03  0.29549141702E+03  0.41800000000E+01 0. -1.
        -11    1    1    2    0    0 -0.18198657992E+02 -0.23586798277E+02  0.19261079215E+02  0.35475588483E+02  0.00000000000E+00 0.  1.
         11    1    1    2    0    0 -0.96474562760E+01  0.55429124433E+02  0.17450058789E+03  0.18334643825E+03  0.00000000000E+00 0. -1.
</event>
<event>
 7    1  0.2878477E-009  0.1556734E+03  0.7561462E-02  0.1193670E+00
         -2   -1    0    0    0  501 -0.00000000000E+00  0.00000000000E+00  0.11960950205E+03  0.11960950205E+03  0.00000000000E+00 0.  1.
          2   -1    0    0  501    0  0.00000000000E+00 -0.00000000000E+00 -0.25819625952E+03  0.25819625952E+03  0.00000000000E+00 0. -1.
         25    2    1    2    0    0 -0.42378253141E+02  0.12127684209E+03 -0.19069833695E+02  0.18031442582E+03  0.12508255208E+03 0.  0.
          5    1    3    3  502    0 -0.29655655064E+01 -0.18766584049E+02 -0.28453845286E+02  0.34468434359E+02  0.41800000000E+01 0. -1.
         -5    1    3    3    0  502 -0.39412687634E+02  0.14004342614E+03  0.93840115906E+01  0.14584599146E+03  0.41800000000E+01 0. -1.
        -11    1    1    2    0    0  0.45445905807E+02 -0.28760589451E+02 -0.11068784190E+02  0.54909196349E+02  0.00000000000E+00 0.  1.
         11    1    1    2    0    0 -0.30676526666E+01 -0.92516252642E+02 -0.10844813958E+03  0.14258213939E+03  0.00000000000E+00 0. -1.
</event>
<event>
 7    1  0.2878477E-009  0.2173340E+03  0.7561462E-02  0.1135886E+00
         -2   -1    0    0    0  501 -0.00000000000E+00  0.00000000000E+00  0.14919227827E+03  0.14919227827E+03  0.00000000000E+00 0. -1.
          2   -1    0    0  501    0  0.00000000000E+00 -0.00000000000E+00 -0.37112797503E+03  0.37112797503E+03  0.00000000000E+00 0.  1.
         25    2    1    2    0    0  0.35345737986E+02  0.19818292499E+03 -0.55361231850E+02  0.24338809263E+03  0.12508838750E+03 0.  0.
          5    1    3    3  502    0 -0.28925729447E+02  0.95472706014E+02 -0.69031238585E+02  0.12138582997E+03  0.41800000000E+01 0.  1.
         -5    1    3    3    0  502  0.64271467433E+02  0.10271021898E+03  0.13670006735E+02  0.12200226265E+03  0.41800000000E+01 0.  1.
        -11    1    1    2    0    0  0.20991383533E+02 -0.33478850016E+02 -0.57364081948E+01  0.39929662658E+02  0.00000000000E+00 0. -1.
         11    1    1    2    0    0 -0.56337121519E+02 -0.16470407497E+03 -0.16083805671E+03  0.23700249801E+03  0.00000000000E+00 0.  1.
</event>
<event>
 7    1  0.2878477E-009  0.1876123E+03  0.7561462E-02  0.1160633E+00
          2   -1    0    0  501    0  0.00000000000E+00  0.00000000000E+00  0.11634330990E+04  0.11634330990E+04  0.00000000000E+00 0. -1.
         -2   -1    0    0    0  501 -0.00000000000E+00 -0.00000000000E+00 -0.32952224147E+02  0.32952224147E+02  0.00000000000E+00 0.  1.
         25    2    1    2    0    0  0.13798315304E+03  0.73358867854E+02  0.71163497858E+03  0.73925215425E+03  0.12509408781E+03 0.  0.
          5    1    3    3  502    0 -0.34466708494E+01 -0.25522202161E+02  0.66865481695E+02  0.71775534727E+02  0.41800000000E+01 0.  1.
         -5    1    3    3    0  502  0.14142982389E+03  0.98881070015E+02  0.64476949689E+03  0.66747661952E+03  0.41800000000E+01 0.  1.
        -11    1    1    2    0    0 -0.71027685143E+02  0.76258563046E+01  0.11247317390E+03  0.13324151225E+03  0.00000000000E+00 0.  1.
         11    1    1    2    0    0 -0.66955467897E+02 -0.80984724159E+02  0.30637272237E+03  0.32389165664E+03  0.00000000000E+00 0. -1.
</event>
<event>
 7    1  0.2878477E-009  0.1135818E+03  0.7561462E-02  0.1254077E+00
          2   -1    0    0  501    0  0.00000000000E+00  0.00000000000E+00  0.83054654540E+03  0.83054654540E+03  0.00000000000E+00 0.  1.
         -2   -1    0    0    0  501 -0.00000000000E+00 -0.00000000000E+00 -0.16433892559E+02  0.16433892559E+02  0.00000000000E+00 0. -1.
         25    2    1    2    0    0 -0.36959229738E+02  0.97065384803E+01  0.37611415517E+03  0.39820205846E+03  0.12507126005E+03 0.  0.
          5    1    3    3  502    0 -0.80054710994E+02  0.25943077593E+02  0.25505128625E+03  0.26860832274E+03  0.41800000000E+01 0. -1.
         -5    1    3    3    0  502  0.43095481256E+02 -0.16236539113E+02  0.12106286892E+03  0.12959373572E+03  0.41800000000E+01 0. -1.
        -11    1    1    2    0    0  0.65766847178E+02  0.14214365660E+01  0.32774596671E+03  0.33428239164E+03  0.00000000000E+00 0. -1.
         11    1    1    2    0    0 -0.28807617439E+02 -0.11127975046E+02  0.11025253096E+03  0.11449598785E+03  0.00000000000E+00 0.  1.
</event>
<event>
 7    1  0.2878477E-009  0.6332981E+02  0.7561462E-02  0.1384367E+00
          1   -1    0    0  501    0  0.00000000000E+00  0.00000000000E+00  0.42177156629E+03  0.42177156629E+03  0.00000000000E+00 0. -1.
         -1   -1    0    0    0  501 -0.00000000000E+00 -0.00000000000E+00 -0.30275190669E+02  0.30275190669E+02  0.00000000000E+00 0.  1.
         25    2    1    2    0    0  0.97014751518E+01  0.28122574837E+02  0.29387762203E+03  0.32076977267E+03  0.12507674641E+03 0.  0.
          5    1    3    3  502    0 -0.12982672667E+01 -0.44390670666E+01 -0.11689232170E+02  0.13247692744E+02  0.41800000000E+01 0.  1.
         -5    1    3    3    0  502  0.10999742419E+02  0.32561641904E+02  0.30556685420E+03  0.30752207993E+03  0.41800000000E+01 0.  1.
        -11    1    1    2    0    0  0.35490600892E+02 -0.16509252965E+02  0.30942351521E+02  0.49895563959E+02  0.00000000000E+00 0.  1.
         11    1    1    2    0    0 -0.45192076044E+02 -0.11613321872E+02  0.66676402069E+02  0.81381420330E+02  0.00000000000E+00 0. -1.
</event>
<event>
 7    1  0.2878477E-009  0.1559261E+03  0.7561462E-02  0.1193374E+00
         -1   -1    0    0    0  501 -0.00000000000E+00  0.00000000000E+00  0.86296380823E+03  0.86296380823E+03  0.00000000000E+00 0.  1.
          1   -1    0    0  501    0  0.00000000000E+00 -0.00000000000E+00 -0.33952745578E+02  0.33952745578E+02  0.00000000000E+00 0. -1.
         25    2    1    2    0    0 -0.81141880483E+02 -0.10203780299E+03  0.48277087964E+03  0.51546208881E+03  0.12505088870E+03 0.  0.
          5    1    3    3  502    0  0.20905340574E+02 -0.69548769918E+02  0.21826107278E+03  0.23006397578E+03  0.41800000000E+01 0. -1.
         -5    1    3    3    0  502 -0.10204722106E+03 -0.32489033070E+02  0.26450980687E+03  0.28539811304E+03  0.41800000000E+01 0. -1.
        -11    1    1    2    0    0  0.57661713734E+02  0.56659631970E+02  0.30576790961E+03  0.31627393455E+03  0.00000000000E+00 0.  1.
         11    1    1    2    0    0  0.23480166749E+02  0.45378171018E+02  0.40472273399E+02  0.65180530449E+02  0.00000000000E+00 0. -1.
</event>
<event>
 7    1  0.2878477E-009  0.1184010E+03  0.7561462E-02  0.1245758E+00
         -2   -1    0    0    0  501 -0.00000000000E+00  0.00000000000E+00  0.24386113376E+02  0.24386113376E+02  0.00000000000E+00 0.  1.
          2   -1    0    0  501    0  0.00000000000E+00 -0.00000000000E+00 -0.86841568932E+03  0.86841568932E+03  0.00000000000E+00 0. -1.
         25    2    1    2    0    0  0.94079358677E+02  0.96720194461E+01 -0.39211816643E+03  0.42231434914E+03  0.12509308277E+03 0.  0.
          5    1    3    3  502    0  0.24011706249E+02 -0.19815419754E+02 -0.10416222802E+02  0.33093549137E+02  0.41800000000E+01 0.  1.
         -5    1    3    3    0  502  0.70067652428E+02  0.29487439200E+02 -0.38170194362E+03  0.38922080000E+03  0.41800000000E+01 0.  1.
        -11    1    1    2    0    0 -0.53498223317E+02 -0.49144185100E+02 -0.21641062936E+03  0.22827783801E+03  0.00000000000E+00 0.  1.
         11    1    1    2    0    0 -0.40581135360E+02  0.39472165654E+02 -0.23550078016E+03  0.24220961555E+03  0.00000000000E+00 0. -1.
</event>
<event>
 7    1  0.2878477E-009  0.1077496E+03  0.7561462E-02  0.1264795E+00
         -1   -1    0    0    0  501 -0.00000000000E+00  0.00000000000E+00  0.91936475450E+02  0.91936475450E+02  0.00000000000E+00 0.  1.
          1   -1    0    0  501    0  0.00000000000E+00 -0.00000000000E+00 -0.18237383243E+03  0.18237383243E+03  0.00000000000E+00 0. -1.
         25    2    1    2    0    0  0.12003599752E+02  0.68393796648E+02 -0.51978212852E+02  0.15221386962E+03  0.12508209170E+03 0.  0.
          5    1    3    3  502    0 -0.34379470042E+02  0.69912772511E+02  0.55082352445E+01  0.78214811744E+02  0.41800000000E+01 0.  1.
         -5    1    3    3    0  502  0.46383069794E+02 -0.15189758635E+01 -0.57486448096E+02  0.73999057872E+02  0.41800000000E+01 0.  1.
        -11    1    1    2    0    0 -0.35539948891E+02 -0.33834382800E+02  0.17626718197E+02  0.52139760462E+02  0.00000000000E+00 0.  1.
         11    1    1    2    0    0  0.23536349140E+02 -0.34559413847E+02 -0.56085862320E+02  0.69956677798E+02  0.00000000000E+00 0. -1.
</event>
<event>
 7    1  0.2878477E-009  0.1463629E+03  0.7561462E-02  0.1205015E+00
          1   -1    0    0  501    0  0.00000000000E+00  0.00000000000E+00  0.40497940567E+03  0.40497940567E+03  0.00000000000E+00 0. -1.
         -1   -1    0    0    0  501 -0.00000000000E+00 -0.00000000000E+00 -0.76524570138E+02  0.76524570138E+02  0.00000000000E+00 0.  1.
         25    2    1    2    0    0  0.28664025200E+02 -0.96656545113E+02  0.30314545710E+03  0.34308678542E+03  0.12508900878E+03 0.  0.
          5    1    3    3  502    0  0.17901344669E+02 -0.12648933925E+03  0.22734223040E+03  0.26081022450E+03  0.41800000000E+01 0. -1.
         -5    1    3    3    0  502  0.10762680531E+02  0.29832794134E+02  0.75803226699E+02  0.82276560915E+02  0.41800000000E+01 0. -1.
        -11    1    1    2    0    0 -0.11342730540E+02 -0.15625401962E+02 -0.66097491867E+01  0.20408319551E+02  0.00000000000E+00 0.  1.
         11    1    1    2    0    0 -0.17321294660E+02  0.11228194708E+03  0.31919127620E+02  0.11800887083E+03  0.00000000000E+00 0. -1.
</event>
<event>
 7    1  0.2878477E-009  0.1529226E+03  0.7561462E-02  0.1196927E+00
         -2   -1    0    0    0  501 -0.00000000000E+00  0.00000000000E+00  0.66480836886E+02  0.66480836886E+02  0.00000000000E+00 0. -1.
          2   -1    0    0  501    0  0.00000000000E+00 -0.00000000000E+00 -0.49859201574E+03  0.49859201574E+03  0.00000000000E+00 0.  1.
         25    2    1    2    0    0 -0.48240585157E+02 -0.11114888646E+03 -0.10396290090E+03  0.20282424922E+03  0.12509261485E+03 0.  0.
          5    1    3    3  502    0 -0.15177083060E+02 -0.12965472899E+03 -0.57443507265E+02  0.14268118841E+03  0.41800000000E+01 0.  1.
         -5    1    3    3    0  502 -0.33063502096E+02  0.18505842530E+02 -0.46519393639E+02  0.60143060806E+02  0.41800000000E+01 0.  1.
        -11    1    1    2    0    0  0.82912929377E+01  0.92777578587E+02 -0.28806208167E+03  0.30274772918E+03  0.00000000000E+00 0.  1.
         11    1    1    2    0    0  0.39949292219E+02  0.18371307873E+02 -0.40086196280E+02  0.59500874228E+02  0.00000000000E+00 0. -1.
</event>
<event>
 7    1  0.2878477E-009  0.1017533E+03  0.7561462E-02  0.1276652E+00
         -4   -1    0    0    0  501 -0.00000000000E+00  0.00000000000E+00  0.12200295550E+02  0.12200295550E+02  0.00000000000E+00 0.  1.
          4   -1    0    0  501    0  0.00000000000E+00 -0.00000000000E+00 -0.10865764840E+04  0.10865764840E+04  0.00000000000E+00 0. -1.
         25    2    1    2    0    0 -0.36025928162E+02 -0.55823625725E+01 -0.72243774279E+03  0.73408754812E+03  0.12505681043E+03 0.  0.
          5    1    3    3  502    0 -0.18052949523E+02  0.53278857120E+02 -0.50271871614E+03  0.50587362608E+03  0.41800000000E+01 0. -1.
         -5    1    3    3    0  502 -0.17972978639E+02 -0.58861219693E+02 -0.21971902664E+03  0.22821392204E+03  0.41800000000E+01 0. -1.
        -11    1    1    2    0    0 -0.22227262322E+00  0.37266799517E+02 -0.76731148859E+02  0.85302596423E+02  0.00000000000E+00 0. -1.
         11    1    1    2    0    0  0.36248200785E+02 -0.31684436945E+02 -0.27520729677E+03  0.27938663497E+03  0.00000000000E+00 0.  1.
</event>
<event>
 7    1  0.2878477E-009  0.6655605E+02  0.7561462E-02  0.1372212E+00
          2   -1    0    0  501    0  0.00000000000E+00  0.00000000000E+00  0.52780590695E+02  0.52780590695E+02  0.00000000000E+00 0. -1.
         -2   -1    0    0    0  501 -0.00000000000E+00 -0.00000000000E+00 -0.23586785639E+03  0.23586785639E+03  0.00000000000E+00 0.  1.
         25    2    1    2    0    0  0.22385331260E+02 -0.16798252269E+02 -0.98725747655E+02  0.16179440196E+03  0.12508945168E+03 0.  0.
          5    1    3    3  502    0 -0.45054688276E+00  0.13090045676E+02 -0.11836228260E+03  0.11915810769E+03  0.41800000000E+01 0. -1.
         -5    1    3    3    0  502  0.22835878143E+02 -0.29888297945E+02  0.19636534940E+02  0.42636294270E+02  0.41800000000E+01 0. -1.
        -11    1    1    2    0    0 -0.32721347641E+02  0.42604002844E+02 -0.83194440358E+02  0.99030816195E+02  0.00000000000E+00 0.  1.
         11    1    1    2    0    0  0.10336016381E+02 -0.25805750574E+02 -0.11670776792E+01  0.27823228922E+02  0.00000000000E+00 0. -1.
</event>
<event>
 7    1  0.2878477E-009  0.1177349E+03  0.7561462E-02  0.1246881E+00
          1   -1    0    0  501    0  0.00000000000E+00  0.00000000000E+00  0.30384559603E+03  0.30384559603E+03  0.00000000000E+00 0. -1.
         -1   -1    0    0    0  501 -0.00000000000E+00 -0.00000000000E+00 -0.55458408215E+02  0.55458408215E+02  0.00000000000E+00 0.  1.
         25    2    1    2    0    0 -0.39864086506E+02 -0.24146099734E+02  0.20933097076E+03  0.24827360478E+03  0.12509255768E+03 0.  0.
          5    1    3    3  502    0  0.43986963535E+02 -0.17918132539E+02  0.94976837907E+02  0.10627316018E+03  0.41800000000E+01 0. -1.
         -5    1    3    3    0  502 -0.83851050041E+02 -0.62279671955E+01  0.11435413285E+03  0.14200044461E+03  0.41800000000E+01 0. -1.
        -11    1    1    2    0    0 -0.21350871822E+02  0.35421949826E+02  0.19949968319E+02  0.45919227922E+02  0.00000000000E+00 0.  1.
         11    1    1    2    0    0  0.61214958328E+02 -0.11275850092E+02  0.19106248737E+02  0.65111171539E+02  0.00000000000E+00 0. -1.
</event>
<event>
 7    1  0.2878477E-009  0.9928718E+02  0.7561462E-02  0.1281802E+00
         -2   -1    0    0    0  501 -0.00000000000E+00  0.00000000000E+00  0.58670393200E+02  0.58670393200E+02  0.00000000000E+00 0. -1.
          2   -1    0    0  501    0  0.00000000000E+00 -0.00000000000E+00 -0.22788093221E+03  0.22788093221E+03  0.00000000000E+00 0.  1.
         25    2    1    2    0    0 -0.33541512825E+02 -0.22151142675E+02 -0.10507554803E+03  0.16826116963E+03  0.12512091834E+03 0.  0.
          5    1    3    3  502    0 -0.64689105043E+02 -0.25567225566E+02 -0.12968433687E+02  0.70880293500E+02  0.41800000000E+01 0.  1.
         -5    1    3    3    0  502  0.31147592218E+02  0.34160828906E+01 -0.92107114342E+02  0.97380876129E+02  0.41800000000E+01 0.  1.
        -11    1    1    2    0    0  0.28031366112E+02  0.56191457349E+02 -0.29371324550E+02  0.69324685870E+02  0.00000000000E+00 0.  1.
         11    1    1    2    0    0  0.55101467126E+01 -0.34040314674E+02 -0.34763666431E+02  0.48965469911E+02  0.00000000000E+00 0. -1.
</event>
<event>
 7    1  0.2878477E-009  0.2151110E+03  0.7561462E-02  0.1137581E+00
         -2   -1    0    0    0  501 -0.00000000000E+00  0.00000000000E+00  0.18343028454E+02  0.18343028454E+02  0.00000000000E+00 0.  1.
          2   -1    0    0  501    0  0.00000000000E+00 -0.00000000000E+00 -0.27381537540E+04  0.27381537540E+04  0.00000000000E+00 0. -1.
         25    2    1    2    0    0 -0.34311298529E+02 -0.18793116220E+03 -0.16883748440E+04  0.17037462807E+04  0.12508552367E+03 0.  0.
          5    1    3    3  502    0 -0.81614652760E+02 -0.11231569176E+03 -0.10581221222E+04  0.10671999176E+04  0.41800000000E+01 0. -1.
         -5    1    3    3    0  502  0.47303354231E+02 -0.75615470434E+02 -0.63025272174E+03  0.63654636308E+03  0.41800000000E+01 0. -1.
        -11    1    1    2    0    0 -0.19206060555E+02  0.33827522088E+02 -0.10317925749E+03  0.11026845963E+03  0.00000000000E+00 0. -1.
         11    1    1    2    0    0  0.53517359085E+02  0.15410364011E+03 -0.92825662410E+03  0.94248204216E+03  0.00000000000E+00 0.  1.
</event>
<event>
 7    1  0.2878477E-009  0.1510351E+03  0.7561462E-02  0.1199207E+00
          2   -1    0    0  501    0  0.00000000000E+00  0.00000000000E+00  0.11899214035E+03  0.11899214035E+03  0.00000000000E+00 0. -1.
         -2   -1    0    0    0  501 -0.00000000000E+00 -0.00000000000E+00 -0.27675503096E+03  0.27675503096E+03  0.00000000000E+00 0.  1.
         25    2    1    2    0    0  0.36360105743E+02 -0.13752626460E+03 -0.71998759540E+02  0.20265003141E+03  0.12509069953E+03 0.  0.
          5    1    3    3  502    0  0.38557191675E+02 -0.71748222024E+02 -0.10166530113E+03  0.13033714070E+03  0.41800000000E+01 0. -1.
         -5    1    3    3    0  502 -0.21970859318E+01 -0.65778042577E+02  0.29666541589E+02  0.72312890703E+02  0.41800000000E+01 0. -1.
        -11    1    1    2    0    0  0.36622533751E+00  0.10645867513E+03 -0.96637885798E+02  0.14377922174E+03  0.00000000000E+00 0.  1.
         11    1    1    2    0    0 -0.36726331081E+02  0.31067589472E+02  0.10873754738E+02  0.49317918167E+02  0.00000000000E+00 0. -1.
</event>
<event>
 7    1  0.2878477E-009  0.9291702E+02  0.7561462E-02  0.1295938E+00
          2   -1    0    0  501    0  0.00000000000E+00  0.00000000000E+00  0.34902381527E+03  0.34902381527E+03  0.00000000000E+00 0. -1.
         -2   -1    0    0    0  501 -0.00000000000E+00 -0.00000000000E+00 -0.36278853812E+02  0.36278853812E+02  0.00000000000E+00 0.  1.
         25    2    1    2    0    0  0.12593098328E+01 -0.57913464242E+01  0.12272221347E+03  0.17533168032E+03  0.12508129713E+03 0.  0.
          5    1    3    3  502    0 -0.41761210813E+02 -0.46675764380E+02  0.44000301213E+02  0.76655884417E+02  0.41800000000E+01 0.  1.
         -5    1    3    3    0  502  0.43020520645E+02  0.40884417956E+02  0.78721912257E+02  0.98675795905E+02  0.41800000000E+01 0.  1.
        -11    1    1    2    0    0  0.19887137443E+02  0.27055942137E+02  0.24030562318E+02  0.41291526563E+02  0.00000000000E+00 0.  1.
         11    1    1    2    0    0 -0.21146447276E+02 -0.21264595713E+02  0.16599218567E+03  0.16867946219E+03  0.00000000000E+00 0. -1.
</event>
<event>
 7    1  0.2878477E-009  0.1326037E+03  0.7561462E-02  0.1223643E+00
         -2   -1    0    0    0  501 -0.00000000000E+00  0.00000000000E+00  0.15625996933E+03  0.15625996933E+03  0.00000000000E+00 0.  1.
          2   -1    0    0  501    0  0.00000000000E+00 -0.00000000000E+00 -0.14909673671E+03  0.14909673671E+03  0.00000000000E+00 0. -1.
         25    2    1    2    0    0  0.58463870960E+02 -0.90410831459E+02 -0.82065729653E+00  0.16504629197E+03  0.12508981718E+03 0.  0.
          5    1    3    3  502    0  0.87910422857E+02 -0.66000733772E+02 -0.33038674200E+02  0.11486237721E+03  0.41800000000E+01 0.  1.
         -5    1    3    3    0  502 -0.29446551898E+02 -0.24410097687E+02  0.32218016904E+02  0.50183914763E+02  0.41800000000E+01 0.  1.
        -11    1    1    2    0    0 -0.55918429879E+02  0.46466559649E+02  0.42640605562E+02  0.84286613459E+02  0.00000000000E+00 0.  1.
         11    1    1    2    0    0 -0.25454410807E+01  0.43944271810E+02 -0.34656715642E+02  0.56023800605E+02  0.00000000000E+00 0. -1.
</event>
<event>
 7    1  0.2878477E-009  0.8777877E+02  0.7561462E-02  0.1308322E+00
          1   -1    0    0  501    0  0.00000000000E+00  0.00000000000E+00  0.14035167437E+04  0.14035167437E+04  0.00000000000E+00 0. -1.
         -1   -1    0    0    0  501 -0.00000000000E+00 -0.00000000000E+00 -0.15018209605E+02  0.15018209605E+02  0.00000000000E+00 0.  1.
         25    2    1    2    0    0 -0.83994914335E+02  0.14482265866E+02  0.96990298429E+03  0.98164365673E+03  0.12509032018E+03 0.  0.
          5    1    3    3  502    0 -0.30652354155E+02  0.18758393511E+02  0.59335446057E+02  0.69495407770E+02  0.41800000000E+01 0. -1.
         -5    1    3    3    0  502 -0.53342560180E+02 -0.42761276446E+01  0.91056753823E+03  0.91214824896E+03  0.41800000000E+01 0. -1.
        -11    1    1    2    0    0  0.69903428267E+02 -0.85942455260E+01  0.41534885982E+03  0.42127784856E+03  0.00000000000E+00 0. -1.
         11    1    1    2    0    0  0.14091486068E+02 -0.58880203404E+01  0.32466899948E+01  0.15613448019E+02  0.00000000000E+00 0.  1.
</event>
<event>
 7    1  0.2878477E-009  0.1625217E+03  0.7561462E-02  0.1185879E+00
         -2   -1    0    0    0  501 -0.00000000000E+00  0.00000000000E+00  0.41614492206E+02  0.41614492206E+02  0.00000000000E+00 0.  1.
          2   -1    0    0  501    0  0.00000000000E+00 -0.00000000000E+00 -0.77434241917E+03  0.77434241917E+03  0.00000000000E+00 0. -1.
         25    2    1    2    0    0 -0.86029471094E+02  0.11078561204E+03 -0.35289449187E+03  0.39982218679E+03  0.12509491167E+03 0.  0.
          5    1    3    3  502    0 -0.55845164603E+02  0.18060964870E+02 -0.37751682068E+02  0.69910963092E+02  0.41800000000E+01 0.  1.
         -5    1    3    3    0  502 -0.30184306492E+02  0.92724647174E+02 -0.31514280980E+03  0.32991122370E+03  0.41800000000E+01 0.  1.
        -11    1    1    2    0    0  0.53426498372E+02 -0.12274712653E+03 -0.32132087790E+03  0.34809245090E+03  0.00000000000E+00 0. -1.
         11    1    1    2    0    0  0.32602972722E+02  0.11961514482E+02 -0.58512557191E+02  0.68042273684E+02  0.00000000000E+00 0.  1.
</event>
<event>
 7    1  0.2878477E-009  0.2021938E+03  0.7561462E-02  0.1147901E+00
          2   -1    0    0  501    0  0.00000000000E+00  0.00000000000E+00  0.18149298561E+03  0.18149298561E+03  0.00000000000E+00 0. -1.
         -2   -1    0    0    0  501 -0.00000000000E+00 -0.00000000000E+00 -0.27943387766E+03  0.27943387766E+03  0.00000000000E+00 0.  1.
         25    2    1    2    0    0  0.86298728635E+02  0.16592750333E+03  0.11239379201E+02  0.22528548136E+03  0.12509123687E+03 0.  0.
          5    1    3    3  502    0  0.22984008161E+02 -0.11210561366E+02  0.25796638627E+02  0.36563373500E+02  0.41800000000E+01 0. -1.
         -5    1    3    3    0  502  0.63314720474E+02  0.17713806469E+03 -0.14557259426E+02  0.18872210786E+03  0.41800000000E+01 0. -1.
        -11    1    1    2    0    0 -0.75575778959E+02 -0.11057628913E+03 -0.28045545313E+02  0.13684066170E+03  0.00000000000E+00 0. -1.
         11    1    1    2    0    0 -0.10722949676E+02 -0.55351214197E+02 -0.81134725931E+02  0.98800720213E+02  0.00000000000E+00 0.  1.
</event>
<event>
 7    1  0.2878477E-009  0.1108461E+03  0.7561462E-02  0.1259011E+00
         -2   -1    0    0    0  501 -0.00000000000E+00  0.00000000000E+00  0.18256656883E+02  0.18256656883E+02  0.00000000000E+00 0.  1.
          2   -1    0    0  501    0  0.00000000000E+00 -0.00000000000E+00 -0.10783773932E+04  0.10783773932E+04  0.00000000000E+00 0. -1.
         25    2    1    2    0    0  0.68372036842E+01  0.83276259368E+02 -0.66973029425E+03  0.68641660680E+03  0.12508960117E+03 0.  0.
          5    1    3    3  502    0 -0.24662992836E+02  0.88177469857E+02 -0.26484671456E+03  0.28025842363E+03  0.41800000000E+01 0. -1.
         -5    1    3    3    0  502  0.31500196520E+02 -0.49012104894E+01 -0.40488357970E+03  0.40615818317E+03  0.41800000000E+01 0. -1.
        -11    1    1    2    0    0  0.19984835113E+02 -0.16481556085E+02 -0.19543321145E+02  0.32449602877E+02  0.00000000000E+00 0.  1.
         11    1    1    2    0    0 -0.26822038797E+02 -0.66794703282E+02 -0.37084712095E+03  0.37776784044E+03  0.00000000000E+00 0. -1.
</event>
<event>
 7    1  0.2878477E-009  0.9723398E+02  0.7561462E-02  0.1286222E+00
          2   -1    0    0  501    0  0.00000000000E+00  0.00000000000E+00  0.53163990301E+02  0.53163990301E+02  0.00000000000E+00 0. -1.
         -2   -1    0    0    0  501 -0.00000000000E+00 -0.00000000000E+00 -0.30789106832E+03  0.30789106832E+03  0.00000000000E+00 0.  1.
         25    2    1    2    0    0  0.39574367999E+02 -0.37537196114E+02 -0.18787836145E+03  0.23220952042E+03  0.12509121064E+03 0.  0.
          5    1    3    3  502    0  0.75421630044E+02 -0.45407263985E+02 -0.16928931853E+03  0.19085750619E+03  0.41800000000E+01 0. -1.
         -5    1    3    3    0  502 -0.35847262045E+02  0.78700678707E+01 -0.18589042919E+02  0.41352014232E+02  0.41800000000E+01 0. -1.
        -11    1    1    2    0    0  0.93136213751E+01  0.79935754133E+01  0.20844264311E+02  0.24189339504E+02  0.00000000000E+00 0. -1.
         11    1    1    2    0    0 -0.48887989374E+02  0.29543620701E+02 -0.87692980879E+02  0.10465619869E+03  0.00000000000E+00 0.  1.
</event>
<event>
 7    1  0.4200016E-009  0.1850851E+03  0.7561462E-02  0.1162970E+00
          1   -1    0    0  501    0  0.00000000000E+00  0.00000000000E+00  0.13151371841E+04  0.13151371841E+04  0.00000000000E+00 0. -1.
         -1   -1    0    0    0  501 -0.00000000000E+00 -0.00000000000E+00 -0.28266840566E+02  0.28266840566E+02  0.00000000000E+00 0.  1.
         25    2    1    2    0    0 -0.50307312628E+02  0.14609392202E+03  0.54467102052E+03  0.57981766428E+03  0.12509094079E+03 0.  0.
          5    1    3    3  502    0 -0.84510016756E+02  0.61624444081E+02  0.33970282060E+03  0.35546447609E+03  0.41800000000E+01 0. -1.
         -5    1    3    3    0  502  0.34202704128E+02  0.84469477942E+02  0.20496819992E+03  0.22435318819E+03  0.41800000000E+01 0. -1.
        -11    1    1    2    0    0  0.51515301309E+02 -0.33025334967E+02  0.35416049440E+03  0.35940806170E+03  0.00000000000E+00 0. -1.
         11    1    1    2    0    0 -0.12079886814E+01 -0.11306858706E+03  0.38803882859E+03  0.40417829866E+03  0.00000000000E+00 0.  1.
</event>
<event>
 7    1  0.2878477E-009  0.1214743E+03  0.7561462E-02  0.1240685E+00
         -1   -1    0    0    0  501 -0.00000000000E+00  0.00000000000E+00  0.35838475718E+02  0.35838475718E+02  0.00000000000E+00 0.  1.
          1   -1    0    0  501    0  0.00000000000E+00 -0.00000000000E+00 -0.58734002552E+03  0.58734002552E+03  0.00000000000E+00 0. -1.
         25    2    1    2    0    0  0.91949030134E+02  0.29019645752E+02 -0.30245452802E+03  0.34120799830E+03  0.12508953834E+03 0.  0.
          5    1    3    3  502    0  0.29169190773E+02  0.55068139497E+02 -0.24270977988E+03  0.25061694142E+03  0.41800000000E+01 0.  1.
         -5    1    3    3    0  502  0.62779839360E+02 -0.26048493744E+02 -0.59744748145E+02  0.90591056884E+02  0.41800000000E+01 0.  1.
        -11    1    1    2    0    0 -0.30896324032E+02  0.17617989685E+02 -0.20940114814E+02  0.41273051834E+02  0.00000000000E+00 0.  1.
         11    1    1    2    0    0 -0.61052706102E+02 -0.46637635437E+02 -0.22810690696E+03  0.24069745110E+03  0.00000000000E+00 0. -1.
</event>
<event>
 7    1  0.2878477E-009  0.1071882E+03  0.7561462E-02  0.1265867E+00
          2   -1    0    0  501    0  0.00000000000E+00  0.00000000000E+00  0.31843083779E+03  0.31843083779E+03  0.00000000000E+00 0. -1.
         -2   -1    0    0    0  501 -0.00000000000E+00 -0.00000000000E+00 -0.81253228726E+02  0.81253228726E+02  0.00000000000E+00 0.  1.
         25    2    1    2    0    0 -0.70763584511E+02  0.16474787917E+02  0.24577151525E+03  0.28518235913E+03  0.12508571749E+03 0.  0.
          5    1    3    3  502    0 -0.45231035356E+02 -0.31093738065E+02  0.29940642670E+02  0.62662441620E+02  0.41800000000E+01 0.  1.
         -5    1    3    3    0  502 -0.25532549155E+02  0.47568525982E+02  0.21583087258E+03  0.22251991751E+03  0.41800000000E+01 0.  1.
        -11    1    1    2    0    0 -0.23542721350E+01 -0.30616951308E+02  0.17795873020E+02  0.35491314448E+02  0.00000000000E+00 0. -1.
         11    1    1    2    0    0  0.73117856646E+02  0.14142163391E+02 -0.26389779205E+02  0.79010392939E+02  0.00000000000E+00 0.  1.
</event>
<event>
 7    1  0.2878477E-009  0.1224936E+03  0.7561462E-02  0.1239039E+00
          2   -1    0    0  501    0  0.00000000000E+00  0.00000000000E+00  0.12538966325E+04  0.12538966325E+04  0.00000000000E+00 0. -1.
         -2   -1    0    0    0  501 -0.00000000000E+00 -0.00000000000E+00 -0.12422235528E+02  0.12422235528E+02  0.00000000000E+00 0.  1.
         25    2    1    2    0    0 -0.60513772941E+02 -0.12433230276E+01  0.61422245538E+03  0.62974652097E+03  0.12509193985E+03 0.  0.
          5    1    3    3  502    0 -0.38170636574E+02  0.59941727804E+02  0.37945081487E+03  0.38607046188E+03  0.41800000000E+01 0.  1.
         -5    1    3    3    0  502 -0.22343136367E+02 -0.61185050832E+02  0.23477164051E+03  0.24367605910E+03  0.41800000000E+01 0.  1.
        -11    1    1    2    0    0 -0.20816407247E+02 -0.14917563460E+02  0.14609179523E+03  0.14831948336E+03  0.00000000000E+00 0.  1.
         11    1    1    2    0    0  0.81330180188E+02  0.16160886488E+02  0.48116014638E+03  0.48825286371E+03  0.00000000000E+00 0. -1.
</event>
<event>
 7    1  0.2878477E-009  0.8526806E+02  0.7561462E-02  0.1314733E+00
          2   -1    0    0  501    0  0.00000000000E+00  0.00000000000E+00  0.23479112056E+03  0.23479112056E+03  0.00000000000E+00 0. -1.
         -2   -1    0    0    0  501 -0.00000000000E+00 -0.00000000000E+00 -0.53722056062E+02  0.53722056062E+02  0.00000000000E+00 0.  1.
         25    2    1    2    0    0  0.36829162958E+01 -0.33614448282E+02  0.11895121909E+03  0.17591266007E+03  0.12510945786E+03 0.  0.
          5    1    3    3  502    0  0.26624699431E+01  0.45894757279E+02  0.24112842677E+02  0.52079929665E+02  0.41800000000E+01 0. -1.
         -5    1    3    3    0  502  0.10204463526E+01 -0.79509205561E+02  0.94838376412E+02  0.12383273041E+03  0.41800000000E+01 0. -1.
        -11    1    1    2    0    0 -0.13927282352E+02  0.31282306076E+02  0.82690601309E+02  0.89500209005E+02  0.00000000000E+00 0. -1.
         11    1    1    2    0    0  0.10244366056E+02  0.23321422058E+01 -0.20572755902E+02  0.23100307543E+02  0.00000000000E+00 0.  1.
</event>
<event>
 7    1  0.2878477E-009  0.9149627E+02  0.7561462E-02  0.1299268E+00
          1   -1    0    0  501    0  0.00000000000E+00  0.00000000000E+00  0.87891236368E+02  0.87891236368E+02  0.00000000000E+00 0. -1.
         -1   -1    0    0    0  501 -0.00000000000E+00 -0.00000000000E+00 -0.15111307327E+03  0.15111307327E+03  0.00000000000E+00 0.  1.
         25    2    1    2    0    0  0.65589687534E+01 -0.35141623453E+02 -0.70538879891E+02  0.14799130195E+03  0.12509091936E+03 0.  0.
          5    1    3    3  502    0 -0.57212656359E+02 -0.76097190528E+01 -0.17373895006E+02  0.60419537398E+02  0.41800000000E+01 0. -1.
         -5    1    3    3    0  502  0.63771625112E+02 -0.27531904400E+02 -0.53164984886E+02  0.87571764555E+02  0.41800000000E+01 0. -1.
        -11    1    1    2    0    0 -0.23811609190E+02  0.28283987957E+02  0.39346470829E+02  0.53991864884E+02  0.00000000000E+00 0. -1.
         11    1    1    2    0    0  0.17252640436E+02  0.68576354962E+01 -0.32029427836E+02  0.37021142799E+02  0.00000000000E+00 0.  1.
</event>
<event>
 7    1  0.2878477E-009  0.1176967E+03  0.7561462E-02  0.1246946E+00
         -1   -1    0    0    0  501 -0.00000000000E+00  0.00000000000E+00  0.17777786632E+03  0.17777786632E+03  0.00000000000E+00 0.  1.
          1   -1    0    0  501    0  0.00000000000E+00 -0.00000000000E+00 -0.84632301769E+02  0.84632301769E+02  0.00000000000E+00 0. -1.
         25    2    1    2    0    0 -0.47102057682E+02 -0.26022340248E+02  0.39254796265E+02  0.14173216559E+03  0.12510516258E+03 0.  0.
          5    1    3    3  502    0 -0.30967139298E+02  0.48330246925E+02  0.37660116446E+01  0.57675226292E+02  0.41800000000E+01 0. -1.
         -5    1    3    3    0  502 -0.16134918384E+02 -0.74352587173E+02  0.35488784621E+02  0.84056939299E+02  0.41800000000E+01 0. -1.
        -11    1    1    2    0    0  0.62202742930E+02  0.45449271482E+02  0.21462907642E+02  0.79971706939E+02  0.00000000000E+00 0. -1.
         11    1    1    2    0    0 -0.15100685248E+02 -0.19426931234E+02  0.32427860645E+02  0.40706295559E+02  0.00000000000E+00 0.  1.
</event>
<event>
 7    1  0.3259823E-009  0.8496564E+02  0.7561462E-02  0.1315522E+00
         -2   -1    0    0    0  501 -0.00000000000E+00  0.00000000000E+00  0.42529849930E+02  0.42529849930E+02  0.00000000000E+00 0.  1.
          2   -1    0    0  501    0  0.00000000000E+00 -0.00000000000E+00 -0.33617722141E+03  0.33617722141E+03  0.00000000000E+00 0. -1.
         25    2    1    2    0    0  0.38765077214E+02  0.17048427482E+02 -0.12264543008E+03  0.18022979216E+03  0.12508995311E+03 0.  0.
          5    1    3    3  502    0  0.41144465910E+02 -0.25852715484E+02  0.14975576934E+01  0.48794928547E+02  0.41800000000E+01 0. -1.
         -5    1    3    3    0  502 -0.23793886954E+01  0.42901142965E+02 -0.12414298778E+03  0.13143486361E+03  0.41800000000E+01 0. -1.
        -11    1    1    2    0    0 -0.57417957387E+02 -0.11885635706E+02 -0.16916186169E+03  0.17903582216E+03  0.00000000000E+00 0. -1.
         11    1    1    2    0    0  0.18652880172E+02 -0.51627917759E+01 -0.18400797035E+01  0.19441457017E+02  0.00000000000E+00 0.  1.
</event>
<event>
 7    1  0.2878477E-009  0.9009119E+02  0.7561462E-02  0.1302631E+00
          1   -1    0    0  501    0  0.00000000000E+00  0.00000000000E+00  0.28187718755E+03  0.28187718755E+03  0.00000000000E+00 0. -1.
         -1   -1    0    0    0  501 -0.00000000000E+00 -0.00000000000E+00 -0.50817944260E+02  0.50817944260E+02  0.00000000000E+00 0.  1.
         25    2    1    2    0    0 -0.26003527015E+02 -0.16976738814E+02  0.20272947574E+03  0.24023015893E+03  0.12508755271E+03 0.  0.
          5    1    3    3  502    0  0.15538912312E+02 -0.50220814099E+02  0.32770320064E+02  0.62088277812E+02  0.41800000000E+01 0.  1.
         -5    1    3    3    0  502 -0.41542439327E+02  0.33244075286E+02  0.16995915568E+03  0.17814188111E+03  0.41800000000E+01 0.  1.
        -11    1    1    2    0    0  0.13789201491E+02 -0.25982135761E+02 -0.12492911505E+02  0.31957570219E+02  0.00000000000E+00 0.  1.
         11    1    1    2    0    0  0.12214325524E+02  0.42958874574E+02  0.40822679054E+02  0.60507402670E+02  0.00000000000E+00 0. -1.
</event>
<event>
 7    1  0.2878477E-009  0.1063245E+03  0.7561462E-02  0.1267532E+00
         -2   -1    0    0    0  501 -0.00000000000E+00  0.00000000000E+00  0.81360190365E+02  0.81360190365E+02  0.00000000000E+00 0. -1.
          2   -1    0    0  501    0  0.00000000000E+00 -0.00000000000E+00 -0.18947157850E+03  0.18947157850E+03  0.00000000000E+00 0.  1.
         25    2    1    2    0    0  0.28918703027E+02  0.31872778137E+02 -0.11234485565E+03  0.17355230050E+03  0.12508744561E+03 0.  0.
          5    1    3    3  502    0  0.40522724605E+02 -0.36119506101E+02 -0.19535700921E+02  0.57843114897E+02  0.41800000000E+01 0.  1.
         -5    1    3    3    0  502 -0.11604021578E+02  0.67992284238E+02 -0.92809154729E+02  0.11570918561E+03  0.41800000000E+01 0.  1.
        -11    1    1    2    0    0 -0.55868989462E+02 -0.25478223028E+02 -0.15427193332E+02  0.63312574788E+02  0.00000000000E+00 0.  1.
         11    1    1    2    0    0  0.26950286435E+02 -0.63945551088E+01  0.19660660847E+02  0.33966893572E+02  0.00000000000E+00 0. -1.
</event>
<event>
 7    1  0.2878477E-009  0.9003911E+02  0.7561462E-02  0.1302757E+00
         -1   -1    0    0    0  501 -0.00000000000E+00  0.00000000000E+00  0.24877576253E+02  0.24877576253E+02  0.00000000000E+00 0.  1.
          1   -1    0    0  501    0  0.00000000000E+00 -0.00000000000E+00 -0.68689755752E+03  0.68689755752E+03  0.00000000000E+00 0. -1.
         25    2    1    2    0    0  0.30311045149E+02 -0.66033473295E+02 -0.33105782794E+03  0.36128130128E+03  0.12508282918E+03 0.  0.
          5    1    3    3  502    0  0.18064360863E+02 -0.32826648559E+02 -0.32241153781E+03  0.32460835187E+03  0.41800000000E+01 0.  1.
         -5    1    3    3    0  502  0.12246684286E+02 -0.33206824737E+02 -0.86462901315E+01  0.36672949406E+02  0.41800000000E+01 0.  1.
        -11    1    1    2    0    0 -0.41115631658E+02  0.13285859693E+01 -0.68020858653E+02  0.79492751362E+02  0.00000000000E+00 0.  1.
         11    1    1    2    0    0  0.10804586509E+02  0.64704887326E+02 -0.26294129467E+03  0.27100108114E+03  0.00000000000E+00 0. -1.
</event>
<event>
 7    1  0.4613222E-009  0.1568995E+03  0.7561462E-02  0.1192242E+00
         -2   -1    0    0    0  501 -0.00000000000E+00  0.00000000000E+00  0.27725158354E+02  0.27725158354E+02  0.00000000000E+00 0.  1.
          2   -1    0    0  501    0  0.00000000000E+00 -0.00000000000E+00 -0.10241034432E+04  0.10241034432E+04  0.00000000000E+00 0. -1.
         25    2    1    2    0    0  0.87685381004E+02  0.87557783295E+02 -0.63449230989E+03  0.65846995502E+03  0.12508836439E+03 0.  0.
          5    1    3    3  502    0  0.11238938723E+03  0.41102371348E+02 -0.49630402303E+03  0.51054474336E+03  0.41800000000E+01 0.  1.
         -5    1    3    3    0  502 -0.24704006224E+02  0.46455411947E+02 -0.13818828686E+03  0.14792521167E+03  0.41800000000E+01 0.  1.
        -11    1    1    2    0    0 -0.92453786960E+02 -0.53361336489E+02 -0.18903532114E+03  0.21709326934E+03  0.00000000000E+00 0.  1.
         11    1    1    2    0    0  0.47684059560E+01 -0.34196446806E+02 -0.17285065383E+03  0.17626537720E+03  0.00000000000E+00 0. -1.
</event>
<event>
 7    1  0.2878477E-009  0.1290565E+03  0.7561462E-02  0.1228862E+00
          1   -1    0    0  501    0  0.00000000000E+00  0.00000000000E+00  0.16504069747E+03  0.16504069747E+03  0.00000000000E+00 0.  1.
         -1   -1    0    0    0  501 -0.00000000000E+00 -0.00000000000E+00 -0.13818398947E+03  0.13818398947E+03  0.00000000000E+00 0. -1.
         25    2    1    2    0    0  0.91811247424E+02 -0.53099091416E+02  0.14919180924E+02  0.16468390848E+03  0.12509751832E+03 0.  0.
          5    1    3    3  502    0  0.53853947443E+02 -0.61555704024E+02  0.62551679308E+02  0.10305113943E+03  0.41800000000E+01 0. -1.
         -5    1    3    3    0  502  0.37957299981E+02  0.84566126082E+01 -0.47632498384E+02  0.61632769051E+02  0.41800000000E+01 0. -1.
        -11    1    1    2    0    0 -0.61473615948E+02 -0.14369101724E+02  0.13461495700E+02  0.64549890848E+02  0.00000000000E+00 0.  1.
         11    1    1    2    0    0 -0.30337631477E+02  0.67468193140E+02 -0.15239686173E+01  0.73990887611E+02  0.00000000000E+00 0. -1.
</event>
<event>
 7    1  0.2878477E-009  0.1358598E+03  0.7561462E-02  0.1219011E+00
          1   -1    0    0  501    0  0.00000000000E+00  0.00000000000E+00  0.12653337596E+03  0.12653337596E+03  0.00000000000E+00 0. -1.
         -1   -1    0    0    0  501 -0.00000000000E+00 -0.00000000000E+00 -0.19118545161E+03  0.19118545161E+03  0.00000000000E+00 0.  1.
         25    2    1    2    0    0 -0.43791955686E+02  0.97696881638E+02 -0.61037929865E+02  0.17560355989E+03  0.12509422569E+03 0.  0.
          5    1    3    3  502    0  0.31697976061E+02  0.81195102031E+02 -0.31640983192E+02  0.92822575366E+02  0.41800000000E+01 0.  1.
         -5    1    3    3    0  502 -0.75489931747E+02  0.16501779607E+02 -0.29396946673E+02  0.82780984526E+02  0.41800000000E+01 0.  1.
        -11    1    1    2    0    0  0.10659935808E+02 -0.22417668123E+02 -0.43975606255E+02  0.50497920957E+02  0.00000000000E+00 0.  1.
         11    1    1    2    0    0  0.33132019878E+02 -0.75279213515E+02  0.40361460478E+02  0.91617346723E+02  0.00000000000E+00 0. -1.
</event>
<event>
 7    1  0.2878477E-009  0.1065379E+03  0.7561462E-02  0.1267119E+00
          2   -1    0    0  501    0  0.00000000000E+00  0.00000000000E+00  0.44388801739E+03  0.44388801739E+03  0.00000000000E+00 0. -1.
         -2   -1    0    0    0  501 -0.00000000000E+00 -0.00000000000E+00 -0.58681292466E+02  0.58681292466E+02  0.00000000000E+00 0.  1.
         25    2    1    2    0    0 -0.76290586453E+02  0.60848099514E+02  0.10046942256E+03  0.18778464001E+03  0.12508485664E+03 0.  0.
          5    1    3    3  502    0 -0.25963627279E+02  0.33067708894E+02 -0.25434544055E+02  0.49315025543E+02  0.41800000000E+01 0. -1.
         -5    1    3    3    0  502 -0.50326959173E+02  0.27780390620E+02  0.12590396661E+03  0.13846961447E+03  0.41800000000E+01 0. -1.
        -11    1    1    2    0    0  0.38042661836E+01 -0.36536603410E+02  0.26043355226E+02  0.45029459039E+02  0.00000000000E+00 0.  1.
         11    1    1    2    0    0  0.72486320269E+02 -0.24311496104E+02  0.25869394714E+03  0.26975521080E+03  0.00000000000E+00 0. -1.
</event>
<event>
 7    1  0.2878477E-009  0.8942472E+02  0.7561462E-02  0.1304251E+00
         -2   -1    0    0    0  501 -0.00000000000E+00  0.00000000000E+00  0.74001768286E+03  0.74001768286E+03  0.00000000000E+00 0.  1.
          2   -1    0    0  501    0  0.00000000000E+00 -0.00000000000E+00 -0.23486744331E+02  0.23486744331E+02  0.00000000000E+00 0. -1.
         25    2    1    2    0    0 -0.37797480287E+02 -0.49182575919E+02  0.27808783929E+03  0.31117109706E+03  0.12508808894E+03 0.  0.
          5    1    3    3  502    0 -0.15989874539E+02 -0.43467637023E+02  0.28376514846E+03  0.28755041895E+03  0.41800000000E+01 0. -1.
         -5    1    3    3    0  502 -0.21807605748E+02 -0.57149388951E+01 -0.56773091714E+01  0.23620678112E+02  0.41800000000E+01 0. -1.
        -11    1    1    2    0    0 -0.27481616099E+02  0.31465439435E+02  0.12948783400E+03  0.13606032579E+03  0.00000000000E+00 0. -1.
         11    1    1    2    0    0  0.65279096387E+02  0.17717136483E+02  0.30895526525E+03  0.31627300434E+03  0.00000000000E+00 0.  1.
</event>
<event>
 7    1  0.2887279E-009  0.2660968E+03  0.7561462E-02  0.1103534E+00
         -1   -1    0    0    0  501 -0.00000000000E+00  0.00000000000E+00  0.78255738863E+02  0.78255738863E+02  0.00000000000E+00 0.  1.
          1   -1    0    0  501    0  0.00000000000E+00 -0.00000000000E+00 -0.99266038125E+03  0.99266038125E+03  0.00000000000E+00 0. -1.
         25    2    1    2    0    0 -0.24944670898E+03  0.46399227025E+02 -0.53887186728E+03  0.60861040039E+03  0.12508869341E+03 0.  0.
          5    1    3    3  502    0 -0.11262152721E+03  0.60687095176E+02 -0.36540420335E+03  0.38717468427E+03  0.41800000000E+01 0. -1.
         -5    1    3    3    0  502 -0.13682518177E+03 -0.14287868151E+02 -0.17346766393E+03  0.22143571612E+03  0.41800000000E+01 0. -1.
        -11    1    1    2    0    0  0.12660485740E+03 -0.65005057555E+02 -0.23492282608E+03  0.27466922223E+03  0.00000000000E+00 0. -1.
         11    1    1    2    0    0  0.12284185158E+03  0.18605830529E+02 -0.14060994902E+03  0.18763649750E+03  0.00000000000E+00 0.  1.
</event>
<event>
 7    1  0.2878477E-009  0.1031139E+03  0.7561462E-02  0.1273881E+00
          1   -1    0    0  501    0  0.00000000000E+00  0.00000000000E+00  0.57840315553E+02  0.57840315553E+02  0.00000000000E+00 0. -1.
         -1   -1    0    0    0  501 -0.00000000000E+00 -0.00000000000E+00 -0.33467261643E+03  0.33467261643E+03  0.00000000000E+00 0.  1.
         25    2    1    2    0    0 -0.88705097353E+01 -0.85176640189E+02 -0.17120754215E+03  0.22867588445E+03  0.12508753600E+03 0.  0.
          5    1    3    3  502    0 -0.11223370756E+02 -0.68666380871E+02 -0.19048965882E+03  0.20284185571E+03  0.41800000000E+01 0.  1.
         -5    1    3    3    0  502  0.23528610208E+01 -0.16510259318E+02  0.19282116666E+02  0.25834028738E+02  0.41800000000E+01 0.  1.
        -11    1    1    2    0    0 -0.33899857210E+02  0.62057510460E+02 -0.37208373719E+02  0.79904931000E+02  0.00000000000E+00 0. -1.
         11    1    1    2    0    0  0.42770366946E+02  0.23119129729E+02 -0.68416385011E+02  0.83932116535E+02  0.00000000000E+00 0.  1.
</event>
<event>
 7    1  0.2878477E-009  0.1076544E+03  0.7561462E-02  0.1264976E+00
         -2   -1    0    0    0  501 -0.00000000000E+00  0.00000000000E+00  0.23547871232E+03  0.23547871232E+03  0.00000000000E+00 0.  1.
          2   -1    0    0  501    0  0.00000000000E+00 -0.00000000000E+00 -0.70761225152E+02  0.70761225152E+02  0.00000000000E+00 0. -1.
         25    2    1    2    0    0 -0.44746377429E+01  0.62300280456E+02  0.76034152291E+02  0.15915440699E+03  0.12509030986E+03 0.  0.
          5    1    3    3  502    0 -0.33829864104E+02  0.81298253317E+02  0.85376165911E+02  0.12272093466E+03  0.41800000000E+01 0. -1.
         -5    1    3    3    0  502  0.29355226361E+02 -0.18997972861E+02 -0.93420136203E+01  0.36433472330E+02  0.41800000000E+01 0. -1.
        -11    1    1    2    0    0 -0.20420040303E+02  0.42731796647E+01  0.70778596830E+02  0.73789212488E+02  0.00000000000E+00 0.  1.
         11    1    1    2    0    0  0.24894678045E+02 -0.66573460121E+02  0.17904738050E+02  0.73296317998E+02  0.00000000000E+00 0. -1.
</event>
<event>
 7    1  0.2878477E-009  0.1441447E+03  0.7561462E-02  0.1207858E+00
         -2   -1    0    0    0  501 -0.00000000000E+00  0.00000000000E+00  0.37826988240E+02  0.37826988240E+02  0.00000000000E+00 0.  1.
          2   -1    0    0  501    0  0.00000000000E+00 -0.00000000000E+00 -0.76315449636E+03  0.76315449636E+03  0.00000000000E+00 0. -1.
         25    2    1    2    0    0  0.72976025922E+02  0.95189711946E+02 -0.50401135335E+03  0.53297373167E+03  0.12508786000E+03 0.  0.
          5    1    3    3  502    0 -0.10197637488E+02  0.37971286988E+00 -0.24103929387E+03  0.24129142044E+03  0.41800000000E+01 0. -1.
         -5    1    3    3    0  502  0.83173663411E+02  0.94809999076E+02 -0.26297205949E+03  0.29168231122E+03  0.41800000000E+01 0. -1.
        -11    1    1    2    0    0 -0.10248068016E+01 -0.76799153568E+02 -0.10807916615E+03  0.13259059685E+03  0.00000000000E+00 0. -1.
         11    1    1    2    0    0 -0.71951219121E+02 -0.18390558378E+02 -0.11323698862E+03  0.13541715608E+03  0.00000000000E+00 0.  1.
</event>
<event>
 7    1  0.2878477E-009  0.6658006E+02  0.7561462E-02  0.1372125E+00
          2   -1    0    0  501    0  0.00000000000E+00  0.00000000000E+00  0.42247975928E+03  0.42247975928E+03  0.00000000000E+00 0.  1.
         -2   -1    0    0    0  501 -0.00000000000E+00 -0.00000000000E+00 -0.35169139433E+02  0.35169139433E+02  0.00000000000E+00 0. -1.
         25    2    1    2    0    0 -0.29863405001E+02 -0.24353516712E+02  0.14210687023E+03  0.19321687756E+03  0.12511387801E+03 0.  0.
          5    1    3    3  502    0 -0.31011381893E+02 -0.24545076038E+02  0.16509770887E+03  0.16982017677E+03  0.41800000000E+01 0.  1.
         -5    1    3    3    0  502  0.11479768917E+01  0.19155932518E+00 -0.22990838644E+02  0.23396700782E+02  0.41800000000E+01 0.  1.
        -11    1    1    2    0    0 -0.16627296719E+02  0.37260577200E+02  0.56722691541E+02  0.69873323559E+02  0.00000000000E+00 0.  1.
         11    1    1    2    0    0  0.46490701721E+02 -0.12907060487E+02  0.18848105808E+03  0.19455869760E+03  0.00000000000E+00 0. -1.
</event>
<event>
 7    1  0.2878477E-009  0.9096882E+02  0.7561462E-02  0.1300522E+00
          1   -1    0    0  501    0  0.00000000000E+00  0.00000000000E+00  0.12429264413E+04  0.12429264413E+04  0.00000000000E+00 0. -1.
         -1   -1    0    0    0  501 -0.00000000000E+00 -0.00000000000E+00 -0.15931465382E+02  0.15931465382E+02  0.00000000000E+00 0.  1.
         25    2    1    2    0    0 -0.16600979940E+02  0.41693725198E+02  0.10065432233E+04  0.10152788080E+04  0.12509132005E+03 0.  0.
          5    1    3    3  502    0  0.23587866598E+02 -0.26308991364E+02  0.11868218263E+03  0.12390110311E+03  0.41800000000E+01 0. -1.
         -5    1    3    3    0  502 -0.40188846538E+02  0.68002716561E+02  0.88786104071E+03  0.89137770494E+03  0.41800000000E+01 0. -1.
        -11    1    1    2    0    0  0.33428571728E+02 -0.17353340578E+02  0.20815457202E+03  0.21153471037E+03  0.00000000000E+00 0. -1.
         11    1    1    2    0    0 -0.16827591788E+02 -0.24340384619E+02  0.12297180524E+02  0.32044388240E+02  0.00000000000E+00 0.  1.
</event>
<event>
 7    1  0.2878477E-009  0.2557855E+03  0.7561462E-02  0.1109702E+00
         -1   -1    0    0    0  501 -0.00000000000E+00  0.00000000000E+00  0.15592552225E+03  0.15592552225E+03  0.00000000000E+00 0.  1.
          1   -1    0    0  501    0  0.00000000000E+00 -0.00000000000E+00 -0.43290503420E+03  0.43290503420E+03  0.00000000000E+00 0. -1.
         25    2    1    2    0    0  0.19311520488E+03 -0.12865434677E+03 -0.95500821831E+02  0.28038263617E+03  0.12509433398E+03 0.  0.
          5    1    3    3  502    0  0.14828929566E+03 -0.26505124835E+02 -0.41095429810E+02  0.15620033163E+03  0.41800000000E+01 0.  1.
         -5    1    3    3    0  502  0.44825909223E+02 -0.10214922194E+03 -0.54405392021E+02  0.12418230454E+03  0.41800000000E+01 0.  1.
        -11    1    1    2    0    0 -0.17039698944E+03  0.66233584664E+02 -0.12806206589E+03  0.22320823118E+03  0.00000000000E+00 0. -1.
         11    1    1    2    0    0 -0.22718215439E+02  0.62420762107E+02 -0.53416624230E+02  0.85239689106E+02  0.00000000000E+00 0.  1.
</event>
<event>
 7    1  0.2878477E-009  0.1037978E+03  0.7561462E-02  0.1272507E+00
         -3   -1    0    0    0  501 -0.00000000000E+00  0.00000000000E+00  0.67347470151E+02  0.67347470151E+02  0.00000000000E+00 0. -1.
          3   -1    0    0  501    0  0.00000000000E+00 -0.00000000000E+00 -0.17837695266E+03  0.17837695266E+03  0.00000000000E+00 0.  1.
         25    2    1    2    0    0 -0.14701668899E+02  0.84740658842E+01 -0.68417974707E+02  0.14358129613E+03  0.12508645201E+03 0.  0.
          5    1    3    3  502    0 -0.58234178198E+02 -0.24939139717E+02 -0.61006916653E+02  0.88048262219E+02  0.41800000000E+01 0.  1.
         -5    1    3    3    0  502  0.43532509299E+02  0.33413205601E+02 -0.74110580538E+01  0.55533033916E+02  0.41800000000E+01 0.  1.
        -11    1    1    2    0    0  0.17846842701E+02  0.38267509528E+02 -0.59202993885E+01  0.42637565886E+02  0.00000000000E+00 0. -1.
         11    1    1    2    0    0 -0.31451738020E+01 -0.46741575412E+02 -0.36691208417E+02  0.59505560793E+02  0.00000000000E+00 0.  1.
</event>
<event>
 7    1  0.2878477E-009  0.1221759E+03  0.7561462E-02  0.1239550E+00
          2   -1    0    0  501    0  0.00000000000E+00  0.00000000000E+00  0.12167067765E+03  0.12167067765E+03  0.00000000000E+00 0. -1.
         -2   -1    0    0    0  501 -0.00000000000E+00 -0.00000000000E+00 -0.12943238069E+03  0.12943238069E+03  0.00000000000E+00 0.  1.
         25    2    1    2    0    0  0.12873462233E+01 -0.60162012809E+02  0.12123251874E+02  0.13933387679E+03  0.12508329601E+03 0.  0.
          5    1    3    3  502    0  0.34905913983E+02 -0.88123304576E+02  0.79056850402E+01  0.95205629542E+02  0.41800000000E+01 0. -1.
         -5    1    3    3    0  502 -0.33618567760E+02  0.27961291767E+02  0.42175668339E+01  0.44128247252E+02  0.41800000000E+01 0. -1.
        -11    1    1    2    0    0 -0.43606635326E+02  0.37666123264E+02  0.48688986679E+01  0.57827170608E+02  0.00000000000E+00 0. -1.
         11    1    1    2    0    0  0.42319289103E+02  0.22495889545E+02 -0.24753853580E+02  0.53942010935E+02  0.00000000000E+00 0.  1.
</event>
<event>
 7    1  0.2878477E-009  0.1268415E+03  0.7561462E-02  0.1232219E+00
          2   -1    0    0  501    0  0.00000000000E+00  0.00000000000E+00  0.55193734193E+02  0.55193734193E+02  0.00000000000E+00 0. -1.
         -2   -1    0    0    0  501 -0.00000000000E+00 -0.00000000000E+00 -0.34673153608E+03  0.34673153608E+03  0.00000000000E+00 0.  1.
         25    2    1    2    0    0  0.20697263532E+02  0.74994516741E+02 -0.21161628117E+03  0.25784075681E+03  0.12509137124E+03 0.  0.
          5    1    3    3  502    0 -0.44756076072E+02  0.37717490086E+02 -0.14782534126E+03  0.15904565169E+03  0.41800000000E+01 0. -1.
         -5    1    3    3    0  502  0.65453339604E+02  0.37277026656E+02 -0.63790939910E+02  0.98795105123E+02  0.41800000000E+01 0. -1.
        -11    1    1    2    0    0 -0.35068314496E+02  0.74716244710E+01 -0.19210474268E+02  0.40677440621E+02  0.00000000000E+00 0. -1.
         11    1    1    2    0    0  0.14371050964E+02 -0.82466141212E+02 -0.60711046454E+02  0.10340707284E+03  0.00000000000E+00 0.  1.
</event>
<event>
 7    1  0.2878477E-009  0.8924547E+02  0.7561462E-02  0.1304689E+00
         -2   -1    0    0    0  501 -0.00000000000E+00  0.00000000000E+00  0.75097326381E+02  0.75097326381E+02  0.00000000000E+00 0.  1.
          2   -1    0    0  501    0  0.00000000000E+00 -0.00000000000E+00 -0.17755653799E+03  0.17755653799E+03  0.00000000000E+00 0. -1.
         25    2    1    2    0    0 -0.15209652944E+01 -0.18609453115E+02 -0.10497263130E+03  0.16436295539E+03  0.12508917899E+03 0.  0.
          5    1    3    3  502    0 -0.54040370808E+02 -0.77533662706E+01 -0.10650293961E+02  0.55779723261E+02  0.41800000000E+01 0. -1.
         -5    1    3    3    0  502  0.52519405514E+02 -0.10856086845E+02 -0.94322337342E+02  0.10858323213E+03  0.41800000000E+01 0. -1.
        -11    1    1    2    0    0 -0.19157210156E+02 -0.19028102068E+02  0.27555105052E+02  0.38579154782E+02  0.00000000000E+00 0.  1.
         11    1    1    2    0    0  0.20678175450E+02  0.37637555184E+02 -0.25041685357E+02  0.49711754200E+02  0.00000000000E+00 0. -1.
</event>
<event>
 7    1  0.2878477E-009  0.8491786E+02  0.7561462E-02  0.1315647E+00
         -2   -1    0    0    0  501 -0.00000000000E+00  0.00000000000E+00  0.70513945116E+02  0.70513945116E+02  0.00000000000E+00 0.  1.
          2   -1    0    0  501    0  0.00000000000E+00 -0.00000000000E+00 -0.22232525751E+03  0.22232525751E+03  0.00000000000E+00 0. -1.
         25    2    1    2    0    0  0.43495428564E+02 -0.10533914535E+02 -0.12174683122E+03  0.18020304146E+03  0.12509208440E+03 0.  0.
          5    1    3    3  502    0  0.70843706160E+02 -0.20580576276E+02 -0.13008950267E+03  0.14960996600E+03  0.41800000000E+01 0.  1.
         -5    1    3    3    0  502 -0.27348277595E+02  0.10046661741E+02  0.83426714435E+01  0.30593075464E+02  0.41800000000E+01 0.  1.
        -11    1    1    2    0    0 -0.21812156422E+02 -0.19642097621E+02 -0.58762583527E+02  0.65685792905E+02  0.00000000000E+00 0. -1.
         11    1    1    2    0    0 -0.21683272143E+02  0.30176012157E+02  0.28698102357E+02  0.46950368256E+02  0.00000000000E+00 0.  1.
</event>
<event>
 7    1  0.2878477E-009  0.1379215E+03  0.7561462E-02  0.1216153E+00
         -1   -1    0    0    0  501 -0.00000000000E+00  0.00000000000E+00  0.88977447620E+02  0.88977447620E+02  0.00000000000E+00 0.  1.
          1   -1    0    0  501    0  0.00000000000E+00 -0.00000000000E+00 -0.25079488828E+03  0.25079488828E+03  0.00000000000E+00 0. -1.
         25    2    1    2    0    0  0.95116164068E+02  0.35670754683E+02 -0.69988873425E+02  0.17568624956E+03  0.12509088087E+03 0.  0.
          5    1    3    3  502    0  0.66857159626E+01  0.59685388356E+02 -0.57247555124E+02  0.83077068730E+02  0.41800000000E+01 0. -1.
         -5    1    3    3    0  502  0.88430448106E+02 -0.24014633674E+02 -0.12741318301E+02  0.92609180834E+02  0.41800000000E+01 0. -1.
        -11    1    1    2    0    0 -0.82289142789E+02  0.38311075868E+01 -0.90717216607E+02  0.12253894807E+03  0.00000000000E+00 0.  1.
         11    1    1    2    0    0 -0.12827021279E+02 -0.39501862269E+02 -0.11113506305E+01  0.41547138263E+02  0.00000000000E+00 0. -1.
</event>
<event>
 7    1  0.2878477E-009  0.1058118E+03  0.7561462E-02  0.1268528E+00
          2   -1    0    0  501    0  0.00000000000E+00  0.00000000000E+00  0.24837872117E+03  0.24837872117E+03  0.00000000000E+00 0.  1.
         -2   -1    0    0    0  501 -0.00000000000E+00 -0.00000000000E+00 -0.54224786909E+02  0.54224786909E+02  0.00000000000E+00 0. -1.
         25    2    1    2    0    0  0.23559558033E+02  0.20297783954E+02  0.75689197744E+02  0.14947941593E+03  0.12509271890E+03 0.  0.
          5    1    3    3  502    0 -0.23288351187E+02 -0.41618375344E+02  0.45570076992E+02  0.66094937661E+02  0.41800000000E+01 0. -1.
         -5    1    3    3    0  502  0.46847909220E+02  0.61916159298E+02  0.30119120752E+02  0.83384478265E+02  0.41800000000E+01 0. -1.
        -11    1    1    2    0    0  0.29259411443E+02  0.40855621443E+00  0.78365779895E+02  0.83650914727E+02  0.00000000000E+00 0.  1.
         11    1    1    2    0    0 -0.52818969476E+02 -0.20706340168E+02  0.40098956624E+02  0.69473177428E+02  0.00000000000E+00 0. -1.
</event>
<event>
 7    1  0.2878477E-009  0.1646995E+03  0.7561462E-02  0.1183491E+00
          1   -1    0    0  501    0  0.00000000000E+00  0.00000000000E+00  0.13243673714E+03  0.13243673714E+03  0.00000000000E+00 0. -1.
         -1   -1    0    0    0  501 -0.00000000000E+00 -0.00000000000E+00 -0.24387281022E+03  0.24387281022E+03  0.00000000000E+00 0.  1.
         25    2    1    2    0    0  0.74674649790E+02 -0.11820981044E+03 -0.37054071176E+02  0.19123123865E+03  0.12508604974E+03 0.  0.
          5    1    3    3  502    0  0.25569435443E+02  0.10815932784E+02 -0.44828998495E+02  0.52895103147E+02  0.41800000000E+01 0. -1.
         -5    1    3    3    0  502  0.49105214346E+02 -0.12902574322E+03  0.77749273194E+01  0.13833613550E+03  0.41800000000E+01 0. -1.
        -11    1    1    2    0    0 -0.33223296061E+02  0.11711882448E+03 -0.32195794974E+02  0.12592527809E+03  0.00000000000E+00 0. -1.
         11    1    1    2    0    0 -0.41451353728E+02  0.10909859635E+01 -0.42186206934E+02  0.59153030622E+02  0.00000000000E+00 0.  1.
</event>
<event>
 7    1  0.2878477E-009  0.1091542E+03  0.7561462E-02  0.1262144E+00
          1   -1    0    0  501    0  0.00000000000E+00  0.00000000000E+00  0.59508546635E+02  0.59508546635E+02  0.00000000000E+00 0. -1.
         -1   -1    0    0    0  501 -0.00000000000E+00 -0.00000000000E+00 -0.23136654439E+03  0.23136654439E+03  0.00000000000E+00 0.  1.
         25    2    1    2    0    0 -0.15916887080E+02 -0.26639760164E+02 -0.12969927732E+03  0.18284343752E+03  0.12508715358E+03 0.  0.
          5    1    3    3  502    0 -0.25886278408E+02 -0.74658859061E+02 -0.71792767883E+02  0.10684436610E+03  0.41800000000E+01 0. -1.
         -5    1    3    3    0  502  0.99693913282E+01  0.48019098897E+02 -0.57906509437E+02  0.75999071426E+02  0.41800000000E+01 0. -1.
        -11    1    1    2    0    0  0.20914561112E+02  0.56206494562E+02 -0.48517744436E+01  0.60167504624E+02  0.00000000000E+00 0. -1.
         11    1    1    2    0    0 -0.49976740326E+01 -0.29566734398E+02 -0.37306945989E+02  0.47864148877E+02  0.00000000000E+00 0.  1.
</event>
<event>
 7    1  0.2878477E-009  0.1574819E+03  0.7561462E-02  0.1191569E+00
          2   -1    0    0  501    0  0.00000000000E+00  0.00000000000E+00  0.10292449467E+04  0.10292449467E+04  0.00000000000E+00 0. -1.
         -2   -1    0    0    0  501 -0.00000000000E+00 -0.00000000000E+00 -0.49794388924E+02  0.49794388924E+02  0.00000000000E+00 0.  1.
         25    2    1    2    0    0 -0.41482276445E+02  0.12145050455E+03  0.86266892543E+03  0.88108793839E+03  0.12508907211E+03 0.  0.
          5    1    3    3  502    0  0.44716839417E+02  0.39440655900E+02  0.31646227825E+03  0.32205745920E+03  0.41800000000E+01 0.  1.
         -5    1    3    3    0  502 -0.86199115863E+02  0.82009848645E+02  0.54620664717E+03  0.55903047919E+03  0.41800000000E+01 0.  1.
        -11    1    1    2    0    0  0.28582700674E+01 -0.77810223335E+02  0.11595038038E+03  0.13966778896E+03  0.00000000000E+00 0. -1.
         11    1    1    2    0    0  0.38624006378E+02 -0.43640281210E+02  0.83125196052E+00  0.58283608267E+02  0.00000000000E+00 0.  1.
</event>
<event>
 7    1  0.2878477E-009  0.1056017E+03  0.7561462E-02  0.1268939E+00
         -2   -1    0    0    0  501 -0.00000000000E+00  0.00000000000E+00  0.15749921858E+02  0.15749921858E+02  0.00000000000E+00 0.  1.
          2   -1    0    0  501    0  0.00000000000E+00 -0.00000000000E+00 -0.84146635190E+03  0.84146635190E+03  0.00000000000E+00 0. -1.
         25    2    1    2    0    0 -0.84096768554E+01 -0.38095895412E+02 -0.50376451177E+03  0.52052669113E+03  0.12508929990E+03 0.  0.
          5    1    3    3  502    0 -0.42643962654E+02 -0.61582324823E+02 -0.42319568139E+03  0.42979407561E+03  0.41800000000E+01 0. -1.
         -5    1    3    3    0  502  0.34234285798E+02  0.23486429411E+02 -0.80568830375E+02  0.90732615517E+02  0.41800000000E+01 0. -1.
        -11    1    1    2    0    0 -0.32036253042E+02 -0.81106264750E+01 -0.16240222234E+03  0.16573046067E+03  0.00000000000E+00 0. -1.
         11    1    1    2    0    0  0.40445929897E+02  0.46206521887E+02 -0.15954969593E+03  0.17095912196E+03  0.00000000000E+00 0.  1.
</event>
<event>
 7    1  0.2878477E-009  0.1016186E+03  0.7561462E-02  0.1276929E+00
          2   -1    0    0  501    0  0.00000000000E+00  0.00000000000E+00  0.21415929713E+03  0.21415929713E+03  0.00000000000E+00 0. -1.
         -2   -1    0    0    0  501 -0.00000000000E+00 -0.00000000000E+00 -0.63896167791E+02  0.63896167791E+02  0.00000000000E+00 0.  1.
         25    2    1    2    0    0 -0.23278980560E+02 -0.34234919299E+02  0.71950087567E+02  0.15012485417E+03  0.12508683425E+03 0.  0.
          5    1    3    3  502    0 -0.58884536740E+02 -0.62456805058E+02  0.50842515781E+02  0.99853267228E+02  0.41800000000E+01 0. -1.
         -5    1    3    3    0  502  0.35605556180E+02  0.28221885760E+02  0.21107571786E+02  0.50271586939E+02  0.41800000000E+01 0. -1.
        -11    1    1    2    0    0 -0.34204068318E+01  0.43330489819E+02 -0.12834741793E+01  0.43484225149E+02  0.00000000000E+00 0.  1.
         11    1    1    2    0    0  0.26699387392E+02 -0.90955705197E+01  0.79596515952E+02  0.84446385605E+02  0.00000000000E+00 0. -1.
</event>
<event>
 7    1  0.2878477E-009  0.9732191E+02  0.7561462E-02  0.1286031E+00
          2   -1    0    0  501    0  0.00000000000E+00  0.00000000000E+00  0.74348414256E+02  0.74348414256E+02  0.00000000000E+00 0. -1.
         -2   -1    0    0    0  501 -0.00000000000E+00 -0.00000000000E+00 -0.20585861827E+03  0.20585861827E+03  0.00000000000E+00 0.  1.
         25    2    1    2    0    0  0.24388977921E+02  0.15603688333E+02 -0.12777020992E+02  0.12903214074E+03  0.12509094190E+03 0.  0.
          5    1    3    3  502    0 -0.44929936540E+02 -0.90410801123E+01  0.17676840938E+02  0.49298919183E+02  0.41800000000E+01 0. -1.
         -5    1    3    3    0  502  0.69318914461E+02  0.24644768445E+02 -0.30453861930E+02  0.79733221559E+02  0.41800000000E+01 0. -1.
        -11    1    1    2    0    0 -0.47361058455E+02 -0.35494326012E+00 -0.25173143011E+02  0.53636582401E+02  0.00000000000E+00 0. -1.
         11    1    1    2    0    0  0.22972080534E+02 -0.15248745073E+02 -0.93560040009E+02  0.97538309381E+02  0.00000000000E+00 0.  1.
</event>
<event>
 7    1  0.2878477E-009  0.1030247E+03  0.7561462E-02  0.1274061E+00
         -1   -1    0    0    0  501 -0.00000000000E+00  0.00000000000E+00  0.14320489774E+03  0.14320489774E+03  0.00000000000E+00 0.  1.
          1   -1    0    0  501    0  0.00000000000E+00 -0.00000000000E+00 -0.94367259485E+02  0.94367259485E+02  0.00000000000E+00 0. -1.
         25    2    1    2    0    0 -0.23566909527E+02  0.19088200520E+02  0.61677498888E+02  0.14272696464E+03  0.12508842449E+03 0.  0.
          5    1    3    3  502    0 -0.66539397589E+02 -0.59036181996E+01  0.48468070195E+01  0.67106691750E+02  0.41800000000E+01 0.  1.
         -5    1    3    3    0  502  0.42972488062E+02  0.24991818719E+02  0.56830691868E+02  0.75620272886E+02  0.41800000000E+01 0.  1.
        -11    1    1    2    0    0 -0.27261308328E+02 -0.26316926668E+02  0.91719744527E+01  0.38985698357E+02  0.00000000000E+00 0. -1.
         11    1    1    2    0    0  0.50828217855E+02  0.72287261486E+01 -0.22011835084E+02  0.55859494232E+02  0.00000000000E+00 0.  1.
</event>
<event>
 7    1  0.2878477E-009  0.1057408E+03  0.7561462E-02  0.1268667E+00
         -3   -1    0    0    0  501 -0.00000000000E+00  0.00000000000E+00  0.43552286385E+03  0.43552286385E+03  0.00000000000E+00 0.  1.
          3   -1    0    0  501    0  0.00000000000E+00 -0.00000000000E+00 -0.28767256415E+02  0.28767256415E+02  0.00000000000E+00 0. -1.
         25    2    1    2    0    0  0.81599689757E+01  0.14816407745E+02  0.28211228228E+03  0.30906533528E+03  0.12509168888E+03 0.  0.
          5    1    3    3  502    0  0.21545812050E+02 -0.48968100106E+02  0.18022432930E+03  0.18804355377E+03  0.41800000000E+01 0.  1.
         -5    1    3    3    0  502 -0.13385843074E+02  0.63784507850E+02  0.10188795298E+03  0.12102178151E+03  0.41800000000E+01 0.  1.
        -11    1    1    2    0    0  0.25722921162E+02 -0.41879083440E+02  0.66676453903E+02  0.82832818423E+02  0.00000000000E+00 0.  1.
         11    1    1    2    0    0 -0.33882890137E+02  0.27062675695E+02  0.57966871255E+02  0.72391966563E+02  0.00000000000E+00 0. -1.
</event>
<event>
 7    1  0.2878477E-009  0.6056272E+02  0.7561462E-02  0.1395485E+00
          2   -1    0    0  501    0  0.00000000000E+00  0.00000000000E+00  0.24428053951E+03  0.24428053951E+03  0.00000000000E+00 0. -1.
         -2   -1    0    0    0  501 -0.00000000000E+00 -0.00000000000E+00 -0.63073660220E+02  0.63073660220E+02  0.00000000000E+00 0.  1.
         25    2    1    2    0    0 -0.53871251250E+01  0.24149971366E+02  0.16465263946E+03  0.20825466238E+03  0.12508905024E+03 0.  0.
          5    1    3    3  502    0 -0.15232452481E+02  0.11390962698E+02 -0.16993968203E+02  0.25846643787E+02  0.41800000000E+01 0. -1.
         -5    1    3    3    0  502  0.98453273561E+01  0.12759008668E+02  0.18164660766E+03  0.18240801860E+03  0.41800000000E+01 0. -1.
        -11    1    1    2    0    0 -0.30703463821E+02  0.12878089510E+02 -0.17075677284E+02  0.37418266058E+02  0.00000000000E+00 0.  1.
         11    1    1    2    0    0  0.36090588946E+02 -0.37028060876E+02  0.33629917115E+02  0.61681271290E+02  0.00000000000E+00 0. -1.
</event>
<event>
 7    1  0.2878477E-009  0.5915591E+02  0.7561462E-02  0.1401409E+00
         -1   -1    0    0    0  501 -0.00000000000E+00  0.00000000000E+00  0.22061852626E+03  0.22061852626E+03  0.00000000000E+00 0.  1.
          1   -1    0    0  501    0  0.00000000000E+00 -0.00000000000E+00 -0.89077948040E+02  0.89077948040E+02  0.00000000000E+00 0. -1.
         25    2    1    2    0    0 -0.10013291194E+02 -0.79364108145E+01 -0.24889372312E+02  0.12818130306E+03  0.12509081894E+03 0.  0.
          5    1    3    3  502    0  0.84068663925E+01 -0.35682526795E+02  0.40434363117E+02  0.54738727074E+02  0.41800000000E+01 0.  1.
         -5    1    3    3    0  502 -0.18420157587E+02  0.27746115981E+02 -0.65323735428E+02  0.73442575989E+02  0.41800000000E+01 0.  1.
        -11    1    1    2    0    0  0.27844662811E+02  0.10652097120E+02  0.16031589239E+03  0.16306433630E+03  0.00000000000E+00 0.  1.
         11    1    1    2    0    0 -0.17831371617E+02 -0.27156863056E+01 -0.38859418563E+01  0.18450834939E+02  0.00000000000E+00 0. -1.
</event>
<event>
 7    1  0.2878477E-009  0.1163641E+03  0.7561462E-02  0.1249219E+00
         -1   -1    0    0    0  501 -0.00000000000E+00  0.00000000000E+00  0.42297834711E+03  0.42297834711E+03  0.00000000000E+00 0.  1.
          1   -1    0    0  501    0  0.00000000000E+00 -0.00000000000E+00 -0.38708195091E+02  0.38708195091E+02  0.00000000000E+00 0. -1.
         25    2    1    2    0    0  0.49906949117E+02  0.24638787088E+02  0.30691025018E+03  0.33606415197E+03  0.12508972449E+03 0.  0.
          5    1    3    3  502    0 -0.21449747970E+02  0.53930740194E+02  0.15668318087E+03  0.16713978579E+03  0.41800000000E+01 0.  1.
         -5    1    3    3    0  502  0.71356697087E+02 -0.29291953106E+02  0.15022706932E+03  0.16892436619E+03  0.41800000000E+01 0.  1.
        -11    1    1    2    0    0 -0.70813976640E+02 -0.27934763881E+02  0.69395432862E+02  0.10300823473E+03  0.00000000000E+00 0.  1.
         11    1    1    2    0    0  0.20907027523E+02  0.32959767928E+01  0.79644689766E+01  0.22614155499E+02  0.00000000000E+00 0. -1.
</event>
<event>
 7    1  0.2878477E-009  0.1268660E+03  0.7561462E-02  0.1232182E+00
         -2   -1    0    0    0  501 -0.00000000000E+00  0.00000000000E+00  0.24310216273E+02  0.24310216273E+02  0.00000000000E+00 0.  1.
          2   -1    0    0  501    0  0.00000000000E+00 -0.00000000000E+00 -0.67538723680E+03  0.67538723680E+03  0.00000000000E+00 0. -1.
         25    2    1    2    0    0 -0.30834652722E+02 -0.58855462481E+02 -0.40598389563E+03  0.42998324068E+03  0.12509165634E+03 0.  0.
          5    1    3    3  502    0 -0.78715399086E+02 -0.48078897161E+02 -0.25900908070E+03  0.27497430914E+03  0.41800000000E+01 0. -1.
         -5    1    3    3    0  502  0.47880746364E+02 -0.10776565320E+02 -0.14697481493E+03  0.15500893154E+03  0.41800000000E+01 0. -1.
        -11    1    1    2    0    0 -0.32307971577E+02  0.19245797476E+02 -0.71252985265E+02  0.80567944351E+02  0.00000000000E+00 0.  1.
         11    1    1    2    0    0  0.63142624299E+02  0.39609665005E+02 -0.17384013963E+03  0.18914626804E+03  0.00000000000E+00 0. -1.
</event>
<event>
 7    1  0.2878477E-009  0.1114876E+03  0.7561462E-02  0.1257840E+00
          2   -1    0    0  501    0  0.00000000000E+00  0.00000000000E+00  0.72830373170E+02  0.72830373170E+02  0.00000000000E+00 0. -1.
         -2   -1    0    0    0  501 -0.00000000000E+00 -0.00000000000E+00 -0.18311508995E+03  0.18311508995E+03  0.00000000000E+00 0.  1.
         25    2    1    2    0    0 -0.23954370468E+02 -0.30467033391E+01 -0.60323001011E+02  0.14096144750E+03  0.12509264953E+03 0.  0.
          5    1    3    3  502    0 -0.46608952934E+02  0.45856269654E+02 -0.84848721914E+01  0.66065553932E+02  0.41800000000E+01 0.  1.
         -5    1    3    3    0  502  0.22654582466E+02 -0.48902972993E+02 -0.51838128820E+02  0.74895893571E+02  0.41800000000E+01 0.  1.
        -11    1    1    2    0    0  0.54306412543E+02 -0.27036849086E+02 -0.32474594619E+02  0.68809715502E+02  0.00000000000E+00 0. -1.
         11    1    1    2    0    0 -0.30352042075E+02  0.30083552425E+02 -0.17487121145E+02  0.46174300109E+02  0.00000000000E+00 0.  1.
</event>
<event>
 7    1  0.2878477E-009  0.1489513E+03  0.7561462E-02  0.1201768E+00
          1   -1    0    0  501    0  0.00000000000E+00  0.00000000000E+00  0.53257550208E+03  0.53257550208E+03  0.00000000000E+00 0. -1.
         -1   -1    0    0    0  501 -0.00000000000E+00 -0.00000000000E+00 -0.49359449861E+02  0.49359449861E+02  0.00000000000E+00 0.  1.
         25    2    1    2    0    0 -0.11717174184E+03  0.17456201677E+02  0.28937689797E+03  0.33677809281E+03  0.12508620490E+03 0.  0.
          5    1    3    3  502    0 -0.13836632288E+03  0.36482742707E+02  0.24842626751E+03  0.28672166401E+03  0.41800000000E+01 0.  1.
         -5    1    3    3    0  502  0.21194581044E+02 -0.19026541030E+02  0.40950630466E+02  0.50056428805E+02  0.41800000000E+01 0.  1.
        -11    1    1    2    0    0  0.36518103925E+02 -0.26038235424E+02  0.12585058419E+02  0.46582671818E+02  0.00000000000E+00 0.  1.
         11    1    1    2    0    0  0.80653637913E+02  0.85820337472E+01  0.18125409583E+03  0.19857418731E+03  0.00000000000E+00 0. -1.
</event>
<event>
 7    1  0.2878477E-009  0.8295330E+02  0.7561462E-02  0.1320873E+00
          1   -1    0    0  501    0  0.00000000000E+00  0.00000000000E+00  0.71594318295E+03  0.71594318295E+03  0.00000000000E+00 0. -1.
         -1   -1    0    0    0  501 -0.00000000000E+00 -0.00000000000E+00 -0.19102637181E+02  0.19102637181E+02  0.00000000000E+00 0.  1.
         25    2    1    2    0    0 -0.53889445460E+00  0.70060767018E+01  0.53249200007E+03  0.54703237824E+03  0.12508923689E+03 0.  0.
          5    1    3    3  502    0  0.21953509740E+02  0.43188388796E+02  0.88486018263E+02  0.10096752619E+03  0.41800000000E+01 0. -1.
         -5    1    3    3    0  502 -0.22492404195E+02 -0.36182312094E+02  0.44400598181E+03  0.44606485206E+03  0.41800000000E+01 0. -1.
        -11    1    1    2    0    0 -0.36561575372E+02  0.74467708136E+00  0.13559430583E+03  0.14043902276E+03  0.00000000000E+00 0. -1.
         11    1    1    2    0    0  0.37100469827E+02 -0.77507537831E+01  0.28754239857E+02  0.47574419128E+02  0.00000000000E+00 0.  1.
</event>
<event>
 7    1  0.2878477E-009  0.1152103E+03  0.7561462E-02  0.1251214E+00
          1   -1    0    0  501    0  0.00000000000E+00  0.00000000000E+00  0.33109261244E+03  0.33109261244E+03  0.00000000000E+00 0. -1.
         -1   -1    0    0    0  501 -0.00000000000E+00 -0.00000000000E+00 -0.59454829985E+02  0.59454829985E+02  0.00000000000E+00 0.  1.
         25    2    1    2    0    0  0.32976392476E+02  0.70724546508E+02  0.20669516526E+03  0.25388431477E+03  0.12507977458E+03 0.  0.
          5    1    3    3  502    0  0.40087856175E+02  0.10480690293E+03  0.16077846788E+03  0.19610892700E+03  0.41800000000E+01 0.  1.
         -5    1    3    3    0  502 -0.71114636990E+01 -0.34082356418E+02  0.45916697373E+02  0.57775387776E+02  0.41800000000E+01 0.  1.
        -11    1    1    2    0    0  0.52315935073E+01 -0.10712566516E+02 -0.21576123844E+02  0.24650715449E+02  0.00000000000E+00 0.  1.
         11    1    1    2    0    0 -0.38207985984E+02 -0.60011979992E+02  0.86518741041E+02  0.11201241220E+03  0.00000000000E+00 0. -1.
</event>
<event>
 7    1  0.2878477E-009  0.2740235E+03  0.7561462E-02  0.1098999E+00
          1   -1    0    0  501    0  0.00000000000E+00  0.00000000000E+00  0.78228776931E+03  0.78228776931E+03  0.00000000000E+00 0. -1.
         -1   -1    0    0    0  501 -0.00000000000E+00 -0.00000000000E+00 -0.10407307405E+03  0.10407307405E+03  0.00000000000E+00 0.  1.
         25    2    1    2    0    0  0.11623932782E+02  0.25592641008E+03  0.45859898359E+03  0.53999480132E+03  0.12509162447E+03 0.  0.
          5    1    3    3  502    0  0.24178571869E+02 -0.19197480019E+01  0.62588080861E+02  0.67253468579E+02  0.41800000000E+01 0.  1.
         -5    1    3    3    0  502 -0.12554639087E+02  0.25784615809E+03  0.39601090273E+03  0.47274133274E+03  0.41800000000E+01 0.  1.
        -11    1    1    2    0    0  0.16716920212E+02 -0.14394208658E+02  0.64683978073E+01  0.22988885020E+02  0.00000000000E+00 0.  1.
         11    1    1    2    0    0 -0.28340852994E+02 -0.24153220143E+03  0.21314731386E+03  0.32337715702E+03  0.00000000000E+00 0. -1.
</event>
<event>
 7    1  0.2878477E-009  0.1231740E+03  0.7561462E-02  0.1237951E+00
         -3   -1    0    0    0  501 -0.00000000000E+00  0.00000000000E+00  0.91342957890E+02  0.91342957890E+02  0.00000000000E+00 0.  1.
          3   -1    0    0  501    0  0.00000000000E+00 -0.00000000000E+00 -0.21338566314E+03  0.21338566314E+03  0.00000000000E+00 0. -1.
         25    2    1    2    0    0  0.60184992584E+02  0.42126187213E+02 -0.11902743645E+03  0.18765182531E+03  0.12509527542E+03 0.  0.
          5    1    3    3  502    0  0.76802073878E+02 -0.11667734208E+02 -0.10278162821E+03  0.12890395677E+03  0.41800000000E+01 0.  1.
         -5    1    3    3    0  502 -0.16617081294E+02  0.53793921421E+02 -0.16245808238E+02  0.58747868539E+02  0.41800000000E+01 0.  1.
        -11    1    1    2    0    0 -0.35955635331E+02 -0.67830812347E+02  0.13722260629E+02  0.77987994284E+02  0.00000000000E+00 0. -1.
         11    1    1    2    0    0 -0.24229357252E+02  0.25704625134E+02 -0.16737529430E+02  0.39088801434E+02  0.00000000000E+00 0.  1.
</event>
<event>
 6    1  0.2878477E-009  0.9008728E+02  0.7561462E-02  0.1302640E+00
          1   -1    0    0  501    0  0.00000000000E+00  0.00000000000E+00  0.99265441438E+02  0.99265441438E+02  0.00000000000E+00 0. -1.
         -1   -1    0    0    0  501 -0.00000000000E+00 -0.00000000000E+00 -0.12538075517E+03  0.12538075517E+03  0.00000000000E+00 0.  1.
          5    1    1    2  502    0 -0.16152128215E+02  0.64900841140E+02  0.87462466916E+01  0.67579432210E+02  0.41800000000E+01 0.  1.
         -5    1    1    2    0  502  0.33831314576E+02 -0.43101000477E+02 -0.29494200685E+02  0.62366933243E+02  0.41800000000E+01 0.  1.
        -11    1    1    2    0    0 -0.29002800785E+02  0.47115736895E+01 -0.40004134514E+02  0.49635593663E+02  0.00000000000E+00 0.  1.
         11    1    1    2    0    0  0.11323614423E+02 -0.26511414353E+02  0.34636774771E+02  0.45064237497E+02  0.00000000000E+00 0. -1.
</event>
<event>
 7    1  0.2878477E-009  0.1079878E+03  0.7561462E-02  0.1264342E+00
          4   -1    0    0  501    0  0.00000000000E+00  0.00000000000E+00  0.56286252073E+03  0.56286252073E+03  0.00000000000E+00 0. -1.
         -4   -1    0    0    0  501 -0.00000000000E+00 -0.00000000000E+00 -0.40106137131E+02  0.40106137131E+02  0.00000000000E+00 0.  1.
         25    2    1    2    0    0  0.35916318785E+02  0.35328082777E+02  0.48120475446E+03  0.49974362436E+03  0.12509044322E+03 0.  0.
          5    1    3    3  502    0 -0.63418603016E+01  0.72427250687E+02  0.33968849001E+03  0.34740706452E+03  0.41800000000E+01 0. -1.
         -5    1    3    3    0  502  0.42258179087E+02 -0.37099167910E+02  0.14151626445E+03  0.15233655984E+03  0.41800000000E+01 0. -1.
        -11    1    1    2    0    0  0.15674910660E+02 -0.31311820151E+02  0.37519272272E+02  0.51320840769E+02  0.00000000000E+00 0. -1.
         11    1    1    2    0    0 -0.51591229446E+02 -0.40162626256E+01  0.40323568648E+01  0.51904192731E+02  0.00000000000E+00 0.  1.
</event>
<event>
 7    1  0.2878477E-009  0.1122961E+03  0.7561462E-02  0.1256376E+00
         -2   -1    0    0    0  501 -0.00000000000E+00  0.00000000000E+00  0.27371605724E+02  0.27371605724E+02  0.00000000000E+00 0.  1.
          2   -1    0    0  501    0  0.00000000000E+00 -0.00000000000E+00 -0.76768367439E+03  0.76768367439E+03  0.00000000000E+00 0. -1.
         25    2    1    2    0    0 -0.37853450517E+02  0.48868505006E+02 -0.60494495312E+03  0.62082782636E+03  0.12509108352E+03 0.  0.
          5    1    3    3  502    0 -0.61592413878E+02 -0.10592078459E+02 -0.42901883253E+03  0.43356712126E+03  0.41800000000E+01 0. -1.
         -5    1    3    3    0  502  0.23738963361E+02  0.59460583465E+02 -0.17592612059E+03  0.18726070510E+03  0.41800000000E+01 0. -1.
        -11    1    1    2    0    0 -0.19485488082E+02 -0.32962709036E+02 -0.17309895124E+02  0.42022100161E+02  0.00000000000E+00 0.  1.
         11    1    1    2    0    0  0.57338938599E+02 -0.15905795970E+02 -0.11805722041E+03  0.13220535359E+03  0.00000000000E+00 0. -1.
</event>
<event>
 7    1  0.2878477E-009  0.1042972E+03  0.7561462E-02  0.1271511E+00
          2   -1    0    0  501    0  0.00000000000E+00  0.00000000000E+00  0.12436153795E+04  0.12436153795E+04  0.00000000000E+00 0. -1.
         -2   -1    0    0    0  501 -0.00000000000E+00 -0.00000000000E+00 -0.20043412543E+02  0.20043412543E+02  0.00000000000E+00 0.  1.
         25    2    1    2    0    0  0.39361872402E+02  0.69207506121E+02  0.98807826590E+03  0.99914178650E+03  0.12508642640E+03 0.  0.
          5    1    3    3  502    0  0.24310421167E+02  0.88335966311E+01  0.81064679980E+03  0.81107011746E+03  0.41800000000E+01 0. -1.
         -5    1    3    3    0  502  0.15051451235E+02  0.60373909490E+02  0.17743146610E+03  0.18807166904E+03  0.41800000000E+01 0. -1.
        -11    1    1    2    0    0 -0.36734212274E+02  0.12104112176E+02  0.86678876317E+02  0.94916486885E+02  0.00000000000E+00 0. -1.
         11    1    1    2    0    0 -0.26276601271E+01 -0.81311618297E+02  0.14881482470E+03  0.16960051863E+03  0.00000000000E+00 0.  1.
</event>
<event>
 7    1  0.2878477E-009  0.1119117E+03  0.7561462E-02  0.1257070E+00
          2   -1    0    0  501    0  0.00000000000E+00  0.00000000000E+00  0.69688613545E+02  0.69688613545E+02  0.00000000000E+00 0.  1.
         -2   -1    0    0    0  501 -0.00000000000E+00 -0.00000000000E+00 -0.23769141378E+03  0.23769141378E+03  0.00000000000E+00 0. -1.
         25    2    1    2    0    0 -0.51235054241E-01  0.17904022036E+02 -0.13599503616E+03  0.18561350158E+03  0.12504865245E+03 0.  0.
          5    1    3    3  502    0 -0.58607828357E+02 -0.11795703884E+02 -0.55801645714E+02  0.81885970955E+02  0.41800000000E+01 0.  1.
         -5    1    3    3    0  502  0.58556593303E+02  0.29699725920E+02 -0.80193390443E+02  0.10372753063E+03  0.41800000000E+01 0.  1.
        -11    1    1    2    0    0 -0.47971063768E+02 -0.13745520675E+02  0.17297122955E+02  0.52814323438E+02  0.00000000000E+00 0. -1.
         11    1    1    2    0    0  0.48022298823E+02 -0.41585013613E+01 -0.49304887037E+02  0.68952202311E+02  0.00000000000E+00 0.  1.
</event>
<event>
 7    1  0.2878477E-009  0.6439282E+02  0.7561462E-02  0.1380270E+00
          1   -1    0    0  501    0  0.00000000000E+00  0.00000000000E+00  0.37729271719E+03  0.37729271719E+03  0.00000000000E+00 0. -1.
         -1   -1    0    0    0  501 -0.00000000000E+00 -0.00000000000E+00 -0.33757960171E+02  0.33757960171E+02  0.00000000000E+00 0.  1.
         25    2    1    2    0    0 -0.92828242652E+01  0.14846720558E+02  0.24735445156E+03  0.27773719785E+03  0.12508849038E+03 0.  0.
          5    1    3    3  502    0  0.31023408728E+02 -0.17603762322E+01  0.53551021653E+01  0.31807237113E+02  0.41800000000E+01 0. -1.
         -5    1    3    3    0  502 -0.40306232993E+02  0.16607096791E+02  0.24199934939E+03  0.24592996074E+03  0.41800000000E+01 0. -1.
        -11    1    1    2    0    0 -0.11453945904E+02  0.14015056058E+02 -0.10461402062E+02  0.20905874920E+02  0.00000000000E+00 0.  1.
         11    1    1    2    0    0  0.20736770169E+02 -0.28861776616E+02  0.10664170753E+03  0.11240760460E+03  0.00000000000E+00 0. -1.
</event>
<event>
 7    1  0.2878477E-009  0.1791776E+03  0.7561462E-02  0.1168601E+00
         -1   -1    0    0    0  501 -0.00000000000E+00  0.00000000000E+00  0.13668968548E+03  0.13668968548E+03  0.00000000000E+00 0.  1.
          1   -1    0    0  501    0  0.00000000000E+00 -0.00000000000E+00 -0.27427345123E+03  0.27427345123E+03  0.00000000000E+00 0. -1.
         25    2    1    2    0    0  0.51915926724E+02 -0.15070119220E+03 -0.83796230873E+02  0.21925954419E+03  0.12508727607E+03 0.  0.
          5    1    3    3  502    0  0.28706263203E+02 -0.85284007450E+01 -0.67827764764E+02  0.74262111734E+02  0.41800000000E+01 0.  1.
         -5    1    3    3    0  502  0.23209663522E+02 -0.14217279145E+03 -0.15968466109E+02  0.14499743246E+03  0.41800000000E+01 0.  1.
        -11    1    1    2    0    0 -0.74345727705E+02  0.77294498975E+02 -0.31427194199E+02  0.11175596331E+03  0.00000000000E+00 0.  1.
         11    1    1    2    0    0  0.22429800980E+02  0.73406693221E+02 -0.22360340674E+02  0.79947629213E+02  0.00000000000E+00 0. -1.
</event>
<event>
 7    1  0.2878477E-009  0.1138966E+03  0.7561462E-02  0.1253519E+00
         -1   -1    0    0    0  501 -0.00000000000E+00  0.00000000000E+00  0.38293561328E+02  0.38293561328E+02  0.00000000000E+00 0.  1.
          1   -1    0    0  501    0  0.00000000000E+00 -0.00000000000E+00 -0.56213056699E+03  0.56213056699E+03  0.00000000000E+00 0. -1.
         25    2    1    2    0    0 -0.12547622832E+02 -0.84189681379E+02 -0.18788703824E+03  0.24123424761E+03  0.12508827999E+03 0.  0.
          5    1    3    3  502    0 -0.54416288158E+02 -0.82535806851E+02 -0.86411829720E+02  0.13136882638E+03  0.41800000000E+01 0.  1.
         -5    1    3    3    0  502  0.41868665327E+02 -0.16538745286E+01 -0.10147520852E+03  0.10986542123E+03  0.41800000000E+01 0.  1.
        -11    1    1    2    0    0 -0.51891462950E+00  0.51897467968E+02 -0.31345472793E+03  0.31772233620E+03  0.00000000000E+00 0. -1.
         11    1    1    2    0    0  0.13066537461E+02  0.32292213411E+02 -0.22495239488E+02  0.41467544512E+02  0.00000000000E+00 0.  1.
</event>
<event>
 7    1  0.2878477E-009  0.7612024E+02  0.7561462E-02  0.1340437E+00
          2   -1    0    0  501    0  0.00000000000E+00  0.00000000000E+00  0.57736249422E+02  0.57736249422E+02  0.00000000000E+00 0. -1.
         -2   -1    0    0    0  501 -0.00000000000E+00 -0.00000000000E+00 -0.27694638956E+03  0.27694638956E+03  0.00000000000E+00 0.  1.
         25    2    1    2    0    0  0.24772237043E+02  0.22567057886E+02 -0.49228554838E+02  0.13854217315E+03  0.12509015668E+03 0.  0.
          5    1    3    3  502    0 -0.11553009021E+02  0.63246701259E+00 -0.83150284213E+02  0.84055423362E+02  0.41800000000E+01 0.  1.
         -5    1    3    3    0  502  0.36325246064E+02  0.21934590874E+02  0.33921729374E+02  0.54486749785E+02  0.41800000000E+01 0.  1.
        -11    1    1    2    0    0 -0.82740374561E+00  0.34969142685E+02 -0.51278781384E+02  0.62072852015E+02  0.00000000000E+00 0. -1.
         11    1    1    2    0    0 -0.23944833297E+02 -0.57536200571E+02 -0.11870280391E+03  0.13406761381E+03  0.00000000000E+00 0.  1.
</event>
<event>
 7    1  0.2878477E-009  0.2117826E+03  0.7561462E-02  0.1140162E+00
          1   -1    0    0  501    0  0.00000000000E+00  0.00000000000E+00  0.24455142351E+03  0.24455142351E+03  0.00000000000E+00 0. -1.
         -1   -1    0    0    0  501 -0.00000000000E+00 -0.00000000000E+00 -0.27035879778E+03  0.27035879778E+03  0.00000000000E+00 0.  1.
         25    2    1    2    0    0  0.37856683058E+02  0.18921776973E+03 -0.14240599637E+03  0.27048384951E+03  0.12508218182E+03 0.  0.
          5    1    3    3  502    0  0.33038556801E+02 -0.80531780137E+00 -0.47409819106E+02  0.57942714123E+02  0.41800000000E+01 0. -1.
         -5    1    3    3    0  502  0.48181262568E+01  0.19002308753E+03 -0.94996177267E+02  0.21254113538E+03  0.41800000000E+01 0. -1.
        -11    1    1    2    0    0  0.25391276387E+01 -0.11965630969E+03  0.24536819186E+02  0.12217256285E+03  0.00000000000E+00 0.  1.
         11    1    1    2    0    0 -0.40395810697E+02 -0.69561460040E+02  0.92061802916E+02  0.12225380894E+03  0.00000000000E+00 0. -1.
</event>
<event>
 7    1  0.2878477E-009  0.7267507E+02  0.7561462E-02  0.1351226E+00
          1   -1    0    0  501    0  0.00000000000E+00  0.00000000000E+00  0.48488977012E+03  0.48488977012E+03  0.00000000000E+00 0. -1.
         -1   -1    0    0    0  501 -0.00000000000E+00 -0.00000000000E+00 -0.30626562530E+02  0.30626562530E+02  0.00000000000E+00 0.  1.
         25    2    1    2    0    0  0.28237144326E+02 -0.45886831071E+02  0.24882142466E+03  0.28365924476E+03  0.12509008028E+03 0.  0.
          5    1    3    3  502    0  0.22889084527E+02 -0.25734253577E+01  0.23713323822E+03  0.23828591603E+03  0.41800000000E+01 0. -1.
         -5    1    3    3    0  502  0.53480597992E+01 -0.43313405714E+02  0.11688186437E+02  0.45373328733E+02  0.41800000000E+01 0. -1.
        -11    1    1    2    0    0 -0.26715044067E+02  0.59068740313E+02  0.20840950171E+03  0.21825977656E+03  0.00000000000E+00 0. -1.
         11    1    1    2    0    0 -0.15221002592E+01 -0.13181909241E+02 -0.29677187825E+01  0.13597311323E+02  0.00000000000E+00 0.  1.
</event>
<event>
 7    1  0.2878477E-009  0.8720543E+02  0.7561462E-02  0.1309764E+00
         -2   -1    0    0    0  501 -0.00000000000E+00  0.00000000000E+00  0.19824981392E+02  0.19824981392E+02  0.00000000000E+00 0.  1.
          2   -1    0    0  501    0  0.00000000000E+00 -0.00000000000E+00 -0.82571837155E+03  0.82571837155E+03  0.00000000000E+00 0. -1.
         25    2    1    2    0    0  0.27959670087E+02  0.15948182984E+02 -0.64394397365E+03  0.65677039655E+03  0.12508966739E+03 0.  0.
          5    1    3    3  502    0  0.42008600082E+02 -0.14054987635E+02 -0.59965646326E+03  0.60130492389E+03  0.41800000000E+01 0. -1.
         -5    1    3    3    0  502 -0.14048929995E+02  0.30003170619E+02 -0.44287510392E+02  0.55465472665E+02  0.41800000000E+01 0. -1.
        -11    1    1    2    0    0  0.25673602792E+02  0.19496357040E+02 -0.63091358215E+02  0.70850273814E+02  0.00000000000E+00 0.  1.
         11    1    1    2    0    0 -0.53633272879E+02 -0.35444540024E+02 -0.98858058286E+02  0.11792268257E+03  0.00000000000E+00 0. -1.
</event>
<event>
 7    1  0.2878477E-009  0.1035814E+03  0.7561462E-02  0.1272940E+00
          2   -1    0    0  501    0  0.00000000000E+00  0.00000000000E+00  0.56236785397E+03  0.56236785397E+03  0.00000000000E+00 0. -1.
         -2   -1    0    0    0  501 -0.00000000000E+00 -0.00000000000E+00 -0.21614317845E+02  0.21614317845E+02  0.00000000000E+00 0.  1.
         25    2    1    2    0    0  0.18939550902E+02  0.11394732625E+02  0.31390445498E+03  0.33862760044E+03  0.12507637029E+03 0.  0.
          5    1    3    3  502    0 -0.50285409891E+02 -0.10866112095E+02  0.16462220809E+03  0.17252431317E+03  0.41800000000E+01 0. -1.
         -5    1    3    3    0  502  0.69224960792E+02  0.22260844720E+02  0.14928224690E+03  0.16610328727E+03  0.41800000000E+01 0. -1.
        -11    1    1    2    0    0  0.31091019072E+02 -0.10004878039E+02  0.15092093887E+03  0.15441463286E+03  0.00000000000E+00 0. -1.
         11    1    1    2    0    0 -0.50030569973E+02 -0.13898545859E+01  0.75928142272E+02  0.90939938512E+02  0.00000000000E+00 0.  1.
</event>
<event>
 7    1  0.2878477E-009  0.9896847E+02  0.7561462E-02  0.1282480E+00
          2   -1    0    0  501    0  0.00000000000E+00  0.00000000000E+00  0.39701074822E+03  0.39701074822E+03  0.00000000000E+00 0. -1.
         -2   -1    0    0    0  501 -0.00000000000E+00 -0.00000000000E+00 -0.39343541580E+02  0.39343541580E+02  0.00000000000E+00 0.  1.
         25    2    1    2    0    0 -0.25557407071E+02 -0.11253125716E+02  0.29419218405E+03  0.32089958245E+03  0.12509071493E+03 0.  0.
          5    1    3    3  502    0 -0.29330708255E+02 -0.52729547297E+02  0.25973530939E+03  0.26668445577E+03  0.41800000000E+01 0. -1.
         -5    1    3    3    0  502  0.37733011845E+01  0.41476421582E+02  0.34456874658E+02  0.54215126674E+02  0.41800000000E+01 0. -1.
        -11    1    1    2    0    0  0.11005314086E+02 -0.40431752871E+02  0.35449805610E+02  0.54886540209E+02  0.00000000000E+00 0.  1.
         11    1    1    2    0    0  0.14552092985E+02  0.51684878587E+02  0.28025216982E+02  0.60568167148E+02  0.00000000000E+00 0. -1.
</event>
<event>
 7    1  0.2878477E-009  0.1318589E+03  0.7561462E-02  0.1224723E+00
         -1   -1    0    0    0  501 -0.00000000000E+00  0.00000000000E+00  0.25219252164E+02  0.25219252164E+02  0.00000000000E+00 0.  1.
          1   -1    0    0  501    0  0.00000000000E+00 -0.00000000000E+00 -0.10302942851E+04  0.10302942851E+04  0.00000000000E+00 0. -1.
         25    2    1    2    0    0  0.53162311800E+02  0.10565427713E+03 -0.56991156377E+03  0.59534588534E+03  0.12509386477E+03 0.  0.
          5    1    3    3  502    0  0.47251075511E+02  0.91012425346E+02 -0.19748880979E+03  0.22256510979E+03  0.41800000000E+01 0. -1.
         -5    1    3    3    0  502  0.59112362891E+01  0.14641851784E+02 -0.37242275398E+03  0.37278077555E+03  0.41800000000E+01 0. -1.
        -11    1    1    2    0    0 -0.75693792967E+02 -0.88354121462E+02 -0.29418242102E+03  0.31635312218E+03  0.00000000000E+00 0.  1.
         11    1    1    2    0    0  0.22531481167E+02 -0.17300155667E+02 -0.14098104813E+03  0.14381452973E+03  0.00000000000E+00 0. -1.
</event>
<event>
 7    1  0.2878477E-009  0.6276178E+02  0.7561462E-02  0.1386594E+00
          1   -1    0    0  501    0  0.00000000000E+00  0.00000000000E+00  0.17920543045E+03  0.17920543045E+03  0.00000000000E+00 0. -1.
         -1   -1    0    0    0  501 -0.00000000000E+00 -0.00000000000E+00 -0.92283338885E+02  0.92283338885E+02  0.00000000000E+00 0.  1.
         25    2    1    2    0    0  0.26793403843E+02 -0.37845840792E+02 -0.73353449680E+01  0.13361223816E+03  0.12509288048E+03 0.  0.
          5    1    3    3  502    0  0.26398495141E+02 -0.20291950282E+02  0.57355192349E+02  0.66450991575E+02  0.41800000000E+01 0. -1.
         -5    1    3    3    0  502  0.39490870184E+00 -0.17553890510E+02 -0.64690537317E+02  0.67161246588E+02  0.41800000000E+01 0. -1.
        -11    1    1    2    0    0  0.25695627419E-01 -0.14817685330E+02 -0.10109845453E+02  0.17938044316E+02  0.00000000000E+00 0.  1.
         11    1    1    2    0    0 -0.26819099470E+02  0.52663526122E+02  0.10436728199E+03  0.11993848686E+03  0.00000000000E+00 0. -1.
</event>
<event>
 7    1  0.2878477E-009  0.9445512E+02  0.7561462E-02  0.1292408E+00
          1   -1    0    0  501    0  0.00000000000E+00  0.00000000000E+00  0.88896966866E+03  0.88896966866E+03  0.00000000000E+00 0. -1.
         -1   -1    0    0    0  501 -0.00000000000E+00 -0.00000000000E+00 -0.24135800337E+02  0.24135800337E+02  0.00000000000E+00 0.  1.
         25    2    1    2    0    0  0.43673529122E+02  0.21086181448E+02  0.72342590003E+03  0.73576124385E+03  0.12509025113E+03 0.  0.
          5    1    3    3  502    0  0.12345446091E+02 -0.29365651162E+02  0.57419807703E+03  0.57509621419E+03  0.41800000000E+01 0. -1.
         -5    1    3    3    0  502  0.31328083031E+02  0.50451832609E+02  0.14922782300E+03  0.16066502967E+03  0.41800000000E+01 0. -1.
        -11    1    1    2    0    0 -0.63017457789E+02  0.67203034444E+01  0.52817556782E+02  0.82498828895E+02  0.00000000000E+00 0.  1.
         11    1    1    2    0    0  0.19343928667E+02 -0.27806484892E+02  0.88590411507E+02  0.94845396247E+02  0.00000000000E+00 0. -1.
</event>
<event>
 7    1  0.2878477E-009  0.1405324E+03  0.7561462E-02  0.1212614E+00
          2   -1    0    0  501    0  0.00000000000E+00  0.00000000000E+00  0.36648880375E+03  0.36648880375E+03  0.00000000000E+00 0. -1.
         -2   -1    0    0    0  501 -0.00000000000E+00 -0.00000000000E+00 -0.67956265999E+02  0.67956265999E+02  0.00000000000E+00 0.  1.
         25    2    1    2    0    0  0.96138762827E+01 -0.10822380437E+03  0.10998243176E+03  0.19886696945E+03  0.12508843989E+03 0.  0.
          5    1    3    3  502    0 -0.17695563425E+02  0.14895977386E+02  0.57661174186E+02  0.62268021614E+02  0.41800000000E+01 0. -1.
         -5    1    3    3    0  502  0.27309439708E+02 -0.12311978176E+03  0.52321257573E+02  0.13659894784E+03  0.41800000000E+01 0. -1.
        -11    1    1    2    0    0 -0.38056325601E+02  0.31004692143E+02  0.31646429425E+02  0.58404377819E+02  0.00000000000E+00 0.  1.
         11    1    1    2    0    0  0.28442449318E+02  0.77219112227E+02  0.15690367656E+03  0.17717372247E+03  0.00000000000E+00 0. -1.
</event>
<event>
 7    1  0.2878477E-009  0.1756225E+03  0.7561462E-02  0.1172108E+00
          2   -1    0    0  501    0  0.00000000000E+00  0.00000000000E+00  0.87660274813E+03  0.87660274813E+03  0.00000000000E+00 0. -1.
         -2   -1    0    0    0  501 -0.00000000000E+00 -0.00000000000E+00 -0.43274687114E+02  0.43274687114E+02  0.00000000000E+00 0.  1.
         25    2    1    2    0    0  0.42604543243E+02  0.15425719912E+03  0.49708709645E+03  0.53698495950E+03  0.12508730823E+03 0.  0.
          5    1    3    3  502    0  0.16336216315E+02 -0.45090129192E+01  0.18504164881E+03  0.18586308766E+03  0.41800000000E+01 0. -1.
         -5    1    3    3    0  502  0.26268326928E+02  0.15876621204E+03  0.31204544764E+03  0.35112187183E+03  0.41800000000E+01 0. -1.
        -11    1    1    2    0    0  0.98013961331E+01 -0.86985102690E+02  0.23352216002E+03  0.24938940370E+03  0.00000000000E+00 0. -1.
         11    1    1    2    0    0 -0.52405939376E+02 -0.67272096432E+02  0.10271880454E+03  0.13350307205E+03  0.00000000000E+00 0.  1.
</event>
<event>
 7    1  0.2969319E-009  0.1026942E+03  0.7561462E-02  0.1274730E+00
          4   -1    0    0  501    0  0.00000000000E+00  0.00000000000E+00  0.10661444212E+03  0.10661444212E+03  0.00000000000E+00 0. -1.
         -4   -1    0    0    0  501 -0.00000000000E+00 -0.00000000000E+00 -0.18275338860E+03  0.18275338860E+03  0.00000000000E+00 0.  1.
         25    2    1    2    0    0  0.48280464850E+02  0.56907592346E+02 -0.89171358409E+02  0.17078697175E+03  0.12508869336E+03 0.  0.
          5    1    3    3  502    0  0.45615654125E+02  0.87088275650E+02 -0.98078073642E+02  0.13893140965E+03  0.41800000000E+01 0. -1.
         -5    1    3    3    0  502  0.26648107248E+01 -0.30180683303E+02  0.89067152330E+01  0.31855562106E+02  0.41800000000E+01 0. -1.
        -11    1    1    2    0    0 -0.36728419027E+02 -0.31096259021E+02 -0.37273958574E+02  0.60871192506E+02  0.00000000000E+00 0.  1.
         11    1    1    2    0    0 -0.11552045822E+02 -0.25811333325E+02  0.50306370504E+02  0.57709666469E+02  0.00000000000E+00 0. -1.
</event>
<event>
 7    1  0.2878477E-009  0.1416428E+03  0.7561462E-02  0.1211135E+00
          2   -1    0    0  501    0  0.00000000000E+00  0.00000000000E+00  0.64841204970E+03  0.64841204970E+03  0.00000000000E+00 0. -1.
         -2   -1    0    0    0  501 -0.00000000000E+00 -0.00000000000E+00 -0.34758885584E+02  0.34758885584E+02  0.00000000000E+00 0.  1.
         25    2    1    2    0    0 -0.12845288301E+02 -0.93240735917E+02  0.43426285850E+03  0.46161693620E+03  0.12508848570E+03 0.  0.
          5    1    3    3  502    0  0.48303562876E+02 -0.79268195959E+02  0.28090582183E+03  0.29587536939E+03  0.41800000000E+01 0.  1.
         -5    1    3    3    0  502 -0.61148851176E+02 -0.13972539958E+02  0.15335703667E+03  0.16574156681E+03  0.41800000000E+01 0.  1.
        -11    1    1    2    0    0  0.41330888924E+02  0.14555893077E+02  0.83382538076E+02  0.94195350514E+02  0.00000000000E+00 0. -1.
         11    1    1    2    0    0 -0.28485600624E+02  0.78684842840E+02  0.96007767544E+02  0.12735864857E+03  0.00000000000E+00 0.  1.
</event>
<event>
 7    1  0.2878477E-009  0.1057757E+03  0.7561462E-02  0.1268599E+00
          1   -1    0    0  501    0  0.00000000000E+00  0.00000000000E+00  0.13167638805E+03  0.13167638805E+03  0.00000000000E+00 0. -1.
         -1   -1    0    0    0  501 -0.00000000000E+00 -0.00000000000E+00 -0.14186341042E+03  0.14186341042E+03  0.00000000000E+00 0.  1.
         25    2    1    2    0    0 -0.25369327856E+02  0.20191203732E+02  0.70685273008E+02  0.14729237117E+03  0.12508935718E+03 0.  0.
          5    1    3    3  502    0  0.46372310110E+02  0.27525170741E+02  0.45847962592E+02  0.70905107313E+02  0.41800000000E+01 0.  1.
         -5    1    3    3    0  502 -0.71741637966E+02 -0.73339670092E+01  0.24837310416E+02  0.76387263853E+02  0.41800000000E+01 0.  1.
        -11    1    1    2    0    0 -0.18412203851E+01 -0.46995563160E+02 -0.13719012149E+02  0.48991676268E+02  0.00000000000E+00 0.  1.
         11    1    1    2    0    0  0.27210548241E+02  0.26804359428E+02 -0.67153283228E+02  0.77255751037E+02  0.00000000000E+00 0. -1.
</event>
<event>
 7    1  0.2878477E-009  0.1539947E+03  0.7561462E-02  0.1195649E+00
          1   -1    0    0  501    0  0.00000000000E+00  0.00000000000E+00  0.21336297454E+03  0.21336297454E+03  0.00000000000E+00 0. -1.
         -1   -1    0    0    0  501 -0.00000000000E+00 -0.00000000000E+00 -0.12449938581E+03  0.12449938581E+03  0.00000000000E+00 0.  1.
         25    2    1    2    0    0 -0.88657823518E+01  0.10878181046E+03 -0.73524098472E+01  0.16617241149E+03  0.12508848078E+03 0.  0.
          5    1    3    3  502    0  0.18886700459E+02  0.12957523146E+03 -0.38430175352E+01  0.13106749882E+03  0.41800000000E+01 0.  1.
         -5    1    3    3    0  502 -0.27752482811E+02 -0.20793421000E+02 -0.35093923120E+01  0.35104912668E+02  0.41800000000E+01 0.  1.
        -11    1    1    2    0    0  0.50062166164E+02 -0.62795950132E+02  0.50507504088E+02  0.94871280181E+02  0.00000000000E+00 0. -1.
         11    1    1    2    0    0 -0.41196383812E+02 -0.45985860332E+02  0.45708494491E+02  0.76818668683E+02  0.00000000000E+00 0.  1.
</event>
<event>
 7    1  0.2878477E-009  0.8440032E+02  0.7561462E-02  0.1317008E+00
          2   -1    0    0  501    0  0.00000000000E+00  0.00000000000E+00  0.31731163428E+03  0.31731163428E+03  0.00000000000E+00 0. -1.
         -2   -1    0    0    0  501 -0.00000000000E+00 -0.00000000000E+00 -0.57650292862E+02  0.57650292862E+02  0.00000000000E+00 0.  1.
         25    2    1    2    0    0 -0.21021326703E+02  0.40204103491E+02  0.23910062447E+03  0.27363604086E+03  0.12509719472E+03 0.  0.
          5    1    3    3  502    0  0.18253360960E+02  0.39460349428E+02  0.22863501136E+03  0.23276972565E+03  0.41800000000E+01 0. -1.
         -5    1    3    3    0  502 -0.39274687663E+02  0.74375406249E+00  0.10465613110E+02  0.40866315211E+02  0.41800000000E+01 0. -1.
        -11    1    1    2    0    0 -0.22031039037E+02 -0.36205138989E+02  0.35803195820E+02  0.55480155021E+02  0.00000000000E+00 0. -1.
         11    1    1    2    0    0  0.43052365740E+02 -0.39989645018E+01 -0.15242478864E+02  0.45845731260E+02  0.00000000000E+00 0.  1.
</event>
<event>
 7    1  0.2878477E-009  0.1185208E+03  0.7561462E-02  0.1245557E+00
         -2   -1    0    0    0  501 -0.00000000000E+00  0.00000000000E+00  0.11086133784E+03  0.11086133784E+03  0.00000000000E+00 0.  1.
          2   -1    0    0  501    0  0.00000000000E+00 -0.00000000000E+00 -0.17985952574E+03  0.17985952574E+03  0.00000000000E+00 0. -1.
         25    2    1    2    0    0 -0.74370991779E+02  0.49157293455E+02 -0.28438257816E+02  0.15621600443E+03  0.12508885487E+03 0.  0.
          5    1    3    3  502    0 -0.91312474962E+02  0.72252462525E+02 -0.42513523952E+02  0.12402926487E+03  0.41800000000E+01 0.  1.
         -5    1    3    3    0  502  0.16941483183E+02 -0.23095169070E+02  0.14075266136E+02  0.32186739562E+02  0.41800000000E+01 0.  1.
        -11    1    1    2    0    0  0.37484089469E+02 -0.12339356667E+02 -0.65700176448E+02  0.76640915128E+02  0.00000000000E+00 0. -1.
         11    1    1    2    0    0  0.36886902309E+02 -0.36817936788E+02  0.25140246360E+02  0.57863944026E+02  0.00000000000E+00 0.  1.
</event>
<event>
 7    1  0.2878477E-009  0.1020141E+03  0.7561462E-02  0.1276117E+00
          2   -1    0    0  501    0  0.00000000000E+00  0.00000000000E+00  0.12430234605E+03  0.12430234605E+03  0.00000000000E+00 0.  1.
         -2   -1    0    0    0  501 -0.00000000000E+00 -0.00000000000E+00 -0.11280484257E+03  0.11280484257E+03  0.00000000000E+00 0. -1.
         25    2    1    2    0    0 -0.33555363737E+02 -0.18881770198E+02  0.39874163203E+02  0.13682310472E+03  0.12509248344E+03 0.  0.
          5    1    3    3  502    0  0.46125629610E+02 -0.46536415522E+01  0.11712635876E+00  0.46547998939E+02  0.41800000000E+01 0.  1.
         -5    1    3    3    0  502 -0.79680993346E+02 -0.14228128646E+02  0.39757036844E+02  0.90275105783E+02  0.41800000000E+01 0.  1.
        -11    1    1    2    0    0  0.48424747217E+02  0.30787090868E+02 -0.46601006261E+02  0.73921951352E+02  0.00000000000E+00 0. -1.
         11    1    1    2    0    0 -0.14869383480E+02 -0.11905320670E+02  0.18224346542E+02  0.26362132543E+02  0.00000000000E+00 0.  1.
</event>
<event>
 7    1  0.2878477E-009  0.1032981E+03  0.7561462E-02  0.1273510E+00
          2   -1    0    0  501    0  0.00000000000E+00  0.00000000000E+00  0.32878492769E+02  0.32878492769E+02  0.00000000000E+00 0. -1.
         -2   -1    0    0    0  501 -0.00000000000E+00 -0.00000000000E+00 -0.44760775634E+03  0.44760775634E+03  0.00000000000E+00 0.  1.
         25    2    1    2    0    0  0.34168421501E+02 -0.20387782185E+02 -0.16256665959E+03  0.20894265086E+03  0.12508385126E+03 0.  0.
          5    1    3    3  502    0  0.44218029715E+02 -0.68434315838E+02 -0.10924821840E+03  0.13634931375E+03  0.41800000000E+01 0.  1.
         -5    1    3    3    0  502 -0.10049608214E+02  0.48046533654E+02 -0.53318441194E+02  0.72593337110E+02  0.41800000000E+01 0.  1.
        -11    1    1    2    0    0 -0.15240788031E+02  0.43372965835E+02 -0.22967405065E+03  0.23422994114E+03  0.00000000000E+00 0.  1.
         11    1    1    2    0    0 -0.18927633470E+02 -0.22985183651E+02 -0.22488553332E+02  0.37313657114E+02  0.00000000000E+00 0. -1.
</event>
<event>
 7    1  0.2878477E-009  0.1061076E+03  0.7561462E-02  0.1267953E+00
          2   -1    0    0  501    0  0.00000000000E+00  0.00000000000E+00  0.21924047568E+04  0.21924047568E+04  0.00000000000E+00 0.  1.
         -2   -1    0    0    0  501 -0.00000000000E+00 -0.00000000000E+00 -0.84310289888E+01  0.84310289888E+01  0.00000000000E+00 0. -1.
         25    2    1    2    0    0  0.62533508174E+01 -0.52165384155E+02  0.17166876723E+04  0.17220406291E+04  0.12508809815E+03 0.  0.
          5    1    3    3  502    0 -0.44354681822E+02 -0.30035089037E+02  0.33828777760E+03  0.34252815541E+03  0.41800000000E+01 0. -1.
         -5    1    3    3    0  502  0.50608032640E+02 -0.22130295118E+02  0.13783998947E+04  0.13795124737E+04  0.41800000000E+01 0. -1.
        -11    1    1    2    0    0  0.41274588086E+01  0.76512809138E+02  0.37706851416E+03  0.38477514246E+03  0.00000000000E+00 0.  1.
         11    1    1    2    0    0 -0.10380809626E+02 -0.24347424983E+02  0.90217541320E+02  0.94020014218E+02  0.00000000000E+00 0. -1.
</event>
<event>
 7    1  0.2878477E-009  0.1135537E+03  0.7561462E-02  0.1254127E+00
          1   -1    0    0  501    0  0.00000000000E+00  0.00000000000E+00  0.42519523403E+03  0.42519523403E+03  0.00000000000E+00 0. -1.
         -1   -1    0    0    0  501 -0.00000000000E+00 -0.00000000000E+00 -0.43238630446E+02  0.43238630446E+02  0.00000000000E+00 0.  1.
         25    2    1    2    0    0  0.46692418625E+01  0.71584558703E+02  0.18637569946E+03  0.23565044908E+03  0.12509629066E+03 0.  0.
          5    1    3    3  502    0 -0.39594424850E+02  0.39094460160E+02  0.16889787902E+03  0.17787653367E+03  0.41800000000E+01 0. -1.
         -5    1    3    3    0  502  0.44263666712E+02  0.32490098543E+02  0.17477820446E+02  0.57773915409E+02  0.41800000000E+01 0. -1.
        -11    1    1    2    0    0  0.31325932753E+02 -0.73804844864E+02  0.86723554115E+02  0.11810776446E+03  0.00000000000E+00 0.  1.
         11    1    1    2    0    0 -0.35995174616E+02  0.22202861612E+01  0.10885735001E+03  0.11467565093E+03  0.00000000000E+00 0. -1.
</event>
<event>
 7    1  0.2878477E-009  0.1454771E+03  0.7561462E-02  0.1206143E+00
          2   -1    0    0  501    0  0.00000000000E+00  0.00000000000E+00  0.11471256062E+03  0.11471256062E+03  0.00000000000E+00 0. -1.
         -2   -1    0    0    0  501 -0.00000000000E+00 -0.00000000000E+00 -0.23092808461E+03  0.23092808461E+03  0.00000000000E+00 0.  1.
         25    2    1    2    0    0 -0.10257047410E+03 -0.35416927354E+02 -0.24236308915E+01  0.16561432762E+03  0.12508865107E+03 0.  0.
          5    1    3    3  502    0 -0.29018077358E+02  0.38871356563E+02  0.28626697942E+02  0.56480008938E+02  0.41800000000E+01 0.  1.
         -5    1    3    3    0  502 -0.73552396739E+02 -0.74288283916E+02 -0.31050328833E+02  0.10913431868E+03  0.41800000000E+01 0.  1.
        -11    1    1    2    0    0 -0.50132937544E+01 -0.17175170091E+02 -0.58973041825E+01  0.18838730811E+02  0.00000000000E+00 0. -1.
         11    1    1    2    0    0  0.10758376785E+03  0.52592097445E+02 -0.10789458892E+03  0.16118758679E+03  0.00000000000E+00 0.  1.
</event>
<event>
 7    1  0.2878477E-009  0.9457727E+02  0.7561462E-02  0.1292131E+00
          1   -1    0    0  501    0  0.00000000000E+00  0.00000000000E+00  0.48258943919E+03  0.48258943919E+03  0.00000000000E+00 0. -1.
         -1   -1    0    0    0  501 -0.00000000000E+00 -0.00000000000E+00 -0.51240288118E+02  0.51240288118E+02  0.00000000000E+00 0.  1.
         25    2    1    2    0    0 -0.39139035441E+02 -0.33468245732E+02  0.39968105963E+03  0.42194278694E+03  0.12505510170E+03 0.  0.
          5    1    3    3  502    0 -0.54126605102E+02  0.22730940166E+01  0.36721247290E+03  0.37121062618E+03  0.41800000000E+01 0. -1.
         -5    1    3    3    0  502  0.14987569661E+02 -0.35741339749E+02  0.32468586726E+02  0.50732160760E+02  0.41800000000E+01 0. -1.
        -11    1    1    2    0    0  0.21527376486E+02 -0.26035372431E+02  0.36388164402E+02  0.49652462825E+02  0.00000000000E+00 0.  1.
         11    1    1    2    0    0  0.17611658955E+02  0.59503618164E+02 -0.47200729605E+01  0.62234477539E+02  0.00000000000E+00 0. -1.
</event>
<event>
 7    1  0.2878477E-009  0.8590486E+02  0.7561462E-02  0.1313083E+00
         -1   -1    0    0    0  501 -0.00000000000E+00  0.00000000000E+00  0.81997464698E+02  0.81997464698E+02  0.00000000000E+00 0.  1.
          1   -1    0    0  501    0  0.00000000000E+00 -0.00000000000E+00 -0.15074619494E+03  0.15074619494E+03  0.00000000000E+00 0. -1.
         25    2    1    2    0    0  0.16693651090E+02  0.83185930773E+01 -0.23812749664E+02  0.12869431442E+03  0.12508917834E+03 0.  0.
          5    1    3    3  502    0  0.10137505353E+02  0.43992228993E+02 -0.61379122505E+02  0.76308284648E+02  0.41800000000E+01 0. -1.
         -5    1    3    3    0  502  0.65561457376E+01 -0.35673635915E+02  0.37566372840E+02  0.52386029767E+02  0.41800000000E+01 0. -1.
        -11    1    1    2    0    0 -0.11380193967E+02 -0.48302448781E+02 -0.39341960780E+02  0.63327918416E+02  0.00000000000E+00 0. -1.
         11    1    1    2    0    0 -0.53134571236E+01  0.39983855704E+02 -0.55940197956E+01  0.40721426805E+02  0.00000000000E+00 0.  1.
</event>
<event>
 7    1  0.2878477E-009  0.1666353E+03  0.7561462E-02  0.1181403E+00
         -3   -1    0    0    0  501 -0.00000000000E+00  0.00000000000E+00  0.20082393243E+03  0.20082393243E+03  0.00000000000E+00 0.  1.
          3   -1    0    0  501    0  0.00000000000E+00 -0.00000000000E+00 -0.14932923000E+03  0.14932923000E+03  0.00000000000E+00 0. -1.
         25    2    1    2    0    0 -0.12666767144E+03 -0.32916742108E+02 -0.42104300292E+01  0.18108860256E+03  0.12508854208E+03 0.  0.
          5    1    3    3  502    0 -0.63728513543E+01 -0.57356205319E+02  0.39449742107E+01  0.57994678588E+02  0.41800000000E+01 0. -1.
         -5    1    3    3    0  502 -0.12029482009E+03  0.24439463211E+02 -0.81554042399E+01  0.12309392398E+03  0.41800000000E+01 0. -1.
        -11    1    1    2    0    0  0.85713997970E+02 -0.17653850380E+02  0.56171177227E+02  0.10398917748E+03  0.00000000000E+00 0.  1.
         11    1    1    2    0    0  0.40953673471E+02  0.50570592487E+02 -0.46604476371E+00  0.65075382388E+02  0.00000000000E+00 0. -1.
</event>
<event>
 7    1  0.2878477E-009  0.1928080E+03  0.7561462E-02  0.1155953E+00
          1   -1    0    0  501    0  0.00000000000E+00  0.00000000000E+00  0.77762332021E+03  0.77762332021E+03  0.00000000000E+00 0. -1.
         -1   -1    0    0    0  501 -0.00000000000E+00 -0.00000000000E+00 -0.57546105513E+02  0.57546105513E+02  0.00000000000E+00 0.  1.
         25    2    1    2    0    0  0.17907701611E+03 -0.46797448318E+01  0.32110661160E+03  0.38839128362E+03  0.12509138847E+03 0.  0.
          5    1    3    3  502    0  0.40640624031E+02  0.26193150544E+02  0.18683453523E+03  0.19303460159E+03  0.41800000000E+01 0.  1.
         -5    1    3    3    0  502  0.13843639208E+03 -0.30872895376E+02  0.13427207637E+03  0.19535668203E+03  0.41800000000E+01 0.  1.
        -11    1    1    2    0    0 -0.59776653113E+02 -0.35232310340E+02  0.93629769249E+02  0.11653796651E+03  0.00000000000E+00 0.  1.
         11    1    1    2    0    0 -0.11930036300E+03  0.39912055171E+02  0.30534083385E+03  0.33024017559E+03  0.00000000000E+00 0. -1.
</event>
<event>
 7    1  0.2878477E-009  0.1174960E+03  0.7561462E-02  0.1247286E+00
          2   -1    0    0  501    0  0.00000000000E+00  0.00000000000E+00  0.23062487292E+03  0.23062487292E+03  0.00000000000E+00 0. -1.
         -2   -1    0    0    0  501 -0.00000000000E+00 -0.00000000000E+00 -0.85751705742E+02  0.85751705742E+02  0.00000000000E+00 0.  1.
         25    2    1    2    0    0  0.38929536577E+02  0.25789841945E+02  0.16407078757E+03  0.21153698044E+03  0.12509215001E+03 0.  0.
          5    1    3    3  502    0  0.69368229093E+02 -0.24974663436E+02  0.98428182678E+02  0.12304984586E+03  0.41800000000E+01 0. -1.
         -5    1    3    3    0  502 -0.30438692516E+02  0.50764505381E+02  0.65642604892E+02  0.88487134577E+02  0.41800000000E+01 0. -1.
        -11    1    1    2    0    0  0.16942997178E+02  0.22357811995E+02 -0.12714537634E+02  0.30799291839E+02  0.00000000000E+00 0.  1.
         11    1    1    2    0    0 -0.55872533755E+02 -0.48147653941E+02 -0.64830827527E+01  0.74040306389E+02  0.00000000000E+00 0. -1.
</event>
<event>
 7    1  0.2878477E-009  0.1154655E+03  0.7561462E-02  0.1250771E+00
         -2   -1    0    0    0  501 -0.00000000000E+00  0.00000000000E+00  0.63992096650E+02  0.63992096650E+02  0.00000000000E+00 0. -1.
          2   -1    0    0  501    0  0.00000000000E+00 -0.00000000000E+00 -0.21810670911E+03  0.21810670911E+03  0.00000000000E+00 0.  1.
         25    2    1    2    0    0  0.44938939305E+02 -0.14270739375E+01 -0.10923341982E+03  0.17205121728E+03  0.12509251199E+03 0.  0.
          5    1    3    3  502    0 -0.41642147839E+02 -0.16300411029E+02 -0.39486676089E+02  0.59803359980E+02  0.41800000000E+01 0.  1.
         -5    1    3    3    0  502  0.86581087144E+02  0.14873337092E+02 -0.69746743728E+02  0.11224785730E+03  0.41800000000E+01 0.  1.
        -11    1    1    2    0    0  0.24156661875E+02  0.13879138457E+02 -0.23443520629E+01  0.27958375916E+02  0.00000000000E+00 0. -1.
         11    1    1    2    0    0 -0.69095601180E+02 -0.12452064519E+02 -0.42536840582E+02  0.82089212568E+02  0.00000000000E+00 0.  1.
</event>
<event>
 7    1  0.3640937E-009  0.1053459E+03  0.7561462E-02  0.1269440E+00
          1   -1    0    0  501    0  0.00000000000E+00  0.00000000000E+00  0.13087791371E+03  0.13087791371E+03  0.00000000000E+00 0. -1.
         -1   -1    0    0    0  501 -0.00000000000E+00 -0.00000000000E+00 -0.13139295927E+03  0.13139295927E+03  0.00000000000E+00 0.  1.
         25    2    1    2    0    0 -0.11455504376E+02  0.36993381436E+02 -0.62609346287E+02  0.14516111589E+03  0.12510827500E+03 0.  0.
          5    1    3    3  502    0  0.49946496196E+00  0.80015306123E+02 -0.18451402877E+02  0.82223022003E+02  0.41800000000E+01 0. -1.
         -5    1    3    3    0  502 -0.11954969338E+02 -0.43021924687E+02 -0.44157943411E+02  0.62938093885E+02  0.41800000000E+01 0. -1.
        -11    1    1    2    0    0  0.43002747473E+02 -0.32391970854E+02  0.81528554968E+01  0.54451309615E+02  0.00000000000E+00 0.  1.
         11    1    1    2    0    0 -0.31547243097E+02 -0.46014105822E+01  0.53941445231E+02  0.62658447475E+02  0.00000000000E+00 0. -1.
</event>
<event>
 7    1  0.2878477E-009  0.1302534E+03  0.7561462E-02  0.1227080E+00
         -1   -1    0    0    0  501 -0.00000000000E+00  0.00000000000E+00  0.18162030538E+03  0.18162030538E+03  0.00000000000E+00 0.  1.
          1   -1    0    0  501    0  0.00000000000E+00 -0.00000000000E+00 -0.17681415202E+03  0.17681415202E+03  0.00000000000E+00 0. -1.
         25    2    1    2    0    0 -0.10648554463E+03 -0.33776168132E+02  0.91046382369E+02  0.19085249253E+03  0.12512085922E+03 0.  0.
          5    1    3    3  502    0 -0.81141366813E+02 -0.53500933586E+02  0.11495774613E+03  0.15059557463E+03  0.41800000000E+01 0.  1.
         -5    1    3    3    0  502 -0.25344177815E+02  0.19724765455E+02 -0.23911363763E+02  0.40256917895E+02  0.41800000000E+01 0.  1.
        -11    1    1    2    0    0  0.73872914211E+02  0.54850413674E+02 -0.25476912661E+02  0.95471715251E+02  0.00000000000E+00 0.  1.
         11    1    1    2    0    0  0.32612630418E+02 -0.21074245543E+02 -0.60763316346E+02  0.72110249627E+02  0.00000000000E+00 0. -1.
</event>
<event>
 7    1  0.2878477E-009  0.1159268E+03  0.7561462E-02  0.1249972E+00
          2   -1    0    0  501    0  0.00000000000E+00  0.00000000000E+00  0.79457300470E+03  0.79457300470E+03  0.00000000000E+00 0. -1.
         -2   -1    0    0    0  501 -0.00000000000E+00 -0.00000000000E+00 -0.27416302137E+02  0.27416302137E+02  0.00000000000E+00 0.  1.
         25    2    1    2    0    0  0.82456852266E+02 -0.24468859487E+02  0.56149074692E+03  0.58164995204E+03  0.12508777022E+03 0.  0.
          5    1    3    3  502    0  0.47472378230E+02 -0.66045083337E+02  0.19798952656E+03  0.21408620870E+03  0.41800000000E+01 0. -1.
         -5    1    3    3    0  502  0.34984474036E+02  0.41576223850E+02  0.36350122037E+03  0.36756374335E+03  0.41800000000E+01 0. -1.
        -11    1    1    2    0    0 -0.52817135771E+02 -0.62980098430E+01  0.18572761148E+03  0.19319435920E+03  0.00000000000E+00 0. -1.
         11    1    1    2    0    0 -0.29639716495E+02  0.30766869329E+02  0.19938344157E+02  0.47144995598E+02  0.00000000000E+00 0.  1.
</event>
<event>
 7    1  0.2878477E-009  0.1046430E+03  0.7561462E-02  0.1270825E+00
          1   -1    0    0  501    0  0.00000000000E+00  0.00000000000E+00  0.12091859265E+03  0.12091859265E+03  0.00000000000E+00 0. -1.
         -1   -1    0    0    0  501 -0.00000000000E+00 -0.00000000000E+00 -0.10536197531E+03  0.10536197531E+03  0.00000000000E+00 0.  1.
         25    2    1    2    0    0 -0.14418502093E+02  0.15903445178E+02 -0.19236394775E+02  0.12836485346E+03  0.12508670573E+03 0.  0.
          5    1    3    3  502    0  0.48819621912E+02 -0.18182520501E+02  0.48308253008E+01  0.52485891518E+02  0.41800000000E+01 0.  1.
         -5    1    3    3    0  502 -0.63238124004E+02  0.34085965680E+02 -0.24067220076E+02  0.75878961946E+02  0.41800000000E+01 0.  1.
        -11    1    1    2    0    0  0.48990007053E+02 -0.91747836605E+01  0.37818977554E+02  0.62565745496E+02  0.00000000000E+00 0.  1.
         11    1    1    2    0    0 -0.34571504960E+02 -0.67286615177E+01 -0.30259654438E+01  0.35349968995E+02  0.00000000000E+00 0. -1.
</event>
<event>
 7    1  0.2878477E-009  0.6855720E+02  0.7561462E-02  0.1365069E+00
          1   -1    0    0  501    0  0.00000000000E+00  0.00000000000E+00  0.23268152420E+03  0.23268152420E+03  0.00000000000E+00 0. -1.
         -1   -1    0    0    0  501 -0.00000000000E+00 -0.00000000000E+00 -0.66594457946E+02  0.66594457946E+02  0.00000000000E+00 0.  1.
         25    2    1    2    0    0  0.40222886860E+02  0.19425359870E+02  0.63308348411E+02  0.14714208997E+03  0.12509045698E+03 0.  0.
          5    1    3    3  502    0  0.30712449336E+02  0.47434511152E+02  0.90480793537E+02  0.10675923282E+03  0.41800000000E+01 0.  1.
         -5    1    3    3    0  502  0.95104375236E+01 -0.28009151281E+02 -0.27172445126E+02  0.40382857149E+02  0.41800000000E+01 0.  1.
        -11    1    1    2    0    0 -0.37928071970E+01 -0.13054420471E+02 -0.19844935544E+02  0.24054620076E+02  0.00000000000E+00 0.  1.
         11    1    1    2    0    0 -0.36430079663E+02 -0.63709393993E+01  0.12262365339E+03  0.12807927211E+03  0.00000000000E+00 0. -1.
</event>
<event>
 7    1  0.2878477E-009  0.9757546E+02  0.7561462E-02  0.1285479E+00
         -4   -1    0    0    0  501 -0.00000000000E+00  0.00000000000E+00  0.30786371669E+03  0.30786371669E+03  0.00000000000E+00 0.  1.
          4   -1    0    0  501    0  0.00000000000E+00 -0.00000000000E+00 -0.63697650177E+02  0.63697650177E+02  0.00000000000E+00 0. -1.
         25    2    1    2    0    0  0.51811350165E+01  0.31123276296E+02  0.25061653765E+02  0.13141694060E+03  0.12508726274E+03 0.  0.
          5    1    3    3  502    0  0.98788416045E+01  0.72919928115E+02  0.43189342407E+02  0.85426571542E+02  0.41800000000E+01 0.  1.
         -5    1    3    3    0  502 -0.46977065880E+01 -0.41796651819E+02 -0.18127688642E+02  0.45990369057E+02  0.41800000000E+01 0.  1.
        -11    1    1    2    0    0  0.33189657896E+02 -0.72004209574E+01  0.28761069193E+02  0.44503916169E+02  0.00000000000E+00 0. -1.
         11    1    1    2    0    0 -0.38370792912E+02 -0.23922855339E+02  0.19034334355E+03  0.19564051010E+03  0.00000000000E+00 0.  1.
</event>
<event>
 7    1  0.2878477E-009  0.9618738E+02  0.7561462E-02  0.1288524E+00
         -2   -1    0    0    0  501 -0.00000000000E+00  0.00000000000E+00  0.37585211136E+02  0.37585211136E+02  0.00000000000E+00 0.  1.
          2   -1    0    0  501    0  0.00000000000E+00 -0.00000000000E+00 -0.49486509049E+03  0.49486509049E+03  0.00000000000E+00 0. -1.
         25    2    1    2    0    0  0.31726006912E+02 -0.25007234746E+02 -0.39420997565E+03  0.41554884428E+03  0.12508971091E+03 0.  0.
          5    1    3    3  502    0  0.51139624198E+01 -0.58771756996E+02 -0.34516446139E+03  0.35019458854E+03  0.41800000000E+01 0. -1.
         -5    1    3    3    0  502  0.26612044492E+02  0.33764522251E+02 -0.49045514257E+02  0.65354255742E+02  0.41800000000E+01 0. -1.
        -11    1    1    2    0    0 -0.58988094770E+02  0.13917100335E+02 -0.18274831625E+02  0.63302847308E+02  0.00000000000E+00 0.  1.
         11    1    1    2    0    0  0.27262087858E+02  0.11090134411E+02 -0.44795072084E+02  0.53598610044E+02  0.00000000000E+00 0. -1.
</event>
<event>
 7    1  0.2878477E-009  0.1513921E+03  0.7561462E-02  0.1198773E+00
         -2   -1    0    0    0  501 -0.00000000000E+00  0.00000000000E+00  0.73183446449E+02  0.73183446449E+02  0.00000000000E+00 0.  1.
          2   -1    0    0  501    0  0.00000000000E+00 -0.00000000000E+00 -0.34257197394E+03  0.34257197394E+03  0.00000000000E+00 0. -1.
         25    2    1    2    0    0 -0.94418746215E+01 -0.10868871688E+03 -0.95618913453E+02  0.19155446396E+03  0.12509096642E+03 0.  0.
          5    1    3    3  502    0  0.42501957163E+02  0.13927261421E+01 -0.14093020184E+02  0.44993795869E+02  0.41800000000E+01 0.  1.
         -5    1    3    3    0  502 -0.51943831784E+02 -0.11008144302E+03 -0.81525893270E+02  0.14656066809E+03  0.41800000000E+01 0.  1.
        -11    1    1    2    0    0  0.41161194107E+02  0.23586502213E+02 -0.84185360329E+02  0.96631992014E+02  0.00000000000E+00 0. -1.
         11    1    1    2    0    0 -0.31719319486E+02  0.85102214666E+02 -0.89584253712E+02  0.12756896442E+03  0.00000000000E+00 0.  1.
</event>
<event>
 7    1  0.2878477E-009  0.1926647E+03  0.7561462E-02  0.1156080E+00
          1   -1    0    0  501    0  0.00000000000E+00  0.00000000000E+00  0.26727441889E+03  0.26727441889E+03  0.00000000000E+00 0. -1.
         -1   -1    0    0    0  501 -0.00000000000E+00 -0.00000000000E+00 -0.17854128010E+03  0.17854128010E+03  0.00000000000E+00 0.  1.
         25    2    1    2    0    0  0.17307357796E+03 -0.50529839913E+02  0.95757972287E+02  0.23942495763E+03  0.12508794095E+03 0.  0.
          5    1    3    3  502    0  0.45244925583E+02 -0.38821619185E+01  0.92634124062E+02  0.10325080054E+03  0.41800000000E+01 0. -1.
         -5    1    3    3    0  502  0.12782865238E+03 -0.46647677994E+02  0.31238482244E+01  0.13617415709E+03  0.41800000000E+01 0. -1.
        -11    1    1    2    0    0 -0.17145632537E+02  0.44337306683E+02  0.12420900718E+02  0.49132965040E+02  0.00000000000E+00 0.  1.
         11    1    1    2    0    0 -0.15592794542E+03  0.61925332299E+01 -0.19445734224E+02  0.15725777632E+03  0.00000000000E+00 0. -1.
</event>
<event>
 7    1  0.2878477E-009  0.9815726E+02  0.7561462E-02  0.1284219E+00
          1   -1    0    0  501    0  0.00000000000E+00  0.00000000000E+00  0.34849917708E+03  0.34849917708E+03  0.00000000000E+00 0. -1.
         -1   -1    0    0    0  501 -0.00000000000E+00 -0.00000000000E+00 -0.38271449540E+02  0.38271449540E+02  0.00000000000E+00 0.  1.
         25    2    1    2    0    0  0.27669316804E+02 -0.93659786373E+00  0.12918466004E+03  0.18196065321E+03  0.12511808269E+03 0.  0.
          5    1    3    3  502    0  0.56284321611E+02  0.31618437574E+02  0.25560245725E+02  0.69558960712E+02  0.41800000000E+01 0.  1.
         -5    1    3    3    0  502 -0.28615004807E+02 -0.32555035438E+02  0.10362441432E+03  0.11240169249E+03  0.41800000000E+01 0.  1.
        -11    1    1    2    0    0 -0.41001726170E+02 -0.32345542615E+02  0.65150854897E+02  0.83498560286E+02  0.00000000000E+00 0.  1.
         11    1    1    2    0    0  0.13332409366E+02  0.33282140479E+02  0.11589221259E+03  0.12131141313E+03  0.00000000000E+00 0. -1.
</event>
<event>
 7    1  0.2878477E-009  0.1574162E+03  0.7561462E-02  0.1191645E+00
         -1   -1    0    0    0  501 -0.00000000000E+00  0.00000000000E+00  0.14261342516E+03  0.14261342516E+03  0.00000000000E+00 0.  1.
          1   -1    0    0  501    0  0.00000000000E+00 -0.00000000000E+00 -0.25612702619E+03  0.25612702619E+03  0.00000000000E+00 0. -1.
         25    2    1    2    0    0 -0.50874408164E+02 -0.11542717704E+03 -0.15677223977E+03  0.23693079847E+03  0.12508808696E+03 0.  0.
          5    1    3    3  502    0 -0.22126035449E+02 -0.13412774413E+03 -0.94159641352E+02  0.16541863151E+03  0.41800000000E+01 0. -1.
         -5    1    3    3    0  502 -0.28748372716E+02  0.18700567098E+02 -0.62612598414E+02  0.71512166963E+02  0.41800000000E+01 0. -1.
        -11    1    1    2    0    0  0.67995620366E+02  0.10168431438E+03  0.11038675221E+02  0.12282083101E+03  0.00000000000E+00 0. -1.
         11    1    1    2    0    0 -0.17121212202E+02  0.13742862657E+02  0.32219963521E+02  0.38988821867E+02  0.00000000000E+00 0.  1.
</event>
<event>
 7    1  0.2878477E-009  0.1041353E+03  0.7561462E-02  0.1271833E+00
         -2   -1    0    0    0  501 -0.00000000000E+00  0.00000000000E+00  0.24093146507E+02  0.24093146507E+02  0.00000000000E+00 0.  1.
          2   -1    0    0  501    0  0.00000000000E+00 -0.00000000000E+00 -0.74222278513E+03  0.74222278513E+03  0.00000000000E+00 0. -1.
         25    2    1    2    0    0  0.73652678713E+02 -0.17249103923E+02 -0.44463560435E+03  0.46804924533E+03  0.12508807589E+03 0.  0.
          5    1    3    3  502    0  0.47146602736E+02  0.43338082712E+02 -0.32512113160E+03  0.33139434844E+03  0.41800000000E+01 0.  1.
         -5    1    3    3    0  502  0.26506075978E+02 -0.60587186634E+02 -0.11951447275E+03  0.13665489689E+03  0.41800000000E+01 0.  1.
        -11    1    1    2    0    0 -0.17305019943E+02  0.12373333922E+02 -0.24842291055E+01  0.21418088192E+02  0.00000000000E+00 0.  1.
         11    1    1    2    0    0 -0.56347658771E+02  0.48757700008E+01 -0.27100980517E+03  0.27684859812E+03  0.00000000000E+00 0. -1.
</event>
<event>
 7    1  0.2878477E-009  0.2307470E+03  0.7561462E-02  0.1126115E+00
          1   -1    0    0  501    0  0.00000000000E+00  0.00000000000E+00  0.12473588350E+04  0.12473588350E+04  0.00000000000E+00 0. -1.
         -1   -1    0    0    0  501 -0.00000000000E+00 -0.00000000000E+00 -0.62424353477E+02  0.62424353477E+02  0.00000000000E+00 0.  1.
         25    2    1    2    0    0  0.19805454142E+03 -0.11699418519E+03  0.87110366538E+03  0.90960464389E+03  0.12508305881E+03 0.  0.
          5    1    3    3  502    0  0.11181237461E+03 -0.72812433388E+02  0.27531678656E+03  0.30597461158E+03  0.41800000000E+01 0.  1.
         -5    1    3    3    0  502  0.86242166812E+02 -0.44181751803E+02  0.59578687882E+03  0.60363003230E+03  0.41800000000E+01 0.  1.
        -11    1    1    2    0    0 -0.26602261145E+02  0.77461283329E+01  0.10554767315E+03  0.10912375593E+03  0.00000000000E+00 0. -1.
         11    1    1    2    0    0 -0.17145228028E+03  0.10924805686E+03  0.20828314298E+03  0.29105478864E+03  0.00000000000E+00 0.  1.
</event>
<event>
 7    1  0.2878477E-009  0.2671658E+03  0.7561462E-02  0.1102913E+00
          2   -1    0    0  501    0  0.00000000000E+00  0.00000000000E+00  0.11047742123E+04  0.11047742123E+04  0.00000000000E+00 0. -1.
         -2   -1    0    0    0  501 -0.00000000000E+00 -0.00000000000E+00 -0.88335587787E+02  0.88335587787E+02  0.00000000000E+00 0.  1.
         25    2    1    2    0    0  0.13108374625E+02 -0.25369584927E+03  0.79766210560E+03  0.84643119861E+03  0.12509007092E+03 0.  0.
          5    1    3    3  502    0  0.51508635180E+02 -0.56276043777E+02  0.30173284655E+03  0.31125602916E+03  0.41800000000E+01 0.  1.
         -5    1    3    3    0  502 -0.38400260555E+02 -0.19741980549E+03  0.49592925905E+03  0.53517516944E+03  0.41800000000E+01 0.  1.
        -11    1    1    2    0    0  0.12767891599E+02  0.11196436627E+03  0.46008072969E+02  0.12172009345E+03  0.00000000000E+00 0.  1.
         11    1    1    2    0    0 -0.25876266224E+02  0.14173148300E+03  0.17276844598E+03  0.22495850807E+03  0.00000000000E+00 0. -1.
</event>
<event>
 7    1  0.2878477E-009  0.1724005E+03  0.7561462E-02  0.1175367E+00
         -1   -1    0    0    0  501 -0.00000000000E+00  0.00000000000E+00  0.64401602985E+02  0.64401602985E+02  0.00000000000E+00 0.  1.
          1   -1    0    0  501    0  0.00000000000E+00 -0.00000000000E+00 -0.51488901232E+03  0.51488901232E+03  0.00000000000E+00 0. -1.
         25    2    1    2    0    0 -0.10300966846E+03  0.89521465002E+02 -0.20315239076E+03  0.27485346813E+03  0.12509376715E+03 0.  0.
          5    1    3    3  502    0  0.23495926064E+01 -0.17452697917E+02 -0.75787047254E+02  0.77918330202E+02  0.41800000000E+01 0. -1.
         -5    1    3    3    0  502 -0.10535926107E+03  0.10697416292E+03 -0.12736534351E+03  0.19693513793E+03  0.41800000000E+01 0. -1.
        -11    1    1    2    0    0 -0.24543237176E+02 -0.15276281069E+02 -0.29415300542E+02  0.41243122583E+02  0.00000000000E+00 0.  1.
         11    1    1    2    0    0  0.12755290564E+03 -0.74245183933E+02 -0.21791971803E+03  0.26319402459E+03  0.00000000000E+00 0. -1.
</event>
<event>
 7    1  0.2878477E-009  0.1050401E+03  0.7561462E-02  0.1270041E+00
         -1   -1    0    0    0  501 -0.00000000000E+00  0.00000000000E+00  0.23307394245E+03  0.23307394245E+03  0.00000000000E+00 0.  1.
          1   -1    0    0  501    0  0.00000000000E+00 -0.00000000000E+00 -0.11982939236E+03  0.11982939236E+03  0.00000000000E+00 0. -1.
         25    2    1    2    0    0 -0.15913045838E+02  0.84058790112E+02  0.15866657440E+03  0.21941322652E+03  0.12509187392E+03 0.  0.
          5    1    3    3  502    0  0.22140591648E+02  0.94428902552E+01  0.12769883497E+03  0.13001476388E+03  0.41800000000E+01 0. -1.
         -5    1    3    3    0  502 -0.38053637486E+02  0.74615899857E+02  0.30967739428E+02  0.89398462642E+02  0.41800000000E+01 0. -1.
        -11    1    1    2    0    0  0.26970306766E+02 -0.13122311818E+02  0.20251721446E+02  0.36190119315E+02  0.00000000000E+00 0.  1.
         11    1    1    2    0    0 -0.11057260928E+02 -0.70936478294E+02 -0.65673745760E+02  0.97299988973E+02  0.00000000000E+00 0. -1.
</event>
<event>
 7    1  0.2878477E-009  0.1741707E+03  0.7561462E-02  0.1173567E+00
          2   -1    0    0  501    0  0.00000000000E+00  0.00000000000E+00  0.82578797040E+03  0.82578797040E+03  0.00000000000E+00 0. -1.
         -2   -1    0    0    0  501 -0.00000000000E+00 -0.00000000000E+00 -0.40358952900E+02  0.40358952900E+02  0.00000000000E+00 0.  1.
         25    2    1    2    0    0  0.46449926975E+02 -0.13769314335E+03  0.45297298039E+03  0.49188174789E+03  0.12508451343E+03 0.  0.
          5    1    3    3  502    0  0.78706925983E+02 -0.86423665833E+02  0.37641569256E+03  0.39417011076E+03  0.41800000000E+01 0.  1.
         -5    1    3    3    0  502 -0.32256999008E+02 -0.51269477515E+02  0.76557287832E+02  0.97711637126E+02  0.41800000000E+01 0.  1.
        -11    1    1    2    0    0 -0.29370199450E+02  0.14788136144E+03  0.30640919850E+03  0.34149392762E+03  0.00000000000E+00 0.  1.
         11    1    1    2    0    0 -0.17079727525E+02 -0.10188218091E+02  0.26046838610E+02  0.32771247791E+02  0.00000000000E+00 0. -1.
</event>
<event>
 7    1  0.2878477E-009  0.9507114E+02  0.7561462E-02  0.1291016E+00
          3   -1    0    0  501    0  0.00000000000E+00  0.00000000000E+00  0.15695571241E+02  0.15695571241E+02  0.00000000000E+00 0. -1.
         -3   -1    0    0    0  501 -0.00000000000E+00 -0.00000000000E+00 -0.10732572068E+04  0.10732572068E+04  0.00000000000E+00 0.  1.
         25    2    1    2    0    0  0.17520780043E+02  0.19254189982E+02 -0.85467971373E+03  0.86417741263E+03  0.12508991114E+03 0.  0.
          5    1    3    3  502    0  0.18114739670E+02 -0.46524928700E+02 -0.19968460115E+03  0.20587405160E+03  0.41800000000E+01 0. -1.
         -5    1    3    3    0  502 -0.59395962766E+00  0.65779118682E+02 -0.65499511258E+03  0.65830336103E+03  0.41800000000E+01 0. -1.
        -11    1    1    2    0    0 -0.37960729456E+02  0.92302177062E+01 -0.17683601701E+03  0.18109994702E+03  0.00000000000E+00 0.  1.
         11    1    1    2    0    0  0.20439949413E+02 -0.28484407688E+02 -0.26045904808E+02  0.43675418380E+02  0.00000000000E+00 0. -1.
</event>
<event>
 7    1  0.2878477E-009  0.1114784E+03  0.7561462E-02  0.1257856E+00
         -2   -1    0    0    0  501 -0.00000000000E+00  0.00000000000E+00  0.20670247825E+02  0.20670247825E+02  0.00000000000E+00 0. -1.
          2   -1    0    0  501    0  0.00000000000E+00 -0.00000000000E+00 -0.72103085320E+03  0.72103085320E+03  0.00000000000E+00 0.  1.
         25    2    1    2    0    0  0.60877329548E+02 -0.14598331077E+02 -0.43670379098E+03  0.45855932698E+03  0.12508914734E+03 0.  0.
          5    1    3    3  502    0 -0.25192655236E+02 -0.32835348281E+02 -0.23216066266E+03  0.23585774454E+03  0.41800000000E+01 0. -1.
         -5    1    3    3    0  502  0.86069984784E+02  0.18237017204E+02 -0.20454312832E+03  0.22270158244E+03  0.41800000000E+01 0. -1.
        -11    1    1    2    0    0  0.84785099387E+00  0.29717696050E+02 -0.15006436455E+03  0.15298095901E+03  0.00000000000E+00 0.  1.
         11    1    1    2    0    0 -0.61725180542E+02 -0.15119364973E+02 -0.11359244984E+03  0.13016081504E+03  0.00000000000E+00 0. -1.
</event>
<event>
 7    1  0.2878477E-009  0.1124683E+03  0.7561462E-02  0.1256066E+00
         -2   -1    0    0    0  501 -0.00000000000E+00  0.00000000000E+00  0.64315491884E+02  0.64315491884E+02  0.00000000000E+00 0.  1.
          2   -1    0    0  501    0  0.00000000000E+00 -0.00000000000E+00 -0.31814398662E+03  0.31814398662E+03  0.00000000000E+00 0. -1.
         25    2    1    2    0    0  0.75361424471E+01  0.92716941048E+02 -0.13982663868E+03  0.20939953174E+03  0.12507377985E+03 0.  0.
          5    1    3    3  502    0  0.30933255955E+02 -0.38708767313E+01 -0.95415808313E+02  0.10046640676E+03  0.41800000000E+01 0.  1.
         -5    1    3    3    0  502 -0.23397113508E+02  0.96587817779E+02 -0.44410830366E+02  0.10893312498E+03  0.41800000000E+01 0.  1.
        -11    1    1    2    0    0  0.32854667265E+01 -0.43373377997E+02  0.49959547042E+01  0.43783601655E+02  0.00000000000E+00 0.  1.
         11    1    1    2    0    0 -0.10821609174E+02 -0.49343563051E+02 -0.11899781076E+03  0.12927634511E+03  0.00000000000E+00 0. -1.
</event>
<event>
 7    1  0.2878477E-009  0.1821805E+03  0.7561462E-02  0.1165709E+00
          1   -1    0    0  501    0  0.00000000000E+00  0.00000000000E+00  0.91560074169E+03  0.91560074169E+03  0.00000000000E+00 0. -1.
         -1   -1    0    0    0  501 -0.00000000000E+00 -0.00000000000E+00 -0.58960387193E+02  0.58960387193E+02  0.00000000000E+00 0.  1.
         25    2    1    2    0    0  0.16340752932E+03  0.57250264155E+01  0.70197945973E+03  0.73154484215E+03  0.12509155699E+03 0.  0.
          5    1    3    3  502    0  0.56449774597E+02  0.36731189409E+02  0.10908573726E+03  0.12826896663E+03  0.41800000000E+01 0.  1.
         -5    1    3    3    0  502  0.10695775473E+03 -0.31006162994E+02  0.59289372247E+03  0.60327587552E+03  0.41800000000E+01 0.  1.
        -11    1    1    2    0    0 -0.62208415291E+02 -0.45118394926E+02  0.46905459339E+02  0.90031542303E+02  0.00000000000E+00 0.  1.
         11    1    1    2    0    0 -0.10119911403E+03  0.39393368510E+02  0.10775543544E+03  0.15298474444E+03  0.00000000000E+00 0. -1.
</event>
<event>
 7    1  0.2878477E-009  0.8093606E+02  0.7561462E-02  0.1326416E+00
         -2   -1    0    0    0  501 -0.00000000000E+00  0.00000000000E+00  0.90317624598E+02  0.90317624598E+02  0.00000000000E+00 0.  1.
          2   -1    0    0  501    0  0.00000000000E+00 -0.00000000000E+00 -0.14351063627E+03  0.14351063627E+03  0.00000000000E+00 0. -1.
         25    2    1    2    0    0 -0.75420549008E+01  0.17681781112E+02 -0.28705964284E+01  0.12658884085E+03  0.12508783445E+03 0.  0.
          5    1    3    3  502    0  0.26428036106E+02 -0.34566323036E+01  0.51982050104E+02  0.58566162008E+02  0.41800000000E+01 0. -1.
         -5    1    3    3    0  502 -0.33970091007E+02  0.21138413416E+02 -0.54852646532E+02  0.68022678838E+02  0.41800000000E+01 0. -1.
        -11    1    1    2    0    0 -0.36418871202E+02  0.15507332803E+02 -0.19631531724E+02  0.44183804591E+02  0.00000000000E+00 0.  1.
         11    1    1    2    0    0  0.43960926103E+02 -0.33189113915E+02 -0.30690883520E+02  0.63055615432E+02  0.00000000000E+00 0. -1.
</event>
<event>
 7    1  0.2878477E-009  0.8486529E+02  0.7561462E-02  0.1315785E+00
          2   -1    0    0  501    0  0.00000000000E+00  0.00000000000E+00  0.98661050189E+02  0.98661050189E+02  0.00000000000E+00 0. -1.
         -2   -1    0    0    0  501 -0.00000000000E+00 -0.00000000000E+00 -0.20997163394E+03  0.20997163394E+03  0.00000000000E+00 0.  1.
         25    2    1    2    0    0 -0.49266118867E+02 -0.89480200503E+00  0.18380700868E+02  0.13569442461E+03  0.12508867082E+03 0.  0.
          5    1    3    3  502    0  0.20161115105E+00 -0.23017334231E+02 -0.45898923073E+02  0.51517199666E+02  0.41800000000E+01 0. -1.
         -5    1    3    3    0  502 -0.49467730018E+02  0.22122532226E+02  0.64279623941E+02  0.84177224943E+02  0.41800000000E+01 0. -1.
        -11    1    1    2    0    0 -0.17949420780E+02 -0.14447474643E+02 -0.91015521811E+02  0.93886827832E+02  0.00000000000E+00 0.  1.
         11    1    1    2    0    0  0.67215539647E+02  0.15342276648E+02 -0.38675762807E+02  0.79051431685E+02  0.00000000000E+00 0. -1.
</event>
<event>
 7    1  0.2878477E-009  0.1247384E+03  0.7561462E-02  0.1235479E+00
         -1   -1    0    0    0  501 -0.00000000000E+00  0.00000000000E+00  0.52641470027E+03  0.52641470027E+03  0.00000000000E+00 0.  1.
          1   -1    0    0  501    0  0.00000000000E+00 -0.00000000000E+00 -0.35164988704E+02  0.35164988704E+02  0.00000000000E+00 0. -1.
         25    2    1    2    0    0 -0.52076960590E+01 -0.74095218803E+02  0.18286644224E+03  0.23367810729E+03  0.12509236820E+03 0.  0.
          5    1    3    3  502    0  0.10742218517E+02 -0.10567366369E+03  0.11231592814E+03  0.15464365028E+03  0.41800000000E+01 0.  1.
         -5    1    3    3    0  502 -0.15949914576E+02  0.31578444886E+02  0.70550514095E+02  0.79034457013E+02  0.41800000000E+01 0.  1.
        -11    1    1    2    0    0 -0.35830236875E+02  0.43547038333E+02  0.11829258341E+03  0.13104688364E+03  0.00000000000E+00 0. -1.
         11    1    1    2    0    0  0.41037932934E+02  0.30548180470E+02  0.19009068591E+03  0.19685469804E+03  0.00000000000E+00 0.  1.
</event>
<event>
 7    1  0.2878477E-009  0.1003547E+03  0.7561462E-02  0.1279552E+00
         -1   -1    0    0    0  501 -0.00000000000E+00  0.00000000000E+00  0.78220521305E+03  0.78220521305E+03  0.00000000000E+00 0.  1.
          1   -1    0    0  501    0  0.00000000000E+00 -0.00000000000E+00 -0.19273407062E+02  0.19273407062E+02  0.00000000000E+00 0. -1.
         25    2    1    2    0    0 -0.39794157906E+02  0.34056901865E+02  0.50553446732E+03  0.52340839202E+03  0.12509116521E+03 0.  0.
          5    1    3    3  502    0 -0.63736340946E+02 -0.10209824014E+02  0.41259952804E+03  0.41763908414E+03  0.41800000000E+01 0.  1.
         -5    1    3    3    0  502  0.23942183040E+02  0.44266725879E+02  0.92934939284E+02  0.10576930788E+03  0.41800000000E+01 0.  1.
        -11    1    1    2    0    0  0.54895690216E+02 -0.41377214073E+02  0.25077881844E+03  0.26003004908E+03  0.00000000000E+00 0.  1.
         11    1    1    2    0    0 -0.15101532311E+02  0.73203122075E+01  0.66185202322E+01  0.18040179018E+02  0.00000000000E+00 0. -1.
</event>
<event>
 7    1  0.2878477E-009  0.1038314E+03  0.7561462E-02  0.1272439E+00
          2   -1    0    0  501    0  0.00000000000E+00  0.00000000000E+00  0.85255906319E+02  0.85255906319E+02  0.00000000000E+00 0. -1.
         -2   -1    0    0    0  501 -0.00000000000E+00 -0.00000000000E+00 -0.17810273284E+03  0.17810273284E+03  0.00000000000E+00 0.  1.
         25    2    1    2    0    0 -0.44201070474E+01  0.49074495561E+02 -0.20413185594E+02  0.13598645271E+03  0.12509106169E+03 0.  0.
          5    1    3    3  502    0 -0.46463048055E+02  0.55154543031E+02 -0.46547558053E+02  0.85935941330E+02  0.41800000000E+01 0. -1.
         -5    1    3    3    0  502  0.42042941007E+02 -0.60800474702E+01  0.26134372460E+02  0.50050511382E+02  0.41800000000E+01 0. -1.
        -11    1    1    2    0    0  0.13015032902E+02 -0.69432373198E+02 -0.24810548535E+02  0.74871949674E+02  0.00000000000E+00 0. -1.
         11    1    1    2    0    0 -0.85949258542E+01  0.20357877637E+02 -0.47623092394E+02  0.52500236775E+02  0.00000000000E+00 0.  1.
</event>
<event>
 7    1  0.2878477E-009  0.8707912E+02  0.7561462E-02  0.1310083E+00
         -1   -1    0    0    0  501 -0.00000000000E+00  0.00000000000E+00  0.31360521720E+02  0.31360521720E+02  0.00000000000E+00 0.  1.
          1   -1    0    0  501    0  0.00000000000E+00 -0.00000000000E+00 -0.46504437504E+03  0.46504437504E+03  0.00000000000E+00 0. -1.
         25    2    1    2    0    0  0.67043074235E+01 -0.55513268446E+02 -0.19708845246E+03  0.24003783136E+03  0.12509049396E+03 0.  0.
          5    1    3    3  502    0  0.16162743176E+02  0.11845658578E+02  0.94505718602E+01  0.22546387795E+02  0.41800000000E+01 0.  1.
         -5    1    3    3    0  502 -0.94584357522E+01 -0.67358927024E+02 -0.20653902432E+03  0.21749144356E+03  0.41800000000E+01 0.  1.
        -11    1    1    2    0    0 -0.35875849246E+02  0.31956414866E+02 -0.65618011132E+02  0.81326578652E+02  0.00000000000E+00 0.  1.
         11    1    1    2    0    0  0.29171541822E+02  0.23556853579E+02 -0.17097738973E+03  0.17504048675E+03  0.00000000000E+00 0. -1.
</event>
<event>
 7    1  0.2878477E-009  0.1252400E+03  0.7561462E-02  0.1234695E+00
         -1   -1    0    0    0  501 -0.00000000000E+00  0.00000000000E+00  0.32015059244E+03  0.32015059244E+03  0.00000000000E+00 0.  1.
          1   -1    0    0  501    0  0.00000000000E+00 -0.00000000000E+00 -0.10161385881E+03  0.10161385881E+03  0.00000000000E+00 0. -1.
         25    2    1    2    0    0 -0.61001203565E+02  0.71720205831E+02  0.24021305527E+03  0.28673044860E+03  0.12508838263E+03 0.  0.
          5    1    3    3  502    0 -0.19746040791E+02 -0.12792573718E+02 -0.46951153118E+01  0.24353081469E+02  0.41800000000E+01 0.  1.
         -5    1    3    3    0  502 -0.41255162775E+02  0.84512779549E+02  0.24490817058E+03  0.26237736713E+03  0.41800000000E+01 0.  1.
        -11    1    1    2    0    0 -0.16509330940E+02 -0.48951975628E+02 -0.15854868597E+02  0.54039159728E+02  0.00000000000E+00 0. -1.
         11    1    1    2    0    0  0.77510534505E+02 -0.22768230204E+02 -0.58214530440E+01  0.80994842931E+02  0.00000000000E+00 0.  1.
</event>
<event>
 7    1  0.2878477E-009  0.1567281E+03  0.7561462E-02  0.1192441E+00
          1   -1    0    0  501    0  0.00000000000E+00  0.00000000000E+00  0.89851578306E+03  0.89851578306E+03  0.00000000000E+00 0. -1.
         -1   -1    0    0    0  501 -0.00000000000E+00 -0.00000000000E+00 -0.46180108622E+02  0.46180108622E+02  0.00000000000E+00 0.  1.
         25    2    1    2    0    0  0.69117977995E+02  0.12621156913E+03  0.66283087108E+03  0.68970812978E+03  0.12508351433E+03 0.  0.
          5    1    3    3  502    0  0.22094075498E+02  0.40699781786E+01  0.11953502843E+02  0.25788980684E+02  0.41800000000E+01 0. -1.
         -5    1    3    3    0  502  0.47023902497E+02  0.12214159095E+03  0.65087736824E+03  0.66391914909E+03  0.41800000000E+01 0. -1.
        -11    1    1    2    0    0 -0.85272061932E+01  0.84421124764E+01 -0.30061613099E+01  0.12370105672E+02  0.00000000000E+00 0.  1.
         11    1    1    2    0    0 -0.60590771802E+02 -0.13465368161E+03  0.19251096466E+03  0.24261765623E+03  0.00000000000E+00 0. -1.
</event>
<event>
 7    1  0.2878477E-009  0.1105314E+03  0.7561462E-02  0.1259589E+00
          1   -1    0    0  501    0  0.00000000000E+00  0.00000000000E+00  0.77190333928E+03  0.77190333928E+03  0.00000000000E+00 0. -1.
         -1   -1    0    0    0  501 -0.00000000000E+00 -0.00000000000E+00 -0.18433028089E+02  0.18433028089E+02  0.00000000000E+00 0.  1.
         25    2    1    2    0    0 -0.30647834936E+02  0.31031016374E+02  0.53310261931E+03  0.54931605534E+03  0.12509001626E+03 0.  0.
          5    1    3    3  502    0 -0.37722623012E+01 -0.45693870629E+02  0.27036422701E+03  0.27425617117E+03  0.41800000000E+01 0.  1.
         -5    1    3    3    0  502 -0.26875572635E+02  0.76724887002E+02  0.26273839230E+03  0.27505988417E+03  0.41800000000E+01 0.  1.
        -11    1    1    2    0    0 -0.10120056506E+02 -0.48297613094E+02  0.81595155077E+02  0.95356406740E+02  0.00000000000E+00 0.  1.
         11    1    1    2    0    0  0.40767891443E+02  0.17266596720E+02  0.13877253680E+03  0.14566390529E+03  0.00000000000E+00 0. -1.
</event>
<event>
 7    1  0.2878477E-009  0.1847525E+03  0.7561462E-02  0.1163281E+00
         -2   -1    0    0    0  501 -0.00000000000E+00  0.00000000000E+00  0.18444058979E+03  0.18444058979E+03  0.00000000000E+00 0. -1.
          2   -1    0    0  501    0  0.00000000000E+00 -0.00000000000E+00 -0.44648509345E+03  0.44648509345E+03  0.00000000000E+00 0.  1.
         25    2    1    2    0    0  0.14232256882E+03  0.80606901027E+02 -0.36365663491E+03  0.41790744752E+03  0.12508917015E+03 0.  0.
          5    1    3    3  502    0  0.13270258954E+03  0.10984976745E+03 -0.28128802150E+03  0.32987478249E+03  0.41800000000E+01 0. -1.
         -5    1    3    3    0  502  0.96199792803E+01 -0.29242866424E+02 -0.82368613413E+02  0.88032665037E+02  0.41800000000E+01 0. -1.
        -11    1    1    2    0    0 -0.16155525531E+02  0.44013143982E+00  0.52954379959E+02  0.55365703081E+02  0.00000000000E+00 0. -1.
         11    1    1    2    0    0 -0.12616704329E+03 -0.81047032467E+02  0.48657751300E+02  0.15765253264E+03  0.00000000000E+00 0.  1.
</event>
<event>
 7    1  0.2878477E-009  0.1319666E+03  0.7561462E-02  0.1224566E+00
          2   -1    0    0  501    0  0.00000000000E+00  0.00000000000E+00  0.75428956381E+03  0.75428956381E+03  0.00000000000E+00 0. -1.
         -2   -1    0    0    0  501 -0.00000000000E+00 -0.00000000000E+00 -0.28040072799E+02  0.28040072799E+02  0.00000000000E+00 0.  1.
         25    2    1    2    0    0 -0.58959464493E+02 -0.60005172539E+02  0.52333078099E+03  0.54460830022E+03  0.12508499174E+03 0.  0.
          5    1    3    3  502    0 -0.86647841648E+02 -0.71024794300E+02  0.32020343868E+03  0.33926403348E+03  0.41800000000E+01 0. -1.
         -5    1    3    3    0  502  0.27688377154E+02  0.11019621761E+02  0.20312734231E+03  0.20534426675E+03  0.41800000000E+01 0. -1.
        -11    1    1    2    0    0 -0.21794120051E+02  0.26464612439E+02  0.38912634285E+02  0.51860895551E+02  0.00000000000E+00 0.  1.
         11    1    1    2    0    0  0.80753584544E+02  0.33540560100E+02  0.16400607574E+03  0.18586044084E+03  0.00000000000E+00 0. -1.
</event>
<event>
 7    1  0.2878477E-009  0.1783845E+03  0.7561462E-02  0.1169376E+00
         -1   -1    0    0    0  501 -0.00000000000E+00  0.00000000000E+00  0.22702276536E+03  0.22702276536E+03  0.00000000000E+00 0. -1.
          1   -1    0    0  501    0  0.00000000000E+00 -0.00000000000E+00 -0.19351068442E+03  0.19351068442E+03  0.00000000000E+00 0.  1.
         25    2    1    2    0    0  0.10455222835E+03 -0.12622774250E+03 -0.54713507934E+02  0.21331994286E+03  0.12508884301E+03 0.  0.
          5    1    3    3  502    0  0.10463571965E+03 -0.13279626084E+03 -0.11607134126E+02  0.16951601305E+03  0.41800000000E+01 0.  1.
         -5    1    3    3    0  502 -0.83491303230E-01  0.65685183374E+01 -0.43106373808E+02  0.43803929811E+02  0.41800000000E+01 0.  1.
        -11    1    1    2    0    0 -0.40002490780E+02  0.22216910066E+01 -0.31687804898E+01  0.40189256641E+02  0.00000000000E+00 0.  1.
         11    1    1    2    0    0 -0.64549737565E+02  0.12400605150E+03  0.91394369367E+02  0.16702425027E+03  0.00000000000E+00 0. -1.
</event>
<event>
 7    1  0.2878477E-009  0.1240588E+03  0.7561462E-02  0.1236548E+00
          1   -1    0    0  501    0  0.00000000000E+00  0.00000000000E+00  0.11292395775E+03  0.11292395775E+03  0.00000000000E+00 0. -1.
         -1   -1    0    0    0  501 -0.00000000000E+00 -0.00000000000E+00 -0.16808752473E+03  0.16808752473E+03  0.00000000000E+00 0.  1.
         25    2    1    2    0    0 -0.60856210308E+02  0.20801383922E+02  0.26455822241E+02  0.14311894438E+03  0.12508775241E+03 0.  0.
          5    1    3    3  502    0 -0.38360990172E+01  0.66915869690E+02  0.10852943231E+02  0.68027259601E+02  0.41800000000E+01 0. -1.
         -5    1    3    3    0  502 -0.57020111291E+02 -0.46114485768E+02  0.15602879010E+02  0.75091684777E+02  0.41800000000E+01 0. -1.
        -11    1    1    2    0    0  0.35783583750E+01  0.30443597113E+02 -0.40302192196E+02  0.50634809664E+02  0.00000000000E+00 0. -1.
         11    1    1    2    0    0  0.57277851933E+02 -0.51244981035E+02 -0.41317197023E+02  0.87257728444E+02  0.00000000000E+00 0.  1.
</event>
<event>
 7    1  0.2878477E-009  0.1179344E+03  0.7561462E-02  0.1246544E+00
         -2   -1    0    0    0  501 -0.00000000000E+00  0.00000000000E+00  0.24178307198E+02  0.24178307198E+02  0.00000000000E+00 0.  1.
          2   -1    0    0  501    0  0.00000000000E+00 -0.00000000000E+00 -0.82653039651E+03  0.82653039651E+03  0.00000000000E+00 0. -1.
         25    2    1    2    0    0 -0.55241233818E+02  0.65316579407E+02 -0.52192172816E+03  0.54348126339E+03  0.12510692977E+03 0.  0.
          5    1    3    3  502    0 -0.25519182562E+01  0.67356405963E+02 -0.11678258735E+03  0.13490382803E+03  0.41800000000E+01 0. -1.
         -5    1    3    3    0  502 -0.52689315562E+02 -0.20398265565E+01 -0.40513914081E+03  0.40857743536E+03  0.41800000000E+01 0. -1.
        -11    1    1    2    0    0  0.36862046682E+02  0.97719341183E+01 -0.42731304294E+02  0.57273602547E+02  0.00000000000E+00 0.  1.
         11    1    1    2    0    0  0.18379187136E+02 -0.75088513525E+02 -0.23769905686E+03  0.24995383777E+03  0.00000000000E+00 0. -1.
</event>
<event>
 7    1  0.2878477E-009  0.1182129E+03  0.7561462E-02  0.1246075E+00
          1   -1    0    0  501    0  0.00000000000E+00  0.00000000000E+00  0.40334312293E+03  0.40334312293E+03  0.00000000000E+00 0.  1.
         -1   -1    0    0    0  501 -0.00000000000E+00 -0.00000000000E+00 -0.38069531372E+02  0.38069531372E+02  0.00000000000E+00 0. -1.
         25    2    1    2    0    0 -0.10592548984E+02 -0.50544118402E+02  0.15254229966E+03  0.20392023190E+03  0.12508955909E+03 0.  0.
          5    1    3    3  502    0 -0.41644008318E+02 -0.78547525410E+02  0.77977875490E+02  0.11832987215E+03  0.41800000000E+01 0. -1.
         -5    1    3    3    0  502  0.31051459334E+02  0.28003407008E+02  0.74564424171E+02  0.85590359754E+02  0.41800000000E+01 0. -1.
        -11    1    1    2    0    0 -0.66416981632E+01  0.75104498815E+02  0.14570902933E+03  0.16406071780E+03  0.00000000000E+00 0. -1.
         11    1    1    2    0    0  0.17234247147E+02 -0.24560380413E+02  0.67022262565E+02  0.73431704597E+02  0.00000000000E+00 0.  1.
</event>
<event>
 7    1  0.2878477E-009  0.1037405E+03  0.7561462E-02  0.1272621E+00
          2   -1    0    0  501    0  0.00000000000E+00  0.00000000000E+00  0.61655850249E+02  0.61655850249E+02  0.00000000000E+00 0. -1.
         -2   -1    0    0    0  501 -0.00000000000E+00 -0.00000000000E+00 -0.21710769843E+03  0.21710769843E+03  0.00000000000E+00 0.  1.
         25    2    1    2    0    0  0.34746226276E+01  0.33757551282E+02 -0.93363545549E+02  0.15974206166E+03  0.12509648019E+03 0.  0.
          5    1    3    3  502    0 -0.42287925336E+02  0.48355064253E+02 -0.91001324707E+02  0.11146835590E+03  0.41800000000E+01 0. -1.
         -5    1    3    3    0  502  0.45762547963E+02 -0.14597512971E+02 -0.23622208419E+01  0.48273705765E+02  0.41800000000E+01 0. -1.
        -11    1    1    2    0    0  0.15152810680E+01 -0.64111892787E+02 -0.60586150396E+02  0.88223083676E+02  0.00000000000E+00 0.  1.
         11    1    1    2    0    0 -0.49899036956E+01  0.30354341505E+02 -0.15021522381E+01  0.30798403342E+02  0.00000000000E+00 0. -1.
</event>
<event>
 7    1  0.2878477E-009  0.1399508E+03  0.7561462E-02  0.1213395E+00
         -2   -1    0    0    0  501 -0.00000000000E+00  0.00000000000E+00  0.21495376269E+02  0.21495376269E+02  0.00000000000E+00 0.  1.
          2   -1    0    0  501    0  0.00000000000E+00 -0.00000000000E+00 -0.97473776666E+03  0.97473776666E+03  0.00000000000E+00 0. -1.
         25    2    1    2    0    0 -0.64465942552E+02 -0.63980465016E+02 -0.48925483954E+03  0.51309624172E+03  0.12509235632E+03 0.  0.
          5    1    3    3  502    0 -0.18531535675E+02 -0.94556840996E+02 -0.26161542706E+03  0.27882703970E+03  0.41800000000E+01 0.  1.
         -5    1    3    3    0  502 -0.45934406877E+02  0.30576375980E+02 -0.22763941247E+03  0.23426920202E+03  0.41800000000E+01 0.  1.
        -11    1    1    2    0    0 -0.20498142742E+02  0.30598711661E+02 -0.74654859353E+02  0.83245438531E+02  0.00000000000E+00 0.  1.
         11    1    1    2    0    0  0.84964085295E+02  0.33381753355E+02 -0.38933269150E+03  0.39989146267E+03  0.00000000000E+00 0. -1.
</event>
<event>
 7    1  0.2878477E-009  0.1500868E+03  0.7561462E-02  0.1200366E+00
         -1   -1    0    0    0  501 -0.00000000000E+00  0.00000000000E+00  0.14696930389E+02  0.14696930389E+02  0.00000000000E+00 0.  1.
          1   -1    0    0  501    0  0.00000000000E+00 -0.00000000000E+00 -0.16897459279E+04  0.16897459279E+04  0.00000000000E+00 0. -1.
         25    2    1    2    0    0  0.10369927607E+03 -0.17499915665E+02 -0.11303243275E+04  0.11420773683E+04  0.12509133764E+03 0.  0.
          5    1    3    3  502    0  0.10607637847E+03 -0.57487564267E+02 -0.75395355846E+03  0.76355776391E+03  0.41800000000E+01 0. -1.
         -5    1    3    3    0  502 -0.23771023998E+01  0.39987648602E+02 -0.37637076907E+03  0.37851960434E+03  0.41800000000E+01 0. -1.
        -11    1    1    2    0    0  0.96750076714E+01 -0.17945139314E+02 -0.99502670479E+02  0.10156975549E+03  0.00000000000E+00 0. -1.
         11    1    1    2    0    0 -0.11337428375E+03  0.35445054980E+02 -0.44522199950E+03  0.46079573455E+03  0.00000000000E+00 0.  1.
</event>
<event>
 7    1  0.2878477E-009  0.1379999E+03  0.7561462E-02  0.1216046E+00
          1   -1    0    0  501    0  0.00000000000E+00  0.00000000000E+00  0.11839734236E+04  0.11839734236E+04  0.00000000000E+00 0. -1.
         -1   -1    0    0    0  501 -0.00000000000E+00 -0.00000000000E+00 -0.18628769986E+02  0.18628769986E+02  0.00000000000E+00 0.  1.
         25    2    1    2    0    0  0.91300053782E+02 -0.44250816052E+02  0.62022951867E+03  0.64080130301E+03  0.12509124493E+03 0.  0.
          5    1    3    3  502    0  0.93524602599E+02  0.26883068092E+01  0.53721437006E+03  0.54531718301E+03  0.41800000000E+01 0.  1.
         -5    1    3    3    0  502 -0.22245488172E+01 -0.46939122861E+02  0.83015148608E+02  0.95484119993E+02  0.41800000000E+01 0.  1.
        -11    1    1    2    0    0 -0.77150191281E+02 -0.11181355083E+02  0.28505786960E+03  0.29552523367E+03  0.00000000000E+00 0.  1.
         11    1    1    2    0    0 -0.14149862501E+02  0.55432171135E+02  0.26005726536E+03  0.26627565692E+03  0.00000000000E+00 0. -1.
</event>
<event>
 7    1  0.2878477E-009  0.1054908E+03  0.7561462E-02  0.1269156E+00
          1   -1    0    0  501    0  0.00000000000E+00  0.00000000000E+00  0.48770822269E+03  0.48770822269E+03  0.00000000000E+00 0. -1.
         -1   -1    0    0    0  501 -0.00000000000E+00 -0.00000000000E+00 -0.38734604814E+02  0.38734604814E+02  0.00000000000E+00 0.  1.
         25    2    1    2    0    0 -0.30367867593E+02 -0.69913152067E+02  0.31314063833E+03  0.34571117627E+03  0.12509637009E+03 0.  0.
          5    1    3    3  502    0 -0.67670750928E+02 -0.67753638093E+02  0.14787424455E+03  0.17622187891E+03  0.41800000000E+01 0. -1.
         -5    1    3    3    0  502  0.37302883335E+02 -0.21595139739E+01  0.16526639379E+03  0.16948929736E+03  0.41800000000E+01 0. -1.
        -11    1    1    2    0    0  0.16623993959E+02  0.54024122166E+02  0.14660383821E+03  0.15712303564E+03  0.00000000000E+00 0. -1.
         11    1    1    2    0    0  0.13743873634E+02  0.15889029901E+02 -0.10770858668E+02  0.23608615591E+02  0.00000000000E+00 0.  1.
</event>
<event>
 7    1  0.2878477E-009  0.1665120E+03  0.7561462E-02  0.1181535E+00
         -2   -1    0    0    0  501 -0.00000000000E+00  0.00000000000E+00  0.27021674230E+03  0.27021674230E+03  0.00000000000E+00 0.  1.
          2   -1    0    0  501    0  0.00000000000E+00 -0.00000000000E+00 -0.11921756171E+03  0.11921756171E+03  0.00000000000E+00 0. -1.
         25    2    1    2    0    0 -0.14035397580E+03 -0.13442734286E+02  0.10343186301E+03  0.21500229845E+03  0.12509153618E+03 0.  0.
          5    1    3    3  502    0 -0.66956691342E+02  0.54883160481E+02  0.61249206111E+02  0.10613339469E+03  0.41800000000E+01 0. -1.
         -5    1    3    3    0  502 -0.73397284457E+02 -0.68325894767E+02  0.42182656900E+02  0.10886890375E+03  0.41800000000E+01 0. -1.
        -11    1    1    2    0    0  0.50272508622E+02 -0.13324738596E+02  0.60265083295E+02  0.79603731359E+02  0.00000000000E+00 0. -1.
         11    1    1    2    0    0  0.90081467177E+02  0.26767472881E+02 -0.12697765719E+02  0.94828274199E+02  0.00000000000E+00 0.  1.
</event>
<event>
 7    1  0.2878477E-009  0.1391515E+03  0.7561462E-02  0.1214475E+00
          2   -1    0    0  501    0  0.00000000000E+00  0.00000000000E+00  0.65188171072E+02  0.65188171072E+02  0.00000000000E+00 0. -1.
         -2   -1    0    0    0  501 -0.00000000000E+00 -0.00000000000E+00 -0.35809713755E+03  0.35809713755E+03  0.00000000000E+00 0.  1.
         25    2    1    2    0    0  0.63415104831E+02  0.90591065214E+02 -0.16419224182E+03  0.23417138426E+03  0.12509567663E+03 0.  0.
          5    1    3    3  502    0  0.79340406681E+02  0.11357209546E+03 -0.13342641284E+03  0.19238919160E+03  0.41800000000E+01 0.  1.
         -5    1    3    3    0  502 -0.15925301850E+02 -0.22981030249E+02 -0.30765828984E+02  0.41782192659E+02  0.41800000000E+01 0.  1.
        -11    1    1    2    0    0 -0.52201846573E+02 -0.82395213731E+02 -0.14040526087E+03  0.17096093505E+03  0.00000000000E+00 0.  1.
         11    1    1    2    0    0 -0.11213258258E+02 -0.81958514834E+01  0.11688536218E+02  0.18152989319E+02  0.00000000000E+00 0. -1.
</event>
<event>
 7    1  0.2878477E-009  0.1012363E+03  0.7561462E-02  0.1277717E+00
         -1   -1    0    0    0  501 -0.00000000000E+00  0.00000000000E+00  0.30307578725E+02  0.30307578725E+02  0.00000000000E+00 0.  1.
          1   -1    0    0  501    0  0.00000000000E+00 -0.00000000000E+00 -0.48851383687E+03  0.48851383687E+03  0.00000000000E+00 0. -1.
         25    2    1    2    0    0  0.36789942083E+02 -0.14305028391E+01 -0.34657077782E+03  0.37028986766E+03  0.12509091046E+03 0.  0.
          5    1    3    3  502    0 -0.33367172419E+02  0.60366409823E+01 -0.23995538029E+03  0.24237546526E+03  0.41800000000E+01 0.  1.
         -5    1    3    3    0  502  0.70157114502E+02 -0.74671438214E+01 -0.10661539753E+03  0.12791440241E+03  0.41800000000E+01 0.  1.
        -11    1    1    2    0    0  0.27071904358E+02  0.16909599273E+02 -0.30787443222E+02  0.44347369858E+02  0.00000000000E+00 0. -1.
         11    1    1    2    0    0 -0.63861846441E+02 -0.15479096434E+02 -0.80848037103E+02  0.10418417807E+03  0.00000000000E+00 0.  1.
</event>
<event>
 7    1  0.3293416E-009  0.1054543E+03  0.7561462E-02  0.1269227E+00
          2   -1    0    0  501    0  0.00000000000E+00  0.00000000000E+00  0.76206103209E+02  0.76206103209E+02  0.00000000000E+00 0. -1.
         -2   -1    0    0    0  501 -0.00000000000E+00 -0.00000000000E+00 -0.29583815536E+03  0.29583815536E+03  0.00000000000E+00 0.  1.
         25    2    1    2    0    0 -0.60720464907E+02  0.55011920300E+02 -0.40775680460E+02  0.15499288543E+03  0.12508737820E+03 0.  0.
          5    1    3    3  502    0 -0.65509984713E+00  0.64749262106E+02 -0.62649716348E+02  0.90196205339E+02  0.41800000000E+01 0. -1.
         -5    1    3    3    0  502 -0.60065365060E+02 -0.97373418059E+01  0.21874035889E+02  0.64796680095E+02  0.41800000000E+01 0. -1.
        -11    1    1    2    0    0  0.22724555911E+02 -0.35922030623E+02 -0.16782155019E+03  0.17312097052E+03  0.00000000000E+00 0.  1.
         11    1    1    2    0    0  0.37995908997E+02 -0.19089889676E+02 -0.11034821499E+02  0.43930402614E+02  0.00000000000E+00 0. -1.
</event>
<event>
 6    1  0.2878477E-009  0.1240602E+03  0.7561462E-02  0.1236545E+00
         -1   -1    0    0    0  501 -0.00000000000E+00  0.00000000000E+00  0.34998485032E+03  0.34998485032E+03  0.00000000000E+00 0.  1.
          1   -1    0    0  501    0  0.00000000000E+00 -0.00000000000E+00 -0.54674594892E+02  0.54674594892E+02  0.00000000000E+00 0. -1.
          5    1    1    2  502    0 -0.91045424264E+02 -0.30324473428E+02  0.54042635088E+02  0.11021307443E+03  0.41800000000E+01 0. -1.
         -5    1    1    2    0  502  0.36272774642E+02 -0.30598724742E+02  0.67119731175E+02  0.82307513929E+02  0.41800000000E+01 0. -1.
        -11    1    1    2    0    0  0.37626678166E+02 -0.34742794820E+01  0.16980392996E+02  0.41426697600E+02  0.00000000000E+00 0. -1.
         11    1    1    2    0    0  0.17145971455E+02  0.64397477653E+02  0.15716749617E+03  0.17071215925E+03  0.00000000000E+00 0.  1.
</event>
<event>
 7    1  0.2878477E-009  0.3795165E+02  0.7561462E-02  0.1523850E+00
         -1   -1    0    0    0  501 -0.00000000000E+00  0.00000000000E+00  0.24864832159E+03  0.24864832159E+03  0.00000000000E+00 0.  1.
          1   -1    0    0  501    0  0.00000000000E+00 -0.00000000000E+00 -0.31323734033E+02  0.31323734033E+02  0.00000000000E+00 0. -1.
         25    2    1    2    0    0  0.92680005061E+01  0.33496985383E+01  0.14625063606E+03  0.19266462323E+03  0.12503316434E+03 0.  0.
          5    1    3    3  502    0  0.86708912840E+01  0.13627179177E+02 -0.19998767812E+02  0.26044336850E+02  0.41800000000E+01 0.  1.
         -5    1    3    3    0  502  0.59710922202E+00 -0.10277480639E+02  0.16624940387E+03  0.16662028638E+03  0.41800000000E+01 0.  1.
        -11    1    1    2    0    0  0.17253302809E+02  0.82941956216E+01  0.15474481222E+02  0.24615639499E+02  0.00000000000E+00 0. -1.
         11    1    1    2    0    0 -0.26521303315E+02 -0.11643894160E+02  0.55599470280E+02  0.62691792893E+02  0.00000000000E+00 0.  1.
</event>
<event>
 7    1  0.2878477E-009  0.1618308E+03  0.7561462E-02  0.1186645E+00
          2   -1    0    0  501    0  0.00000000000E+00  0.00000000000E+00  0.11950309987E+04  0.11950309987E+04  0.00000000000E+00 0. -1.
         -2   -1    0    0    0  501 -0.00000000000E+00 -0.00000000000E+00 -0.23389588971E+02  0.23389588971E+02  0.00000000000E+00 0.  1.
         25    2    1    2    0    0  0.43835099190E+02  0.11775621474E+03  0.56988988948E+03  0.59683462552E+03  0.12509613129E+03 0.  0.
          5    1    3    3  502    0  0.73293890067E+02  0.12187723692E+03  0.40584765200E+03  0.43006493025E+03  0.41800000000E+01 0. -1.
         -5    1    3    3    0  502 -0.29458790877E+02 -0.41210221816E+01  0.16404223747E+03  0.16676969527E+03  0.41800000000E+01 0. -1.
        -11    1    1    2    0    0 -0.74716996992E+01 -0.11460049391E+03  0.51147894181E+03  0.52421351319E+03  0.00000000000E+00 0. -1.
         11    1    1    2    0    0 -0.36363399491E+02 -0.31557208276E+01  0.90272578440E+02  0.97372448951E+02  0.00000000000E+00 0.  1.
</event>
<event>
 7    1  0.2878477E-009  0.9227650E+02  0.7561462E-02  0.1297431E+00
          1   -1    0    0  501    0  0.00000000000E+00  0.00000000000E+00  0.12727369020E+03  0.12727369020E+03  0.00000000000E+00 0. -1.
         -1   -1    0    0    0  501 -0.00000000000E+00 -0.00000000000E+00 -0.17762409276E+03  0.17762409276E+03  0.00000000000E+00 0.  1.
         25    2    1    2    0    0  0.50403528893E+02 -0.29148771151E+02  0.58153060338E+02  0.14973082758E+03  0.12508947084E+03 0.  0.
          5    1    3    3  502    0  0.49146980827E+02 -0.76412788126E+00 -0.29510248878E+02  0.57483361111E+02  0.41800000000E+01 0.  1.
         -5    1    3    3    0  502  0.12565480657E+01 -0.28384643270E+02  0.87663309216E+02  0.92247466465E+02  0.41800000000E+01 0.  1.
        -11    1    1    2    0    0 -0.20720732049E+02 -0.32235151583E+02 -0.19349689962E+02  0.42928594618E+02  0.00000000000E+00 0. -1.
         11    1    1    2    0    0 -0.29682796844E+02  0.61383922734E+02 -0.89153772941E+02  0.11223836077E+03  0.00000000000E+00 0.  1.
</event>
<event>
 7    1  0.3093621E-009  0.8015405E+02  0.7561462E-02  0.1328615E+00
         -2   -1    0    0    0  501 -0.00000000000E+00  0.00000000000E+00  0.38215790144E+02  0.38215790144E+02  0.00000000000E+00 0.  1.
          2   -1    0    0  501    0  0.00000000000E+00 -0.00000000000E+00 -0.42038473390E+03  0.42038473390E+03  0.00000000000E+00 0. -1.
         25    2    1    2    0    0  0.45341289258E+02  0.48035090843E+02 -0.22231587446E+03  0.26350490406E+03  0.12508910409E+03 0.  0.
          5    1    3    3  502    0  0.53086789628E+02  0.28561026374E+02 -0.23221826428E+03  0.23995152453E+03  0.41800000000E+01 0.  1.
         -5    1    3    3    0  502 -0.77455003708E+01  0.19474064469E+02  0.99023898180E+01  0.23553379525E+02  0.41800000000E+01 0.  1.
        -11    1    1    2    0    0 -0.49958271687E+02 -0.26628823920E+02 -0.16338423659E+03  0.17291423290E+03  0.00000000000E+00 0. -1.
         11    1    1    2    0    0  0.46169824296E+01 -0.21406266923E+02  0.35311673006E+01  0.22181387081E+02  0.00000000000E+00 0.  1.
</event>
<event>
 7    1  0.2878477E-009  0.1271198E+03  0.7561462E-02  0.1231793E+00
         -1   -1    0    0    0  501 -0.00000000000E+00  0.00000000000E+00  0.20727318002E+03  0.20727318002E+03  0.00000000000E+00 0.  1.
          1   -1    0    0  501    0  0.00000000000E+00 -0.00000000000E+00 -0.98179100260E+02  0.98179100260E+02  0.00000000000E+00 0. -1.
         25    2    1    2    0    0 -0.60057987632E+02 -0.35695744345E+02 -0.23879085179E+01  0.14329713162E+03  0.12508883955E+03 0.  0.
          5    1    3    3  502    0  0.25923524287E+02  0.22683310129E+02 -0.16339933992E+02  0.38353976492E+02  0.41800000000E+01 0.  1.
         -5    1    3    3    0  502 -0.85981511919E+02 -0.58379054474E+02  0.13952025474E+02  0.10494315513E+03  0.41800000000E+01 0.  1.
        -11    1    1    2    0    0  0.35200237905E+02  0.66923077093E+02  0.57372813496E+02  0.94917831436E+02  0.00000000000E+00 0. -1.
         11    1    1    2    0    0  0.24857749727E+02 -0.31227332748E+02  0.54109174778E+02  0.67237317222E+02  0.00000000000E+00 0.  1.
</event>
<event>
 7    1  0.2878477E-009  0.8704534E+02  0.7561462E-02  0.1310169E+00
         -2   -1    0    0    0  501 -0.00000000000E+00  0.00000000000E+00  0.16815565073E+02  0.16815565073E+02  0.00000000000E+00 0.  1.
          2   -1    0    0  501    0  0.00000000000E+00 -0.00000000000E+00 -0.99612097438E+03  0.99612097438E+03  0.00000000000E+00 0. -1.
         25    2    1    2    0    0  0.58654892544E+02  0.31871803559E+02 -0.61527840458E+03  0.63140407132E+03  0.12508947939E+03 0.  0.
          5    1    3    3  502    0  0.11608986478E+02  0.70454706881E+01 -0.39923363408E+00  0.14214042766E+02  0.41800000000E+01 0.  1.
         -5    1    3    3    0  502  0.47045906066E+02  0.24826332871E+02 -0.61487917094E+03  0.61719002855E+03  0.41800000000E+01 0.  1.
        -11    1    1    2    0    0 -0.42147158559E+02  0.23836734704E+02 -0.23631342522E+03  0.24122314946E+03  0.00000000000E+00 0. -1.
         11    1    1    2    0    0 -0.16507733985E+02 -0.55708538263E+02 -0.12771357951E+03  0.14030931868E+03  0.00000000000E+00 0.  1.
</event>
<event>
 7    1  0.2878477E-009  0.9853457E+02  0.7561462E-02  0.1283408E+00
         -2   -1    0    0    0  501 -0.00000000000E+00  0.00000000000E+00  0.39838735622E+02  0.39838735622E+02  0.00000000000E+00 0. -1.
          2   -1    0    0  501    0  0.00000000000E+00 -0.00000000000E+00 -0.45608938173E+03  0.45608938173E+03  0.00000000000E+00 0.  1.
         25    2    1    2    0    0  0.12475803541E+02  0.25916068578E+02 -0.36694272367E+03  0.38874138852E+03  0.12508243848E+03 0.  0.
          5    1    3    3  502    0 -0.10960643557E+02 -0.41707218423E+02 -0.23125663958E+03  0.23528011715E+03  0.41800000000E+01 0.  1.
         -5    1    3    3    0  502  0.23436447098E+02  0.67623287001E+02 -0.13568608409E+03  0.15346127138E+03  0.41800000000E+01 0.  1.
        -11    1    1    2    0    0 -0.31075355577E+02  0.16898041079E+02 -0.49089931810E+02  0.60506552716E+02  0.00000000000E+00 0.  1.
         11    1    1    2    0    0  0.18599552036E+02 -0.42814109657E+02 -0.21799062921E+00  0.46680176109E+02  0.00000000000E+00 0. -1.
</event>
<event>
 7    1  0.2878477E-009  0.8575102E+02  0.7561462E-02  0.1313480E+00
         -1   -1    0    0    0  501 -0.00000000000E+00  0.00000000000E+00  0.10110906210E+03  0.10110906210E+03  0.00000000000E+00 0.  1.
          1   -1    0    0  501    0  0.00000000000E+00 -0.00000000000E+00 -0.13810569151E+03  0.13810569151E+03  0.00000000000E+00 0. -1.
         25    2    1    2    0    0 -0.11756998013E+02  0.50704451500E+01  0.22831372687E+02  0.12779687303E+03  0.12508730056E+03 0.  0.
          5    1    3    3  502    0 -0.38410885938E+02 -0.44704651155E+02  0.36632751168E+02  0.69522175251E+02  0.41800000000E+01 0. -1.
         -5    1    3    3    0  502  0.26653887924E+02  0.49775096305E+02 -0.13801378481E+02  0.58274697783E+02  0.41800000000E+01 0. -1.
        -11    1    1    2    0    0  0.23890777499E+02  0.17877413818E+02 -0.75439766996E+02  0.81126627064E+02  0.00000000000E+00 0. -1.
         11    1    1    2    0    0 -0.12133779486E+02 -0.22947858968E+02  0.15611764899E+02  0.30291253508E+02  0.00000000000E+00 0.  1.
</event>
<event>
 7    1  0.2878477E-009  0.1129757E+03  0.7561462E-02  0.1255157E+00
          4   -1    0    0  501    0  0.00000000000E+00  0.00000000000E+00  0.17311161636E+03  0.17311161636E+03  0.00000000000E+00 0.  1.
         -4   -1    0    0    0  501 -0.00000000000E+00 -0.00000000000E+00 -0.79492594421E+02  0.79492594421E+02  0.00000000000E+00 0. -1.
         25    2    1    2    0    0  0.29677943360E+01 -0.56928679556E+01  0.45969035268E+02  0.13342988095E+03  0.12509662017E+03 0.  0.
          5    1    3    3  502    0 -0.31615685811E+02  0.48554195595E+02  0.80759950461E+01  0.58649429624E+02  0.41800000000E+01 0.  1.
         -5    1    3    3    0  502  0.34583480147E+02 -0.54247063551E+02  0.37893040222E+02  0.74780451324E+02  0.41800000000E+01 0.  1.
        -11    1    1    2    0    0 -0.41686314508E+02 -0.29500401321E+02  0.42790538610E+02  0.66626216236E+02  0.00000000000E+00 0.  1.
         11    1    1    2    0    0  0.38718520172E+02  0.35193269277E+02  0.48594480574E+01  0.52548113593E+02  0.00000000000E+00 0. -1.
</event>
<event>
 7    1  0.2878477E-009  0.8966532E+02  0.7561462E-02  0.1303664E+00
          1   -1    0    0  501    0  0.00000000000E+00  0.00000000000E+00  0.46204312074E+03  0.46204312074E+03  0.00000000000E+00 0. -1.
         -1   -1    0    0    0  501 -0.00000000000E+00 -0.00000000000E+00 -0.30657896480E+02  0.30657896480E+02  0.00000000000E+00 0.  1.
         25    2    1    2    0    0 -0.23005540085E+02 -0.36553456385E+02  0.29618413081E+03  0.32440409411E+03  0.12509023497E+03 0.  0.
          5    1    3    3  502    0 -0.11176599797E+02 -0.55437823199E+02  0.45521607934E+02  0.72718345780E+02  0.41800000000E+01 0. -1.
         -5    1    3    3    0  502 -0.11828940288E+02  0.18884366814E+02  0.25066252288E+03  0.25168574833E+03  0.41800000000E+01 0. -1.
        -11    1    1    2    0    0  0.57728039818E+02  0.28152648450E+02  0.80843769442E+02  0.10325121430E+03  0.00000000000E+00 0.  1.
         11    1    1    2    0    0 -0.34722499733E+02  0.84008079351E+01  0.54357324009E+02  0.65045708814E+02  0.00000000000E+00 0. -1.
</event>
<event>
 7    1  0.2878477E-009  0.1137456E+03  0.7561462E-02  0.1253787E+00
          2   -1    0    0  501    0  0.00000000000E+00  0.00000000000E+00  0.34940771873E+03  0.34940771873E+03  0.00000000000E+00 0. -1.
         -2   -1    0    0    0  501 -0.00000000000E+00 -0.00000000000E+00 -0.44791169108E+02  0.44791169108E+02  0.00000000000E+00 0.  1.
         25    2    1    2    0    0  0.95197042301E+01 -0.46545062642E+02  0.10549724306E+03  0.17038944283E+03  0.12508327749E+03 0.  0.
          5    1    3    3  502    0  0.76259197644E+01 -0.85656710390E+02  0.42300259543E+02  0.95927113188E+02  0.41800000000E+01 0.  1.
         -5    1    3    3    0  502  0.18937844657E+01  0.39111647748E+02  0.63196983519E+02  0.74462329638E+02  0.41800000000E+01 0.  1.
        -11    1    1    2    0    0 -0.12608910023E+01  0.73659351126E+02  0.13781870803E+03  0.15627311393E+03  0.00000000000E+00 0. -1.
         11    1    1    2    0    0 -0.82588132277E+01 -0.27114288484E+02  0.61300598523E+02  0.67536331077E+02  0.00000000000E+00 0.  1.
</event>
<event>
 7    1  0.2878477E-009  0.9038794E+02  0.7561462E-02  0.1301915E+00
          2   -1    0    0  501    0  0.00000000000E+00  0.00000000000E+00  0.22816568383E+03  0.22816568383E+03  0.00000000000E+00 0. -1.
         -2   -1    0    0    0  501 -0.00000000000E+00 -0.00000000000E+00 -0.56950384794E+02  0.56950384794E+02  0.00000000000E+00 0.  1.
         25    2    1    2    0    0  0.16680320406E+02 -0.70300938701E+00  0.14022478513E+03  0.18864812565E+03  0.12508556127E+03 0.  0.
          5    1    3    3  502    0  0.12787332685E+01 -0.51459012394E+02  0.16905919632E+02  0.54341030851E+02  0.41800000000E+01 0.  1.
         -5    1    3    3    0  502  0.15401587137E+02  0.50756003007E+02  0.12331886549E+03  0.13430709480E+03  0.41800000000E+01 0.  1.
        -11    1    1    2    0    0 -0.45374196863E+02  0.85623549833E+01 -0.85755677826E+01  0.46964582683E+02  0.00000000000E+00 0.  1.
         11    1    1    2    0    0  0.28693876457E+02 -0.78593455963E+01  0.39566081697E+02  0.49503360292E+02  0.00000000000E+00 0. -1.
</event>
<event>
 7    1  0.2878477E-009  0.1027434E+03  0.7561462E-02  0.1274630E+00
         -2   -1    0    0    0  501 -0.00000000000E+00  0.00000000000E+00  0.56808927118E+02  0.56808927118E+02  0.00000000000E+00 0.  1.
          2   -1    0    0  501    0  0.00000000000E+00 -0.00000000000E+00 -0.32513418588E+03  0.32513418588E+03  0.00000000000E+00 0. -1.
         25    2    1    2    0    0 -0.46667870284E+02 -0.60414888194E+02 -0.19360380838E+03  0.24281083299E+03  0.12508723822E+03 0.  0.
          5    1    3    3  502    0 -0.16514812548E+02 -0.84002518757E+02 -0.18420479697E+03  0.20316998257E+03  0.41800000000E+01 0. -1.
         -5    1    3    3    0  502 -0.30153057736E+02  0.23587630563E+02 -0.93990114116E+01  0.39640850419E+02  0.41800000000E+01 0. -1.
        -11    1    1    2    0    0  0.37079246618E+02  0.25362243701E+02  0.10805730214E+02  0.46204737211E+02  0.00000000000E+00 0.  1.
         11    1    1    2    0    0  0.95886236659E+01  0.35052644493E+02 -0.85527180603E+02  0.92927542804E+02  0.00000000000E+00 0. -1.
</event>
<event>
 7    1  0.2878477E-009  0.9741078E+02  0.7561462E-02  0.1285837E+00
          1   -1    0    0  501    0  0.00000000000E+00  0.00000000000E+00  0.46356480615E+03  0.46356480615E+03  0.00000000000E+00 0. -1.
         -1   -1    0    0    0  501 -0.00000000000E+00 -0.00000000000E+00 -0.25909272468E+02  0.25909272468E+02  0.00000000000E+00 0.  1.
         25    2    1    2    0    0  0.19609267378E+02 -0.84446002329E+00  0.27801780775E+03  0.30549408434E+03  0.12508995827E+03 0.  0.
          5    1    3    3  502    0  0.57379415187E+02  0.34453452520E+02  0.10261304114E+03  0.12258199823E+03  0.41800000000E+01 0.  1.
         -5    1    3    3    0  502 -0.37770147809E+02 -0.35297912543E+02  0.17540476662E+03  0.18291208611E+03  0.41800000000E+01 0.  1.
        -11    1    1    2    0    0  0.17524694662E+02 -0.25089473419E+02  0.18519224157E+02  0.35770913642E+02  0.00000000000E+00 0.  1.
         11    1    1    2    0    0 -0.37133962040E+02  0.25933933442E+02  0.14111850177E+03  0.14820908064E+03  0.00000000000E+00 0. -1.
</event>
<event>
 7    1  0.2878477E-009  0.1133721E+03  0.7561462E-02  0.1254450E+00
         -2   -1    0    0    0  501 -0.00000000000E+00  0.00000000000E+00  0.35936714091E+03  0.35936714091E+03  0.00000000000E+00 0. -1.
          2   -1    0    0  501    0  0.00000000000E+00 -0.00000000000E+00 -0.41203656811E+02  0.41203656811E+02  0.00000000000E+00 0.  1.
         25    2    1    2    0    0 -0.59875270257E+01  0.49968284636E+02  0.14121116158E+03  0.19524997969E+03  0.12509709214E+03 0.  0.
          5    1    3    3  502    0  0.38139630867E+02  0.74495984167E+02  0.80751622167E+02  0.11637259120E+03  0.41800000000E+01 0.  1.
         -5    1    3    3    0  502 -0.44127157893E+02 -0.24527699531E+02  0.60459539417E+02  0.78877388487E+02  0.41800000000E+01 0.  1.
        -11    1    1    2    0    0  0.11793947906E+02  0.19386566170E+02  0.10699486291E+02  0.25088147838E+02  0.00000000000E+00 0.  1.
         11    1    1    2    0    0 -0.58064208799E+01 -0.69354850806E+02  0.16625283623E+03  0.18023267020E+03  0.00000000000E+00 0. -1.
</event>
<event>
 7    1  0.2878477E-009  0.8690774E+02  0.7561462E-02  0.1310518E+00
         -2   -1    0    0    0  501 -0.00000000000E+00  0.00000000000E+00  0.34550012183E+02  0.34550012183E+02  0.00000000000E+00 0.  1.
          2   -1    0    0  501    0  0.00000000000E+00 -0.00000000000E+00 -0.78436951773E+03  0.78436951773E+03  0.00000000000E+00 0. -1.
         25    2    1    2    0    0  0.24550385775E+02 -0.60256879789E+02 -0.66443190388E+03  0.67922885208E+03  0.12509382718E+03 0.  0.
          5    1    3    3  502    0  0.24506528628E+02  0.35531560526E+01 -0.21311315183E+02  0.32936900555E+02  0.41800000000E+01 0. -1.
         -5    1    3    3    0  502  0.43857147297E-01 -0.63810035842E+02 -0.64312058870E+03  0.64629195152E+03  0.41800000000E+01 0. -1.
        -11    1    1    2    0    0 -0.39778905833E+02  0.26710996474E+02 -0.90593276779E+02  0.10248404988E+03  0.00000000000E+00 0. -1.
         11    1    1    2    0    0  0.15228520057E+02  0.33545883316E+02  0.52056751121E+01  0.37206627957E+02  0.00000000000E+00 0.  1.
</event>
<event>
 7    1  0.2878477E-009  0.8884266E+02  0.7561462E-02  0.1305679E+00
         -1   -1    0    0    0  501 -0.00000000000E+00  0.00000000000E+00  0.13609264170E+03  0.13609264170E+03  0.00000000000E+00 0.  1.
          1   -1    0    0  501    0  0.00000000000E+00 -0.00000000000E+00 -0.18178861066E+03  0.18178861066E+03  0.00000000000E+00 0. -1.
         25    2    1    2    0    0 -0.38688878468E+02  0.47515214879E+01  0.85378775286E+02  0.15641635275E+03  0.12512846944E+03 0.  0.
          5    1    3    3  502    0  0.32421710422E+02 -0.30738208241E+02  0.55587781416E+02  0.71438635172E+02  0.41800000000E+01 0. -1.
         -5    1    3    3    0  502 -0.71110588890E+02  0.35489729728E+02  0.29790993870E+02  0.84977717575E+02  0.41800000000E+01 0. -1.
        -11    1    1    2    0    0  0.18066470781E+02 -0.20467624039E+02 -0.13270620530E+03  0.13548526830E+03  0.00000000000E+00 0. -1.
         11    1    1    2    0    0  0.20622407687E+02  0.15716102551E+02  0.16314610501E+01  0.25979631317E+02  0.00000000000E+00 0.  1.
</event>
<event>
 7    1  0.2878477E-009  0.1010453E+03  0.7561462E-02  0.1278113E+00
          1   -1    0    0  501    0  0.00000000000E+00  0.00000000000E+00  0.49348264639E+02  0.49348264639E+02  0.00000000000E+00 0. -1.
         -1   -1    0    0    0  501 -0.00000000000E+00 -0.00000000000E+00 -0.24281260790E+03  0.24281260790E+03  0.00000000000E+00 0.  1.
         25    2    1    2    0    0 -0.18729577622E+02  0.17716729120E+02 -0.12326442674E+03  0.17750018293E+03  0.12509003346E+03 0.  0.
          5    1    3    3  502    0 -0.64594675941E+02  0.16104249935E+02 -0.11151612573E+03  0.12994282483E+03  0.41800000000E+01 0.  1.
         -5    1    3    3    0  502  0.45865098319E+02  0.16124791846E+01 -0.11748301012E+02  0.47557358102E+02  0.41800000000E+01 0.  1.
        -11    1    1    2    0    0 -0.58093458935E+01  0.32711053292E+02 -0.16827433998E+02  0.37241429110E+02  0.00000000000E+00 0.  1.
         11    1    1    2    0    0  0.24538923515E+02 -0.50427782412E+02 -0.53372482525E+02  0.77419260505E+02  0.00000000000E+00 0. -1.
</event>
<event>
 7    1  0.2878477E-009  0.2505900E+03  0.7561462E-02  0.1112933E+00
         -1   -1    0    0    0  501 -0.00000000000E+00  0.00000000000E+00  0.79734911911E+02  0.79734911911E+02  0.00000000000E+00 0.  1.
          1   -1    0    0  501    0  0.00000000000E+00 -0.00000000000E+00 -0.90570004578E+03  0.90570004578E+03  0.00000000000E+00 0. -1.
         25    2    1    2    0    0  0.13206036634E+03 -0.20700756489E+03 -0.41261211707E+03  0.49618046492E+03  0.12511683476E+03 0.  0.
          5    1    3    3  502    0  0.61695605429E+01  0.80261750361E+00 -0.99752982594E+02  0.10003418220E+03  0.41800000000E+01 0.  1.
         -5    1    3    3    0  502  0.12589080579E+03 -0.20781018239E+03 -0.31285913448E+03  0.39614628272E+03  0.41800000000E+01 0.  1.
        -11    1    1    2    0    0 -0.18788212054E+02  0.55989495531E+01 -0.52876335172E+01  0.20305275583E+02  0.00000000000E+00 0.  1.
         11    1    1    2    0    0 -0.11327215428E+03  0.20140861533E+03 -0.40806538328E+03  0.46894921718E+03  0.00000000000E+00 0. -1.
</event>
<event>
 7    1  0.2878477E-009  0.2208443E+03  0.7561462E-02  0.1133255E+00
          4   -1    0    0  501    0  0.00000000000E+00  0.00000000000E+00  0.56548281981E+03  0.56548281981E+03  0.00000000000E+00 0. -1.
         -4   -1    0    0    0  501 -0.00000000000E+00 -0.00000000000E+00 -0.95573224816E+02  0.95573224816E+02  0.00000000000E+00 0.  1.
         25    2    1    2    0    0  0.20727217139E+02  0.19877076677E+03  0.31518590204E+03  0.39360972608E+03  0.12508808241E+03 0.  0.
          5    1    3    3  502    0  0.39006413136E+02  0.20226052168E+03  0.31256185246E+03  0.37435705271E+03  0.41800000000E+01 0.  1.
         -5    1    3    3    0  502 -0.18279195997E+02 -0.34897549110E+01  0.26240495792E+01  0.19252673368E+02  0.41800000000E+01 0.  1.
        -11    1    1    2    0    0  0.31861778424E+02 -0.95864592919E+02  0.88174997568E+02  0.13408960920E+03  0.00000000000E+00 0. -1.
         11    1    1    2    0    0 -0.52588995563E+02 -0.10290617385E+03  0.66548695379E+02  0.13335670934E+03  0.00000000000E+00 0.  1.
</event>
<event>
 7    1  0.2878477E-009  0.1081569E+03  0.7561462E-02  0.1264022E+00
          2   -1    0    0  501    0  0.00000000000E+00  0.00000000000E+00  0.15097770026E+04  0.15097770026E+04  0.00000000000E+00 0. -1.
         -2   -1    0    0    0  501 -0.00000000000E+00 -0.00000000000E+00 -0.94476965252E+01  0.94476965252E+01  0.00000000000E+00 0.  1.
         25    2    1    2    0    0  0.28988917196E+02  0.91849283116E+01  0.11072377970E+04  0.11146965854E+04  0.12509283817E+03 0.  0.
          5    1    3    3  502    0  0.84678929850E+01  0.62711404352E+02  0.76893579816E+03  0.77154660231E+03  0.41800000000E+01 0.  1.
         -5    1    3    3    0  502  0.20521024211E+02 -0.53526476040E+02  0.33830199888E+03  0.34314998313E+03  0.41800000000E+01 0.  1.
        -11    1    1    2    0    0 -0.57190767806E+02  0.14033921989E+02  0.23389251792E+03  0.24119171799E+03  0.00000000000E+00 0. -1.
         11    1    1    2    0    0  0.28201850610E+02 -0.23218850301E+02  0.15919899106E+03  0.16333639565E+03  0.00000000000E+00 0.  1.
</event>
<event>
 7    1  0.2878477E-009  0.1371837E+03  0.7561462E-02  0.1217170E+00
         -1   -1    0    0    0  501 -0.00000000000E+00  0.00000000000E+00  0.88990101084E+02  0.88990101084E+02  0.00000000000E+00 0.  1.
          1   -1    0    0  501    0  0.00000000000E+00 -0.00000000000E+00 -0.27429401052E+03  0.27429401052E+03  0.00000000000E+00 0. -1.
         25    2    1    2    0    0  0.59840353583E+02 -0.70872340686E+02 -0.17346896495E+03  0.23311103810E+03  0.12508204384E+03 0.  0.
          5    1    3    3  502    0  0.90947023174E+02 -0.22774052556E+02 -0.13330861293E+03  0.16302968189E+03  0.41800000000E+01 0. -1.
         -5    1    3    3    0  502 -0.31106669591E+02 -0.48098288130E+02 -0.40160352021E+02  0.70081356212E+02  0.41800000000E+01 0. -1.
        -11    1    1    2    0    0  0.11019037401E+02 -0.10475755136E+02 -0.16181140593E+02  0.22203376810E+02  0.00000000000E+00 0. -1.
         11    1    1    2    0    0 -0.70859390984E+02  0.81348095822E+02  0.43461961065E+01  0.10796969670E+03  0.00000000000E+00 0.  1.
</event>
<event>
 7    1  0.2878477E-009  0.8837801E+02  0.7561462E-02  0.1306828E+00
         -3   -1    0    0    0  501 -0.00000000000E+00  0.00000000000E+00  0.28962167815E+02  0.28962167815E+02  0.00000000000E+00 0.  1.
          3   -1    0    0  501    0  0.00000000000E+00 -0.00000000000E+00 -0.50585718167E+03  0.50585718167E+03  0.00000000000E+00 0. -1.
         25    2    1    2    0    0 -0.89653399980E+01 -0.63261148803E+01 -0.37683471724E+03  0.39720673831E+03  0.12509353215E+03 0.  0.
          5    1    3    3  502    0 -0.47623928080E+02  0.32648340734E+02 -0.10546876156E+03  0.12031244634E+03  0.41800000000E+01 0. -1.
         -5    1    3    3    0  502  0.38658588082E+02 -0.38974455615E+02 -0.27136595568E+03  0.27689429197E+03  0.41800000000E+01 0. -1.
        -11    1    1    2    0    0  0.35349076154E+02  0.10988851203E+02 -0.10412870843E+03  0.11051289497E+03  0.00000000000E+00 0. -1.
         11    1    1    2    0    0 -0.26383736156E+02 -0.46627363223E+01  0.40684118202E+01  0.27099716203E+02  0.00000000000E+00 0.  1.
</event>
<event>
 7    1  0.2878477E-009  0.1084295E+03  0.7561462E-02  0.1263506E+00
         -1   -1    0    0    0  501 -0.00000000000E+00  0.00000000000E+00  0.57407474746E+02  0.57407474746E+02  0.00000000000E+00 0.  1.
          1   -1    0    0  501    0  0.00000000000E+00 -0.00000000000E+00 -0.22881971380E+03  0.22881971380E+03  0.00000000000E+00 0. -1.
         25    2    1    2    0    0 -0.26325220995E+00  0.22896584496E+02 -0.13703091693E+03  0.18694601536E+03  0.12508803932E+03 0.  0.
          5    1    3    3  502    0  0.17542457311E+02 -0.49287046210E+02 -0.51287919609E+02  0.73381699561E+02  0.41800000000E+01 0.  1.
         -5    1    3    3    0  502 -0.17805709521E+02  0.72183630706E+02 -0.85742997324E+02  0.11356431580E+03  0.41800000000E+01 0.  1.
        -11    1    1    2    0    0 -0.17793914310E+02  0.29522122764E+02 -0.26073571534E+02  0.43220484165E+02  0.00000000000E+00 0.  1.
         11    1    1    2    0    0  0.18057166520E+02 -0.52418707260E+02 -0.83077505871E+01  0.56060689019E+02  0.00000000000E+00 0. -1.
</event>
<event>
 7    1  0.3571818E-009  0.1253335E+03  0.7561462E-02  0.1234549E+00
          2   -1    0    0  501    0  0.00000000000E+00  0.00000000000E+00  0.86630079401E+03  0.86630079401E+03  0.00000000000E+00 0. -1.
         -2   -1    0    0    0  501 -0.00000000000E+00 -0.00000000000E+00 -0.23271944414E+02  0.23271944414E+02  0.00000000000E+00 0.  1.
         25    2    1    2    0    0 -0.84880241538E+02  0.28608268052E+02  0.40637420940E+03  0.43452278142E+03  0.12508781358E+03 0.  0.
          5    1    3    3  502    0 -0.10833472758E+03  0.28743180763E+02  0.38950122916E+03  0.40532858715E+03  0.41800000000E+01 0. -1.
         -5    1    3    3    0  502  0.23454486047E+02 -0.13491271133E+00  0.16872980234E+02  0.29194194271E+02  0.41800000000E+01 0. -1.
        -11    1    1    2    0    0  0.26702257529E+02 -0.46666219120E+02  0.10627469071E+03  0.11910103463E+03  0.00000000000E+00 0.  1.
         11    1    1    2    0    0  0.58177984009E+02  0.18057951068E+02  0.33037994949E+03  0.33594892238E+03  0.00000000000E+00 0. -1.
</event>
<event>
 7    1  0.2878477E-009  0.8566283E+02  0.7561462E-02  0.1313708E+00
          1   -1    0    0  501    0  0.00000000000E+00  0.00000000000E+00  0.46558213268E+02  0.46558213268E+02  0.00000000000E+00 0. -1.
         -1   -1    0    0    0  501 -0.00000000000E+00 -0.00000000000E+00 -0.28661402313E+03  0.28661402313E+03  0.00000000000E+00 0.  1.
         25    2    1    2    0    0 -0.53164091618E+02 -0.35580100447E+01 -0.95697429112E+02  0.16626718225E+03  0.12509075858E+03 0.  0.
          5    1    3    3  502    0 -0.71755611728E+02  0.99400513163E+01 -0.51353319335E+01  0.72742810426E+02  0.41800000000E+01 0. -1.
         -5    1    3    3    0  502  0.18591520110E+02 -0.13498061361E+02 -0.90562097179E+02  0.93524371828E+02  0.41800000000E+01 0. -1.
        -11    1    1    2    0    0  0.11902555373E+02 -0.23310774942E+02 -0.89227397596E+02  0.92987050359E+02  0.00000000000E+00 0.  1.
         11    1    1    2    0    0  0.41261536246E+02  0.26868784987E+02 -0.55130983159E+02  0.73918003789E+02  0.00000000000E+00 0. -1.
</event>
<event>
 7    1  0.2878477E-009  0.1800918E+03  0.7561462E-02  0.1167714E+00
          2   -1    0    0  501    0  0.00000000000E+00  0.00000000000E+00  0.18028717125E+04  0.18028717125E+04  0.00000000000E+00 0.  1.
         -2   -1    0    0    0  501 -0.00000000000E+00 -0.00000000000E+00 -0.20472029936E+02  0.20472029936E+02  0.00000000000E+00 0. -1.
         25    2    1    2    0    0 -0.12136242954E+03  0.82458721951E+02  0.11881970968E+04  0.12037393826E+04  0.12509148737E+03 0.  0.
          5    1    3    3  502    0  0.18267069147E+02  0.33755960274E+02  0.39350997300E+03  0.39539944603E+03  0.41800000000E+01 0.  1.
         -5    1    3    3    0  502 -0.13962949869E+03  0.48702761677E+02  0.79468712380E+03  0.80833993655E+03  0.41800000000E+01 0.  1.
        -11    1    1    2    0    0  0.80539014768E+02 -0.10068083388E+03  0.39755672308E+03  0.41794079877E+03  0.00000000000E+00 0.  1.
         11    1    1    2    0    0  0.40823414773E+02  0.18222111927E+02  0.19664586265E+03  0.20166356104E+03  0.00000000000E+00 0. -1.
</event>
<event>
 7    1  0.2878477E-009  0.1511742E+03  0.7561462E-02  0.1199038E+00
          1   -1    0    0  501    0  0.00000000000E+00  0.00000000000E+00  0.12995413175E+04  0.12995413175E+04  0.00000000000E+00 0. -1.
         -1   -1    0    0    0  501 -0.00000000000E+00 -0.00000000000E+00 -0.37901271930E+02  0.37901271930E+02  0.00000000000E+00 0.  1.
         25    2    1    2    0    0 -0.12915661304E+03  0.21733099840E+02  0.10843764403E+04  0.10993967137E+04  0.12508841408E+03 0.  0.
          5    1    3    3  502    0 -0.26095814079E+02  0.39358801844E+02  0.68169112003E+03  0.68333766348E+03  0.41800000000E+01 0. -1.
         -5    1    3    3    0  502 -0.10306079897E+03 -0.17625702004E+02  0.40268532031E+03  0.41605905019E+03  0.41800000000E+01 0. -1.
        -11    1    1    2    0    0  0.10704357555E+03  0.14327597410E+02  0.88164356066E+02  0.13941506660E+03  0.00000000000E+00 0.  1.
         11    1    1    2    0    0  0.22113037490E+02 -0.36060697249E+02  0.89099249126E+02  0.98630809122E+02  0.00000000000E+00 0. -1.
</event>
<event>
 7    1  0.2878477E-009  0.1337758E+03  0.7561462E-02  0.1221958E+00
         -2   -1    0    0    0  501 -0.00000000000E+00  0.00000000000E+00  0.59782984677E+02  0.59782984677E+02  0.00000000000E+00 0. -1.
          2   -1    0    0  501    0  0.00000000000E+00 -0.00000000000E+00 -0.39504595032E+03  0.39504595032E+03  0.00000000000E+00 0.  1.
         25    2    1    2    0    0 -0.80238573290E+02 -0.63787611209E+02 -0.12648486672E+03  0.20531421566E+03  0.12509363556E+03 0.  0.
          5    1    3    3  502    0  0.12627020493E+02 -0.40292153573E+02 -0.95578144980E+02  0.10457319678E+03  0.41800000000E+01 0. -1.
         -5    1    3    3    0  502 -0.92865593783E+02 -0.23495457636E+02 -0.30906721738E+02  0.10074101889E+03  0.41800000000E+01 0. -1.
        -11    1    1    2    0    0  0.56676479200E+02  0.81844385601E+02 -0.18967678322E+03  0.21421486606E+03  0.00000000000E+00 0.  1.
         11    1    1    2    0    0  0.23562094090E+02 -0.18056774392E+02 -0.19101315706E+02  0.35299853273E+02  0.00000000000E+00 0. -1.
</event>
<event>
 7    1  0.2878477E-009  0.1662178E+03  0.7561462E-02  0.1181850E+00
          1   -1    0    0  501    0  0.00000000000E+00  0.00000000000E+00  0.99680060668E+03  0.99680060668E+03  0.00000000000E+00 0. -1.
         -1   -1    0    0    0  501 -0.00000000000E+00 -0.00000000000E+00 -0.45319974658E+02  0.45319974658E+02  0.00000000000E+00 0.  1.
         25    2    1    2    0    0  0.13953457190E+03 -0.41369146986E+02  0.22417299161E+03  0.29511689097E+03  0.12513650983E+03 0.  0.
          5    1    3    3  502    0  0.37130927139E+02 -0.50298658883E+02  0.16486035716E+03  0.17636629667E+03  0.41800000000E+01 0. -1.
         -5    1    3    3    0  502  0.10240364476E+03  0.89295118962E+01  0.59312634444E+02  0.11875059431E+03  0.41800000000E+01 0. -1.
        -11    1    1    2    0    0 -0.55108271015E+02  0.58912620176E+02  0.42736886131E+03  0.43491581021E+03  0.00000000000E+00 0. -1.
         11    1    1    2    0    0 -0.84426300885E+02 -0.17543473189E+02  0.29993877910E+03  0.31208788016E+03  0.00000000000E+00 0.  1.
</event>
<event>
 7    1  0.2878477E-009  0.1041186E+03  0.7561462E-02  0.1271866E+00
          1   -1    0    0  501    0  0.00000000000E+00  0.00000000000E+00  0.32559720546E+02  0.32559720546E+02  0.00000000000E+00 0. -1.
         -1   -1    0    0    0  501 -0.00000000000E+00 -0.00000000000E+00 -0.57331110051E+03  0.57331110051E+03  0.00000000000E+00 0.  1.
         25    2    1    2    0    0 -0.51482744270E+02  0.39360988733E+02 -0.40684889380E+03  0.43054933149E+03  0.12508774548E+03 0.  0.
          5    1    3    3  502    0  0.50501132808E+01  0.66666805156E+02 -0.12559378050E+03  0.14234197081E+03  0.41800000000E+01 0.  1.
         -5    1    3    3    0  502 -0.56532857551E+02 -0.27305816423E+02 -0.28125511329E+03  0.28820736068E+03  0.41800000000E+01 0.  1.
        -11    1    1    2    0    0  0.35963173252E+02 -0.48453080887E+02 -0.14296734970E+03  0.15517961837E+03  0.00000000000E+00 0.  1.
         11    1    1    2    0    0  0.15519571018E+02  0.90920921543E+01  0.90648635336E+01  0.20141871195E+02  0.00000000000E+00 0. -1.
</event>
<event>
 7    1  0.2878477E-009  0.8977169E+02  0.7561462E-02  0.1303406E+00
         -2   -1    0    0    0  501 -0.00000000000E+00  0.00000000000E+00  0.49962708006E+02  0.49962708006E+02  0.00000000000E+00 0.  1.
          2   -1    0    0  501    0  0.00000000000E+00 -0.00000000000E+00 -0.24358108804E+03  0.24358108804E+03  0.00000000000E+00 0. -1.
         25    2    1    2    0    0 -0.12054104054E+01  0.44672570433E+01 -0.87442751839E+02  0.15269452669E+03  0.12509186318E+03 0.  0.
          5    1    3    3  502    0 -0.49672609136E+02 -0.36823540490E+01 -0.90381310200E+02  0.10328204812E+03  0.41800000000E+01 0.  1.
         -5    1    3    3    0  502  0.48467198730E+02  0.81496110923E+01  0.29385583611E+01  0.49412478575E+02  0.41800000000E+01 0.  1.
        -11    1    1    2    0    0  0.15563236880E+02 -0.39455872797E+02 -0.20315666564E+02  0.47028784253E+02  0.00000000000E+00 0.  1.
         11    1    1    2    0    0 -0.14357826475E+02  0.34988615754E+02 -0.85859961627E+02  0.93820485098E+02  0.00000000000E+00 0. -1.
</event>
<event>
 7    1  0.2878477E-009  0.1157691E+03  0.7561462E-02  0.1250245E+00
          2   -1    0    0  501    0  0.00000000000E+00  0.00000000000E+00  0.31880450901E+03  0.31880450901E+03  0.00000000000E+00 0.  1.
         -2   -1    0    0    0  501 -0.00000000000E+00 -0.00000000000E+00 -0.51616211864E+02  0.51616211864E+02  0.00000000000E+00 0. -1.
         25    2    1    2    0    0 -0.34583432882E+02 -0.43701242091E+02  0.21009545084E+03  0.25078646712E+03  0.12509173129E+03 0.  0.
          5    1    3    3  502    0 -0.80027201731E+02 -0.39518967581E+02  0.15703905047E+03  0.18067882440E+03  0.41800000000E+01 0.  1.
         -5    1    3    3    0  502  0.45443768849E+02 -0.41822745100E+01  0.53056400367E+02  0.70107642716E+02  0.41800000000E+01 0.  1.
        -11    1    1    2    0    0  0.30955895517E+02  0.66459317272E+02  0.62065501639E+02  0.96058496829E+02  0.00000000000E+00 0.  1.
         11    1    1    2    0    0  0.36275373651E+01 -0.22758075181E+02 -0.49726553344E+01  0.23575756920E+02  0.00000000000E+00 0. -1.
</event>
<event>
 7    1  0.3047990E-009  0.9749503E+02  0.7561462E-02  0.1285654E+00
         -1   -1    0    0    0  501 -0.00000000000E+00  0.00000000000E+00  0.14237607636E+02  0.14237607636E+02  0.00000000000E+00 0.  1.
          1   -1    0    0  501    0  0.00000000000E+00 -0.00000000000E+00 -0.11466794642E+04  0.11466794642E+04  0.00000000000E+00 0. -1.
         25    2    1    2    0    0 -0.67219709467E+02 -0.60980524708E+01 -0.64176447706E+03  0.65731643956E+03  0.12509029586E+03 0.  0.
          5    1    3    3  502    0 -0.98669492248E+01  0.26546477169E+02 -0.28149824770E+02  0.40149186438E+02  0.41800000000E+01 0. -1.
         -5    1    3    3    0  502 -0.57352760242E+02 -0.32644529640E+02 -0.61361465229E+03  0.61716725312E+03  0.41800000000E+01 0. -1.
        -11    1    1    2    0    0 -0.13689255022E+02  0.13201122156E+02 -0.27994830238E+02  0.33843401857E+02  0.00000000000E+00 0.  1.
         11    1    1    2    0    0  0.80908964489E+02 -0.71030696849E+01 -0.46268254923E+03  0.46975723038E+03  0.00000000000E+00 0. -1.
</event>
<event>
 7    1  0.2878477E-009  0.1365152E+03  0.7561462E-02  0.1218096E+00
          2   -1    0    0  501    0  0.00000000000E+00  0.00000000000E+00  0.78726579635E+03  0.78726579635E+03  0.00000000000E+00 0. -1.
         -2   -1    0    0    0  501 -0.00000000000E+00 -0.00000000000E+00 -0.32473262214E+02  0.32473262214E+02  0.00000000000E+00 0.  1.
         25    2    1    2    0    0  0.78978257374E+02  0.47593478304E+02  0.59040724665E+03  0.61051651407E+03  0.12508794001E+03 0.  0.
          5    1    3    3  502    0  0.59244824102E+01  0.75384810163E+02  0.24960378089E+03  0.26083996805E+03  0.41800000000E+01 0.  1.
         -5    1    3    3    0  502  0.73053774964E+02 -0.27791331859E+02  0.34080346576E+03  0.34967654602E+03  0.41800000000E+01 0.  1.
        -11    1    1    2    0    0 -0.83343275292E+02 -0.13232192664E+02  0.73311654547E+02  0.11178457475E+03  0.00000000000E+00 0.  1.
         11    1    1    2    0    0  0.43650179182E+01 -0.34361285640E+02  0.91073632940E+02  0.97437969751E+02  0.00000000000E+00 0. -1.
</event>
<event>
 7    1  0.2878477E-009  0.1344076E+03  0.7561462E-02  0.1221058E+00
          1   -1    0    0  501    0  0.00000000000E+00  0.00000000000E+00  0.79402719553E+02  0.79402719553E+02  0.00000000000E+00 0. -1.
         -1   -1    0    0    0  501 -0.00000000000E+00 -0.00000000000E+00 -0.27010269320E+03  0.27010269320E+03  0.00000000000E+00 0.  1.
         25    2    1    2    0    0  0.47121496182E+02 -0.68988917760E+02 -0.16394841215E+03  0.22250105558E+03  0.12509089381E+03 0.  0.
          5    1    3    3  502    0  0.79369881970E+02 -0.83028410012E+02 -0.12811305729E+03  0.17211543475E+03  0.41800000000E+01 0. -1.
         -5    1    3    3    0  502 -0.32248385787E+02  0.14039492252E+02 -0.35835354860E+02  0.50385620831E+02  0.41800000000E+01 0. -1.
        -11    1    1    2    0    0  0.22872302317E+02  0.31877282309E+02  0.87371851971E+01  0.40195046285E+02  0.00000000000E+00 0. -1.
         11    1    1    2    0    0 -0.69993798499E+02  0.37111635450E+02 -0.35488746701E+02  0.86809310886E+02  0.00000000000E+00 0.  1.
</event>
<event>
 7    1  0.2878477E-009  0.1487421E+03  0.7561462E-02  0.1202027E+00
          1   -1    0    0  501    0  0.00000000000E+00  0.00000000000E+00  0.18548205863E+03  0.18548205863E+03  0.00000000000E+00 0. -1.
         -1   -1    0    0    0  501 -0.00000000000E+00 -0.00000000000E+00 -0.17395028191E+03  0.17395028191E+03  0.00000000000E+00 0.  1.
         25    2    1    2    0    0  0.43123795907E+02 -0.12582812091E+03 -0.58828693160E+02  0.19183996784E+03  0.12509748333E+03 0.  0.
          5    1    3    3  502    0  0.96841925954E+01 -0.12287829791E+03  0.74397939378E+00  0.12333241906E+03  0.41800000000E+01 0. -1.
         -5    1    3    3    0  502  0.33439603311E+02 -0.29498229992E+01 -0.59572672554E+02  0.68507548785E+02  0.41800000000E+01 0. -1.
        -11    1    1    2    0    0 -0.44672317002E+02  0.61676818030E+02  0.55015667100E+01  0.76353867125E+02  0.00000000000E+00 0.  1.
         11    1    1    2    0    0  0.15485210949E+01  0.64151302884E+02  0.64858903172E+02  0.91238505577E+02  0.00000000000E+00 0. -1.
</event>
<event>
 7    1  0.2878477E-009  0.1883545E+03  0.7561462E-02  0.1159954E+00
         -2   -1    0    0    0  501 -0.00000000000E+00  0.00000000000E+00  0.86328868071E+02  0.86328868071E+02  0.00000000000E+00 0.  1.
          2   -1    0    0  501    0  0.00000000000E+00 -0.00000000000E+00 -0.53705316137E+03  0.53705316137E+03  0.00000000000E+00 0. -1.
         25    2    1    2    0    0  0.87639146122E+02  0.14720263000E+03 -0.12003658016E+03  0.24373533432E+03  0.12509555711E+03 0.  0.
          5    1    3    3  502    0 -0.41178054592E+01  0.78824269573E+02 -0.10003216517E+03  0.12749167919E+03  0.41800000000E+01 0. -1.
         -5    1    3    3    0  502  0.91756951581E+02  0.68378360422E+02 -0.20004414991E+02  0.11624365512E+03  0.41800000000E+01 0. -1.
        -11    1    1    2    0    0 -0.88812295877E+02 -0.91755666690E+02 -0.26116996030E+03  0.29071717257E+03  0.00000000000E+00 0.  1.
         11    1    1    2    0    0  0.11731497553E+01 -0.55446963306E+02 -0.69517752849E+02  0.88929522553E+02  0.00000000000E+00 0. -1.
</event>
<event>
 7    1  0.2878477E-009  0.1072506E+03  0.7561462E-02  0.1265748E+00
          1   -1    0    0  501    0  0.00000000000E+00  0.00000000000E+00  0.41042548473E+03  0.41042548473E+03  0.00000000000E+00 0. -1.
         -1   -1    0    0    0  501 -0.00000000000E+00 -0.00000000000E+00 -0.44124735920E+02  0.44124735920E+02  0.00000000000E+00 0.  1.
         25    2    1    2    0    0  0.68697800274E+02  0.12395250173E+01  0.20694826767E+03  0.25137847528E+03  0.12507049275E+03 0.  0.
          5    1    3    3  502    0  0.99019465942E+02  0.19785990075E+02  0.18053591937E+03  0.20689859986E+03  0.41800000000E+01 0. -1.
         -5    1    3    3    0  502 -0.30321665667E+02 -0.18546465058E+02  0.26412348296E+02  0.44479875421E+02  0.41800000000E+01 0. -1.
        -11    1    1    2    0    0 -0.48011335990E+02  0.16118195422E+02  0.10285531123E+02  0.51678590902E+02  0.00000000000E+00 0.  1.
         11    1    1    2    0    0 -0.20686464285E+02 -0.17357720439E+02  0.14906695002E+03  0.15149315447E+03  0.00000000000E+00 0. -1.
</event>
<event>
 7    1  0.2878477E-009  0.1194963E+03  0.7561462E-02  0.1243930E+00
          2   -1    0    0  501    0  0.00000000000E+00  0.00000000000E+00  0.15119521878E+03  0.15119521878E+03  0.00000000000E+00 0.  1.
         -2   -1    0    0    0  501 -0.00000000000E+00 -0.00000000000E+00 -0.14404211057E+03  0.14404211057E+03  0.00000000000E+00 0. -1.
         25    2    1    2    0    0  0.88838986901E+02 -0.22912752148E+01 -0.41762917980E+02  0.15902498622E+03  0.12508872607E+03 0.  0.
          5    1    3    3  502    0  0.88345342161E+02  0.36510971952E+02 -0.63028710149E+02  0.11457766474E+03  0.41800000000E+01 0. -1.
         -5    1    3    3    0  502  0.49364474095E+00 -0.38802247167E+02  0.21265792169E+02  0.44447321482E+02  0.41800000000E+01 0. -1.
        -11    1    1    2    0    0 -0.65427243011E+02  0.26510093893E+02  0.67559204097E+02  0.97712615687E+02  0.00000000000E+00 0.  1.
         11    1    1    2    0    0 -0.23411743891E+02 -0.24218818678E+02 -0.18643177910E+02  0.38499727437E+02  0.00000000000E+00 0. -1.
</event>
<event>
 7    1  0.2878477E-009  0.1121773E+03  0.7561462E-02  0.1256590E+00
          2   -1    0    0  501    0  0.00000000000E+00  0.00000000000E+00  0.56312404712E+03  0.56312404712E+03  0.00000000000E+00 0.  1.
         -2   -1    0    0    0  501 -0.00000000000E+00 -0.00000000000E+00 -0.32129039837E+02  0.32129039837E+02  0.00000000000E+00 0. -1.
         25    2    1    2    0    0  0.55407711329E+02 -0.17144095100E+02  0.18436026178E+03  0.23020976478E+03  0.12507555798E+03 0.  0.
          5    1    3    3  502    0 -0.29640806234E+02  0.78561354037E+01  0.67693978778E+01  0.31679542379E+02  0.41800000000E+01 0.  1.
         -5    1    3    3    0  502  0.85048517563E+02 -0.25000230504E+02  0.17759086390E+03  0.19853022240E+03  0.41800000000E+01 0.  1.
        -11    1    1    2    0    0 -0.36300543405E+02 -0.34202312117E+02  0.24033758132E+03  0.24545810355E+03  0.00000000000E+00 0.  1.
         11    1    1    2    0    0 -0.19107167924E+02  0.51346407217E+02  0.10629716419E+03  0.11958521863E+03  0.00000000000E+00 0. -1.
</event>
<event>
 7    1  0.2878477E-009  0.1135232E+03  0.7561462E-02  0.1254181E+00
          2   -1    0    0  501    0  0.00000000000E+00  0.00000000000E+00  0.13440988511E+04  0.13440988511E+04  0.00000000000E+00 0. -1.
         -2   -1    0    0    0  501 -0.00000000000E+00 -0.00000000000E+00 -0.10934738967E+02  0.10934738967E+02  0.00000000000E+00 0.  1.
         25    2    1    2    0    0 -0.29666095695E+02  0.42184847172E+02  0.86077872447E+03  0.87134768586E+03  0.12508852297E+03 0.  0.
          5    1    3    3  502    0  0.26085780188E+02  0.62277587640E+02  0.60447716217E+03  0.60825083464E+03  0.41800000000E+01 0. -1.
         -5    1    3    3    0  502 -0.55751875883E+02 -0.20092740468E+02  0.25630156230E+03  0.26309685122E+03  0.41800000000E+01 0. -1.
        -11    1    1    2    0    0 -0.19696991271E+02 -0.46437183583E+02  0.30422607716E+03  0.30837945701E+03  0.00000000000E+00 0. -1.
         11    1    1    2    0    0  0.49363086966E+02  0.42523364103E+01  0.16815931048E+03  0.17530644717E+03  0.00000000000E+00 0.  1.
</event>
<event>
 7    1  0.2878477E-009  0.8437655E+02  0.7561462E-02  0.1317071E+00
         -3   -1    0    0    0  501 -0.00000000000E+00  0.00000000000E+00  0.20659403557E+03  0.20659403557E+03  0.00000000000E+00 0.  1.
          3   -1    0    0  501    0  0.00000000000E+00 -0.00000000000E+00 -0.64962214742E+02  0.64962214742E+02  0.00000000000E+00 0. -1.
         25    2    1    2    0    0 -0.73670544094E+01 -0.31004875632E+02  0.10587827084E+03  0.16695480870E+03  0.12509246223E+03 0.  0.
          5    1    3    3  502    0 -0.31916132412E+02 -0.49119643782E+02  0.11960112817E+03  0.13324143940E+03  0.41800000000E+01 0. -1.
         -5    1    3    3    0  502  0.24549078003E+02  0.18114768150E+02 -0.13722857333E+02  0.33713369296E+02  0.41800000000E+01 0. -1.
        -11    1    1    2    0    0  0.20155391105E+02 -0.18950907916E+02 -0.15654341130E+02  0.31787341783E+02  0.00000000000E+00 0. -1.
         11    1    1    2    0    0 -0.12788336696E+02  0.49955783548E+02  0.51407891123E+02  0.72814099837E+02  0.00000000000E+00 0.  1.
</event>
<event>
 7    1  0.2878477E-009  0.1007732E+03  0.7561462E-02  0.1278678E+00
         -1   -1    0    0    0  501 -0.00000000000E+00  0.00000000000E+00  0.16952167836E+03  0.16952167836E+03  0.00000000000E+00 0.  1.
          1   -1    0    0  501    0  0.00000000000E+00 -0.00000000000E+00 -0.89862366568E+02  0.89862366568E+02  0.00000000000E+00 0. -1.
         25    2    1    2    0    0 -0.27422795210E+01 -0.40845601744E+02 -0.13830005411E+00  0.13162535533E+03  0.12509728917E+03 0.  0.
          5    1    3    3  502    0  0.35405199995E+02 -0.73164197993E+02 -0.21049348242E+01  0.81415177978E+02  0.41800000000E+01 0. -1.
         -5    1    3    3    0  502 -0.38147479516E+02  0.32318596249E+02  0.19666347701E+01  0.50210177347E+02  0.41800000000E+01 0. -1.
        -11    1    1    2    0    0  0.28812029209E+02  0.30450725819E+02  0.88871544176E+02  0.98262562018E+02  0.00000000000E+00 0.  1.
         11    1    1    2    0    0 -0.26069749688E+02  0.10394875925E+02 -0.90739323327E+01  0.29496127581E+02  0.00000000000E+00 0. -1.
</event>
<event>
 7    1  0.2878477E-009  0.1272178E+03  0.7561462E-02  0.1231643E+00
          2   -1    0    0  501    0  0.00000000000E+00  0.00000000000E+00  0.13527959022E+04  0.13527959022E+04  0.00000000000E+00 0. -1.
         -2   -1    0    0    0  501 -0.00000000000E+00 -0.00000000000E+00 -0.14134306760E+02  0.14134306760E+02  0.00000000000E+00 0.  1.
         25    2    1    2    0    0  0.43832005536E+02 -0.71903295318E+02  0.64658180497E+03  0.66393299523E+03  0.12509061931E+03 0.  0.
          5    1    3    3  502    0  0.19284953908E+02 -0.95068979507E+02  0.58984889666E+03  0.59778692994E+03  0.41800000000E+01 0. -1.
         -5    1    3    3    0  502  0.24547051628E+02  0.23165684189E+02  0.56732908314E+02  0.66146065290E+02  0.41800000000E+01 0. -1.
        -11    1    1    2    0    0 -0.41388264571E+02  0.93156651256E+02  0.58144236640E+03  0.59031040611E+03  0.00000000000E+00 0. -1.
         11    1    1    2    0    0 -0.24437409658E+01 -0.21253355938E+02  0.11063742410E+03  0.11268680766E+03  0.00000000000E+00 0.  1.
</event>
<event>
 7    1  0.2878477E-009  0.1080285E+03  0.7561462E-02  0.1264265E+00
          1   -1    0    0  501    0  0.00000000000E+00  0.00000000000E+00  0.20755498092E+02  0.20755498092E+02  0.00000000000E+00 0. -1.
         -1   -1    0    0    0  501 -0.00000000000E+00 -0.00000000000E+00 -0.66276683569E+03  0.66276683569E+03  0.00000000000E+00 0.  1.
         25    2    1    2    0    0  0.11809813260E+02 -0.38728425927E+02 -0.30927302422E+03  0.33605122151E+03  0.12506501230E+03 0.  0.
          5    1    3    3  502    0  0.38416874874E+01  0.42593355030E+02 -0.16172973640E+03  0.16734076757E+03  0.41800000000E+01 0. -1.
         -5    1    3    3    0  502  0.79681257726E+01 -0.81321780957E+02 -0.14754328782E+03  0.16871045394E+03  0.41800000000E+01 0. -1.
        -11    1    1    2    0    0 -0.47130419501E+02  0.25214096875E+02 -0.26055580087E+03  0.26598186497E+03  0.00000000000E+00 0.  1.
         11    1    1    2    0    0  0.35320606241E+02  0.13514329052E+02 -0.72182512506E+02  0.81489247307E+02  0.00000000000E+00 0. -1.
</event>
<event>
 7    1  0.2878477E-009  0.9209644E+02  0.7561462E-02  0.1297853E+00
          4   -1    0    0  501    0  0.00000000000E+00  0.00000000000E+00  0.36667115882E+02  0.36667115882E+02  0.00000000000E+00 0.  1.
         -4   -1    0    0    0  501 -0.00000000000E+00 -0.00000000000E+00 -0.45430247867E+03  0.45430247867E+03  0.00000000000E+00 0. -1.
         25    2    1    2    0    0 -0.66689091856E+02  0.42064591736E+01 -0.26773993840E+03  0.30298082378E+03  0.12509027017E+03 0.  0.
          5    1    3    3  502    0 -0.52367323805E+02 -0.39422698947E+02 -0.24075922807E+03  0.24955753664E+03  0.41800000000E+01 0.  1.
         -5    1    3    3    0  502 -0.14321768051E+02  0.43629158121E+02 -0.26980710333E+02  0.53423287137E+02  0.41800000000E+01 0.  1.
        -11    1    1    2    0    0  0.48048726735E+02  0.98604709647E+01 -0.15297686046E+02  0.51380231868E+02  0.00000000000E+00 0.  1.
         11    1    1    2    0    0  0.18640365122E+02 -0.14066930138E+02 -0.13459773834E+03  0.13660853890E+03  0.00000000000E+00 0. -1.
</event>
<event>
 7    1  0.2878477E-009  0.9099143E+02  0.7561462E-02  0.1300468E+00
         -2   -1    0    0    0  501 -0.00000000000E+00  0.00000000000E+00  0.87438165401E+02  0.87438165401E+02  0.00000000000E+00 0.  1.
          2   -1    0    0  501    0  0.00000000000E+00 -0.00000000000E+00 -0.18217039598E+03  0.18217039598E+03  0.00000000000E+00 0. -1.
         25    2    1    2    0    0  0.34347446111E+02 -0.51746776807E+02 -0.40252486002E+02  0.14534300898E+03  0.12508737612E+03 0.  0.
          5    1    3    3  502    0 -0.28912814604E+02 -0.26946969789E+02  0.28254622442E+02  0.48763573685E+02  0.41800000000E+01 0. -1.
         -5    1    3    3    0  502  0.63260260715E+02 -0.24799807018E+02 -0.68507108445E+02  0.96579435292E+02  0.41800000000E+01 0. -1.
        -11    1    1    2    0    0 -0.43345928994E+02  0.37518827573E+02 -0.77094105579E+02  0.96073061249E+02  0.00000000000E+00 0. -1.
         11    1    1    2    0    0  0.89984828834E+01  0.14227949234E+02  0.22614361005E+02  0.28192491151E+02  0.00000000000E+00 0.  1.
</event>
<event>
 7    1  0.2980207E-009  0.1266757E+03  0.7561462E-02  0.1232473E+00
          2   -1    0    0  501    0  0.00000000000E+00  0.00000000000E+00  0.16292975631E+03  0.16292975631E+03  0.00000000000E+00 0. -1.
         -2   -1    0    0    0  501 -0.00000000000E+00 -0.00000000000E+00 -0.14299679497E+03  0.14299679497E+03  0.00000000000E+00 0.  1.
         25    2    1    2    0    0  0.61304592311E+02  0.85810549004E+02 -0.63545663723E+01  0.16373479958E+03  0.12508797193E+03 0.  0.
          5    1    3    3  502    0  0.36331702577E+02  0.10423664880E+03 -0.40266190453E+02  0.11757597569E+03  0.41800000000E+01 0. -1.
         -5    1    3    3    0  502  0.24972889734E+02 -0.18426099798E+02  0.33911624081E+02  0.46158823893E+02  0.41800000000E+01 0. -1.
        -11    1    1    2    0    0 -0.60335479757E+02 -0.57834627857E+02 -0.21957540309E+02  0.86413817606E+02  0.00000000000E+00 0.  1.
         11    1    1    2    0    0 -0.96911255365E+00 -0.27975921147E+02  0.48245068025E+02  0.55777934095E+02  0.00000000000E+00 0. -1.
</event>
<event>
 7    1  0.2878477E-009  0.1947757E+03  0.7561462E-02  0.1154223E+00
         -2   -1    0    0    0  501 -0.00000000000E+00  0.00000000000E+00  0.37694134932E+02  0.37694134932E+02  0.00000000000E+00 0.  1.
          2   -1    0    0  501    0  0.00000000000E+00 -0.00000000000E+00 -0.11811167573E+04  0.11811167573E+04  0.00000000000E+00 0. -1.
         25    2    1    2    0    0 -0.21095957471E+01 -0.18024082766E+03 -0.55453144275E+03  0.59635850846E+03  0.12508854173E+03 0.  0.
          5    1    3    3  502    0 -0.12665979192E+02 -0.18933640934E+03 -0.54884583012E+03  0.58073911576E+03  0.41800000000E+01 0.  1.
         -5    1    3    3    0  502  0.10556383445E+02  0.90955816773E+01 -0.56856126223E+01  0.15619392702E+02  0.41800000000E+01 0.  1.
        -11    1    1    2    0    0  0.22320130541E+02  0.91030924713E+02 -0.42052323158E+03  0.43084174099E+03  0.00000000000E+00 0. -1.
         11    1    1    2    0    0 -0.20210534794E+02  0.89209902945E+02 -0.16836794807E+03  0.19161064281E+03  0.00000000000E+00 0.  1.
</event>
<event>
 7    1  0.2878477E-009  0.1342636E+03  0.7561462E-02  0.1221263E+00
         -2   -1    0    0    0  501 -0.00000000000E+00  0.00000000000E+00  0.70785669972E+02  0.70785669972E+02  0.00000000000E+00 0.  1.
          2   -1    0    0  501    0  0.00000000000E+00 -0.00000000000E+00 -0.33406431784E+03  0.33406431784E+03  0.00000000000E+00 0. -1.
         25    2    1    2    0    0  0.71017228935E+02 -0.78107844916E+02 -0.10183411465E+03  0.19277132362E+03  0.12508522719E+03 0.  0.
          5    1    3    3  502    0  0.94243335434E+02 -0.19780934927E+02 -0.82707544408E+02  0.12700827517E+03  0.41800000000E+01 0.  1.
         -5    1    3    3    0  502 -0.23226106499E+02 -0.58326909989E+02 -0.19126570242E+02  0.65763048448E+02  0.41800000000E+01 0.  1.
        -11    1    1    2    0    0 -0.34241794750E+02  0.57873876148E+02 -0.15584334572E+03  0.16973224341E+03  0.00000000000E+00 0.  1.
         11    1    1    2    0    0 -0.36775434185E+02  0.20233968769E+02 -0.56011875012E+01  0.42346420782E+02  0.00000000000E+00 0. -1.
</event>
<event>
 7    1  0.2878477E-009  0.7538114E+02  0.7561462E-02  0.1342695E+00
          2   -1    0    0  501    0  0.00000000000E+00  0.00000000000E+00  0.35662985311E+02  0.35662985311E+02  0.00000000000E+00 0. -1.
         -2   -1    0    0    0  501 -0.00000000000E+00 -0.00000000000E+00 -0.38683269001E+03  0.38683269001E+03  0.00000000000E+00 0.  1.
         25    2    1    2    0    0 -0.21643830219E+02  0.33048837242E+02 -0.16201803561E+03  0.20847169175E+03  0.12509964575E+03 0.  0.
          5    1    3    3  502    0 -0.31242954372E+02  0.95363396248E+01  0.10095006920E+02  0.34444818712E+02  0.41800000000E+01 0. -1.
         -5    1    3    3    0  502  0.95991241538E+01  0.23512497618E+02 -0.17211304254E+03  0.17402687304E+03  0.41800000000E+01 0. -1.
        -11    1    1    2    0    0 -0.50307347905E+01  0.26430476872E+02 -0.22487587334E+02  0.35065224715E+02  0.00000000000E+00 0.  1.
         11    1    1    2    0    0  0.26674565009E+02 -0.59479314114E+02 -0.16666408175E+03  0.17895875886E+03  0.00000000000E+00 0. -1.
</event>
<event>
 7    1  0.2878477E-009  0.1127759E+03  0.7561462E-02  0.1255514E+00
          4   -1    0    0  501    0  0.00000000000E+00  0.00000000000E+00  0.51671428817E+02  0.51671428817E+02  0.00000000000E+00 0. -1.
         -4   -1    0    0    0  501 -0.00000000000E+00 -0.00000000000E+00 -0.25780207222E+03  0.25780207222E+03  0.00000000000E+00 0.  1.
         25    2    1    2    0    0  0.39735353950E+02 -0.17953417825E+01 -0.11618045023E+03  0.17529375360E+03  0.12509149224E+03 0.  0.
          5    1    3    3  502    0  0.72166100653E+02 -0.37656959883E+02 -0.84108036884E+02  0.11712227363E+03  0.41800000000E+01 0.  1.
         -5    1    3    3    0  502 -0.32430746703E+02  0.35861618100E+02 -0.32072413345E+02  0.58171479973E+02  0.41800000000E+01 0.  1.
        -11    1    1    2    0    0 -0.50491390733E+02 -0.32181072894E+02 -0.73851866733E+02  0.95074182672E+02  0.00000000000E+00 0.  1.
         11    1    1    2    0    0  0.10756036783E+02  0.33976414677E+02 -0.16098326443E+02  0.39105564768E+02  0.00000000000E+00 0. -1.
</event>
<event>
 7    1  0.4705316E-009  0.1147739E+03  0.7561462E-02  0.1251976E+00
          1   -1    0    0  501    0  0.00000000000E+00  0.00000000000E+00  0.16454787402E+03  0.16454787402E+03  0.00000000000E+00 0. -1.
         -1   -1    0    0    0  501 -0.00000000000E+00 -0.00000000000E+00 -0.11312225893E+03  0.11312225893E+03  0.00000000000E+00 0.  1.
         25    2    1    2    0    0  0.75055396213E+02 -0.34144497468E+02  0.29534247762E+02  0.15270862234E+03  0.12509393406E+03 0.  0.
          5    1    3    3  502    0 -0.31026941168E+01 -0.30967221969E+02 -0.37990150133E+02  0.49288126911E+02  0.41800000000E+01 0.  1.
         -5    1    3    3    0  502  0.78158090330E+02 -0.31772754989E+01  0.67524397896E+02  0.10342049543E+03  0.41800000000E+01 0.  1.
        -11    1    1    2    0    0 -0.54906174207E+02 -0.22766581893E+02 -0.33300487711E+01  0.59532297470E+02  0.00000000000E+00 0. -1.
         11    1    1    2    0    0 -0.20149222006E+02  0.56911079362E+02  0.25221416105E+02  0.65429213138E+02  0.00000000000E+00 0.  1.
</event>
<event>
 7    1  0.2878477E-009  0.9387724E+02  0.7561462E-02  0.1293725E+00
          1   -1    0    0  501    0  0.00000000000E+00  0.00000000000E+00  0.16970658496E+03  0.16970658496E+03  0.00000000000E+00 0. -1.
         -1   -1    0    0    0  501 -0.00000000000E+00 -0.00000000000E+00 -0.11976032655E+03  0.11976032655E+03  0.00000000000E+00 0.  1.
         25    2    1    2    0    0  0.30927612962E+02  0.24467279705E+02 -0.56801423690E+02  0.14293540899E+03  0.12509582083E+03 0.  0.
          5    1    3    3  502    0 -0.25452100249E+02 -0.24519317153E+00 -0.74424968133E+02  0.78768126856E+02  0.41800000000E+01 0. -1.
         -5    1    3    3    0  502  0.56379713211E+02  0.24712472876E+02  0.17623544443E+02  0.64167282132E+02  0.41800000000E+01 0. -1.
        -11    1    1    2    0    0  0.31357420822E+02  0.43040641320E+01  0.37087034427E+02  0.48757162871E+02  0.00000000000E+00 0. -1.
         11    1    1    2    0    0 -0.62285033783E+02 -0.28771343837E+02  0.69660647674E+02  0.97774339650E+02  0.00000000000E+00 0.  1.
</event>
<event>
 7    1  0.2878477E-009  0.2238515E+03  0.7561462E-02  0.1131044E+00
         -2   -1    0    0    0  501 -0.00000000000E+00  0.00000000000E+00  0.13973765839E+03  0.13973765839E+03  0.00000000000E+00 0.  1.
          2   -1    0    0  501    0  0.00000000000E+00 -0.00000000000E+00 -0.18139936765E+04  0.18139936765E+04  0.00000000000E+00 0. -1.
         25    2    1    2    0    0 -0.20578936925E+03  0.47940314056E+02 -0.17052532242E+04  0.17228416295E+04  0.12508870320E+03 0.  0.
          5    1    3    3  502    0 -0.13172688367E+03 -0.15912597886E+02 -0.12590806658E+04  0.12660595475E+04  0.41800000000E+01 0. -1.
         -5    1    3    3    0  502 -0.74062485575E+02  0.63852911941E+02 -0.44617255844E+03  0.45678208200E+03  0.41800000000E+01 0. -1.
        -11    1    1    2    0    0  0.16901726148E+03 -0.58437625240E+02  0.53314893287E+02  0.18661261632E+03  0.00000000000E+00 0.  1.
         11    1    1    2    0    0  0.36772107764E+02  0.10497311184E+02 -0.22317687207E+02  0.44277089039E+02  0.00000000000E+00 0. -1.
</event>
<event>
 7    1  0.2878477E-009  0.1490574E+03  0.7561462E-02  0.1201636E+00
         -3   -1    0    0    0  501 -0.00000000000E+00  0.00000000000E+00  0.21433998859E+03  0.21433998859E+03  0.00000000000E+00 0.  1.
          3   -1    0    0  501    0  0.00000000000E+00 -0.00000000000E+00 -0.16802178368E+03  0.16802178368E+03  0.00000000000E+00 0. -1.
         25    2    1    2    0    0  0.46533673427E+02  0.10640322321E+03  0.12865239480E+03  0.21374203022E+03  0.12508872100E+03 0.  0.
          5    1    3    3  502    0  0.35902664335E+02 -0.21136606978E+02  0.23267019425E+02  0.47901816811E+02  0.41800000000E+01 0. -1.
         -5    1    3    3    0  502  0.10631009093E+02  0.12753983019E+03  0.10538537538E+03  0.16584021341E+03  0.41800000000E+01 0. -1.
        -11    1    1    2    0    0 -0.34591042220E+02 -0.18014124141E+02  0.99789953362E+01  0.40257039364E+02  0.00000000000E+00 0.  1.
         11    1    1    2    0    0 -0.11942631208E+02 -0.88389099070E+02 -0.92313185228E+02  0.12836270269E+03  0.00000000000E+00 0. -1.
</event>
<event>
 7    1  0.2878477E-009  0.1325928E+03  0.7561462E-02  0.1223658E+00
          1   -1    0    0  501    0  0.00000000000E+00  0.00000000000E+00  0.11773804649E+04  0.11773804649E+04  0.00000000000E+00 0. -1.
         -1   -1    0    0    0  501 -0.00000000000E+00 -0.00000000000E+00 -0.15272562251E+02  0.15272562251E+02  0.00000000000E+00 0.  1.
         25    2    1    2    0    0  0.25883249766E+02 -0.74557960937E+02  0.68156877298E+03  0.69743307924E+03  0.12509226816E+03 0.  0.
          5    1    3    3  502    0  0.12210890967E+02  0.34181018192E+02  0.21998822131E+03  0.22300165420E+03  0.41800000000E+01 0. -1.
         -5    1    3    3    0  502  0.13672358800E+02 -0.10873897913E+03  0.46158055168E+03  0.47443142504E+03  0.41800000000E+01 0. -1.
        -11    1    1    2    0    0 -0.44830509404E+01 -0.20783038375E+02  0.10846430919E+03  0.11052845244E+03  0.00000000000E+00 0. -1.
         11    1    1    2    0    0 -0.21400198826E+02  0.95340999312E+02  0.37207482048E+03  0.38469149548E+03  0.00000000000E+00 0.  1.
</event>
<event>
 7    1  0.2878477E-009  0.9702914E+02  0.7561462E-02  0.1286670E+00
         -2   -1    0    0    0  501 -0.00000000000E+00  0.00000000000E+00  0.12053314670E+03  0.12053314670E+03  0.00000000000E+00 0.  1.
          2   -1    0    0  501    0  0.00000000000E+00 -0.00000000000E+00 -0.13867279594E+03  0.13867279594E+03  0.00000000000E+00 0. -1.
         25    2    1    2    0    0  0.20908517369E+02 -0.27082855861E+02 -0.74080589883E+02  0.14935168525E+03  0.12508934771E+03 0.  0.
          5    1    3    3  502    0  0.54084675077E+02  0.30313260276E+02 -0.26052843066E+02  0.67381517188E+02  0.41800000000E+01 0.  1.
         -5    1    3    3    0  502 -0.33176157708E+02 -0.57396116137E+02 -0.48027746817E+02  0.81970168062E+02  0.41800000000E+01 0.  1.
        -11    1    1    2    0    0 -0.33982901638E+02  0.36123064243E+02  0.71889347091E+02  0.87337229171E+02  0.00000000000E+00 0.  1.
         11    1    1    2    0    0  0.13074384269E+02 -0.90402083813E+01 -0.15948406450E+02  0.22517028221E+02  0.00000000000E+00 0. -1.
</event>
<event>
 7    1  0.2878477E-009  0.1143682E+03  0.7561462E-02  0.1252688E+00
          1   -1    0    0  501    0  0.00000000000E+00  0.00000000000E+00  0.18905870607E+03  0.18905870607E+03  0.00000000000E+00 0. -1.
         -1   -1    0    0    0  501 -0.00000000000E+00 -0.00000000000E+00 -0.11362123870E+03  0.11362123870E+03  0.00000000000E+00 0.  1.
         25    2    1    2    0    0  0.90619688137E+01  0.65166236392E+02  0.11596142329E+03  0.18281673720E+03  0.12508457164E+03 0.  0.
          5    1    3    3  502    0 -0.42634476019E+02  0.41379967112E+02  0.11045760965E+03  0.12549245456E+03  0.41800000000E+01 0.  1.
         -5    1    3    3    0  502  0.51696444833E+02  0.23786269280E+02  0.55038136446E+01  0.57324282632E+02  0.41800000000E+01 0.  1.
        -11    1    1    2    0    0  0.23734113152E+02 -0.74359987048E+02 -0.22026441487E+02  0.81104130138E+02  0.00000000000E+00 0.  1.
         11    1    1    2    0    0 -0.32796081966E+02  0.91937506558E+01 -0.18497514439E+02  0.38759077438E+02  0.00000000000E+00 0. -1.
</event>
<event>
 7    1  0.2878477E-009  0.1302064E+03  0.7561462E-02  0.1227150E+00
         -1   -1    0    0    0  501 -0.00000000000E+00  0.00000000000E+00  0.58489626006E+02  0.58489626006E+02  0.00000000000E+00 0.  1.
          1   -1    0    0  501    0  0.00000000000E+00 -0.00000000000E+00 -0.41777423981E+03  0.41777423981E+03  0.00000000000E+00 0. -1.
         25    2    1    2    0    0  0.61805698267E+02 -0.93157247570E+02 -0.21415292807E+03  0.27203956495E+03  0.12508329698E+03 0.  0.
          5    1    3    3  502    0  0.73840065956E+02 -0.89234836692E+02 -0.88870917975E+02  0.14605041555E+03  0.41800000000E+01 0. -1.
         -5    1    3    3    0  502 -0.12034367689E+02 -0.39224108780E+01 -0.12528201010E+03  0.12598914940E+03  0.41800000000E+01 0. -1.
        -11    1    1    2    0    0 -0.25648732509E+02 -0.53932001703E+01 -0.14088988902E+01  0.26247458609E+02  0.00000000000E+00 0.  1.
         11    1    1    2    0    0 -0.36156965758E+02  0.98550447741E+02 -0.14372278684E+03  0.17797684226E+03  0.00000000000E+00 0. -1.
</event>
<event>
 7    1  0.2878477E-009  0.1149786E+03  0.7561462E-02  0.1251618E+00
         -2   -1    0    0    0  501 -0.00000000000E+00  0.00000000000E+00  0.18403756212E+02  0.18403756212E+02  0.00000000000E+00 0.  1.
          2   -1    0    0  501    0  0.00000000000E+00 -0.00000000000E+00 -0.81761430962E+03  0.81761430962E+03  0.00000000000E+00 0. -1.
         25    2    1    2    0    0 -0.41045328684E+02  0.14347209265E+02 -0.32573660689E+03  0.35162951332E+03  0.12509362952E+03 0.  0.
          5    1    3    3  502    0  0.90182370879E+01 -0.48090443209E+02 -0.16290404849E+03  0.17014470531E+03  0.41800000000E+01 0. -1.
         -5    1    3    3    0  502 -0.50063565772E+02  0.62437652473E+02 -0.16283255840E+03  0.18148480801E+03  0.41800000000E+01 0. -1.
        -11    1    1    2    0    0 -0.86171521055E+01 -0.42675761657E+02 -0.24710129011E+03  0.25090740029E+03  0.00000000000E+00 0. -1.
         11    1    1    2    0    0  0.49662480790E+02  0.28328552392E+02 -0.22637265640E+03  0.23348115223E+03  0.00000000000E+00 0.  1.
</event>
<event>
 7    1  0.2878477E-009  0.9274487E+02  0.7561462E-02  0.1296338E+00
          2   -1    0    0  501    0  0.00000000000E+00  0.00000000000E+00  0.50618799282E+03  0.50618799282E+03  0.00000000000E+00 0. -1.
         -2   -1    0    0    0  501 -0.00000000000E+00 -0.00000000000E+00 -0.33476499583E+02  0.33476499583E+02  0.00000000000E+00 0.  1.
         25    2    1    2    0    0 -0.65396598162E+01  0.22829125298E+02  0.40749979803E+03  0.42692756547E+03  0.12508846728E+03 0.  0.
          5    1    3    3  502    0  0.31464208490E+02 -0.19155912029E+02  0.32299785014E+03  0.32511848452E+03  0.41800000000E+01 0.  1.
         -5    1    3    3    0  502 -0.38003868306E+02  0.41985037327E+02  0.84501947893E+02  0.10180908095E+03  0.41800000000E+01 0.  1.
        -11    1    1    2    0    0 -0.35253834103E+02  0.11987437786E+02  0.31233673723E+02  0.48601171363E+02  0.00000000000E+00 0. -1.
         11    1    1    2    0    0  0.41793493919E+02 -0.34816563084E+02  0.33978021479E+02  0.64135755570E+02  0.00000000000E+00 0.  1.
</event>
<event>
 7    1  0.3283915E-009  0.5358465E+02  0.7561462E-02  0.1426913E+00
          3   -1    0    0  501    0  0.00000000000E+00  0.00000000000E+00  0.75504472297E+02  0.75504472297E+02  0.00000000000E+00 0. -1.
         -3   -1    0    0    0  501 -0.00000000000E+00 -0.00000000000E+00 -0.17401154367E+03  0.17401154367E+03  0.00000000000E+00 0.  1.
         25    2    1    2    0    0  0.26253120975E+02 -0.26949800833E+02 -0.61070733593E+02  0.14420616017E+03  0.12510101519E+03 0.  0.
          5    1    3    3  502    0  0.13927530738E+02 -0.19968643945E+01  0.38252968554E+02  0.40972253819E+02  0.41800000000E+01 0. -1.
         -5    1    3    3    0  502  0.12325590237E+02 -0.24952936438E+02 -0.99323702146E+02  0.10323390635E+03  0.41800000000E+01 0. -1.
        -11    1    1    2    0    0 -0.25459059975E+02  0.42088142377E+02 -0.60336745470E+02  0.77846633308E+02  0.00000000000E+00 0.  1.
         11    1    1    2    0    0 -0.79406100002E+00 -0.15138341544E+02  0.22900407687E+02  0.27463222495E+02  0.00000000000E+00 0. -1.
</event>
<event>
 7    1  0.2878477E-009  0.1174846E+03  0.7561462E-02  0.1247305E+00
         -2   -1    0    0    0  501 -0.00000000000E+00  0.00000000000E+00  0.30136683865E+02  0.30136683865E+02  0.00000000000E+00 0.  1.
          2   -1    0    0  501    0  0.00000000000E+00 -0.00000000000E+00 -0.49673456937E+03  0.49673456937E+03  0.00000000000E+00 0. -1.
         25    2    1    2    0    0 -0.58588730560E+02  0.10261708542E+01 -0.27977495795E+03  0.31201719020E+03  0.12508799906E+03 0.  0.
          5    1    3    3  502    0 -0.89370574778E+01 -0.59165864350E+02 -0.12337719198E+03  0.13718554735E+03  0.41800000000E+01 0.  1.
         -5    1    3    3    0  502 -0.49651673083E+02  0.60192035204E+02 -0.15639776598E+03  0.17483164286E+03  0.41800000000E+01 0.  1.
        -11    1    1    2    0    0  0.41610972758E+02  0.36695613652E+02 -0.14826074740E+03  0.15830126448E+03  0.00000000000E+00 0. -1.
         11    1    1    2    0    0  0.16977757802E+02 -0.37721784506E+02 -0.38562180154E+02  0.56552798556E+02  0.00000000000E+00 0.  1.
</event>
<event>
 7    1  0.2878477E-009  0.1321543E+03  0.7561462E-02  0.1224294E+00
         -2   -1    0    0    0  501 -0.00000000000E+00  0.00000000000E+00  0.52710516662E+02  0.52710516662E+02  0.00000000000E+00 0.  1.
          2   -1    0    0  501    0  0.00000000000E+00 -0.00000000000E+00 -0.56583937319E+03  0.56583937319E+03  0.00000000000E+00 0. -1.
         25    2    1    2    0    0 -0.67458741808E+02 -0.66414848804E+02 -0.44288231702E+03  0.46984676355E+03  0.12509844323E+03 0.  0.
          5    1    3    3  502    0  0.24462164733E+02 -0.59084802679E+02 -0.19992836831E+03  0.20994817520E+03  0.41800000000E+01 0.  1.
         -5    1    3    3    0  502 -0.91920906542E+02 -0.73300461252E+01 -0.24295394871E+03  0.25989858836E+03  0.41800000000E+01 0.  1.
        -11    1    1    2    0    0  0.21033429003E+02 -0.60223629594E+01  0.15826303000E+02  0.27002700937E+02  0.00000000000E+00 0. -1.
         11    1    1    2    0    0  0.46425312805E+02  0.72437211764E+02 -0.86072842503E+02  0.12170042536E+03  0.00000000000E+00 0.  1.
</event>
<event>
 7    1  0.2878477E-009  0.2739540E+03  0.7561462E-02  0.1099038E+00
         -1   -1    0    0    0  501 -0.00000000000E+00  0.00000000000E+00  0.16618693909E+03  0.16618693909E+03  0.00000000000E+00 0.  1.
          1   -1    0    0  501    0  0.00000000000E+00 -0.00000000000E+00 -0.58339439011E+03  0.58339439011E+03  0.00000000000E+00 0. -1.
         25    2    1    2    0    0 -0.17812952404E+03 -0.17828360523E+03 -0.38973819310E+03  0.48068707254E+03  0.12509608833E+03 0.  0.
          5    1    3    3  502    0 -0.15472480130E+03 -0.69092648310E+02 -0.24142015895E+03  0.29498258209E+03  0.41800000000E+01 0. -1.
         -5    1    3    3    0  502 -0.23404722741E+02 -0.10919095692E+03 -0.14831803415E+03  0.18570449046E+03  0.41800000000E+01 0. -1.
        -11    1    1    2    0    0  0.15159013827E+03  0.94178641199E+02 -0.83857357454E+01  0.17866031189E+03  0.00000000000E+00 0. -1.
         11    1    1    2    0    0  0.26539385766E+02  0.84104964031E+02 -0.19083522174E+02  0.90233944778E+02  0.00000000000E+00 0.  1.
</event>
<event>
 7    1  0.2878477E-009  0.1137137E+03  0.7561462E-02  0.1253843E+00
         -2   -1    0    0    0  501 -0.00000000000E+00  0.00000000000E+00  0.46275635881E+02  0.46275635881E+02  0.00000000000E+00 0.  1.
          2   -1    0    0  501    0  0.00000000000E+00 -0.00000000000E+00 -0.33771582063E+03  0.33771582063E+03  0.00000000000E+00 0. -1.
         25    2    1    2    0    0  0.57761330782E+02 -0.14274720637E+02 -0.19793250586E+03  0.24159145403E+03  0.12509602232E+03 0.  0.
          5    1    3    3  502    0 -0.30185019052E+02  0.20036278041E+02 -0.95514813155E+02  0.10224059734E+03  0.41800000000E+01 0. -1.
         -5    1    3    3    0  502  0.87946349834E+02 -0.34310998678E+02 -0.10241769271E+03  0.13935085669E+03  0.41800000000E+01 0. -1.
        -11    1    1    2    0    0  0.18304787784E+02  0.84869739370E+01  0.18746079308E+01  0.20263468047E+02  0.00000000000E+00 0.  1.
         11    1    1    2    0    0 -0.76066118566E+02  0.57877467001E+01 -0.95382286813E+02  0.12213653443E+03  0.00000000000E+00 0. -1.
</event>
<event>
 7    1  0.2878477E-009  0.1210081E+03  0.7561462E-02  0.1241443E+00
         -1   -1    0    0    0  501 -0.00000000000E+00  0.00000000000E+00  0.13623294554E+03  0.13623294554E+03  0.00000000000E+00 0.  1.
          1   -1    0    0  501    0  0.00000000000E+00 -0.00000000000E+00 -0.11720566950E+03  0.11720566950E+03  0.00000000000E+00 0. -1.
         25    2    1    2    0    0 -0.85910422768E+01  0.64281057040E+02 -0.12768376568E+00  0.14090166991E+03  0.12508958382E+03 0.  0.
          5    1    3    3  502    0 -0.59255262960E+02  0.58677316072E+02  0.20134428965E+02  0.85889936778E+02  0.41800000000E+01 0.  1.
         -5    1    3    3    0  502  0.50664220684E+02  0.56037409671E+01 -0.20262112730E+02  0.55011733136E+02  0.41800000000E+01 0.  1.
        -11    1    1    2    0    0  0.44820606841E+02 -0.17290902713E+02  0.22623151336E+02  0.53100556406E+02  0.00000000000E+00 0.  1.
         11    1    1    2    0    0 -0.36229564565E+02 -0.46990154326E+02 -0.34681915284E+01  0.59436388724E+02  0.00000000000E+00 0. -1.
</event>
<event>
 7    1  0.2878477E-009  0.1215700E+03  0.7561462E-02  0.1240529E+00
         -1   -1    0    0    0  501 -0.00000000000E+00  0.00000000000E+00  0.13178554512E+03  0.13178554512E+03  0.00000000000E+00 0.  1.
          1   -1    0    0  501    0  0.00000000000E+00 -0.00000000000E+00 -0.18799720935E+03  0.18799720935E+03  0.00000000000E+00 0. -1.
         25    2    1    2    0    0 -0.68675235285E+02 -0.75974324559E+02 -0.80009054299E+02  0.18038197413E+03  0.12509125424E+03 0.  0.
          5    1    3    3  502    0 -0.75802180749E+02 -0.20246835147E+02 -0.93822415766E+02  0.12237656246E+03  0.41800000000E+01 0.  1.
         -5    1    3    3    0  502  0.71269454647E+01 -0.55727489413E+02  0.13813361467E+02  0.58005411669E+02  0.41800000000E+01 0.  1.
        -11    1    1    2    0    0  0.11099415887E+02 -0.20270984414E+01  0.39596283688E+02  0.41172464622E+02  0.00000000000E+00 0.  1.
         11    1    1    2    0    0  0.57575819398E+02  0.78001423001E+02 -0.15798893612E+02  0.98228315718E+02  0.00000000000E+00 0. -1.
</event>
<event>
 7    1  0.2878477E-009  0.1209395E+03  0.7561462E-02  0.1241555E+00
          1   -1    0    0  501    0  0.00000000000E+00  0.00000000000E+00  0.31840618565E+03  0.31840618565E+03  0.00000000000E+00 0. -1.
         -1   -1    0    0    0  501 -0.00000000000E+00 -0.00000000000E+00 -0.51815314033E+02  0.51815314033E+02  0.00000000000E+00 0.  1.
         25    2    1    2    0    0 -0.53248522846E+02  0.41166233454E+02  0.13153406207E+03  0.19359219951E+03  0.12508663504E+03 0.  0.
          5    1    3    3  502    0 -0.29928857396E+02 -0.43389953267E+02  0.36812310403E+02  0.64428589514E+02  0.41800000000E+01 0.  1.
         -5    1    3    3    0  502 -0.23319665450E+02  0.84556186721E+02  0.94721751664E+02  0.12916361000E+03  0.41800000000E+01 0.  1.
        -11    1    1    2    0    0  0.72693269045E+02 -0.29071008910E+02  0.13207577443E+03  0.15353646185E+03  0.00000000000E+00 0. -1.
         11    1    1    2    0    0 -0.19444746199E+02 -0.12095224544E+02  0.29810351131E+01  0.23092838323E+02  0.00000000000E+00 0.  1.
</event>
<event>
 7    1  0.2878477E-009  0.1084412E+03  0.7561462E-02  0.1263484E+00
         -1   -1    0    0    0  501 -0.00000000000E+00  0.00000000000E+00  0.18093104608E+03  0.18093104608E+03  0.00000000000E+00 0.  1.
          1   -1    0    0  501    0  0.00000000000E+00 -0.00000000000E+00 -0.75992269951E+02  0.75992269951E+02  0.00000000000E+00 0. -1.
         25    2    1    2    0    0 -0.35478232449E+02  0.13270900493E+02  0.84299044809E+02  0.15551948837E+03  0.12508061612E+03 0.  0.
          5    1    3    3  502    0  0.25037454150E+02  0.50765436921E+02  0.52945211945E+02  0.77618757810E+02  0.41800000000E+01 0.  1.
         -5    1    3    3    0  502 -0.60515686599E+02 -0.37494536428E+02  0.31353832864E+02  0.77900730560E+02  0.41800000000E+01 0.  1.
        -11    1    1    2    0    0 -0.87642788145E+01 -0.37402926772E+02  0.31702349850E+02  0.49807936118E+02  0.00000000000E+00 0.  1.
         11    1    1    2    0    0  0.44242511263E+02  0.24132026279E+02 -0.11062618531E+02  0.51595891542E+02  0.00000000000E+00 0. -1.
</event>
<event>
 7    1  0.2878477E-009  0.1115522E+03  0.7561462E-02  0.1257722E+00
          2   -1    0    0  501    0  0.00000000000E+00  0.00000000000E+00  0.50140428005E+03  0.50140428005E+03  0.00000000000E+00 0. -1.
         -2   -1    0    0    0  501 -0.00000000000E+00 -0.00000000000E+00 -0.35514625720E+02  0.35514625720E+02  0.00000000000E+00 0.  1.
         25    2    1    2    0    0 -0.51065873426E+02 -0.56390666918E+02  0.23240901992E+03  0.27467963746E+03  0.12508924794E+03 0.  0.
          5    1    3    3  502    0 -0.29631218931E+02 -0.79970527103E+02  0.73837001410E+02  0.11288343332E+03  0.41800000000E+01 0. -1.
         -5    1    3    3    0  502 -0.21434654495E+02  0.23579860185E+02  0.15857201851E+03  0.16179620414E+03  0.41800000000E+01 0. -1.
        -11    1    1    2    0    0  0.59844374393E+02  0.12909733455E+02  0.70698823667E+02  0.93521837195E+02  0.00000000000E+00 0.  1.
         11    1    1    2    0    0 -0.87785009675E+01  0.43480933463E+02  0.16278181074E+03  0.16871743112E+03  0.00000000000E+00 0. -1.
</event>
<event>
 7    1  0.2878477E-009  0.9481539E+02  0.7561462E-02  0.1291592E+00
         -1   -1    0    0    0  501 -0.00000000000E+00  0.00000000000E+00  0.48174127291E+03  0.48174127291E+03  0.00000000000E+00 0.  1.
          1   -1    0    0  501    0  0.00000000000E+00 -0.00000000000E+00 -0.29227424732E+02  0.29227424732E+02  0.00000000000E+00 0. -1.
         25    2    1    2    0    0 -0.22154268943E+02  0.26188604554E+02  0.19187229881E+03  0.23160242978E+03  0.12509217317E+03 0.  0.
          5    1    3    3  502    0  0.38883301291E+02 -0.24625148705E+01  0.14468218756E+02  0.41770526125E+02  0.41800000000E+01 0.  1.
         -5    1    3    3    0  502 -0.61037570234E+02  0.28651119424E+02  0.17740408006E+03  0.18983190366E+03  0.41800000000E+01 0.  1.
        -11    1    1    2    0    0  0.50398394869E+02 -0.16943965151E+02  0.23227425431E+03  0.23828223890E+03  0.00000000000E+00 0.  1.
         11    1    1    2    0    0 -0.28244125926E+02 -0.92446394026E+01  0.28367295056E+02  0.41084028963E+02  0.00000000000E+00 0. -1.
</event>
<event>
 7    1  0.2878477E-009  0.1296882E+03  0.7561462E-02  0.1227919E+00
         -1   -1    0    0    0  501 -0.00000000000E+00  0.00000000000E+00  0.12428205791E+03  0.12428205791E+03  0.00000000000E+00 0.  1.
          1   -1    0    0  501    0  0.00000000000E+00 -0.00000000000E+00 -0.17757744843E+03  0.17757744843E+03  0.00000000000E+00 0. -1.
         25    2    1    2    0    0  0.10032079517E+03  0.33669226274E+01 -0.27769401080E+02  0.16276970555E+03  0.12508892556E+03 0.  0.
          5    1    3    3  502    0  0.79368382475E+01  0.26577803072E+02  0.37786797571E+02  0.47060466298E+02  0.41800000000E+01 0. -1.
         -5    1    3    3    0  502  0.92383956922E+02 -0.23210880445E+02 -0.65556198651E+02  0.11570923926E+03  0.41800000000E+01 0. -1.
        -11    1    1    2    0    0 -0.23731311911E+02  0.41068792180E+02 -0.20146719738E+01  0.47475043542E+02  0.00000000000E+00 0. -1.
         11    1    1    2    0    0 -0.76589483259E+02 -0.44435714807E+02 -0.23511317470E+02  0.91614757247E+02  0.00000000000E+00 0.  1.
</event>
<event>
 6    1  0.2878477E-009  0.1306176E+03  0.7561462E-02  0.1226542E+00
          2   -1    0    0  501    0  0.00000000000E+00  0.00000000000E+00  0.57689162600E+03  0.57689162600E+03  0.00000000000E+00 0. -1.
         -2   -1    0    0    0  501 -0.00000000000E+00 -0.00000000000E+00 -0.38956256710E+02  0.38956256710E+02  0.00000000000E+00 0.  1.
          5    1    1    2  502    0  0.35724034559E+02 -0.15190132628E+02  0.69105921621E+02  0.79372839041E+02  0.41800000000E+01 0. -1.
         -5    1    1    2    0  502 -0.44001445630E+02  0.93482630406E+02  0.35603282276E+03  0.37074515868E+03  0.41800000000E+01 0. -1.
        -11    1    1    2    0    0 -0.39018346970E+02 -0.20396536014E+02  0.59047176265E+02  0.73654729017E+02  0.00000000000E+00 0. -1.
         11    1    1    2    0    0  0.47295758041E+02 -0.57895961764E+02  0.53749448648E+02  0.92075155972E+02  0.00000000000E+00 0.  1.
</event>
<event>
 7    1  0.2878477E-009  0.5307209E+02  0.7561462E-02  0.1429442E+00
         -3   -1    0    0    0  501 -0.00000000000E+00  0.00000000000E+00  0.17683097406E+03  0.17683097406E+03  0.00000000000E+00 0.  1.
          3   -1    0    0  501    0  0.00000000000E+00 -0.00000000000E+00 -0.77680617717E+02  0.77680617717E+02  0.00000000000E+00 0. -1.
         25    2    1    2    0    0 -0.56893741196E+01  0.21066131536E+02  0.10905909717E+02  0.12744940471E+03  0.12509300947E+03 0.  0.
          5    1    3    3  502    0 -0.13838835439E+02  0.61028699487E+01  0.66928849768E+02  0.68743739490E+02  0.41800000000E+01 0. -1.
         -5    1    3    3    0  502  0.81494613193E+01  0.14963261587E+02 -0.56022940050E+02  0.58705665221E+02  0.41800000000E+01 0. -1.
        -11    1    1    2    0    0 -0.13917815727E+01  0.25635478749E+02  0.73070416884E+02  0.77449342478E+02  0.00000000000E+00 0.  1.
         11    1    1    2    0    0  0.70811556923E+01 -0.46701610285E+02  0.15174029737E+02  0.49612844583E+02  0.00000000000E+00 0. -1.
</event>
<event>
 7    1  0.2878477E-009  0.1086173E+03  0.7561462E-02  0.1263152E+00
         -3   -1    0    0    0  501 -0.00000000000E+00  0.00000000000E+00  0.74568547723E+02  0.74568547723E+02  0.00000000000E+00 0.  1.
          3   -1    0    0  501    0  0.00000000000E+00 -0.00000000000E+00 -0.23722107756E+03  0.23722107756E+03  0.00000000000E+00 0. -1.
         25    2    1    2    0    0 -0.44917054739E+00  0.47766028039E+02 -0.19950012331E+02  0.13538149670E+03  0.12509337100E+03 0.  0.
          5    1    3    3  502    0  0.49013551368E+01  0.90418806410E+02 -0.15491251575E+02  0.91962139547E+02  0.41800000000E+01 0. -1.
         -5    1    3    3    0  502 -0.53505256842E+01 -0.42652778371E+02 -0.44587607563E+01  0.43419357150E+02  0.41800000000E+01 0. -1.
        -11    1    1    2    0    0 -0.18978260801E+02 -0.58290188664E+02 -0.44500027147E+02  0.75750728667E+02  0.00000000000E+00 0.  1.
         11    1    1    2    0    0  0.19427431348E+02  0.10524160625E+02 -0.98202490364E+02  0.10065739992E+03  0.00000000000E+00 0. -1.
</event>
<event>
 7    1  0.2878477E-009  0.9596778E+02  0.7561462E-02  0.1289011E+00
         -3   -1    0    0    0  501 -0.00000000000E+00  0.00000000000E+00  0.43519940201E+02  0.43519940201E+02  0.00000000000E+00 0.  1.
          3   -1    0    0  501    0  0.00000000000E+00 -0.00000000000E+00 -0.33501955767E+03  0.33501955767E+03  0.00000000000E+00 0. -1.
         25    2    1    2    0    0  0.39573003395E+02  0.31171731723E+02 -0.14283631181E+03  0.19643451223E+03  0.12508639482E+03 0.  0.
          5    1    3    3  502    0  0.76613107923E+02  0.30670618798E+02 -0.13509354933E+03  0.15836033163E+03  0.41800000000E+01 0.  1.
         -5    1    3    3    0  502 -0.37040104528E+02  0.50111292496E+00 -0.77427624760E+01  0.38074180600E+02  0.41800000000E+01 0.  1.
        -11    1    1    2    0    0 -0.29819043722E+02  0.86337559362E+01 -0.34684481509E+01  0.31236953159E+02  0.00000000000E+00 0.  1.
         11    1    1    2    0    0 -0.97539596724E+01 -0.39805487659E+02 -0.14519485751E+03  0.15086803248E+03  0.00000000000E+00 0. -1.
</event>
<event>
 6    1  0.2878477E-009  0.1204095E+03  0.7561462E-02  0.1242423E+00
          1   -1    0    0  501    0  0.00000000000E+00  0.00000000000E+00  0.42077717125E+03  0.42077717125E+03  0.00000000000E+00 0. -1.
         -1   -1    0    0    0  501 -0.00000000000E+00 -0.00000000000E+00 -0.41412321677E+02  0.41412321677E+02  0.00000000000E+00 0.  1.
          5    1    1    2  502    0  0.12021439804E+02  0.35561766825E+02  0.34063380097E+02  0.50861975367E+02  0.41800000000E+01 0. -1.
         -5    1    1    2    0  502 -0.80579612005E+02 -0.63182660876E+02  0.19665733369E+03  0.22175820571E+03  0.41800000000E+01 0. -1.
        -11    1    1    2    0    0  0.71817646895E+02 -0.93608270628E+00  0.51812046889E+02  0.88561497611E+02  0.00000000000E+00 0.  1.
         11    1    1    2    0    0 -0.32594746933E+01  0.28556976758E+02  0.96832088900E+02  0.10100781424E+03  0.00000000000E+00 0. -1.
</event>
<event>
 7    1  0.2878477E-009  0.8695127E+02  0.7561462E-02  0.1310407E+00
          2   -1    0    0  501    0  0.00000000000E+00  0.00000000000E+00  0.60402940780E+03  0.60402940780E+03  0.00000000000E+00 0.  1.
         -2   -1    0    0    0  501 -0.00000000000E+00 -0.00000000000E+00 -0.20692187819E+02  0.20692187819E+02  0.00000000000E+00 0. -1.
         25    2    1    2    0    0 -0.20179186213E+02 -0.12793976508E+02  0.33249505771E+03  0.35604957117E+03  0.12508976113E+03 0.  0.
          5    1    3    3  502    0  0.39629015696E+02  0.33799842331E+01  0.24792446529E+03  0.25112924176E+03  0.41800000000E+01 0. -1.
         -5    1    3    3    0  502 -0.59808201909E+02 -0.16173960741E+02  0.84570592420E+02  0.10492032941E+03  0.41800000000E+01 0. -1.
        -11    1    1    2    0    0 -0.19756666581E+02  0.23270419933E+02  0.26081578444E+02  0.40150803882E+02  0.00000000000E+00 0. -1.
         11    1    1    2    0    0  0.39935852794E+02 -0.10476443425E+02  0.22476058383E+03  0.22852122057E+03  0.00000000000E+00 0.  1.
</event>
<event>
 7    1  0.2878477E-009  0.4869538E+02  0.7561462E-02  0.1452508E+00
          2   -1    0    0  501    0  0.00000000000E+00  0.00000000000E+00  0.20499539732E+03  0.20499539732E+03  0.00000000000E+00 0.  1.
         -2   -1    0    0    0  501 -0.00000000000E+00 -0.00000000000E+00 -0.62372077768E+02  0.62372077768E+02  0.00000000000E+00 0. -1.
         25    2    1    2    0    0 -0.10783885639E+02 -0.23414190410E+01  0.57875247150E+02  0.13827203027E+03  0.12509130941E+03 0.  0.
          5    1    3    3  502    0  0.21018071638E+01  0.18756903333E+02  0.93071674655E+02  0.95058129790E+02  0.41800000000E+01 0.  1.
         -5    1    3    3    0  502 -0.12885692803E+02 -0.21098322374E+02 -0.35196427505E+02  0.43213900485E+02  0.41800000000E+01 0.  1.
        -11    1    1    2    0    0  0.31394235435E+02  0.62452234017E+01  0.98794134360E+02  0.10385028559E+03  0.00000000000E+00 0.  1.
         11    1    1    2    0    0 -0.20610349796E+02 -0.39038043607E+01 -0.14046061963E+02  0.25245159216E+02  0.00000000000E+00 0. -1.
</event>
<event>
 7    1  0.2878477E-009  0.1148148E+03  0.7561462E-02  0.1251905E+00
          2   -1    0    0  501    0  0.00000000000E+00  0.00000000000E+00  0.62854315460E+03  0.62854315460E+03  0.00000000000E+00 0. -1.
         -2   -1    0    0    0  501 -0.00000000000E+00 -0.00000000000E+00 -0.21446781133E+02  0.21446781133E+02  0.00000000000E+00 0.  1.
         25    2    1    2    0    0 -0.22003209119E+01 -0.39858991059E+02  0.37873209791E+03  0.40084808656E+03  0.12509039105E+03 0.  0.
          5    1    3    3  502    0 -0.57223532834E+02  0.76890159061E+01  0.18652065972E+03  0.19529742082E+03  0.41800000000E+01 0. -1.
         -5    1    3    3    0  502  0.55023211922E+02 -0.47548006965E+02  0.19221143819E+03  0.20555066574E+03  0.41800000000E+01 0. -1.
        -11    1    1    2    0    0  0.32579050017E+02  0.55783256394E+02  0.16278259232E+03  0.17513234584E+03  0.00000000000E+00 0.  1.
         11    1    1    2    0    0 -0.30378729105E+02 -0.15924265335E+02  0.65581683229E+02  0.74009503334E+02  0.00000000000E+00 0. -1.
</event>
<event>
 7    1  0.2878477E-009  0.2105742E+03  0.7561462E-02  0.1141112E+00
         -2   -1    0    0    0  501 -0.00000000000E+00  0.00000000000E+00  0.91359524894E+02  0.91359524894E+02  0.00000000000E+00 0. -1.
          2   -1    0    0  501    0  0.00000000000E+00 -0.00000000000E+00 -0.63952830051E+03  0.63952830051E+03  0.00000000000E+00 0.  1.
         25    2    1    2    0    0 -0.33594728430E+02 -0.19772359386E+03 -0.40235144062E+03  0.46664451595E+03  0.12508875710E+03 0.  0.
          5    1    3    3  502    0  0.36661203984E+00 -0.59116650903E+01 -0.13829722030E+03  0.13848709590E+03  0.41800000000E+01 0. -1.
         -5    1    3    3    0  502 -0.33961340470E+02 -0.19181192877E+03 -0.26405422031E+03  0.32815742005E+03  0.41800000000E+01 0. -1.
        -11    1    1    2    0    0  0.20238217449E+02  0.20350207069E+03 -0.14266992992E+03  0.24935393946E+03  0.00000000000E+00 0.  1.
         11    1    1    2    0    0  0.13356510981E+02 -0.57784768270E+01 -0.31474050757E+01  0.14889369991E+02  0.00000000000E+00 0. -1.
</event>
<event>
 7    1  0.2878477E-009  0.1072388E+03  0.7561462E-02  0.1265770E+00
          1   -1    0    0  501    0  0.00000000000E+00  0.00000000000E+00  0.44834138068E+02  0.44834138068E+02  0.00000000000E+00 0. -1.
         -1   -1    0    0    0  501 -0.00000000000E+00 -0.00000000000E+00 -0.35741025937E+03  0.35741025937E+03  0.00000000000E+00 0.  1.
         25    2    1    2    0    0 -0.16995698723E+02  0.49402521466E+02 -0.24107545132E+03  0.27657538019E+03  0.12508838793E+03 0.  0.
          5    1    3    3  502    0 -0.66039595194E+02  0.17090576152E+02 -0.17606680892E+03  0.18886585062E+03  0.41800000000E+01 0.  1.
         -5    1    3    3    0  502  0.49043896471E+02  0.32311945314E+02 -0.65008642400E+02  0.87709529571E+02  0.41800000000E+01 0.  1.
        -11    1    1    2    0    0  0.70419876584E+01  0.17891960125E+02 -0.51179173008E+02  0.54671926773E+02  0.00000000000E+00 0.  1.
         11    1    1    2    0    0  0.99537110649E+01 -0.67294481591E+02 -0.20321496973E+02  0.70997090474E+02  0.00000000000E+00 0. -1.
</event>
<event>
 7    1  0.2878477E-009  0.7059671E+02  0.7561462E-02  0.1358076E+00
         -1   -1    0    0    0  501 -0.00000000000E+00  0.00000000000E+00  0.63833541361E+02  0.63833541361E+02  0.00000000000E+00 0.  1.
          1   -1    0    0  501    0  0.00000000000E+00 -0.00000000000E+00 -0.25840322295E+03  0.25840322295E+03  0.00000000000E+00 0. -1.
         25    2    1    2    0    0  0.30438509947E+00  0.52480600283E+02 -0.54380314626E+02  0.14614739009E+03  0.12509010734E+03 0.  0.
          5    1    3    3  502    0 -0.15681115065E+02  0.48253719435E+02 -0.91829549746E+02  0.10499741623E+03  0.41800000000E+01 0. -1.
         -5    1    3    3    0  502  0.15985500164E+02  0.42268808481E+01  0.37449235120E+02  0.41149973855E+02  0.41800000000E+01 0. -1.
        -11    1    1    2    0    0  0.13662055754E+02  0.46376490585E+01  0.81150172478E+01  0.16553339879E+02  0.00000000000E+00 0.  1.
         11    1    1    2    0    0 -0.13966440854E+02 -0.57118249342E+02 -0.14830438421E+03  0.15953603434E+03  0.00000000000E+00 0. -1.
</event>
<event>
 7    1  0.2878477E-009  0.9037534E+02  0.7561462E-02  0.1301945E+00
          2   -1    0    0  501    0  0.00000000000E+00  0.00000000000E+00  0.26316503074E+03  0.26316503074E+03  0.00000000000E+00 0. -1.
         -2   -1    0    0    0  501 -0.00000000000E+00 -0.00000000000E+00 -0.49615654313E+02  0.49615654313E+02  0.00000000000E+00 0.  1.
         25    2    1    2    0    0 -0.22328237558E+01 -0.34058720970E+02  0.10779441315E+03  0.16861572428E+03  0.12508655001E+03 0.  0.
          5    1    3    3  502    0  0.27472482965E+02 -0.70460912700E+02  0.38974173861E+02  0.85181783070E+02  0.41800000000E+01 0.  1.
         -5    1    3    3    0  502 -0.29705306720E+02  0.36402191730E+02  0.68820239290E+02  0.83433941212E+02  0.41800000000E+01 0.  1.
        -11    1    1    2    0    0 -0.13535452970E+02 -0.59865435440E+01 -0.11832564776E+02  0.18948793626E+02  0.00000000000E+00 0.  1.
         11    1    1    2    0    0  0.15768276726E+02  0.40045264514E+02  0.11758752805E+03  0.12521616714E+03  0.00000000000E+00 0. -1.
</event>
<event>
 7    1  0.2878477E-009  0.9932798E+02  0.7561462E-02  0.1281715E+00
          2   -1    0    0  501    0  0.00000000000E+00  0.00000000000E+00  0.58303151191E+03  0.58303151191E+03  0.00000000000E+00 0. -1.
         -2   -1    0    0    0  501 -0.00000000000E+00 -0.00000000000E+00 -0.23642212132E+02  0.23642212132E+02  0.00000000000E+00 0.  1.
         25    2    1    2    0    0 -0.42827228377E+02  0.21732895681E+02  0.29887676518E+03  0.32753707274E+03  0.12508686187E+03 0.  0.
          5    1    3    3  502    0 -0.30383932571E+02 -0.51309365828E+02  0.13349407290E+03  0.14626679145E+03  0.41800000000E+01 0. -1.
         -5    1    3    3    0  502 -0.12443295805E+02  0.73042261510E+02  0.16538269227E+03  0.18127028129E+03  0.41800000000E+01 0. -1.
        -11    1    1    2    0    0  0.47324123365E+02 -0.52890446712E+01  0.25744910552E+03  0.26181594408E+03  0.00000000000E+00 0. -1.
         11    1    1    2    0    0 -0.44968949882E+01 -0.16443851010E+02  0.30634290807E+01  0.17320707211E+02  0.00000000000E+00 0.  1.
</event>
<event>
 7    1  0.2878477E-009  0.1715309E+03  0.7561462E-02  0.1176261E+00
         -2   -1    0    0    0  501 -0.00000000000E+00  0.00000000000E+00  0.21346300719E+02  0.21346300719E+02  0.00000000000E+00 0.  1.
          2   -1    0    0  501    0  0.00000000000E+00 -0.00000000000E+00 -0.15096668197E+04  0.15096668197E+04  0.00000000000E+00 0. -1.
         25    2    1    2    0    0 -0.15655484776E+02 -0.13854332865E+03 -0.90466255974E+03  0.92385141476E+03  0.12509093270E+03 0.  0.
          5    1    3    3  502    0  0.25548393323E+02  0.10972995062E+02 -0.81990897702E+02  0.86678179077E+02  0.41800000000E+01 0.  1.
         -5    1    3    3    0  502 -0.41203878099E+02 -0.14951632371E+03 -0.82267166204E+03  0.83717323569E+03  0.41800000000E+01 0.  1.
        -11    1    1    2    0    0  0.47433651015E+02  0.74790000183E+02 -0.41009853433E+03  0.41955250355E+03  0.00000000000E+00 0.  1.
         11    1    1    2    0    0 -0.31778166239E+02  0.63753328462E+02 -0.17355942488E+03  0.18760920208E+03  0.00000000000E+00 0. -1.
</event>
<event>
 7    1  0.2878477E-009  0.1137746E+03  0.7561462E-02  0.1253735E+00
         -3   -1    0    0    0  501 -0.00000000000E+00  0.00000000000E+00  0.55656209063E+02  0.55656209063E+02  0.00000000000E+00 0.  1.
          3   -1    0    0  501    0  0.00000000000E+00 -0.00000000000E+00 -0.44265798646E+03  0.44265798646E+03  0.00000000000E+00 0. -1.
         25    2    1    2    0    0  0.79898893341E+02 -0.58962664214E+02 -0.13144967524E+03  0.20685342721E+03  0.12509554069E+03 0.  0.
          5    1    3    3  502    0  0.86157691469E+01 -0.44547605901E+02  0.10985787931E+02  0.46870892950E+02  0.41800000000E+01 0.  1.
         -5    1    3    3    0  502  0.71283124194E+02 -0.14415058313E+02 -0.14243546317E+03  0.15998253426E+03  0.41800000000E+01 0.  1.
        -11    1    1    2    0    0 -0.49551151716E+02  0.61156325228E+02 -0.76223918558E+02  0.10956960579E+03  0.00000000000E+00 0. -1.
         11    1    1    2    0    0 -0.30347741625E+02 -0.21936610133E+01 -0.17932818360E+03  0.18189116252E+03  0.00000000000E+00 0.  1.
</event>
<event>
 7    1  0.2878477E-009  0.1465284E+03  0.7561462E-02  0.1204805E+00
         -2   -1    0    0    0  501 -0.00000000000E+00  0.00000000000E+00  0.25057394616E+02  0.25057394616E+02  0.00000000000E+00 0.  1.
          2   -1    0    0  501    0  0.00000000000E+00 -0.00000000000E+00 -0.92566262079E+03  0.92566262079E+03  0.00000000000E+00 0. -1.
         25    2    1    2    0    0 -0.10172058002E+03 -0.29672003690E+02 -0.52805983722E+03  0.55292153564E+03  0.12509008232E+03 0.  0.
          5    1    3    3  502    0 -0.11759917320E+03  0.22557623463E+01 -0.30371642172E+03  0.32572348891E+03  0.41800000000E+01 0.  1.
         -5    1    3    3    0  502  0.15878593183E+02 -0.31927766037E+02 -0.22434341549E+03  0.22719804674E+03  0.41800000000E+01 0.  1.
        -11    1    1    2    0    0  0.36905956473E+02 -0.32846946020E+02 -0.12904343171E+03  0.13817806900E+03  0.00000000000E+00 0.  1.
         11    1    1    2    0    0  0.64814623548E+02  0.62518949711E+02 -0.24350195725E+03  0.25962041076E+03  0.00000000000E+00 0. -1.
</event>
<event>
 7    1  0.2878477E-009  0.1165883E+03  0.7561462E-02  0.1248834E+00
         -2   -1    0    0    0  501 -0.00000000000E+00  0.00000000000E+00  0.74529941561E+02  0.74529941561E+02  0.00000000000E+00 0.  1.
          2   -1    0    0  501    0  0.00000000000E+00 -0.00000000000E+00 -0.29404319060E+03  0.29404319060E+03  0.00000000000E+00 0. -1.
         25    2    1    2    0    0  0.75391237691E+02  0.33430295717E+02 -0.19132755110E+03  0.24301266435E+03  0.12508996695E+03 0.  0.
          5    1    3    3  502    0  0.42687823928E+02 -0.43894454909E+02 -0.11048961449E+03  0.12638987615E+03  0.41800000000E+01 0.  1.
         -5    1    3    3    0  502  0.32703413763E+02  0.77324750627E+02 -0.80837936608E+02  0.11662278819E+03  0.41800000000E+01 0.  1.
        -11    1    1    2    0    0 -0.31883780088E+02  0.15469626800E+01  0.30792476043E+02  0.44352509592E+02  0.00000000000E+00 0.  1.
         11    1    1    2    0    0 -0.43507457603E+02 -0.34977258397E+02 -0.58978173983E+02  0.81207958221E+02  0.00000000000E+00 0. -1.
</event>
<event>
 7    1  0.2878477E-009  0.1076775E+03  0.7561462E-02  0.1264932E+00
         -1   -1    0    0    0  501 -0.00000000000E+00  0.00000000000E+00  0.15028252311E+02  0.15028252311E+02  0.00000000000E+00 0.  1.
          1   -1    0    0  501    0  0.00000000000E+00 -0.00000000000E+00 -0.10872704478E+04  0.10872704478E+04  0.00000000000E+00 0. -1.
         25    2    1    2    0    0  0.56047065673E+02 -0.35146064507E+02 -0.68922511483E+03  0.70360161163E+03  0.12508976598E+03 0.  0.
          5    1    3    3  502    0 -0.26635749239E+02 -0.10978230510E+01 -0.40103027334E+02  0.48336255071E+02  0.41800000000E+01 0.  1.
         -5    1    3    3    0  502  0.82682814911E+02 -0.34048241457E+02 -0.64912208750E+03  0.65526535656E+03  0.41800000000E+01 0.  1.
        -11    1    1    2    0    0  0.12909782031E+02  0.26345123124E+02 -0.45811618903E+02  0.54400665538E+02  0.00000000000E+00 0.  1.
         11    1    1    2    0    0 -0.68956847704E+02  0.88009413837E+01 -0.33720546174E+03  0.34429642293E+03  0.00000000000E+00 0. -1.
</event>
<event>
 7    1  0.2878477E-009  0.1015308E+03  0.7561462E-02  0.1277109E+00
         -2   -1    0    0    0  501 -0.00000000000E+00  0.00000000000E+00  0.26325141920E+02  0.26325141920E+02  0.00000000000E+00 0. -1.
          2   -1    0    0  501    0  0.00000000000E+00 -0.00000000000E+00 -0.52649266969E+03  0.52649266969E+03  0.00000000000E+00 0.  1.
         25    2    1    2    0    0  0.30841954102E+02 -0.33762750576E+02 -0.32506305401E+03  0.35129101559E+03  0.12509292183E+03 0.  0.
          5    1    3    3  502    0 -0.27998705400E+02 -0.35231265179E+02 -0.25815071971E+03  0.26207715665E+03  0.41800000000E+01 0.  1.
         -5    1    3    3    0  502  0.58840659502E+02  0.14685146035E+01 -0.66912334299E+02  0.89213858941E+02  0.41800000000E+01 0.  1.
        -11    1    1    2    0    0  0.28180552631E+02 -0.44733758189E+01 -0.38952637050E+02  0.48285221041E+02  0.00000000000E+00 0. -1.
         11    1    1    2    0    0 -0.59022506733E+02  0.38236126395E+02 -0.13615183671E+03  0.15324157498E+03  0.00000000000E+00 0.  1.
</event>
<event>
 7    1  0.3203698E-009  0.1969463E+03  0.7561462E-02  0.1152341E+00
          2   -1    0    0  501    0  0.00000000000E+00  0.00000000000E+00  0.68158010346E+03  0.68158010346E+03  0.00000000000E+00 0. -1.
         -2   -1    0    0    0  501 -0.00000000000E+00 -0.00000000000E+00 -0.10921327395E+03  0.10921327395E+03  0.00000000000E+00 0.  1.
         25    2    1    2    0    0  0.17004951388E+03 -0.78740043194E+02  0.53280110054E+03  0.57848257770E+03  0.12509295901E+03 0.  0.
          5    1    3    3  502    0  0.11209830159E+01  0.13143941768E+02  0.14441612257E+03  0.14507759533E+03  0.41800000000E+01 0. -1.
         -5    1    3    3    0  502  0.16892853086E+03 -0.91883984961E+02  0.38838497797E+03  0.43340498237E+03  0.41800000000E+01 0. -1.
        -11    1    1    2    0    0 -0.44904686219E+02  0.15596769940E+02  0.53357822253E+02  0.71461509028E+02  0.00000000000E+00 0. -1.
         11    1    1    2    0    0 -0.12514482766E+03  0.63143273254E+02 -0.13792093283E+02  0.14084929068E+03  0.00000000000E+00 0.  1.
</event>
<event>
 7    1  0.2878477E-009  0.1136839E+03  0.7561462E-02  0.1253896E+00
          1   -1    0    0  501    0  0.00000000000E+00  0.00000000000E+00  0.14427339278E+03  0.14427339278E+03  0.00000000000E+00 0. -1.
         -1   -1    0    0    0  501 -0.00000000000E+00 -0.00000000000E+00 -0.15093764380E+03  0.15093764380E+03  0.00000000000E+00 0.  1.
         25    2    1    2    0    0  0.76000633884E+02 -0.55953703734E+02  0.28394168266E+02  0.15924416738E+03  0.12508222392E+03 0.  0.
          5    1    3    3  502    0  0.89396430298E+02 -0.23584809984E+02  0.61292579217E+02  0.11100548491E+03  0.41800000000E+01 0. -1.
         -5    1    3    3    0  502 -0.13395796413E+02 -0.32368893750E+02 -0.32898410951E+02  0.48238682478E+02  0.41800000000E+01 0. -1.
        -11    1    1    2    0    0 -0.38050508195E+02  0.88812641322E+01  0.28407730559E+02  0.48308562202E+02  0.00000000000E+00 0. -1.
         11    1    1    2    0    0 -0.37950125690E+02  0.47072439602E+02 -0.63466149844E+02  0.87658306999E+02  0.00000000000E+00 0.  1.
</event>
<event>
 6    1  0.3229945E-009  0.1148291E+03  0.7561462E-02  0.1251880E+00
          1   -1    0    0  501    0  0.00000000000E+00  0.00000000000E+00  0.13828377677E+03  0.13828377677E+03  0.00000000000E+00 0. -1.
         -1   -1    0    0    0  501 -0.00000000000E+00 -0.00000000000E+00 -0.12664962968E+03  0.12664962968E+03  0.00000000000E+00 0.  1.
          5    1    1    2  502    0 -0.57766563588E+02 -0.64587947735E+02 -0.59345376157E+02  0.10510910966E+03  0.41800000000E+01 0.  1.
         -5    1    1    2    0  502  0.31706247012E+02  0.89523240919E+01  0.20877551118E+02  0.39227219465E+02  0.41800000000E+01 0.  1.
        -11    1    1    2    0    0  0.58652233426E+02  0.21419513179E+02  0.28187425108E+02  0.68508473672E+02  0.00000000000E+00 0.  1.
         11    1    1    2    0    0 -0.32591916850E+02  0.34216110464E+02  0.21914547028E+02  0.52088603655E+02  0.00000000000E+00 0. -1.
</event>
<event>
 7    1  0.3283950E-009  0.1123527E+03  0.7561462E-02  0.1256274E+00
         -1   -1    0    0    0  501 -0.00000000000E+00  0.00000000000E+00  0.38435696443E+02  0.38435696443E+02  0.00000000000E+00 0.  1.
          1   -1    0    0  501    0  0.00000000000E+00 -0.00000000000E+00 -0.39926755259E+03  0.39926755259E+03  0.00000000000E+00 0. -1.
         25    2    1    2    0    0  0.33916070455E+02  0.39990611639E+02 -0.15522774634E+03  0.20614136266E+03  0.12509620023E+03 0.  0.
          5    1    3    3  502    0 -0.44200002298E+02  0.18179628880E+02 -0.89960471304E+02  0.10195341047E+03  0.41800000000E+01 0.  1.
         -5    1    3    3    0  502  0.78116072753E+02  0.21810982759E+02 -0.65267275038E+02  0.10418795219E+03  0.41800000000E+01 0.  1.
        -11    1    1    2    0    0 -0.18495114452E+02  0.23657506609E+02 -0.23783890471E+02  0.38306922657E+02  0.00000000000E+00 0.  1.
         11    1    1    2    0    0 -0.15420956004E+02 -0.63648118247E+02 -0.18182021933E+03  0.19325496371E+03  0.00000000000E+00 0. -1.
</event>
<event>
 7    1  0.2878477E-009  0.1068820E+03  0.7561462E-02  0.1266455E+00
          2   -1    0    0  501    0  0.00000000000E+00  0.00000000000E+00  0.25587137431E+03  0.25587137431E+03  0.00000000000E+00 0. -1.
         -2   -1    0    0    0  501 -0.00000000000E+00 -0.00000000000E+00 -0.49003383902E+02  0.49003383902E+02  0.00000000000E+00 0.  1.
         25    2    1    2    0    0  0.19250933316E+02  0.18592947755E+02  0.10153340834E+03  0.16327872627E+03  0.12503844730E+03 0.  0.
          5    1    3    3  502    0  0.95201790685E+00 -0.49823736531E+02  0.69035615227E+02  0.85244939028E+02  0.41800000000E+01 0. -1.
         -5    1    3    3    0  502  0.18298915409E+02  0.68416684286E+02  0.32497793118E+02  0.78033787242E+02  0.41800000000E+01 0. -1.
        -11    1    1    2    0    0 -0.38356119878E+02  0.24610141734E+02  0.37961622613E+02  0.59312189301E+02  0.00000000000E+00 0. -1.
         11    1    1    2    0    0  0.19105186562E+02 -0.43203089489E+02  0.67372959455E+02  0.82283842646E+02  0.00000000000E+00 0.  1.
</event>
<event>
 7    1  0.2878477E-009  0.1088874E+03  0.7561462E-02  0.1262644E+00
         -2   -1    0    0    0  501 -0.00000000000E+00  0.00000000000E+00  0.38283046783E+02  0.38283046783E+02  0.00000000000E+00 0.  1.
          2   -1    0    0  501    0  0.00000000000E+00 -0.00000000000E+00 -0.34519006236E+03  0.34519006236E+03  0.00000000000E+00 0. -1.
         25    2    1    2    0    0  0.22322114134E+02  0.23334538991E+02 -0.16473602738E+03  0.20935131088E+03  0.12508890902E+03 0.  0.
          5    1    3    3  502    0  0.41808012402E+02  0.64476064668E+02 -0.69430247310E+02  0.10364894817E+03  0.41800000000E+01 0.  1.
         -5    1    3    3    0  502 -0.19485898267E+02 -0.41141525677E+02 -0.95305780074E+02  0.10570236271E+03  0.41800000000E+01 0.  1.
        -11    1    1    2    0    0 -0.54131678020E+01  0.34461339010E+02 -0.26834318291E+02  0.44010986244E+02  0.00000000000E+00 0.  1.
         11    1    1    2    0    0 -0.16908946332E+02 -0.57795878001E+02 -0.11533666990E+03  0.13011081202E+03  0.00000000000E+00 0. -1.
</event>
<event>
 7    1  0.2878477E-009  0.1033631E+03  0.7561462E-02  0.1273379E+00
          1   -1    0    0  501    0  0.00000000000E+00  0.00000000000E+00  0.96144065372E+03  0.96144065372E+03  0.00000000000E+00 0. -1.
         -1   -1    0    0    0  501 -0.00000000000E+00 -0.00000000000E+00 -0.27179070695E+02  0.27179070695E+02  0.00000000000E+00 0.  1.
         25    2    1    2    0    0 -0.48679697405E+02 -0.76367003749E+02  0.73893434949E+03  0.75490106333E+03  0.12510000142E+03 0.  0.
          5    1    3    3  502    0 -0.24567140414E+02  0.82572645079E+01  0.49242692728E+03  0.49312622919E+03  0.41800000000E+01 0.  1.
         -5    1    3    3    0  502 -0.24112556991E+02 -0.84624268257E+02  0.24650742221E+03  0.26177483414E+03  0.41800000000E+01 0.  1.
        -11    1    1    2    0    0  0.12381222095E+02  0.36124840199E+02  0.16938309215E+03  0.17363447424E+03  0.00000000000E+00 0. -1.
         11    1    1    2    0    0  0.36298475310E+02  0.40242163550E+02  0.25944141393E+02  0.60084186852E+02  0.00000000000E+00 0.  1.
</event>
<event>
 7    1  0.2878477E-009  0.7075812E+02  0.7561462E-02  0.1357534E+00
          1   -1    0    0  501    0  0.00000000000E+00  0.00000000000E+00  0.79604568002E+02  0.79604568002E+02  0.00000000000E+00 0. -1.
         -1   -1    0    0    0  501 -0.00000000000E+00 -0.00000000000E+00 -0.14872363381E+03  0.14872363381E+03  0.00000000000E+00 0.  1.
         25    2    1    2    0    0 -0.12606164863E+01 -0.17285091078E+02 -0.53582905080E+02  0.13718885407E+03  0.12509712402E+03 0.  0.
          5    1    3    3  502    0  0.33685016445E+02 -0.42178252246E+02  0.15002940049E+02  0.56180476196E+02  0.41800000000E+01 0. -1.
         -5    1    3    3    0  502 -0.34945632932E+02  0.24893161168E+02 -0.68585845129E+02  0.81008377876E+02  0.41800000000E+01 0. -1.
        -11    1    1    2    0    0  0.20610878364E+02  0.13245959508E+02 -0.47563588358E+02  0.53502884854E+02  0.00000000000E+00 0.  1.
         11    1    1    2    0    0 -0.19350261877E+02  0.40391315702E+01  0.32027427627E+02  0.37636462891E+02  0.00000000000E+00 0. -1.
</event>
<event>
 7    1  0.2878477E-009  0.1035472E+03  0.7561462E-02  0.1273009E+00
         -2   -1    0    0    0  501 -0.00000000000E+00  0.00000000000E+00  0.36511703128E+02  0.36511703128E+02  0.00000000000E+00 0.  1.
          2   -1    0    0  501    0  0.00000000000E+00 -0.00000000000E+00 -0.33359857974E+03  0.33359857974E+03  0.00000000000E+00 0. -1.
         25    2    1    2    0    0  0.14392305299E+02  0.10227966717E+02 -0.14617773759E+03  0.19319072770E+03  0.12507188552E+03 0.  0.
          5    1    3    3  502    0 -0.31203982307E+02  0.53703431463E+02 -0.60934357819E+02  0.87110363479E+02  0.41800000000E+01 0.  1.
         -5    1    3    3    0  502  0.45596287606E+02 -0.43475464746E+02 -0.85243379767E+02  0.10608036422E+03  0.41800000000E+01 0.  1.
        -11    1    1    2    0    0  0.33313926160E+02 -0.54791475329E+01 -0.10593350357E+03  0.11118338866E+03  0.00000000000E+00 0.  1.
         11    1    1    2    0    0 -0.47706231459E+02 -0.47488191838E+01 -0.44975635449E+02  0.65736166512E+02  0.00000000000E+00 0. -1.
</event>
<event>
 7    1  0.2878477E-009  0.1367846E+03  0.7561462E-02  0.1217722E+00
          2   -1    0    0  501    0  0.00000000000E+00  0.00000000000E+00  0.64838017097E+03  0.64838017097E+03  0.00000000000E+00 0.  1.
         -2   -1    0    0    0  501 -0.00000000000E+00 -0.00000000000E+00 -0.41209713594E+02  0.41209713594E+02  0.00000000000E+00 0. -1.
         25    2    1    2    0    0  0.19454697587E+02  0.10416724064E+03  0.45207232937E+03  0.48088129777E+03  0.12509249490E+03 0.  0.
          5    1    3    3  502    0  0.66294823643E+02  0.63307419988E+02  0.34509400939E+03  0.35708567709E+03  0.41800000000E+01 0.  1.
         -5    1    3    3    0  502 -0.46840126056E+02  0.40859820652E+02  0.10697831998E+03  0.12379562068E+03  0.41800000000E+01 0.  1.
        -11    1    1    2    0    0 -0.33074424106E+02 -0.31835727428E+02  0.11730968212E+03  0.12597218975E+03  0.00000000000E+00 0.  1.
         11    1    1    2    0    0  0.13619726519E+02 -0.72331513212E+02  0.37788445884E+02  0.82736397047E+02  0.00000000000E+00 0. -1.
</event>
<event>
 7    1  0.2878477E-009  0.1026360E+03  0.7561462E-02  0.1274848E+00
          2   -1    0    0  501    0  0.00000000000E+00  0.00000000000E+00  0.19988017540E+03  0.19988017540E+03  0.00000000000E+00 0. -1.
         -2   -1    0    0    0  501 -0.00000000000E+00 -0.00000000000E+00 -0.10409363338E+03  0.10409363338E+03  0.00000000000E+00 0.  1.
         25    2    1    2    0    0  0.29649496849E+01  0.92536745999E+02  0.81761641048E+02  0.17579099528E+03  0.12508264383E+03 0.  0.
          5    1    3    3  502    0  0.13832715994E+02  0.72159367410E+02 -0.15949660751E+02  0.75300613642E+02  0.41800000000E+01 0.  1.
         -5    1    3    3    0  502 -0.10867766309E+02  0.20377378589E+02  0.97711301799E+02  0.10049038164E+03  0.41800000000E+01 0.  1.
        -11    1    1    2    0    0  0.24782966262E+02 -0.62925975264E+02  0.41341296461E+02  0.79265229279E+02  0.00000000000E+00 0. -1.
         11    1    1    2    0    0 -0.27747915947E+02 -0.29610770736E+02 -0.27316395489E+02  0.48917584215E+02  0.00000000000E+00 0.  1.
</event>
<event>
 7    1  0.2878477E-009  0.1457344E+03  0.7561462E-02  0.1205815E+00
          1   -1    0    0  501    0  0.00000000000E+00  0.00000000000E+00  0.48197618793E+03  0.48197618793E+03  0.00000000000E+00 0. -1.
         -1   -1    0    0    0  501 -0.00000000000E+00 -0.00000000000E+00 -0.86522643273E+02  0.86522643273E+02  0.00000000000E+00 0.  1.
         25    2    1    2    0    0  0.11565438971E+03  0.80925947405E+02  0.67447553281E+02  0.20030509247E+03  0.12509200934E+03 0.  0.
          5    1    3    3  502    0  0.22928133683E+02  0.38399383360E+02  0.85539172139E+02  0.96615911354E+02  0.41800000000E+01 0.  1.
         -5    1    3    3    0  502  0.92726256031E+02  0.42526564046E+02 -0.18091618858E+02  0.10368918111E+03  0.41800000000E+01 0.  1.
        -11    1    1    2    0    0 -0.89923640981E+02 -0.77073635141E+02  0.31962162836E+03  0.34085860963E+03  0.00000000000E+00 0. -1.
         11    1    1    2    0    0 -0.25730748733E+02 -0.38523122639E+01  0.83843630137E+01  0.27335129106E+02  0.00000000000E+00 0.  1.
</event>
<event>
 7    1  0.2878477E-009  0.1343179E+03  0.7561462E-02  0.1221186E+00
         -3   -1    0    0    0  501 -0.00000000000E+00  0.00000000000E+00  0.27483208970E+02  0.27483208970E+02  0.00000000000E+00 0.  1.
          3   -1    0    0  501    0  0.00000000000E+00 -0.00000000000E+00 -0.73769724159E+03  0.73769724159E+03  0.00000000000E+00 0. -1.
         25    2    1    2    0    0 -0.28201909361E+02  0.81143662323E+02 -0.47527511873E+03  0.49891157381E+03  0.12508668342E+03 0.  0.
          5    1    3    3  502    0  0.12084671907E+02 -0.27410199787E+02 -0.52934190252E+02  0.60966049939E+02  0.41800000000E+01 0. -1.
         -5    1    3    3    0  502 -0.40286581268E+02  0.10855386211E+03 -0.42234092848E+03  0.43794552387E+03  0.41800000000E+01 0. -1.
        -11    1    1    2    0    0  0.58661135885E+02 -0.66667931793E+02 -0.19302542561E+03  0.21247248510E+03  0.00000000000E+00 0. -1.
         11    1    1    2    0    0 -0.30459226524E+02 -0.14475730529E+02 -0.41913488275E+02  0.53796391646E+02  0.00000000000E+00 0.  1.
</event>
<event>
 7    1  0.2878477E-009  0.1384552E+03  0.7561462E-02  0.1215423E+00
          2   -1    0    0  501    0  0.00000000000E+00  0.00000000000E+00  0.80484128965E+03  0.80484128965E+03  0.00000000000E+00 0. -1.
         -2   -1    0    0    0  501 -0.00000000000E+00 -0.00000000000E+00 -0.35781182811E+02  0.35781182811E+02  0.00000000000E+00 0.  1.
         25    2    1    2    0    0  0.25134638905E+02  0.89978369644E+02  0.53027782194E+03  0.55278425732E+03  0.12509200462E+03 0.  0.
          5    1    3    3  502    0 -0.42726100963E+02  0.11405331787E+02  0.89389623597E+02  0.99817726399E+02  0.41800000000E+01 0.  1.
         -5    1    3    3    0  502  0.67860739868E+02  0.78573037858E+02  0.44088819834E+03  0.45296653092E+03  0.41800000000E+01 0.  1.
        -11    1    1    2    0    0 -0.41173979100E+02 -0.42758478884E+01  0.94076408360E+01  0.42450949768E+02  0.00000000000E+00 0.  1.
         11    1    1    2    0    0  0.16039340195E+02 -0.85702521756E+02  0.22937464407E+03  0.24538726538E+03  0.00000000000E+00 0. -1.
</event>
<event>
 7    1  0.2878477E-009  0.1466524E+03  0.7561462E-02  0.1204648E+00
         -4   -1    0    0    0  501 -0.00000000000E+00  0.00000000000E+00  0.34945859516E+03  0.34945859516E+03  0.00000000000E+00 0.  1.
          4   -1    0    0  501    0  0.00000000000E+00 -0.00000000000E+00 -0.74520548033E+02  0.74520548033E+02  0.00000000000E+00 0. -1.
         25    2    1    2    0    0  0.10140558367E+03  0.10137968058E+02  0.65732904358E+02  0.17422523819E+03  0.12509095935E+03 0.  0.
          5    1    3    3  502    0 -0.40276433470E+01 -0.42845484940E+02  0.15888169449E+02  0.46063693068E+02  0.41800000000E+01 0. -1.
         -5    1    3    3    0  502  0.10543322701E+03  0.52983452998E+02  0.49844734909E+02  0.12816154512E+03  0.41800000000E+01 0. -1.
        -11    1    1    2    0    0  0.65026180099E+01  0.19117185328E+02  0.60005538676E+02  0.63312048519E+02  0.00000000000E+00 0.  1.
         11    1    1    2    0    0 -0.10790820168E+03 -0.29255153386E+02  0.14919960410E+03  0.18644185649E+03  0.00000000000E+00 0. -1.
</event>
<event>
 7    1  0.2878477E-009  0.1521332E+03  0.7561462E-02  0.1197876E+00
         -2   -1    0    0    0  501 -0.00000000000E+00  0.00000000000E+00  0.11428548047E+03  0.11428548047E+03  0.00000000000E+00 0.  1.
          2   -1    0    0  501    0  0.00000000000E+00 -0.00000000000E+00 -0.21416825171E+03  0.21416825171E+03  0.00000000000E+00 0. -1.
         25    2    1    2    0    0  0.68246098617E+02 -0.89079911716E+02 -0.49903916363E+02  0.17530472054E+03  0.12509429854E+03 0.  0.
          5    1    3    3  502    0  0.98520656850E+02 -0.83953808594E+02 -0.17868424764E+02  0.13073375542E+03  0.41800000000E+01 0.  1.
         -5    1    3    3    0  502 -0.30274558233E+02 -0.51261031226E+01 -0.32035491599E+02  0.44570965116E+02  0.41800000000E+01 0.  1.
        -11    1    1    2    0    0  0.24778478156E+01  0.70638730443E+02 -0.33531735533E+02  0.78232648276E+02  0.00000000000E+00 0. -1.
         11    1    1    2    0    0 -0.70723946433E+02  0.18441181274E+02 -0.16447119344E+02  0.74916363369E+02  0.00000000000E+00 0.  1.
</event>
<event>
 7    1  0.2878477E-009  0.8383920E+02  0.7561462E-02  0.1318496E+00
          1   -1    0    0  501    0  0.00000000000E+00  0.00000000000E+00  0.14614127897E+02  0.14614127897E+02  0.00000000000E+00 0. -1.
         -1   -1    0    0    0  501 -0.00000000000E+00 -0.00000000000E+00 -0.94594310316E+03  0.94594310316E+03  0.00000000000E+00 0.  1.
         25    2    1    2    0    0 -0.43830167124E+02  0.21714537416E+02 -0.52730923288E+03  0.54414617765E+03  0.12508969135E+03 0.  0.
          5    1    3    3  502    0 -0.39254494237E+01  0.29301434787E+02 -0.48288067498E+03  0.48380285437E+03  0.41800000000E+01 0. -1.
         -5    1    3    3    0  502 -0.39904717700E+02 -0.75868973708E+01 -0.44428557906E+02  0.60343323277E+02  0.41800000000E+01 0. -1.
        -11    1    1    2    0    0  0.30116130705E+02 -0.54044263093E+02 -0.19868718554E+03  0.20809699998E+03  0.00000000000E+00 0. -1.
         11    1    1    2    0    0  0.13714036420E+02  0.32329725677E+02 -0.20533255683E+03  0.20831405342E+03  0.00000000000E+00 0.  1.
</event>
<event>
 7    1  0.2878477E-009  0.1018482E+03  0.7561462E-02  0.1276457E+00
          1   -1    0    0  501    0  0.00000000000E+00  0.00000000000E+00  0.42594444929E+02  0.42594444929E+02  0.00000000000E+00 0.  1.
         -1   -1    0    0    0  501 -0.00000000000E+00 -0.00000000000E+00 -0.29850146427E+03  0.29850146427E+03  0.00000000000E+00 0. -1.
         25    2    1    2    0    0  0.24285317171E+02 -0.18391463866E+02 -0.14366989653E+03  0.19291753381E+03  0.12509241827E+03 0.  0.
          5    1    3    3  502    0 -0.16250508400E+02 -0.52733603549E+02 -0.12456605865E+03  0.13630512586E+03  0.41800000000E+01 0. -1.
         -5    1    3    3    0  502  0.40535825571E+02  0.34342139684E+02 -0.19103837878E+02  0.56612407955E+02  0.41800000000E+01 0. -1.
        -11    1    1    2    0    0  0.62892785765E+00 -0.35598810093E+02 -0.29199482931E+02  0.46046505120E+02  0.00000000000E+00 0.  1.
         11    1    1    2    0    0 -0.24914245029E+02  0.53990273959E+02 -0.83037639880E+02  0.10213187027E+03  0.00000000000E+00 0. -1.
</event>
<event>
 7    1  0.2878477E-009  0.8708267E+02  0.7561462E-02  0.1310074E+00
         -2   -1    0    0    0  501 -0.00000000000E+00  0.00000000000E+00  0.20678070718E+03  0.20678070718E+03  0.00000000000E+00 0.  1.
          2   -1    0    0  501    0  0.00000000000E+00 -0.00000000000E+00 -0.91587294159E+02  0.91587294159E+02  0.00000000000E+00 0. -1.
         25    2    1    2    0    0 -0.31145969470E+02  0.74067628811E+02  0.36368881730E+02  0.15305799675E+03  0.12509184529E+03 0.  0.
          5    1    3    3  502    0 -0.25620240089E+02  0.28338699410E+02 -0.45175174681E+02  0.59310601025E+02  0.41800000000E+01 0. -1.
         -5    1    3    3    0  502 -0.55257293811E+01  0.45728929401E+02  0.81544056412E+02  0.93747395726E+02  0.41800000000E+01 0. -1.
        -11    1    1    2    0    0  0.16730068946E+02 -0.30355882851E+01 -0.17738418740E+02  0.24571558814E+02  0.00000000000E+00 0. -1.
         11    1    1    2    0    0  0.14415900524E+02 -0.71032040526E+02  0.96562950031E+02  0.12073844577E+03  0.00000000000E+00 0.  1.
</event>
<event>
 7    1  0.2878477E-009  0.1134698E+03  0.7561462E-02  0.1254276E+00
         -3   -1    0    0    0  501 -0.00000000000E+00  0.00000000000E+00  0.12933270924E+02  0.12933270924E+02  0.00000000000E+00 0.  1.
          3   -1    0    0  501    0  0.00000000000E+00 -0.00000000000E+00 -0.13128532538E+04  0.13128532538E+04  0.00000000000E+00 0. -1.
         25    2    1    2    0    0  0.13033707627E+02  0.64458870685E+02 -0.86835228503E+03  0.87977741350E+03  0.12509109815E+03 0.  0.
          5    1    3    3  502    0  0.46017963014E+02  0.86086356066E+02 -0.70174525905E+03  0.70851421625E+03  0.41800000000E+01 0. -1.
         -5    1    3    3    0  502 -0.32984255387E+02 -0.21627485381E+02 -0.16660702598E+03  0.17126319725E+03  0.41800000000E+01 0. -1.
        -11    1    1    2    0    0 -0.17212323603E+02 -0.75672756545E+02 -0.42563517436E+03  0.43265220654E+03  0.00000000000E+00 0. -1.
         11    1    1    2    0    0  0.41786159765E+01  0.11213885860E+02 -0.59325234535E+01  0.13356904660E+02  0.00000000000E+00 0.  1.
</event>
<event>
 7    1  0.2878477E-009  0.1702964E+03  0.7561462E-02  0.1177539E+00
          2   -1    0    0  501    0  0.00000000000E+00  0.00000000000E+00  0.25848727923E+03  0.25848727923E+03  0.00000000000E+00 0.  1.
         -2   -1    0    0    0  501 -0.00000000000E+00 -0.00000000000E+00 -0.15316674194E+03  0.15316674194E+03  0.00000000000E+00 0. -1.
         25    2    1    2    0    0 -0.58041351619E+01 -0.13760741708E+03  0.14990896177E+03  0.23893286393E+03  0.12508687951E+03 0.  0.
          5    1    3    3  502    0  0.19495246818E+02 -0.15007478547E+03  0.14569258968E+03  0.21011023052E+03  0.41800000000E+01 0.  1.
         -5    1    3    3    0  502 -0.25299381980E+02  0.12467368387E+02  0.42163720887E+01  0.28822633410E+02  0.41800000000E+01 0.  1.
        -11    1    1    2    0    0  0.25897204209E+02  0.13817966353E+03 -0.53905182197E+02  0.15056577721E+03  0.00000000000E+00 0. -1.
         11    1    1    2    0    0 -0.20093069047E+02 -0.57224645111E+00  0.93167577177E+01  0.22155380026E+02  0.00000000000E+00 0.  1.
</event>
<event>
 7    1  0.2878477E-009  0.1502325E+03  0.7561462E-02  0.1200188E+00
         -1   -1    0    0    0  501 -0.00000000000E+00  0.00000000000E+00  0.20966897711E+02  0.20966897711E+02  0.00000000000E+00 0.  1.
          1   -1    0    0  501    0  0.00000000000E+00 -0.00000000000E+00 -0.11865766316E+04  0.11865766316E+04  0.00000000000E+00 0. -1.
         25    2    1    2    0    0 -0.67978931952E+02 -0.80293356147E+02 -0.79374687336E+03  0.81040142710E+03  0.12509282891E+03 0.  0.
          5    1    3    3  502    0 -0.19579201731E+01 -0.95430688163E+02 -0.45456754150E+03  0.46449970063E+03  0.41800000000E+01 0. -1.
         -5    1    3    3    0  502 -0.66021011779E+02  0.15137332017E+02 -0.33917933186E+03  0.34590172647E+03  0.41800000000E+01 0. -1.
        -11    1    1    2    0    0  0.17208391584E+02 -0.18941564116E+02 -0.10205893797E+03  0.10521852695E+03  0.00000000000E+00 0.  1.
         11    1    1    2    0    0  0.50770540368E+02  0.99234920263E+02 -0.26980392251E+03  0.29192357522E+03  0.00000000000E+00 0. -1.
</event>
<event>
 7    1  0.2878477E-009  0.1519479E+03  0.7561462E-02  0.1198100E+00
          2   -1    0    0  501    0  0.00000000000E+00  0.00000000000E+00  0.31531619627E+03  0.31531619627E+03  0.00000000000E+00 0. -1.
         -2   -1    0    0    0  501 -0.00000000000E+00 -0.00000000000E+00 -0.12999037557E+03  0.12999037557E+03  0.00000000000E+00 0.  1.
         25    2    1    2    0    0 -0.55898657619E+02 -0.97178700869E+02 -0.43420558612E+02  0.17349725776E+03  0.12509034221E+03 0.  0.
          5    1    3    3  502    0  0.16956441093E+02 -0.83145771338E+02 -0.50522034031E+02  0.98846793112E+02  0.41800000000E+01 0. -1.
         -5    1    3    3    0  502 -0.72855098711E+02 -0.14032929531E+02  0.71014754186E+01  0.74650464651E+02  0.41800000000E+01 0. -1.
        -11    1    1    2    0    0  0.80335603549E+02  0.86207801022E+02  0.16588174750E+03  0.20347567006E+03  0.00000000000E+00 0.  1.
         11    1    1    2    0    0 -0.24436945931E+02  0.10970899848E+02  0.62864631819E+02  0.68333644010E+02  0.00000000000E+00 0. -1.
</event>
<event>
 7    1  0.2878477E-009  0.1183269E+03  0.7561462E-02  0.1245883E+00
          3   -1    0    0  501    0  0.00000000000E+00  0.00000000000E+00  0.30784404613E+03  0.30784404613E+03  0.00000000000E+00 0. -1.
         -3   -1    0    0    0  501 -0.00000000000E+00 -0.00000000000E+00 -0.79635929965E+02  0.79635929965E+02  0.00000000000E+00 0.  1.
         25    2    1    2    0    0  0.49863260767E+02  0.19564448361E+02  0.23606094501E+03  0.27247133634E+03  0.12508695757E+03 0.  0.
          5    1    3    3  502    0  0.62956226716E+02 -0.31756005472E+02  0.18799170681E+03  0.20082401399E+03  0.41800000000E+01 0. -1.
         -5    1    3    3    0  502 -0.13092965950E+02  0.51320453833E+02  0.48069238209E+02  0.71647322358E+02  0.41800000000E+01 0. -1.
        -11    1    1    2    0    0 -0.14521791978E+02  0.40596392945E+02 -0.13035133461E+02  0.45042915833E+02  0.00000000000E+00 0.  1.
         11    1    1    2    0    0 -0.35341468789E+02 -0.60160841307E+02  0.51823046151E+01  0.69965723922E+02  0.00000000000E+00 0. -1.
</event>
<event>
 7    1  0.2878477E-009  0.8701444E+02  0.7561462E-02  0.1310247E+00
         -4   -1    0    0    0  501 -0.00000000000E+00  0.00000000000E+00  0.14020367351E+03  0.14020367351E+03  0.00000000000E+00 0. -1.
          4   -1    0    0  501    0  0.00000000000E+00 -0.00000000000E+00 -0.12644216120E+03  0.12644216120E+03  0.00000000000E+00 0.  1.
         25    2    1    2    0    0  0.27146150473E+02 -0.36037666148E+02 -0.55173393419E+02  0.14398548209E+03  0.12510830846E+03 0.  0.
          5    1    3    3  502    0 -0.18697860007E+02 -0.48935024442E+02  0.18880608471E+02  0.55840812693E+02  0.41800000000E+01 0.  1.
         -5    1    3    3    0  502  0.45844010480E+02  0.12897358293E+02 -0.74054001890E+02  0.88144669401E+02  0.41800000000E+01 0.  1.
        -11    1    1    2    0    0  0.91561790530E+01  0.36228067493E+02 -0.74363179877E+01  0.38099964755E+02  0.00000000000E+00 0.  1.
         11    1    1    2    0    0 -0.36302329526E+02 -0.19040134508E+00  0.76371223716E+02  0.84560387852E+02  0.00000000000E+00 0. -1.
</event>
<event>
 7    1  0.2878477E-009  0.1446378E+03  0.7561462E-02  0.1207221E+00
         -3   -1    0    0    0  501 -0.00000000000E+00  0.00000000000E+00  0.32752558791E+03  0.32752558791E+03  0.00000000000E+00 0.  1.
          3   -1    0    0  501    0  0.00000000000E+00 -0.00000000000E+00 -0.12975563284E+03  0.12975563284E+03  0.00000000000E+00 0. -1.
         25    2    1    2    0    0  0.88413449772E+02  0.62265882286E+02  0.25596528546E+03  0.30473051828E+03  0.12509389761E+03 0.  0.
          5    1    3    3  502    0 -0.23120326320E+02  0.43457852155E+02  0.10505226539E+03  0.11608869569E+03  0.41800000000E+01 0. -1.
         -5    1    3    3    0  502  0.11153377609E+03  0.18808030130E+02  0.15091302006E+03  0.18864182259E+03  0.41800000000E+01 0. -1.
        -11    1    1    2    0    0 -0.12833337100E+02 -0.48110987257E+02  0.88001782154E+01  0.50564857091E+02  0.00000000000E+00 0.  1.
         11    1    1    2    0    0 -0.75580112671E+02 -0.14154895028E+02 -0.66995508593E+02  0.10198584537E+03  0.00000000000E+00 0. -1.
</event>
<event>
 7    1  0.2878477E-009  0.2457201E+03  0.7561462E-02  0.1116040E+00
          2   -1    0    0  501    0  0.00000000000E+00  0.00000000000E+00  0.14056509714E+04  0.14056509714E+04  0.00000000000E+00 0. -1.
         -2   -1    0    0    0  501 -0.00000000000E+00 -0.00000000000E+00 -0.57962875885E+02  0.57962875885E+02  0.00000000000E+00 0.  1.
         25    2    1    2    0    0 -0.70104893032E+02 -0.23396580585E+03  0.43169943774E+03  0.51153309222E+03  0.12508799126E+03 0.  0.
          5    1    3    3  502    0 -0.33901258345E+02 -0.10490871335E+03  0.31499617997E+03  0.33375919350E+03  0.41800000000E+01 0. -1.
         -5    1    3    3    0  502 -0.36203634687E+02 -0.12905709251E+03  0.11670325777E+03  0.17777389872E+03  0.41800000000E+01 0. -1.
        -11    1    1    2    0    0  0.30142176764E+02  0.16115697806E+03  0.45425121833E+03  0.48293300959E+03  0.00000000000E+00 0.  1.
         11    1    1    2    0    0  0.39962716268E+02  0.72808827793E+02  0.46173743941E+03  0.46914774544E+03  0.00000000000E+00 0. -1.
</event>
<event>
 7    1  0.2878477E-009  0.1408297E+03  0.7561462E-02  0.1212217E+00
          2   -1    0    0  501    0  0.00000000000E+00  0.00000000000E+00  0.18026440677E+03  0.18026440677E+03  0.00000000000E+00 0. -1.
         -2   -1    0    0    0  501 -0.00000000000E+00 -0.00000000000E+00 -0.14492042824E+03  0.14492042824E+03  0.00000000000E+00 0.  1.
         25    2    1    2    0    0 -0.47008646640E+02 -0.10586581579E+03  0.48379927788E+02  0.17721543139E+03  0.12508919977E+03 0.  0.
          5    1    3    3  502    0 -0.83487510515E+02 -0.55421577520E+02  0.55147542670E+02  0.11445715150E+03  0.41800000000E+01 0. -1.
         -5    1    3    3    0  502  0.36478863875E+02 -0.50444238267E+02 -0.67676148823E+01  0.62758279893E+02  0.41800000000E+01 0. -1.
        -11    1    1    2    0    0  0.13359286424E+02  0.63389835813E+02 -0.50458011757E+02  0.82114266536E+02  0.00000000000E+00 0.  1.
         11    1    1    2    0    0  0.33649360215E+02  0.42475979973E+02  0.37422062505E+02  0.65855137079E+02  0.00000000000E+00 0. -1.
</event>
<event>
 7    1  0.2878477E-009  0.1033283E+03  0.7561462E-02  0.1273449E+00
          2   -1    0    0  501    0  0.00000000000E+00  0.00000000000E+00  0.85872583660E+02  0.85872583660E+02  0.00000000000E+00 0.  1.
         -2   -1    0    0    0  501 -0.00000000000E+00 -0.00000000000E+00 -0.26597637390E+03  0.26597637390E+03  0.00000000000E+00 0. -1.
         25    2    1    2    0    0  0.14340854943E+02  0.51983981881E+02 -0.20574390426E+03  0.24675036517E+03  0.12508874482E+03 0.  0.
          5    1    3    3  502    0  0.27740634064E+02 -0.34378588719E+02 -0.42008223499E+02  0.61103137252E+02  0.41800000000E+01 0.  1.
         -5    1    3    3    0  502 -0.13399779121E+02  0.86362570600E+02 -0.16373568076E+03  0.18564722792E+03  0.41800000000E+01 0.  1.
        -11    1    1    2    0    0  0.16416770610E+02 -0.26173788920E+01  0.41587973961E+02  0.44787505040E+02  0.00000000000E+00 0.  1.
         11    1    1    2    0    0 -0.30757625553E+02 -0.49366602989E+02 -0.15947859946E+02  0.60311087349E+02  0.00000000000E+00 0. -1.
</event>
<event>
 7    1  0.2878477E-009  0.1139198E+03  0.7561462E-02  0.1253478E+00
          2   -1    0    0  501    0  0.00000000000E+00  0.00000000000E+00  0.19873771506E+03  0.19873771506E+03  0.00000000000E+00 0. -1.
         -2   -1    0    0    0  501 -0.00000000000E+00 -0.00000000000E+00 -0.10950064198E+03  0.10950064198E+03  0.00000000000E+00 0.  1.
         25    2    1    2    0    0  0.22795475027E+02 -0.92732049646E+02  0.26189789610E+02  0.15954165167E+03  0.12509503118E+03 0.  0.
          5    1    3    3  502    0  0.12432174424E+02 -0.10896833033E+03 -0.17938933211E+02  0.11121121212E+03  0.41800000000E+01 0.  1.
         -5    1    3    3    0  502  0.10363300603E+02  0.16236280685E+02  0.44128722821E+02  0.48330439556E+02  0.41800000000E+01 0.  1.
        -11    1    1    2    0    0 -0.46011011358E+01  0.65272022135E+02  0.86353780992E+02  0.10834473913E+03  0.00000000000E+00 0. -1.
         11    1    1    2    0    0 -0.18194373891E+02  0.27460027511E+02 -0.23306497529E+02  0.40351966238E+02  0.00000000000E+00 0.  1.
</event>
<event>
 7    1  0.2878477E-009  0.1517162E+03  0.7561462E-02  0.1198380E+00
          1   -1    0    0  501    0  0.00000000000E+00  0.00000000000E+00  0.38605200568E+03  0.38605200568E+03  0.00000000000E+00 0. -1.
         -1   -1    0    0    0  501 -0.00000000000E+00 -0.00000000000E+00 -0.65784767838E+02  0.65784767838E+02  0.00000000000E+00 0.  1.
         25    2    1    2    0    0  0.99176779000E+02 -0.59282836904E+02  0.18489831368E+03  0.25136601587E+03  0.12508796620E+03 0.  0.
          5    1    3    3  502    0  0.59336470810E+01  0.36096369286E+02  0.41474955760E+02  0.55459899014E+02  0.41800000000E+01 0.  1.
         -5    1    3    3    0  502  0.93243131919E+02 -0.95379206190E+02  0.14342335792E+03  0.19590611685E+03  0.41800000000E+01 0.  1.
        -11    1    1    2    0    0 -0.81420307797E+02  0.74058590063E+02  0.68295086553E+02  0.12953053745E+03  0.00000000000E+00 0.  1.
         11    1    1    2    0    0 -0.17756471202E+02 -0.14775753159E+02  0.67073837608E+02  0.70940220203E+02  0.00000000000E+00 0. -1.
</event>
<event>
 7    1  0.2878477E-009  0.4576074E+03  0.7561462E-02  0.1025477E+00
         -1   -1    0    0    0  501 -0.00000000000E+00  0.00000000000E+00  0.44690996381E+03  0.44690996381E+03  0.00000000000E+00 0.  1.
          1   -1    0    0  501    0  0.00000000000E+00 -0.00000000000E+00 -0.50498020012E+03  0.50498020012E+03  0.00000000000E+00 0. -1.
         25    2    1    2    0    0  0.35800308436E+03  0.27064710824E+03  0.83470252435E+02  0.47331889674E+03  0.12508968525E+03 0.  0.
          5    1    3    3  502    0  0.34844590579E+03  0.21614947389E+03  0.79420186878E+02  0.41768430999E+03  0.41800000000E+01 0. -1.
         -5    1    3    3    0  502  0.95571785698E+01  0.54497634348E+02  0.40500655572E+01  0.55634586749E+02  0.41800000000E+01 0. -1.
        -11    1    1    2    0    0 -0.24390285333E+03 -0.20040815550E+03 -0.13804041414E+03  0.34453909298E+03  0.00000000000E+00 0.  1.
         11    1    1    2    0    0 -0.11410023103E+03 -0.70238952739E+02 -0.35000745961E+01  0.13403217422E+03  0.00000000000E+00 0. -1.
</event>
<event>
 7    1  0.2878477E-009  0.1054032E+03  0.7561462E-02  0.1269327E+00
          1   -1    0    0  501    0  0.00000000000E+00  0.00000000000E+00  0.64597180708E+03  0.64597180708E+03  0.00000000000E+00 0. -1.
         -1   -1    0    0    0  501 -0.00000000000E+00 -0.00000000000E+00 -0.43772519034E+02  0.43772519034E+02  0.00000000000E+00 0.  1.
         25    2    1    2    0    0  0.23408459900E+02  0.76372704090E+02  0.52541931536E+03  0.54597916659E+03  0.12508815880E+03 0.  0.
          5    1    3    3  502    0 -0.30683321743E+02  0.15947447653E+02  0.36849570828E+02  0.50706514277E+02  0.41800000000E+01 0.  1.
         -5    1    3    3    0  502  0.54091781644E+02  0.60425256436E+02  0.48856974453E+03  0.49527265232E+03  0.41800000000E+01 0.  1.
        -11    1    1    2    0    0 -0.35716075288E+02 -0.29554488763E+02 -0.71191791817E+01  0.46901903504E+02  0.00000000000E+00 0.  1.
         11    1    1    2    0    0  0.12307615388E+02 -0.46818215326E+02  0.83899151867E+02  0.96863256021E+02  0.00000000000E+00 0. -1.
</event>
<event>
 7    1  0.2878477E-009  0.3583291E+03  0.7561462E-02  0.1059247E+00
          2   -1    0    0  501    0  0.00000000000E+00  0.00000000000E+00  0.16722669560E+04  0.16722669560E+04  0.00000000000E+00 0. -1.
         -2   -1    0    0    0  501 -0.00000000000E+00 -0.00000000000E+00 -0.82424256437E+02  0.82424256437E+02  0.00000000000E+00 0.  1.
         25    2    1    2    0    0 -0.34719990759E+03 -0.66308333774E+02  0.86650378047E+03  0.94415066377E+03  0.12508838224E+03 0.  0.
          5    1    3    3  502    0 -0.20953580873E+03 -0.78510239865E+02  0.40921486849E+03  0.46641547347E+03  0.41800000000E+01 0. -1.
         -5    1    3    3    0  502 -0.13766409886E+03  0.12201906092E+02  0.45728891198E+03  0.47773519029E+03  0.41800000000E+01 0. -1.
        -11    1    1    2    0    0  0.15089505704E+03  0.14660856759E+02  0.21414164312E+03  0.26237549862E+03  0.00000000000E+00 0.  1.
         11    1    1    2    0    0  0.19630485055E+03  0.51647477015E+02  0.50919727599E+03  0.54816505006E+03  0.00000000000E+00 0. -1.
</event>
<event>
 7    1  0.2878477E-009  0.2718586E+03  0.7561462E-02  0.1100221E+00
          1   -1    0    0  501    0  0.00000000000E+00  0.00000000000E+00  0.15162368979E+04  0.15162368979E+04  0.00000000000E+00 0. -1.
         -1   -1    0    0    0  501 -0.00000000000E+00 -0.00000000000E+00 -0.68606401027E+02  0.68606401027E+02  0.00000000000E+00 0.  1.
         25    2    1    2    0    0 -0.27042712418E+02  0.26248522144E+03  0.36886085105E+03  0.47045791504E+03  0.12507007085E+03 0.  0.
          5    1    3    3  502    0 -0.25458906779E+02  0.23007231092E+03  0.37138986703E+03  0.43764064016E+03  0.41800000000E+01 0.  1.
         -5    1    3    3    0  502 -0.15838056388E+01  0.32412910528E+02 -0.25290159833E+01  0.32817274888E+02  0.41800000000E+01 0.  1.
        -11    1    1    2    0    0  0.94071821596E+00 -0.25094006378E+03  0.96880185988E+03  0.10007741225E+04  0.00000000000E+00 0. -1.
         11    1    1    2    0    0  0.26101994202E+02 -0.11545157666E+02  0.10996778595E+03  0.11361126138E+03  0.00000000000E+00 0.  1.
</event>
<event>
 7    1  0.2878477E-009  0.7601796E+02  0.7561462E-02  0.1340747E+00
         -1   -1    0    0    0  501 -0.00000000000E+00  0.00000000000E+00  0.62556583559E+02  0.62556583559E+02  0.00000000000E+00 0.  1.
          1   -1    0    0  501    0  0.00000000000E+00 -0.00000000000E+00 -0.22816475820E+03  0.22816475820E+03  0.00000000000E+00 0. -1.
         25    2    1    2    0    0 -0.37569912677E+02 -0.31081709431E+02 -0.92843896175E+02  0.16323512133E+03  0.12509254486E+03 0.  0.
          5    1    3    3  502    0 -0.27996958589E+02 -0.35842475537E+02  0.19963584270E+02  0.49845058329E+02  0.41800000000E+01 0.  1.
         -5    1    3    3    0  502 -0.95729540877E+01  0.47607661063E+01 -0.11280748045E+03  0.11339006300E+03  0.41800000000E+01 0.  1.
        -11    1    1    2    0    0  0.51210127602E+02 -0.94887178298E+01 -0.12486468063E+02  0.53557677506E+02  0.00000000000E+00 0.  1.
         11    1    1    2    0    0 -0.13640214925E+02  0.40570427261E+02 -0.60277810404E+02  0.73928542921E+02  0.00000000000E+00 0. -1.
</event>
<event>
 7    1  0.2878477E-009  0.7242016E+02  0.7561462E-02  0.1352051E+00
          4   -1    0    0  501    0  0.00000000000E+00  0.00000000000E+00  0.17262012224E+03  0.17262012224E+03  0.00000000000E+00 0. -1.
         -4   -1    0    0    0  501 -0.00000000000E+00 -0.00000000000E+00 -0.82356419248E+02  0.82356419248E+02  0.00000000000E+00 0.  1.
         25    2    1    2    0    0  0.78831659820E+01 -0.33426745732E+02  0.92827998770E+02  0.15951291837E+03  0.12509133517E+03 0.  0.
          5    1    3    3  502    0 -0.16805823109E+02 -0.65805182824E+02  0.12256737696E+02  0.69140854752E+02  0.41800000000E+01 0. -1.
         -5    1    3    3    0  502  0.24688989091E+02  0.32378437092E+02  0.80571261074E+02  0.90372063614E+02  0.41800000000E+01 0. -1.
        -11    1    1    2    0    0 -0.85564682301E+01  0.13884650241E+02 -0.45473140796E+02  0.48309452437E+02  0.00000000000E+00 0.  1.
         11    1    1    2    0    0  0.67330224811E+00  0.19542095492E+02  0.42908845016E+02  0.47154170682E+02  0.00000000000E+00 0. -1.
</event>
<event>
 7    1  0.2878477E-009  0.5748877E+02  0.7561462E-02  0.1408683E+00
         -4   -1    0    0    0  501 -0.00000000000E+00  0.00000000000E+00  0.89016165259E+02  0.89016165259E+02  0.00000000000E+00 0.  1.
          4   -1    0    0  501    0  0.00000000000E+00 -0.00000000000E+00 -0.13584436503E+03  0.13584436503E+03  0.00000000000E+00 0. -1.
         25    2    1    2    0    0 -0.13120845794E+02 -0.71647797237E+01 -0.19804966010E+02  0.12752477953E+03  0.12508733770E+03 0.  0.
          5    1    3    3  502    0 -0.23971690564E+02 -0.13636796472E+01  0.50476413645E+02  0.56052139167E+02  0.41800000000E+01 0. -1.
         -5    1    3    3    0  502  0.10850844769E+02 -0.58011000765E+01 -0.70281379655E+02  0.71472640363E+02  0.41800000000E+01 0. -1.
        -11    1    1    2    0    0 -0.31527059271E+02 -0.34602211740E+01  0.15021325568E+02  0.35093714803E+02  0.00000000000E+00 0.  1.
         11    1    1    2    0    0  0.44647905066E+02  0.10625000898E+02 -0.42044559332E+02  0.62242035958E+02  0.00000000000E+00 0. -1.
</event>
<event>
 7    1  0.2878477E-009  0.1114713E+03  0.7561462E-02  0.1257869E+00
          2   -1    0    0  501    0  0.00000000000E+00  0.00000000000E+00  0.31874127530E+03  0.31874127530E+03  0.00000000000E+00 0. -1.
         -2   -1    0    0    0  501 -0.00000000000E+00 -0.00000000000E+00 -0.48063840842E+02  0.48063840842E+02  0.00000000000E+00 0.  1.
         25    2    1    2    0    0 -0.28977201352E+02  0.10421147925E+02  0.75775191292E+02  0.14946004543E+03  0.12509255390E+03 0.  0.
          5    1    3    3  502    0  0.48772185715E+02  0.13729930639E+02  0.32060593164E+02  0.60104834488E+02  0.41800000000E+01 0.  1.
         -5    1    3    3    0  502 -0.77749387067E+02 -0.33087827144E+01  0.43714598128E+02  0.89355210938E+02  0.41800000000E+01 0.  1.
        -11    1    1    2    0    0 -0.16967448318E+02 -0.37274077594E+02  0.10724349538E+03  0.11479729293E+03  0.00000000000E+00 0. -1.
         11    1    1    2    0    0  0.45944649671E+02  0.26852929669E+02  0.87658747790E+02  0.10254777779E+03  0.00000000000E+00 0.  1.
</event>
<event>
 7    1  0.2878477E-009  0.1530431E+03  0.7561462E-02  0.1196783E+00
         -1   -1    0    0    0  501 -0.00000000000E+00  0.00000000000E+00  0.83914130312E+02  0.83914130312E+02  0.00000000000E+00 0.  1.
          1   -1    0    0  501    0  0.00000000000E+00 -0.00000000000E+00 -0.50838344539E+03  0.50838344539E+03  0.00000000000E+00 0. -1.
         25    2    1    2    0    0  0.35757575228E+02  0.11271066095E+03 -0.36016274203E+02  0.17585612027E+03  0.12508359505E+03 0.  0.
          5    1    3    3  502    0 -0.10168820019E+02 -0.23743014219E+02  0.37482529831E+01  0.26432128654E+02  0.41800000000E+01 0. -1.
         -5    1    3    3    0  502  0.45926395247E+02  0.13645367517E+03 -0.39764527186E+02  0.14942399162E+03  0.41800000000E+01 0. -1.
        -11    1    1    2    0    0 -0.44679445136E+02 -0.32671576761E+02 -0.77548812766E+02  0.95275931416E+02  0.00000000000E+00 0.  1.
         11    1    1    2    0    0  0.89218699079E+01 -0.80039084191E+02 -0.31090422811E+03  0.32116552402E+03  0.00000000000E+00 0. -1.
</event>
<event>
 7    1  0.2878477E-009  0.1786650E+03  0.7561462E-02  0.1169101E+00
         -2   -1    0    0    0  501 -0.00000000000E+00  0.00000000000E+00  0.44199919972E+02  0.44199919972E+02  0.00000000000E+00 0.  1.
          2   -1    0    0  501    0  0.00000000000E+00 -0.00000000000E+00 -0.80765890466E+03  0.80765890466E+03  0.00000000000E+00 0. -1.
         25    2    1    2    0    0 -0.87414315294E+02  0.12615671148E+03 -0.44551147534E+03  0.48752938870E+03  0.12509057445E+03 0.  0.
          5    1    3    3  502    0 -0.47803458139E+02  0.30932146156E+00 -0.44847026881E+02  0.65681005701E+02  0.41800000000E+01 0.  1.
         -5    1    3    3    0  502 -0.39610857155E+02  0.12584739002E+03 -0.40066444846E+03  0.42184838300E+03  0.41800000000E+01 0.  1.
        -11    1    1    2    0    0  0.67084565814E+02 -0.21081351933E+02 -0.11228880629E+03  0.13248976710E+03  0.00000000000E+00 0.  1.
         11    1    1    2    0    0  0.20329749481E+02 -0.10507535955E+03 -0.20565870305E+03  0.23183966882E+03  0.00000000000E+00 0. -1.
</event>
<event>
 7    1  0.2878477E-009  0.2128253E+03  0.7561462E-02  0.1139348E+00
         -3   -1    0    0    0  501 -0.00000000000E+00  0.00000000000E+00  0.32124128003E+03  0.32124128003E+03  0.00000000000E+00 0.  1.
          3   -1    0    0  501    0  0.00000000000E+00 -0.00000000000E+00 -0.15495804208E+03  0.15495804208E+03  0.00000000000E+00 0. -1.
         25    2    1    2    0    0 -0.18311436756E+03  0.37217163519E+02  0.28403248134E+02  0.22665002879E+03  0.12508997633E+03 0.  0.
          5    1    3    3  502    0 -0.33383367555E+02 -0.37416373234E+02  0.31324344408E+02  0.59271588201E+02  0.41800000000E+01 0. -1.
         -5    1    3    3    0  502 -0.14973100000E+03  0.74633536753E+02 -0.29210962748E+01  0.16737844059E+03  0.41800000000E+01 0. -1.
        -11    1    1    2    0    0  0.70907229156E+02 -0.60701949062E+02  0.63617273214E+02  0.11295892713E+03  0.00000000000E+00 0.  1.
         11    1    1    2    0    0  0.11220713840E+03  0.23484785543E+02  0.74262716598E+02  0.13659036619E+03  0.00000000000E+00 0. -1.
</event>
<event>
 7    1  0.2878477E-009  0.9675563E+02  0.7561462E-02  0.1287270E+00
         -1   -1    0    0    0  501 -0.00000000000E+00  0.00000000000E+00  0.19271988557E+03  0.19271988557E+03  0.00000000000E+00 0.  1.
          1   -1    0    0  501    0  0.00000000000E+00 -0.00000000000E+00 -0.79419428359E+02  0.79419428359E+02  0.00000000000E+00 0. -1.
         25    2    1    2    0    0 -0.31560791036E+02 -0.17984811636E+02  0.60575232471E+02  0.14368100447E+03  0.12512128227E+03 0.  0.
          5    1    3    3  502    0 -0.75997556757E+02  0.10178916957E+02  0.43260996435E+02  0.88137535682E+02  0.41800000000E+01 0.  1.
         -5    1    3    3    0  502  0.44436765721E+02 -0.28163728593E+02  0.17314236036E+02  0.55543468793E+02  0.41800000000E+01 0.  1.
        -11    1    1    2    0    0 -0.14131059477E+02  0.10590246278E+02 -0.29337369391E+02  0.34242099833E+02  0.00000000000E+00 0. -1.
         11    1    1    2    0    0  0.45691850512E+02  0.73945653587E+01  0.82062594127E+02  0.94216209618E+02  0.00000000000E+00 0.  1.
</event>
<event>
 7    1  0.2878477E-009  0.1084480E+03  0.7561462E-02  0.1263471E+00
          1   -1    0    0  501    0  0.00000000000E+00  0.00000000000E+00  0.41306743440E+03  0.41306743440E+03  0.00000000000E+00 0. -1.
         -1   -1    0    0    0  501 -0.00000000000E+00 -0.00000000000E+00 -0.29239847784E+02  0.29239847784E+02  0.00000000000E+00 0.  1.
         25    2    1    2    0    0  0.15416033077E+00  0.18368393989E+02  0.23357354074E+03  0.26559952182E+03  0.12509630449E+03 0.  0.
          5    1    3    3  502    0 -0.26357666116E+01 -0.53303799371E+02  0.83053763610E+02  0.98811144831E+02  0.41800000000E+01 0. -1.
         -5    1    3    3    0  502  0.27899269423E+01  0.71672193360E+02  0.15051977713E+03  0.16678837699E+03  0.41800000000E+01 0. -1.
        -11    1    1    2    0    0 -0.19504294594E+02  0.32046178249E+02  0.46538766534E+02  0.59776515778E+02  0.00000000000E+00 0.  1.
         11    1    1    2    0    0  0.19350134264E+02 -0.50414572238E+02  0.10371527934E+03  0.11693124458E+03  0.00000000000E+00 0. -1.
</event>
<event>
 7    1  0.2878477E-009  0.1017290E+03  0.7561462E-02  0.1276702E+00
          2   -1    0    0  501    0  0.00000000000E+00  0.00000000000E+00  0.14783918899E+03  0.14783918899E+03  0.00000000000E+00 0. -1.
         -2   -1    0    0    0  501 -0.00000000000E+00 -0.00000000000E+00 -0.16030086687E+03  0.16030086687E+03  0.00000000000E+00 0.  1.
         25    2    1    2    0    0  0.82045731531E+02  0.58466095829E+02 -0.47048449568E+02  0.16736456844E+03  0.12509019041E+03 0.  0.
          5    1    3    3  502    0  0.61813450013E+01  0.99702588473E+01  0.40098533834E+02  0.41987854234E+02  0.41800000000E+01 0. -1.
         -5    1    3    3    0  502  0.75864386530E+02  0.48495836982E+02 -0.87146983402E+02  0.12537671420E+03  0.41800000000E+01 0. -1.
        -11    1    1    2    0    0 -0.50549216151E+02 -0.33046345712E+02 -0.27740682034E+02  0.66459233054E+02  0.00000000000E+00 0.  1.
         11    1    1    2    0    0 -0.31496515381E+02 -0.25419750117E+02  0.62327453714E+02  0.74316254371E+02  0.00000000000E+00 0. -1.
</event>
<event>
 7    1  0.2878477E-009  0.1399240E+03  0.7561462E-02  0.1213431E+00
          2   -1    0    0  501    0  0.00000000000E+00  0.00000000000E+00  0.18445071255E+03  0.18445071255E+03  0.00000000000E+00 0. -1.
         -2   -1    0    0    0  501 -0.00000000000E+00 -0.00000000000E+00 -0.11620101232E+03  0.11620101232E+03  0.00000000000E+00 0.  1.
         25    2    1    2    0    0 -0.88276833571E+02  0.31571694034E+02  0.56714780686E+01  0.15642603386E+03  0.12508943679E+03 0.  0.
          5    1    3    3  502    0 -0.83161482207E+02  0.72341901379E+02  0.21162971680E+02  0.11231440953E+03  0.41800000000E+01 0. -1.
         -5    1    3    3    0  502 -0.51153513647E+01 -0.40770207345E+02 -0.15491493612E+02  0.44111624328E+02  0.41800000000E+01 0. -1.
        -11    1    1    2    0    0 -0.58769036610E+01  0.20031491820E+02  0.20607831912E+01  0.20977261226E+02  0.00000000000E+00 0.  1.
         11    1    1    2    0    0  0.94153737232E+02 -0.51603185854E+02  0.60517438966E+02  0.12324842978E+03  0.00000000000E+00 0. -1.
</event>
<event>
 7    1  0.2878477E-009  0.1642952E+03  0.7561462E-02  0.1183931E+00
         -1   -1    0    0    0  501 -0.00000000000E+00  0.00000000000E+00  0.50221938915E+02  0.50221938915E+02  0.00000000000E+00 0.  1.
          1   -1    0    0  501    0  0.00000000000E+00 -0.00000000000E+00 -0.10318203761E+04  0.10318203761E+04  0.00000000000E+00 0. -1.
         25    2    1    2    0    0 -0.59550232646E+02  0.15059874477E+03 -0.22765556348E+03  0.30610535829E+03  0.12508885906E+03 0.  0.
          5    1    3    3  502    0 -0.99194000206E+01  0.10111183484E+02 -0.12322681831E+03  0.12410862854E+03  0.41800000000E+01 0. -1.
         -5    1    3    3    0  502 -0.49630832626E+02  0.14048756128E+03 -0.10442874517E+03  0.18199672975E+03  0.41800000000E+01 0. -1.
        -11    1    1    2    0    0  0.43955596520E+01 -0.48708501352E+02 -0.94623064330E+02  0.10651461567E+03  0.00000000000E+00 0.  1.
         11    1    1    2    0    0  0.55154672994E+02 -0.10189024342E+03 -0.65931980935E+03  0.66942234102E+03  0.00000000000E+00 0. -1.
</event>
<event>
 7    1  0.2878477E-009  0.1361763E+03  0.7561462E-02  0.1218569E+00
         -3   -1    0    0    0  501 -0.00000000000E+00  0.00000000000E+00  0.21118010701E+03  0.21118010701E+03  0.00000000000E+00 0.  1.
          3   -1    0    0  501    0  0.00000000000E+00 -0.00000000000E+00 -0.28498001071E+03  0.28498001071E+03  0.00000000000E+00 0. -1.
         25    2    1    2    0    0  0.65206585263E+02 -0.66796034356E+02  0.16335054885E+03  0.22593946094E+03  0.12510647159E+03 0.  0.
          5    1    3    3  502    0  0.95544747701E+02 -0.51240916987E+02  0.15725742687E+03  0.19105444536E+03  0.41800000000E+01 0. -1.
         -5    1    3    3    0  502 -0.30338162438E+02 -0.15555117370E+02  0.60931219804E+01  0.34885015579E+02  0.41800000000E+01 0. -1.
        -11    1    1    2    0    0 -0.75471851225E+02  0.15313791326E+02 -0.13826444289E+03  0.15826423696E+03  0.00000000000E+00 0. -1.
         11    1    1    2    0    0  0.10265265963E+02  0.51482243030E+02 -0.98886009658E+02  0.11195641982E+03  0.00000000000E+00 0.  1.
</event>
<event>
 7    1  0.2878477E-009  0.1077977E+03  0.7561462E-02  0.1264703E+00
         -1   -1    0    0    0  501 -0.00000000000E+00  0.00000000000E+00  0.12674512954E+02  0.12674512954E+02  0.00000000000E+00 0.  1.
          1   -1    0    0  501    0  0.00000000000E+00 -0.00000000000E+00 -0.11970074287E+04  0.11970074287E+04  0.00000000000E+00 0. -1.
         25    2    1    2    0    0 -0.23029913798E+01 -0.45255216691E+02 -0.91667015387E+03  0.92627464597E+03  0.12508880993E+03 0.  0.
          5    1    3    3  502    0 -0.56209762778E+02  0.19869291901E+01 -0.53020887694E+03  0.53320016026E+03  0.41800000000E+01 0. -1.
         -5    1    3    3    0  502  0.53906771398E+02 -0.47242145881E+02 -0.38646127693E+03  0.39307448571E+03  0.41800000000E+01 0. -1.
        -11    1    1    2    0    0 -0.21660684673E+02  0.56804276442E+02 -0.13432558522E+03  0.14744244276E+03  0.00000000000E+00 0. -1.
         11    1    1    2    0    0  0.23963676052E+02 -0.11549059751E+02 -0.13333717668E+03  0.13596485295E+03  0.00000000000E+00 0.  1.
</event>
<event>
 7    1  0.2878477E-009  0.1736898E+03  0.7561462E-02  0.1174054E+00
          2   -1    0    0  501    0  0.00000000000E+00  0.00000000000E+00  0.77272104596E+03  0.77272104596E+03  0.00000000000E+00 0. -1.
         -2   -1    0    0    0  501 -0.00000000000E+00 -0.00000000000E+00 -0.42944772017E+02  0.42944772017E+02  0.00000000000E+00 0.  1.
         25    2    1    2    0    0  0.11883598820E+03  0.80022458008E+02  0.46075431347E+03  0.49846377920E+03  0.12508403540E+03 0.  0.
          5    1    3    3  502    0 -0.79754968595E+01 -0.22289534657E+02  0.33979634994E+02  0.41623549821E+02  0.41800000000E+01 0.  1.
         -5    1    3    3    0  502  0.12681148506E+03  0.10231199267E+03  0.42677467848E+03  0.45684022937E+03  0.41800000000E+01 0.  1.
        -11    1    1    2    0    0 -0.10822874777E+02  0.13618572285E+02  0.70598066535E+01  0.18773412037E+02  0.00000000000E+00 0.  1.
         11    1    1    2    0    0 -0.10801311343E+03 -0.93641030293E+02  0.26196215383E+03  0.29842862675E+03  0.00000000000E+00 0. -1.
</event>
<event>
 7    1  0.2878477E-009  0.3615681E+03  0.7561462E-02  0.1057965E+00
          2   -1    0    0  501    0  0.00000000000E+00  0.00000000000E+00  0.30057632905E+03  0.30057632905E+03  0.00000000000E+00 0. -1.
         -2   -1    0    0    0  501 -0.00000000000E+00 -0.00000000000E+00 -0.45662724842E+03  0.45662724842E+03  0.00000000000E+00 0.  1.
         25    2    1    2    0    0 -0.28500245355E+03 -0.20928332687E+03 -0.61887936037E+02  0.38013576543E+03  0.12508866496E+03 0.  0.
          5    1    3    3  502    0 -0.92282746166E+02 -0.18050088947E+02 -0.53950541644E+02  0.10848983498E+03  0.41800000000E+01 0.  1.
         -5    1    3    3    0  502 -0.19271970738E+03 -0.19123323793E+03 -0.79373943924E+01  0.27164593045E+03  0.41800000000E+01 0.  1.
        -11    1    1    2    0    0  0.14704234028E+02  0.29184042518E+02  0.12813879623E+02  0.35101543371E+02  0.00000000000E+00 0.  1.
         11    1    1    2    0    0  0.27029821952E+03  0.18009928436E+03 -0.10697686296E+03  0.34196626867E+03  0.00000000000E+00 0. -1.
</event>
<event>
 7    1  0.2878477E-009  0.9843413E+02  0.7561462E-02  0.1283624E+00
          2   -1    0    0  501    0  0.00000000000E+00  0.00000000000E+00  0.26743567765E+03  0.26743567765E+03  0.00000000000E+00 0.  1.
         -2   -1    0    0    0  501 -0.00000000000E+00 -0.00000000000E+00 -0.66212865814E+02  0.66212865814E+02  0.00000000000E+00 0. -1.
         25    2    1    2    0    0  0.68604933407E+02 -0.10700565159E+02  0.62478211072E+02  0.15611561537E+03  0.12508964594E+03 0.  0.
          5    1    3    3  502    0  0.34574452730E+02 -0.30798818295E+02  0.94342825873E+02  0.10517604853E+03  0.41800000000E+01 0.  1.
         -5    1    3    3    0  502  0.34030480678E+02  0.20098253136E+02 -0.31864614801E+02  0.50939566848E+02  0.41800000000E+01 0.  1.
        -11    1    1    2    0    0 -0.63417095834E+02 -0.29611509334E+02  0.83647190207E+02  0.10906613571E+03  0.00000000000E+00 0. -1.
         11    1    1    2    0    0 -0.51878375730E+01  0.40312074493E+02  0.55097410554E+02  0.68466792377E+02  0.00000000000E+00 0.  1.
</event>
<event>
 7    1  0.2878477E-009  0.1876007E+03  0.7561462E-02  0.1160643E+00
         -1   -1    0    0    0  501 -0.00000000000E+00  0.00000000000E+00  0.80958852797E+02  0.80958852797E+02  0.00000000000E+00 0.  1.
          1   -1    0    0  501    0  0.00000000000E+00 -0.00000000000E+00 -0.57017583897E+03  0.57017583897E+03  0.00000000000E+00 0. -1.
         25    2    1    2    0    0  0.41564719537E+02 -0.15896740373E+03 -0.12545593841E+03  0.24163862511E+03  0.12510703940E+03 0.  0.
          5    1    3    3  502    0  0.81219219146E+02 -0.96465398044E+02 -0.10650983013E+03  0.16511799082E+03  0.41800000000E+01 0. -1.
         -5    1    3    3    0  502 -0.39654499610E+02 -0.62502005683E+02 -0.18946108285E+02  0.76520634294E+02  0.41800000000E+01 0. -1.
        -11    1    1    2    0    0 -0.57106900371E+02  0.13071694798E+03 -0.34210922734E+03  0.37065731072E+03  0.00000000000E+00 0. -1.
         11    1    1    2    0    0  0.15542180834E+02  0.28250455745E+02 -0.21651820421E+02  0.38838755933E+02  0.00000000000E+00 0.  1.
</event>
<event>
 7    1  0.2878477E-009  0.1113575E+03  0.7561462E-02  0.1258076E+00
         -1   -1    0    0    0  501 -0.00000000000E+00  0.00000000000E+00  0.10354319308E+03  0.10354319308E+03  0.00000000000E+00 0.  1.
          1   -1    0    0  501    0  0.00000000000E+00 -0.00000000000E+00 -0.18979467179E+03  0.18979467179E+03  0.00000000000E+00 0. -1.
         25    2    1    2    0    0 -0.87156793641E+02 -0.18970257294E+02 -0.35432167756E+02  0.15766773344E+03  0.12508996089E+03 0.  0.
          5    1    3    3  502    0 -0.73192544954E+02  0.26926822658E+02  0.23502928468E+02  0.81560176936E+02  0.41800000000E+01 0. -1.
         -5    1    3    3    0  502 -0.13964248687E+02 -0.45897079953E+02 -0.58935096224E+02  0.76107556501E+02  0.41800000000E+01 0. -1.
        -11    1    1    2    0    0  0.39155638723E+02 -0.99738972271E+01  0.20217700953E+02  0.45181833756E+02  0.00000000000E+00 0.  1.
         11    1    1    2    0    0  0.48001154917E+02  0.28944154521E+02 -0.71037011907E+02  0.90488297669E+02  0.00000000000E+00 0. -1.
</event>
<event>
 7    1  0.2878477E-009  0.6616770E+02  0.7561462E-02  0.1373632E+00
         -4   -1    0    0    0  501 -0.00000000000E+00  0.00000000000E+00  0.37715215226E+03  0.37715215226E+03  0.00000000000E+00 0.  1.
          4   -1    0    0  501    0  0.00000000000E+00 -0.00000000000E+00 -0.39916524182E+02  0.39916524182E+02  0.00000000000E+00 0. -1.
         25    2    1    2    0    0  0.29835149706E+02  0.50745344148E+02  0.19578235960E+03  0.23967487589E+03  0.12509231668E+03 0.  0.
          5    1    3    3  502    0 -0.38102700614E+01  0.13017144003E+02 -0.16298807558E+02  0.21612212375E+02  0.41800000000E+01 0. -1.
         -5    1    3    3    0  502  0.33645419768E+02  0.37728200146E+02  0.21208116716E+03  0.21806266352E+03  0.41800000000E+01 0. -1.
        -11    1    1    2    0    0 -0.86124720207E+01 -0.44457725082E+02  0.13092980281E+02  0.47139050970E+02  0.00000000000E+00 0. -1.
         11    1    1    2    0    0 -0.21222677686E+02 -0.62876190667E+01  0.12836028820E+03  0.13025474958E+03  0.00000000000E+00 0.  1.
</event>
<event>
 7    1  0.2878477E-009  0.1137275E+03  0.7561462E-02  0.1253819E+00
          2   -1    0    0  501    0  0.00000000000E+00  0.00000000000E+00  0.30263922465E+03  0.30263922465E+03  0.00000000000E+00 0.  1.
         -2   -1    0    0    0  501 -0.00000000000E+00 -0.00000000000E+00 -0.75549340842E+02  0.75549340842E+02  0.00000000000E+00 0. -1.
         25    2    1    2    0    0  0.69518123939E+01  0.79041669033E+02  0.28548974030E+02  0.15081717312E+03  0.12503944438E+03 0.  0.
          5    1    3    3  502    0 -0.35150114214E+02  0.62912795347E+02 -0.28823954487E+02  0.77729293705E+02  0.41800000000E+01 0.  1.
         -5    1    3    3    0  502  0.42101926608E+02  0.16128873686E+02  0.57372928517E+02  0.73087879413E+02  0.41800000000E+01 0.  1.
        -11    1    1    2    0    0  0.30680200952E+02 -0.60944374413E+02  0.13624215806E+03  0.15237262594E+03  0.00000000000E+00 0.  1.
         11    1    1    2    0    0 -0.37632013346E+02 -0.18097294620E+02  0.62298751717E+02  0.74998766433E+02  0.00000000000E+00 0. -1.
</event>
<event>
 7    1  0.2878477E-009  0.1132916E+03  0.7561462E-02  0.1254593E+00
          2   -1    0    0  501    0  0.00000000000E+00  0.00000000000E+00  0.89211049651E+02  0.89211049651E+02  0.00000000000E+00 0. -1.
         -2   -1    0    0    0  501 -0.00000000000E+00 -0.00000000000E+00 -0.18990548639E+03  0.18990548639E+03  0.00000000000E+00 0.  1.
         25    2    1    2    0    0 -0.44275578989E+02 -0.50460953079E+02 -0.83724503412E+02  0.16481586638E+03  0.12509133727E+03 0.  0.
          5    1    3    3  502    0 -0.18080447354E+02 -0.91341269296E+02 -0.56490461746E+02  0.10898979182E+03  0.41800000000E+01 0. -1.
         -5    1    3    3    0  502 -0.26195131635E+02  0.40880316217E+02 -0.27234041666E+02  0.55826074561E+02  0.41800000000E+01 0. -1.
        -11    1    1    2    0    0  0.48596734958E+02  0.17886883049E+02  0.27793550128E+02  0.58771291142E+02  0.00000000000E+00 0. -1.
         11    1    1    2    0    0 -0.43211559692E+01  0.32574070031E+02 -0.44763483456E+02  0.55529378516E+02  0.00000000000E+00 0.  1.
</event>
<event>
 7    1  0.2878477E-009  0.1019746E+03  0.7561462E-02  0.1276198E+00
         -2   -1    0    0    0  501 -0.00000000000E+00  0.00000000000E+00  0.12581089129E+03  0.12581089129E+03  0.00000000000E+00 0.  1.
          2   -1    0    0  501    0  0.00000000000E+00 -0.00000000000E+00 -0.21808317547E+03  0.21808317547E+03  0.00000000000E+00 0. -1.
         25    2    1    2    0    0 -0.35760550233E+01  0.80676918948E+02  0.48486865729E+02  0.15659058174E+03  0.12509228881E+03 0.  0.
          5    1    3    3  502    0 -0.37227509688E+02  0.28571447450E+02 -0.30461343125E+02  0.56103305713E+02  0.41800000000E+01 0. -1.
         -5    1    3    3    0  502  0.33651454665E+02  0.52105471498E+02  0.78948208854E+02  0.10048727602E+03  0.41800000000E+01 0. -1.
        -11    1    1    2    0    0 -0.17766452178E+02 -0.90701869658E+01 -0.10043595069E+03  0.10239773096E+03  0.00000000000E+00 0. -1.
         11    1    1    2    0    0  0.21342507201E+02 -0.71606731982E+02 -0.40323199222E+02  0.84905754070E+02  0.00000000000E+00 0.  1.
</event>
<event>
 7    1  0.2878477E-009  0.1088964E+03  0.7561462E-02  0.1262627E+00
          4   -1    0    0  501    0  0.00000000000E+00  0.00000000000E+00  0.96211751991E+02  0.96211751991E+02  0.00000000000E+00 0. -1.
         -4   -1    0    0    0  501 -0.00000000000E+00 -0.00000000000E+00 -0.14972745494E+03  0.14972745494E+03  0.00000000000E+00 0.  1.
         25    2    1    2    0    0  0.12607557381E+02 -0.49611852336E+02 -0.39399273611E+02  0.14078169195E+03  0.12508755186E+03 0.  0.
          5    1    3    3  502    0  0.92777279706E+01 -0.86738903558E+02 -0.51476517301E+02  0.10137562755E+03  0.41800000000E+01 0. -1.
         -5    1    3    3    0  502  0.33298294104E+01  0.37127051222E+02  0.12077243690E+02  0.39406064400E+02  0.41800000000E+01 0. -1.
        -11    1    1    2    0    0 -0.38466762810E+02  0.16999209139E+01  0.17394800605E+02  0.42251161644E+02  0.00000000000E+00 0. -1.
         11    1    1    2    0    0  0.25859205429E+02  0.47911931422E+02 -0.31511229941E+02  0.62906353339E+02  0.00000000000E+00 0.  1.
</event>
<event>
 6    1  0.2878477E-009  0.7532105E+02  0.7561462E-02  0.1342880E+00
         -2   -1    0    0    0  501 -0.00000000000E+00  0.00000000000E+00  0.21838917139E+02  0.21838917139E+02  0.00000000000E+00 0. -1.
          2   -1    0    0  501    0  0.00000000000E+00 -0.00000000000E+00 -0.67907853986E+03  0.67907853986E+03  0.00000000000E+00 0.  1.
          5    1    1    2  502    0 -0.22572763430E+02 -0.25066205517E+02 -0.86231197121E+01  0.35066720711E+02  0.41800000000E+01 0. -1.
         -5    1    1    2    0  502  0.28557962478E+02 -0.24166995950E+02 -0.29125690836E+03  0.29367951917E+03  0.41800000000E+01 0. -1.
        -11    1    1    2    0    0  0.23219316535E+02  0.17790287976E+01 -0.21415301511E+02  0.31637268255E+02  0.00000000000E+00 0. -1.
         11    1    1    2    0    0 -0.29204515583E+02  0.47454172670E+02 -0.33594429314E+03  0.34053394886E+03  0.00000000000E+00 0.  1.
</event>
<event>
 7    1  0.2878477E-009  0.1145524E+03  0.7561462E-02  0.1252364E+00
         -2   -1    0    0    0  501 -0.00000000000E+00  0.00000000000E+00  0.77469770387E+02  0.77469770387E+02  0.00000000000E+00 0.  1.
          2   -1    0    0  501    0  0.00000000000E+00 -0.00000000000E+00 -0.22954585841E+03  0.22954585841E+03  0.00000000000E+00 0. -1.
         25    2    1    2    0    0  0.77955495651E+01 -0.39938398367E+02 -0.15959639892E+03  0.20682062819E+03  0.12509162819E+03 0.  0.
          5    1    3    3  502    0 -0.55986304691E+02 -0.34174858918E+02 -0.97003071510E+02  0.11717275954E+03  0.41800000000E+01 0. -1.
         -5    1    3    3    0  502  0.63781854256E+02 -0.57635394490E+01 -0.62593327406E+02  0.89647868658E+02  0.41800000000E+01 0. -1.
        -11    1    1    2    0    0 -0.15264288312E+01  0.69229675251E+02 -0.25780827065E+00  0.69246981057E+02  0.00000000000E+00 0.  1.
         11    1    1    2    0    0 -0.62691207339E+01 -0.29291276884E+02  0.77781191603E+01  0.30948019548E+02  0.00000000000E+00 0. -1.
</event>
<event>
 7    1  0.2878477E-009  0.9149141E+02  0.7561462E-02  0.1299280E+00
         -1   -1    0    0    0  501 -0.00000000000E+00  0.00000000000E+00  0.24786887375E+03  0.24786887375E+03  0.00000000000E+00 0.  1.
          1   -1    0    0  501    0  0.00000000000E+00 -0.00000000000E+00 -0.53232750705E+02  0.53232750705E+02  0.00000000000E+00 0. -1.
         25    2    1    2    0    0 -0.28397308021E+02  0.21485476906E+02  0.86409518985E+02  0.15614799409E+03  0.12509020052E+03 0.  0.
          5    1    3    3  502    0 -0.42025413902E+02 -0.22565531266E+02 -0.10253278553E+02  0.48968773070E+02  0.41800000000E+01 0.  1.
         -5    1    3    3    0  502  0.13628105881E+02  0.44051008173E+02  0.96662797538E+02  0.10717922102E+03  0.41800000000E+01 0.  1.
        -11    1    1    2    0    0  0.56707754302E+02 -0.21041333705E+02  0.97374703554E+02  0.11463132213E+03  0.00000000000E+00 0.  1.
         11    1    1    2    0    0 -0.28310446281E+02 -0.44414320196E+00  0.10851900509E+02  0.30322308232E+02  0.00000000000E+00 0. -1.
</event>
<event>
 7    1  0.2878477E-009  0.1057809E+03  0.7561462E-02  0.1268589E+00
         -4   -1    0    0    0  501 -0.00000000000E+00  0.00000000000E+00  0.25964079472E+03  0.25964079472E+03  0.00000000000E+00 0.  1.
          4   -1    0    0  501    0  0.00000000000E+00 -0.00000000000E+00 -0.51621304241E+02  0.51621304241E+02  0.00000000000E+00 0. -1.
         25    2    1    2    0    0 -0.29690232579E+02 -0.16844980970E+02  0.89486958780E+02  0.15753160133E+03  0.12507208455E+03 0.  0.
          5    1    3    3  502    0  0.44699692824E+02 -0.27280973013E+02  0.50175959735E+02  0.72645807603E+02  0.41800000000E+01 0.  1.
         -5    1    3    3    0  502 -0.74389925403E+02  0.10435992042E+02  0.39310999045E+02  0.84885793730E+02  0.41800000000E+01 0.  1.
        -11    1    1    2    0    0 -0.90218271955E+01  0.38427014810E+02  0.17060224735E+02  0.43000931399E+02  0.00000000000E+00 0. -1.
         11    1    1    2    0    0  0.38712059774E+02 -0.21582033839E+02  0.10147230696E+03  0.11072956623E+03  0.00000000000E+00 0.  1.
</event>
<event>
 7    1  0.2878477E-009  0.1248765E+03  0.7561462E-02  0.1235262E+00
          2   -1    0    0  501    0  0.00000000000E+00  0.00000000000E+00  0.35444297135E+02  0.35444297135E+02  0.00000000000E+00 0.  1.
         -2   -1    0    0    0  501 -0.00000000000E+00 -0.00000000000E+00 -0.63608189931E+03  0.63608189931E+03  0.00000000000E+00 0. -1.
         25    2    1    2    0    0 -0.10489855671E+03  0.17762403592E+02 -0.25002587027E+03  0.29913310647E+03  0.12509384240E+03 0.  0.
          5    1    3    3  502    0  0.14436716765E+02 -0.70527341874E+01  0.42362988788E+01  0.17134131979E+02  0.41800000000E+01 0. -1.
         -5    1    3    3    0  502 -0.11933527347E+03  0.24815137779E+02 -0.25426216914E+03  0.28199897449E+03  0.41800000000E+01 0. -1.
        -11    1    1    2    0    0  0.29500462733E+02 -0.20199975164E+02 -0.44296045943E+02  0.56925003155E+02  0.00000000000E+00 0. -1.
         11    1    1    2    0    0  0.75398093974E+02  0.24375715720E+01 -0.30631568597E+03  0.31546808682E+03  0.00000000000E+00 0.  1.
</event>
<event>
 7    1  0.2878477E-009  0.1074900E+03  0.7561462E-02  0.1265290E+00
         -1   -1    0    0    0  501 -0.00000000000E+00  0.00000000000E+00  0.40311663748E+02  0.40311663748E+02  0.00000000000E+00 0.  1.
          1   -1    0    0  501    0  0.00000000000E+00 -0.00000000000E+00 -0.44744928111E+03  0.44744928111E+03  0.00000000000E+00 0. -1.
         25    2    1    2    0    0  0.79785058305E+02  0.89881835247E+01 -0.20798765423E+03  0.25564188560E+03  0.12508983328E+03 0.  0.
          5    1    3    3  502    0  0.90307751131E+02 -0.11714906852E+02 -0.68127068708E+02  0.11380465214E+03  0.41800000000E+01 0. -1.
         -5    1    3    3    0  502 -0.10522692826E+02  0.20703090377E+02 -0.13986058552E+03  0.14183723347E+03  0.41800000000E+01 0. -1.
        -11    1    1    2    0    0 -0.15104199660E+02 -0.28846921357E+02 -0.14843690957E+02  0.35785707767E+02  0.00000000000E+00 0.  1.
         11    1    1    2    0    0 -0.64680858644E+02  0.19858737832E+02 -0.18430627218E+03  0.19633335149E+03  0.00000000000E+00 0. -1.
</event>
<event>
 7    1  0.2878477E-009  0.5353330E+02  0.7561462E-02  0.1427165E+00
          2   -1    0    0  501    0  0.00000000000E+00  0.00000000000E+00  0.11198090060E+04  0.11198090060E+04  0.00000000000E+00 0. -1.
         -2   -1    0    0    0  501 -0.00000000000E+00 -0.00000000000E+00 -0.10324575095E+02  0.10324575095E+02  0.00000000000E+00 0.  1.
         25    2    1    2    0    0  0.11377317294E+02  0.15668706394E+02  0.73349391025E+03  0.74433603107E+03  0.12509140289E+03 0.  0.
          5    1    3    3  502    0  0.45574153886E+00  0.51434810643E+01 -0.32696759308E+01  0.74044769229E+01  0.41800000000E+01 0. -1.
         -5    1    3    3    0  502  0.10921575755E+02  0.10525225329E+02  0.73676358618E+03  0.73693155415E+03  0.41800000000E+01 0. -1.
        -11    1    1    2    0    0 -0.28892796325E+02 -0.43252372947E+02  0.26679126375E+03  0.27181453210E+03  0.00000000000E+00 0. -1.
         11    1    1    2    0    0  0.17515479031E+02  0.27583666554E+02  0.10919925691E+03  0.11398301793E+03  0.00000000000E+00 0.  1.
</event>
<event>
 7    1  0.2878477E-009  0.1884478E+03  0.7561462E-02  0.1159869E+00
          1   -1    0    0  501    0  0.00000000000E+00  0.00000000000E+00  0.19393255542E+04  0.19393255542E+04  0.00000000000E+00 0. -1.
         -1   -1    0    0    0  501 -0.00000000000E+00 -0.00000000000E+00 -0.26934263712E+02  0.26934263712E+02  0.00000000000E+00 0.  1.
         25    2    1    2    0    0 -0.18429160561E+03 -0.89315085587E+01  0.13262627583E+04  0.13448655632E+04  0.12508921319E+03 0.  0.
          5    1    3    3  502    0 -0.41332693794E+01 -0.31390874458E+01  0.45952404604E+03  0.45957236543E+03  0.41800000000E+01 0.  1.
         -5    1    3    3    0  502 -0.18015833623E+03 -0.57924211129E+01  0.86673871228E+03  0.88529319777E+03  0.41800000000E+01 0.  1.
        -11    1    1    2    0    0  0.13011981251E+02  0.13286301762E+02  0.11730688755E+02  0.21987417521E+02  0.00000000000E+00 0.  1.
         11    1    1    2    0    0  0.17127962436E+03 -0.43547932028E+01  0.57439784344E+03  0.59940683720E+03  0.00000000000E+00 0. -1.
</event>
<event>
 7    1  0.2878477E-009  0.2271370E+03  0.7561462E-02  0.1128671E+00
         -1   -1    0    0    0  501 -0.00000000000E+00  0.00000000000E+00  0.15189480196E+03  0.15189480196E+03  0.00000000000E+00 0.  1.
          1   -1    0    0  501    0  0.00000000000E+00 -0.00000000000E+00 -0.39111570085E+03  0.39111570085E+03  0.00000000000E+00 0. -1.
         25    2    1    2    0    0 -0.13666264672E+03  0.16847410222E+03 -0.15382735802E+03  0.29388466091E+03  0.12508051691E+03 0.  0.
          5    1    3    3  502    0 -0.40842534932E+02  0.88725945603E+02 -0.13657855897E+03  0.16796303537E+03  0.41800000000E+01 0.  1.
         -5    1    3    3    0  502 -0.95820111793E+02  0.79748156621E+02 -0.17248799058E+02  0.12592162554E+03  0.41800000000E+01 0.  1.
        -11    1    1    2    0    0  0.51931959661E+02 -0.12747274261E+03 -0.67520967145E+02  0.15331441402E+03  0.00000000000E+00 0. -1.
         11    1    1    2    0    0  0.84730687064E+02 -0.41001359613E+02 -0.17872573714E+02  0.95811427876E+02  0.00000000000E+00 0.  1.
</event>
<event>
 7    1  0.2878477E-009  0.2111967E+03  0.7561462E-02  0.1140622E+00
         -2   -1    0    0    0  501 -0.00000000000E+00  0.00000000000E+00  0.14147240440E+03  0.14147240440E+03  0.00000000000E+00 0. -1.
          2   -1    0    0  501    0  0.00000000000E+00 -0.00000000000E+00 -0.49613352310E+03  0.49613352310E+03  0.00000000000E+00 0.  1.
         25    2    1    2    0    0 -0.17723731949E+03 -0.79046919209E+02 -0.35507100058E+03  0.42353765055E+03  0.12508894086E+03 0.  0.
          5    1    3    3  502    0 -0.12764750364E+03 -0.91448172171E+02 -0.16986597994E+03  0.23136243628E+03  0.41800000000E+01 0. -1.
         -5    1    3    3    0  502 -0.49589815844E+02  0.12401252962E+02 -0.18520502063E+03  0.19217521427E+03  0.41800000000E+01 0. -1.
        -11    1    1    2    0    0  0.16273131377E+03  0.98150041008E+02  0.17038517499E+01  0.19004687354E+03  0.00000000000E+00 0. -1.
         11    1    1    2    0    0  0.14506005715E+02 -0.19103121798E+02 -0.12939698710E+01  0.24021403420E+02  0.00000000000E+00 0.  1.
</event>
<event>
 7    1  0.2878477E-009  0.7693131E+02  0.7561462E-02  0.1337993E+00
         -2   -1    0    0    0  501 -0.00000000000E+00  0.00000000000E+00  0.27164299412E+02  0.27164299412E+02  0.00000000000E+00 0.  1.
          2   -1    0    0  501    0  0.00000000000E+00 -0.00000000000E+00 -0.49003965160E+03  0.49003965160E+03  0.00000000000E+00 0. -1.
         25    2    1    2    0    0  0.12006462166E+02  0.13141203860E+02 -0.34712663707E+03  0.36940542077E+03  0.12508643552E+03 0.  0.
          5    1    3    3  502    0  0.30239104905E+02  0.25773973754E+02 -0.26402648800E+02  0.47888134775E+02  0.41800000000E+01 0. -1.
         -5    1    3    3    0  502 -0.18232642740E+02 -0.12632769894E+02 -0.32072398827E+03  0.32151728599E+03  0.41800000000E+01 0. -1.
        -11    1    1    2    0    0 -0.51197340408E+02 -0.73665702012E+01 -0.57329084156E+02  0.77214363376E+02  0.00000000000E+00 0. -1.
         11    1    1    2    0    0  0.39190878243E+02 -0.57746336587E+01 -0.58419630954E+02  0.70584166865E+02  0.00000000000E+00 0.  1.
</event>
<event>
 7    1  0.3372666E-009  0.1038281E+03  0.7561462E-02  0.1272446E+00
         -1   -1    0    0    0  501 -0.00000000000E+00  0.00000000000E+00  0.60870829146E+02  0.60870829146E+02  0.00000000000E+00 0.  1.
          1   -1    0    0  501    0  0.00000000000E+00 -0.00000000000E+00 -0.22544442754E+03  0.22544442754E+03  0.00000000000E+00 0. -1.
         25    2    1    2    0    0  0.34807088060E+02  0.68716984689E+01 -0.61343938347E+02  0.14376916598E+03  0.12509092971E+03 0.  0.
          5    1    3    3  502    0 -0.36994986804E+02  0.31893640373E+02 -0.54900930673E+01  0.49329979392E+02  0.41800000000E+01 0.  1.
         -5    1    3    3    0  502  0.71802074864E+02 -0.25021941904E+02 -0.55853845280E+02  0.94439186591E+02  0.41800000000E+01 0.  1.
        -11    1    1    2    0    0 -0.44042271567E+02 -0.32827791925E+02 -0.26437837591E+02  0.60961831205E+02  0.00000000000E+00 0.  1.
         11    1    1    2    0    0  0.92351835070E+01  0.25956093456E+02 -0.76791822453E+02  0.81584259496E+02  0.00000000000E+00 0. -1.
</event>
<event>
 7    1  0.2878477E-009  0.8949103E+02  0.7561462E-02  0.1304089E+00
         -2   -1    0    0    0  501 -0.00000000000E+00  0.00000000000E+00  0.16319096537E+03  0.16319096537E+03  0.00000000000E+00 0.  1.
          2   -1    0    0  501    0  0.00000000000E+00 -0.00000000000E+00 -0.76831129388E+02  0.76831129388E+02  0.00000000000E+00 0. -1.
         25    2    1    2    0    0 -0.13456219581E+02 -0.20319216112E+02  0.37281935429E+02  0.13278392106E+03  0.12509071346E+03 0.  0.
          5    1    3    3  502    0 -0.51440032452E+02 -0.24150745089E+02  0.64234317287E+02  0.85865332611E+02  0.41800000000E+01 0. -1.
         -5    1    3    3    0  502  0.37983812871E+02  0.38315289768E+01 -0.26952381858E+02  0.46918588452E+02  0.41800000000E+01 0. -1.
        -11    1    1    2    0    0  0.45937790562E+02  0.22280453611E+02  0.54014181200E+02  0.74325170606E+02  0.00000000000E+00 0.  1.
         11    1    1    2    0    0 -0.32481570981E+02 -0.19612374989E+01 -0.49362806441E+01  0.32913003092E+02  0.00000000000E+00 0. -1.
</event>
<event>
 7    1  0.2878477E-009  0.1086394E+03  0.7561462E-02  0.1263110E+00
         -1   -1    0    0    0  501 -0.00000000000E+00  0.00000000000E+00  0.28052937906E+02  0.28052937906E+02  0.00000000000E+00 0.  1.
          1   -1    0    0  501    0  0.00000000000E+00 -0.00000000000E+00 -0.72756425371E+03  0.72756425371E+03  0.00000000000E+00 0. -1.
         25    2    1    2    0    0  0.32207884150E+02  0.75684121736E+01 -0.60782148075E+03  0.62144076387E+03  0.12508813644E+03 0.  0.
          5    1    3    3  502    0 -0.76116045512E+01 -0.52132502811E+02 -0.17911704673E+03  0.18675150120E+03  0.41800000000E+01 0.  1.
         -5    1    3    3    0  502  0.39819488701E+02  0.59700914984E+02 -0.42870443402E+03  0.43468926267E+03  0.41800000000E+01 0.  1.
        -11    1    1    2    0    0 -0.10603166272E+02  0.39423216625E+02 -0.62889809324E+02  0.74978298600E+02  0.00000000000E+00 0.  1.
         11    1    1    2    0    0 -0.21604717878E+02 -0.46991628799E+02 -0.28800025727E+02  0.59198129140E+02  0.00000000000E+00 0. -1.
</event>
<event>
 7    1  0.2878477E-009  0.1404261E+03  0.7561462E-02  0.1212757E+00
         -1   -1    0    0    0  501 -0.00000000000E+00  0.00000000000E+00  0.21644624331E+02  0.21644624331E+02  0.00000000000E+00 0.  1.
          1   -1    0    0  501    0  0.00000000000E+00 -0.00000000000E+00 -0.11624059842E+04  0.11624059842E+04  0.00000000000E+00 0. -1.
         25    2    1    2    0    0  0.11140558025E+03  0.35881645412E+00 -0.72364078105E+03  0.74277514935E+03  0.12509040901E+03 0.  0.
          5    1    3    3  502    0 -0.10152632616E+01 -0.22481793030E+02 -0.37549782964E+03  0.37619483548E+03  0.41800000000E+01 0. -1.
         -5    1    3    3    0  502  0.11242084351E+03  0.22840609484E+02 -0.34814295141E+03  0.36658031386E+03  0.41800000000E+01 0. -1.
        -11    1    1    2    0    0  0.10604812823E+02 -0.16992092997E+02 -0.76546061685E+02  0.79123276214E+02  0.00000000000E+00 0. -1.
         11    1    1    2    0    0 -0.12201039308E+03  0.16633276543E+02 -0.34057451709E+03  0.36215218292E+03  0.00000000000E+00 0.  1.
</event>
<event>
 7    1  0.3827675E-009  0.1774760E+03  0.7561462E-02  0.1170268E+00
          1   -1    0    0  501    0  0.00000000000E+00  0.00000000000E+00  0.14922699278E+04  0.14922699278E+04  0.00000000000E+00 0. -1.
         -1   -1    0    0    0  501 -0.00000000000E+00 -0.00000000000E+00 -0.27126367491E+02  0.27126367491E+02  0.00000000000E+00 0.  1.
         25    2    1    2    0    0  0.15806441451E+03 -0.32289012338E+02  0.57607328800E+03  0.61117517527E+03  0.12509085609E+03 0.  0.
          5    1    3    3  502    0  0.14187061844E+03 -0.74067668970E+01  0.55876519399E+03  0.57655714980E+03  0.41800000000E+01 0. -1.
         -5    1    3    3    0  502  0.16193796074E+02 -0.24882245441E+02  0.17308094004E+02  0.34618025471E+02  0.41800000000E+01 0. -1.
        -11    1    1    2    0    0 -0.57044977942E+02 -0.29710377147E+02  0.24297897487E+03  0.25134760442E+03  0.00000000000E+00 0.  1.
         11    1    1    2    0    0 -0.10101943657E+03  0.61999389485E+02  0.64609129746E+03  0.65687351562E+03  0.00000000000E+00 0. -1.
</event>
<event>
 7    1  0.2878477E-009  0.1942390E+03  0.7561462E-02  0.1154693E+00
          1   -1    0    0  501    0  0.00000000000E+00  0.00000000000E+00  0.31780550355E+03  0.31780550355E+03  0.00000000000E+00 0. -1.
         -1   -1    0    0    0  501 -0.00000000000E+00 -0.00000000000E+00 -0.13478805886E+03  0.13478805886E+03  0.00000000000E+00 0.  1.
         25    2    1    2    0    0  0.18122642297E+03  0.18035783494E+02  0.12602258063E+03  0.25435856133E+03  0.12509308944E+03 0.  0.
          5    1    3    3  502    0  0.24262198131E+02  0.35090212947E+02  0.78465534382E+02  0.89410792350E+02  0.41800000000E+01 0.  1.
         -5    1    3    3    0  502  0.15696422484E+03 -0.17054429453E+02  0.47557046250E+02  0.16494776898E+03  0.41800000000E+01 0.  1.
        -11    1    1    2    0    0 -0.37669325750E+02  0.14684710399E+02  0.22499980079E+00  0.40431045582E+02  0.00000000000E+00 0.  1.
         11    1    1    2    0    0 -0.14355709722E+03 -0.32720493892E+02  0.56769864256E+02  0.15780395550E+03  0.00000000000E+00 0. -1.
</event>
<event>
 7    1  0.2878477E-009  0.1139788E+03  0.7561462E-02  0.1253374E+00
          1   -1    0    0  501    0  0.00000000000E+00  0.00000000000E+00  0.14505225649E+03  0.14505225649E+03  0.00000000000E+00 0. -1.
         -1   -1    0    0    0  501 -0.00000000000E+00 -0.00000000000E+00 -0.92962092412E+02  0.92962092412E+02  0.00000000000E+00 0.  1.
         25    2    1    2    0    0  0.70578345235E+01  0.35763331601E+02  0.71610901776E+01  0.13049087687E+03  0.12509100215E+03 0.  0.
          5    1    3    3  502    0 -0.50756511466E+02 -0.15151438030E+02  0.36662138602E+01  0.53260708357E+02  0.41800000000E+01 0.  1.
         -5    1    3    3    0  502  0.57814345990E+02  0.50914769631E+02  0.34948763174E+01  0.77230168518E+02  0.41800000000E+01 0.  1.
        -11    1    1    2    0    0 -0.76380003987E+01  0.30481957877E+02  0.13593493685E+02  0.34238456108E+02  0.00000000000E+00 0.  1.
         11    1    1    2    0    0  0.58016587524E+00 -0.66245289478E+02  0.31335580212E+02  0.73285015915E+02  0.00000000000E+00 0. -1.
</event>
<event>
 7    1  0.2878477E-009  0.8613505E+02  0.7561462E-02  0.1312491E+00
          2   -1    0    0  501    0  0.00000000000E+00  0.00000000000E+00  0.24056875627E+03  0.24056875627E+03  0.00000000000E+00 0. -1.
         -2   -1    0    0    0  501 -0.00000000000E+00 -0.00000000000E+00 -0.57992884741E+02  0.57992884741E+02  0.00000000000E+00 0.  1.
         25    2    1    2    0    0  0.46864691538E+02  0.17237443031E+02  0.10939204557E+03  0.17351547726E+03  0.12509025725E+03 0.  0.
          5    1    3    3  502    0  0.29727921044E+02 -0.17995201693E+02  0.12598950916E+03  0.13076087102E+03  0.41800000000E+01 0. -1.
         -5    1    3    3    0  502  0.17136770494E+02  0.35232644724E+02 -0.16597463582E+02  0.42754606238E+02  0.41800000000E+01 0. -1.
        -11    1    1    2    0    0  0.18204626102E+02 -0.26491760749E+02  0.94725541975E+01  0.33510462279E+02  0.00000000000E+00 0.  1.
         11    1    1    2    0    0 -0.65069317640E+02  0.92543177187E+01  0.63711271755E+02  0.91535701468E+02  0.00000000000E+00 0. -1.
</event>
<event>
 7    1  0.2878477E-009  0.1192719E+03  0.7561462E-02  0.1244303E+00
          1   -1    0    0  501    0  0.00000000000E+00  0.00000000000E+00  0.58255202750E+03  0.58255202750E+03  0.00000000000E+00 0. -1.
         -1   -1    0    0    0  501 -0.00000000000E+00 -0.00000000000E+00 -0.47963292401E+02  0.47963292401E+02  0.00000000000E+00 0.  1.
         25    2    1    2    0    0 -0.98340150680E+01 -0.51841005258E+02  0.49537619531E+03  0.51364215585E+03  0.12508593731E+03 0.  0.
          5    1    3    3  502    0  0.36832858763E+02 -0.74146995797E+02  0.33368985909E+03  0.34383256234E+03  0.41800000000E+01 0. -1.
         -5    1    3    3    0  502 -0.46666873831E+02  0.22305990539E+02  0.16168633622E+03  0.16980959351E+03  0.41800000000E+01 0. -1.
        -11    1    1    2    0    0 -0.26593459225E+02  0.60695770628E+02  0.55649871370E+01  0.66499306218E+02  0.00000000000E+00 0.  1.
         11    1    1    2    0    0  0.36427474293E+02 -0.88547653702E+01  0.33647552651E+02  0.50373857828E+02  0.00000000000E+00 0. -1.
</event>
<event>
 7    1  0.2878477E-009  0.1228896E+03  0.7561462E-02  0.1238405E+00
         -1   -1    0    0    0  501 -0.00000000000E+00  0.00000000000E+00  0.63888290448E+02  0.63888290448E+02  0.00000000000E+00 0.  1.
          1   -1    0    0  501    0  0.00000000000E+00 -0.00000000000E+00 -0.30177030267E+03  0.30177030267E+03  0.00000000000E+00 0. -1.
         25    2    1    2    0    0 -0.80391828088E+02 -0.31154351389E+02 -0.11758639891E+03  0.19211629635E+03  0.12509464610E+03 0.  0.
          5    1    3    3  502    0 -0.59987313001E+02 -0.77453134142E+02 -0.58359928494E+02  0.11410880493E+03  0.41800000000E+01 0. -1.
         -5    1    3    3    0  502 -0.20404515087E+02  0.46298782753E+02 -0.59226470412E+02  0.78007491421E+02  0.41800000000E+01 0. -1.
        -11    1    1    2    0    0  0.54919610888E+02 -0.22278032742E+01 -0.11951074743E+03  0.13154446214E+03  0.00000000000E+00 0. -1.
         11    1    1    2    0    0  0.25472217200E+02  0.33382154663E+02 -0.78486588614E+00  0.41997834629E+02  0.00000000000E+00 0.  1.
</event>
<event>
 7    1  0.2878477E-009  0.1147541E+03  0.7561462E-02  0.1252011E+00
         -2   -1    0    0    0  501 -0.00000000000E+00  0.00000000000E+00  0.23978851737E+02  0.23978851737E+02  0.00000000000E+00 0.  1.
          2   -1    0    0  501    0  0.00000000000E+00 -0.00000000000E+00 -0.65027915646E+03  0.65027915646E+03  0.00000000000E+00 0. -1.
         25    2    1    2    0    0  0.26713990910E+02  0.72557350154E+01 -0.24582934544E+03  0.27721729259E+03  0.12510426544E+03 0.  0.
          5    1    3    3  502    0 -0.39184532367E+02 -0.26036337194E+02 -0.54634545821E+02  0.72219972503E+02  0.41800000000E+01 0. -1.
         -5    1    3    3    0  502  0.65898523277E+02  0.33292072210E+02 -0.19119479962E+03  0.20499732009E+03  0.41800000000E+01 0. -1.
        -11    1    1    2    0    0 -0.12422705368E+02  0.48863322624E+02 -0.23738796779E+03  0.24268291072E+03  0.00000000000E+00 0. -1.
         11    1    1    2    0    0 -0.14291285542E+02 -0.56119057639E+02 -0.14308299149E+03  0.15435780488E+03  0.00000000000E+00 0.  1.
</event>
<event>
 7    1  0.2878477E-009  0.1171051E+03  0.7561462E-02  0.1247951E+00
         -2   -1    0    0    0  501 -0.00000000000E+00  0.00000000000E+00  0.27212783848E+02  0.27212783848E+02  0.00000000000E+00 0.  1.
          2   -1    0    0  501    0  0.00000000000E+00 -0.00000000000E+00 -0.11859673232E+04  0.11859673232E+04  0.00000000000E+00 0. -1.
         25    2    1    2    0    0 -0.74033088990E+02 -0.59023641739E+02 -0.97590607221E+03  0.98843546816E+03  0.12508926564E+03 0.  0.
          5    1    3    3  502    0  0.23501463398E+02 -0.28490609941E+02 -0.51386760949E+03  0.51521007960E+03  0.41800000000E+01 0.  1.
         -5    1    3    3    0  502 -0.97534552388E+02 -0.30533031798E+02 -0.46203846272E+03  0.47322538856E+03  0.41800000000E+01 0.  1.
        -11    1    1    2    0    0  0.36578397128E+02  0.31524876440E+02 -0.16972618532E+03  0.17646182294E+03  0.00000000000E+00 0. -1.
         11    1    1    2    0    0  0.37454691862E+02  0.27498765299E+02 -0.13122281806E+02  0.48282815942E+02  0.00000000000E+00 0.  1.
</event>
<event>
 7    1  0.2878477E-009  0.1440800E+03  0.7561462E-02  0.1207942E+00
         -1   -1    0    0    0  501 -0.00000000000E+00  0.00000000000E+00  0.38645109020E+02  0.38645109020E+02  0.00000000000E+00 0.  1.
          1   -1    0    0  501    0  0.00000000000E+00 -0.00000000000E+00 -0.56222081807E+03  0.56222081807E+03  0.00000000000E+00 0. -1.
         25    2    1    2    0    0  0.99827495930E+02 -0.65392622975E+01 -0.26276390209E+03  0.30773456134E+03  0.12508957232E+03 0.  0.
          5    1    3    3  502    0 -0.25597315410E+02  0.15169113808E+02 -0.75569904487E+02  0.81324088892E+02  0.41800000000E+01 0. -1.
         -5    1    3    3    0  502  0.12542481134E+03 -0.21708376106E+02 -0.18719399761E+03  0.22641047244E+03  0.41800000000E+01 0. -1.
        -11    1    1    2    0    0 -0.61472338874E+02  0.45196165961E+02 -0.12052309104E+03  0.14264416335E+03  0.00000000000E+00 0.  1.
         11    1    1    2    0    0 -0.38355157056E+02 -0.38656903664E+02 -0.14028871592E+03  0.15048720240E+03  0.00000000000E+00 0. -1.
</event>
<event>
 7    1  0.2878477E-009  0.1251274E+03  0.7561462E-02  0.1234870E+00
          2   -1    0    0  501    0  0.00000000000E+00  0.00000000000E+00  0.69258827019E+03  0.69258827019E+03  0.00000000000E+00 0. -1.
         -2   -1    0    0    0  501 -0.00000000000E+00 -0.00000000000E+00 -0.29095481224E+02  0.29095481224E+02  0.00000000000E+00 0.  1.
         25    2    1    2    0    0  0.62437082340E+02 -0.66245315135E+02  0.35747300596E+03  0.38951652648E+03  0.12509733565E+03 0.  0.
          5    1    3    3  502    0  0.16339708132E+02 -0.73046265806E+02  0.86202175392E+02  0.11424110667E+03  0.41800000000E+01 0.  1.
         -5    1    3    3    0  502  0.46097374208E+02  0.68009506711E+01  0.27127083057E+03  0.27527541982E+03  0.41800000000E+01 0.  1.
        -11    1    1    2    0    0 -0.34393631928E+02 -0.18629864369E+02  0.10939018904E+03  0.11617317773E+03  0.00000000000E+00 0. -1.
         11    1    1    2    0    0 -0.28043450412E+02  0.84875179503E+02  0.19662959397E+03  0.21599404721E+03  0.00000000000E+00 0.  1.
</event>
<event>
 7    1  0.2878477E-009  0.1071068E+03  0.7561462E-02  0.1266023E+00
         -2   -1    0    0    0  501 -0.00000000000E+00  0.00000000000E+00  0.29275629582E+02  0.29275629582E+02  0.00000000000E+00 0.  1.
          2   -1    0    0  501    0  0.00000000000E+00 -0.00000000000E+00 -0.58890041881E+03  0.58890041881E+03  0.00000000000E+00 0. -1.
         25    2    1    2    0    0  0.57945997814E+02 -0.28848613922E+02 -0.39759349571E+03  0.42180468047E+03  0.12509444212E+03 0.  0.
          5    1    3    3  502    0  0.31451050817E+02 -0.67920163037E+02 -0.13016154838E+03  0.15020591939E+03  0.41800000000E+01 0. -1.
         -5    1    3    3    0  502  0.26494946997E+02  0.39071549115E+02 -0.26743194733E+03  0.27159876108E+03  0.41800000000E+01 0. -1.
        -11    1    1    2    0    0 -0.68808140795E+02  0.92210792749E+01 -0.15930353186E+03  0.17377342664E+03  0.00000000000E+00 0. -1.
         11    1    1    2    0    0  0.10862142981E+02  0.19627534647E+02 -0.27277616589E+01  0.22597941281E+02  0.00000000000E+00 0.  1.
</event>
<event>
 7    1  0.2878477E-009  0.2270032E+03  0.7561462E-02  0.1128767E+00
         -2   -1    0    0    0  501 -0.00000000000E+00  0.00000000000E+00  0.62907249979E+03  0.62907249979E+03  0.00000000000E+00 0. -1.
          2   -1    0    0  501    0  0.00000000000E+00 -0.00000000000E+00 -0.94420026959E+02  0.94420026959E+02  0.00000000000E+00 0.  1.
         25    2    1    2    0    0 -0.17196620425E+03  0.11735781005E+03  0.17929770458E+03  0.30189737698E+03  0.12509647628E+03 0.  0.
          5    1    3    3  502    0 -0.43989366531E+02  0.10458087422E+03  0.72859487035E+02  0.13490070745E+03  0.41800000000E+01 0. -1.
         -5    1    3    3    0  502 -0.12797683772E+03  0.12776935836E+02  0.10643821754E+03  0.16699666953E+03  0.41800000000E+01 0. -1.
        -11    1    1    2    0    0  0.56658633064E+02 -0.17621580460E+02  0.40704397995E+02  0.71955325132E+02  0.00000000000E+00 0.  1.
         11    1    1    2    0    0  0.11530757118E+03 -0.99736229592E+02  0.31465037026E+03  0.34963982463E+03  0.00000000000E+00 0. -1.
</event>
<event>
 7    1  0.2878477E-009  0.1045140E+03  0.7561462E-02  0.1271080E+00
          2   -1    0    0  501    0  0.00000000000E+00  0.00000000000E+00  0.54118885913E+03  0.54118885913E+03  0.00000000000E+00 0. -1.
         -2   -1    0    0    0  501 -0.00000000000E+00 -0.00000000000E+00 -0.31036392806E+02  0.31036392806E+02  0.00000000000E+00 0.  1.
         25    2    1    2    0    0  0.14425424491E+00  0.56178862009E+02  0.37480436853E+03  0.39910115466E+03  0.12508929467E+03 0.  0.
          5    1    3    3  502    0  0.31797986449E+02 -0.29466138458E+02  0.89905891330E+02  0.99899484251E+02  0.41800000000E+01 0.  1.
         -5    1    3    3    0  502 -0.31653732204E+02  0.85645000467E+02  0.28489847720E+03  0.29920167041E+03  0.41800000000E+01 0.  1.
        -11    1    1    2    0    0 -0.24115601302E+02 -0.31454756567E+02  0.70156358264E+01  0.40251497897E+02  0.00000000000E+00 0.  1.
         11    1    1    2    0    0  0.23971347058E+02 -0.24724105442E+02  0.12833246197E+03  0.13287259938E+03  0.00000000000E+00 0. -1.
</event>
<event>
 7    1  0.2878477E-009  0.1067689E+03  0.7561462E-02  0.1266673E+00
         -2   -1    0    0    0  501 -0.00000000000E+00  0.00000000000E+00  0.69543297273E+02  0.69543297273E+02  0.00000000000E+00 0.  1.
          2   -1    0    0  501    0  0.00000000000E+00 -0.00000000000E+00 -0.20375760872E+03  0.20375760872E+03  0.00000000000E+00 0. -1.
         25    2    1    2    0    0 -0.41609751657E+02  0.49472717293E+01 -0.11171773113E+03  0.17287148381E+03  0.12509137275E+03 0.  0.
          5    1    3    3  502    0 -0.81335791276E+02  0.22469614091E+02 -0.92289720435E+02  0.12512097905E+03  0.41800000000E+01 0. -1.
         -5    1    3    3    0  502  0.39726039619E+02 -0.17522342362E+02 -0.19428010696E+02  0.47750504764E+02  0.41800000000E+01 0. -1.
        -11    1    1    2    0    0  0.58307735155E+02 -0.21284954583E+02 -0.37637491603E+02  0.72590784847E+02  0.00000000000E+00 0. -1.
         11    1    1    2    0    0 -0.16697983499E+02  0.16337682854E+02  0.15140911287E+02  0.27838637333E+02  0.00000000000E+00 0.  1.
</event>
<event>
 7    1  0.2878477E-009  0.1779665E+03  0.7561462E-02  0.1169786E+00
         -2   -1    0    0    0  501 -0.00000000000E+00  0.00000000000E+00  0.12466455940E+03  0.12466455940E+03  0.00000000000E+00 0.  1.
          2   -1    0    0  501    0  0.00000000000E+00 -0.00000000000E+00 -0.42707973924E+03  0.42707973924E+03  0.00000000000E+00 0. -1.
         25    2    1    2    0    0  0.89311447352E+02  0.11412773337E+03 -0.32654593384E+03  0.37853003284E+03  0.12510421537E+03 0.  0.
          5    1    3    3  502    0 -0.22049121214E+02 -0.79874775767E+01 -0.24317277303E+02  0.34040650990E+02  0.41800000000E+01 0.  1.
         -5    1    3    3    0  502  0.11136056857E+03  0.12211521095E+03 -0.30222865653E+03  0.34448938185E+03  0.41800000000E+01 0.  1.
        -11    1    1    2    0    0 -0.10242148664E+03 -0.79158273070E+02  0.13193253479E+01  0.12945243814E+03  0.00000000000E+00 0. -1.
         11    1    1    2    0    0  0.13110039289E+02 -0.34969460299E+02  0.22811428643E+02  0.43761827664E+02  0.00000000000E+00 0.  1.
</event>
<event>
 7    1  0.2878477E-009  0.1472235E+03  0.7561462E-02  0.1203927E+00
         -1   -1    0    0    0  501 -0.00000000000E+00  0.00000000000E+00  0.25284626425E+02  0.25284626425E+02  0.00000000000E+00 0.  1.
          1   -1    0    0  501    0  0.00000000000E+00 -0.00000000000E+00 -0.90307399215E+03  0.90307399215E+03  0.00000000000E+00 0. -1.
         25    2    1    2    0    0  0.16282983004E+02 -0.10282802575E+03 -0.46364728859E+03  0.49138132924E+03  0.12509222235E+03 0.  0.
          5    1    3    3  502    0  0.67523234606E+02 -0.81145574172E+02 -0.33181418576E+03  0.34822710648E+03  0.41800000000E+01 0. -1.
         -5    1    3    3    0  502 -0.51240251602E+02 -0.21682451578E+02 -0.13183310283E+03  0.14315422276E+03  0.41800000000E+01 0. -1.
        -11    1    1    2    0    0 -0.44786272237E+02  0.27724900489E+02 -0.10370233931E+03  0.11631274851E+03  0.00000000000E+00 0. -1.
         11    1    1    2    0    0  0.28503289233E+02  0.75103125261E+02 -0.31043973782E+03  0.32066454082E+03  0.00000000000E+00 0.  1.
</event>
<event>
 7    1  0.2878477E-009  0.1627427E+03  0.7561462E-02  0.1185635E+00
         -1   -1    0    0    0  501 -0.00000000000E+00  0.00000000000E+00  0.48668996053E+03  0.48668996053E+03  0.00000000000E+00 0.  1.
          1   -1    0    0  501    0  0.00000000000E+00 -0.00000000000E+00 -0.65570369066E+02  0.65570369066E+02  0.00000000000E+00 0. -1.
         25    2    1    2    0    0 -0.73004834360E+02  0.10194405148E+03  0.12154110167E+03  0.21482657425E+03  0.12512362741E+03 0.  0.
          5    1    3    3  502    0 -0.59622321940E+02  0.12864390735E+03  0.78057486302E+02  0.16190898598E+03  0.41800000000E+01 0.  1.
         -5    1    3    3    0  502 -0.13382512420E+02 -0.26699855878E+02  0.43483615372E+02  0.52917588271E+02  0.41800000000E+01 0.  1.
        -11    1    1    2    0    0 -0.12119968551E+02 -0.54893418404E+02  0.13542623599E+03  0.14663030524E+03  0.00000000000E+00 0.  1.
         11    1    1    2    0    0  0.85124802910E+02 -0.47050633072E+02  0.16415225380E+03  0.19080345010E+03  0.00000000000E+00 0. -1.
</event>
<event>
 7    1  0.2878477E-009  0.1104996E+03  0.7561462E-02  0.1259648E+00
          2   -1    0    0  501    0  0.00000000000E+00  0.00000000000E+00  0.10088962819E+04  0.10088962819E+04  0.00000000000E+00 0. -1.
         -2   -1    0    0    0  501 -0.00000000000E+00 -0.00000000000E+00 -0.13220171859E+02  0.13220171859E+02  0.00000000000E+00 0.  1.
         25    2    1    2    0    0  0.78944101034E+01 -0.30687240285E+02  0.64567672661E+03  0.65844502473E+03  0.12508951548E+03 0.  0.
          5    1    3    3  502    0 -0.55018857858E+02 -0.19273839621E+02  0.41266840601E+03  0.41678680561E+03  0.41800000000E+01 0. -1.
         -5    1    3    3    0  502  0.62913267961E+02 -0.11413400664E+02  0.23300832060E+03  0.24165821912E+03  0.41800000000E+01 0. -1.
        -11    1    1    2    0    0  0.33905984975E+02 -0.14538328833E+02  0.11759649579E+03  0.12324737176E+03  0.00000000000E+00 0. -1.
         11    1    1    2    0    0 -0.41800395079E+02  0.45225569118E+02  0.23240288768E+03  0.24042405731E+03  0.00000000000E+00 0.  1.
</event>
<event>
 7    1  0.2878477E-009  0.1983385E+03  0.7561462E-02  0.1151148E+00
          2   -1    0    0  501    0  0.00000000000E+00  0.00000000000E+00  0.46419359019E+02  0.46419359019E+02  0.00000000000E+00 0. -1.
         -2   -1    0    0    0  501 -0.00000000000E+00 -0.00000000000E+00 -0.99029211153E+03  0.99029211153E+03  0.00000000000E+00 0.  1.
         25    2    1    2    0    0 -0.18235173992E+03  0.27990901547E+02 -0.51919314144E+03  0.56501723039E+03  0.12508918775E+03 0.  0.
          5    1    3    3  502    0 -0.16486896018E+03  0.60672391057E+01 -0.50867720354E+03  0.53477897792E+03  0.41800000000E+01 0. -1.
         -5    1    3    3    0  502 -0.17482779743E+02  0.21923662441E+02 -0.10515937899E+02  0.30238252467E+02  0.41800000000E+01 0. -1.
        -11    1    1    2    0    0  0.47151271549E+02 -0.47221356488E+02 -0.10997556023E+03  0.12863795227E+03  0.00000000000E+00 0. -1.
         11    1    1    2    0    0  0.13520046837E+03  0.19230454941E+02 -0.31470405084E+03  0.34305628789E+03  0.00000000000E+00 0.  1.
</event>
<event>
 6    1  0.2878477E-009  0.1608145E+03  0.7561462E-02  0.1187780E+00
          2   -1    0    0  501    0  0.00000000000E+00  0.00000000000E+00  0.28048200336E+03  0.28048200336E+03  0.00000000000E+00 0. -1.
         -2   -1    0    0    0  501 -0.00000000000E+00 -0.00000000000E+00 -0.12079887371E+03  0.12079887371E+03  0.00000000000E+00 0.  1.
          5    1    1    2  502    0 -0.28511568022E+02  0.23517415949E+01 -0.60245096417E+00  0.28918429189E+02  0.41800000000E+01 0. -1.
         -5    1    1    2    0  502  0.49154828043E+02 -0.13848917911E+03  0.14497458663E+03  0.20647167607E+03  0.41800000000E+01 0. -1.
        -11    1    1    2    0    0 -0.31511286357E+02  0.51532452304E+02  0.45267700667E+02  0.75483240073E+02  0.00000000000E+00 0.  1.
         11    1    1    2    0    0  0.10868026336E+02  0.84604985208E+02 -0.29956706682E+02  0.90407531731E+02  0.00000000000E+00 0. -1.
</event>
<event>
 7    1  0.2878477E-009  0.9514579E+02  0.7561462E-02  0.1290848E+00
          2   -1    0    0  501    0  0.00000000000E+00  0.00000000000E+00  0.24119992482E+03  0.24119992482E+03  0.00000000000E+00 0. -1.
         -2   -1    0    0    0  501 -0.00000000000E+00 -0.00000000000E+00 -0.73984679816E+02  0.73984679816E+02  0.00000000000E+00 0.  1.
         25    2    1    2    0    0  0.39017878130E+02  0.17473114664E+00  0.12173212371E+02  0.13159889058E+03  0.12509058941E+03 0.  0.
          5    1    3    3  502    0  0.26081652865E+01 -0.38634741773E+02 -0.40793478093E+02  0.56400585573E+02  0.41800000000E+01 0.  1.
         -5    1    3    3    0  502  0.36409712843E+02  0.38809472920E+02  0.52966690464E+02  0.75198305010E+02  0.41800000000E+01 0.  1.
        -11    1    1    2    0    0 -0.66606026806E+02  0.12224498535E+02  0.11410945831E+03  0.13269050323E+03  0.00000000000E+00 0.  1.
         11    1    1    2    0    0  0.27588148677E+02 -0.12399229682E+02  0.40932574323E+02  0.50895210824E+02  0.00000000000E+00 0. -1.
</event>
<event>
 7    1  0.2878477E-009  0.9488835E+02  0.7561462E-02  0.1291428E+00
          1   -1    0    0  501    0  0.00000000000E+00  0.00000000000E+00  0.34969276587E+02  0.34969276587E+02  0.00000000000E+00 0. -1.
         -1   -1    0    0    0  501 -0.00000000000E+00 -0.00000000000E+00 -0.49886820718E+03  0.49886820718E+03  0.00000000000E+00 0.  1.
         25    2    1    2    0    0  0.36098920845E+02 -0.35369019258E+02 -0.15288696415E+03  0.20390378944E+03  0.12509289320E+03 0.  0.
          5    1    3    3  502    0  0.51321467877E+02  0.86060322431E+00 -0.60630239610E+01  0.51854280079E+02  0.41800000000E+01 0. -1.
         -5    1    3    3    0  502 -0.15222547032E+02 -0.36229622482E+02 -0.14682394019E+03  0.15204950936E+03  0.41800000000E+01 0. -1.
        -11    1    1    2    0    0 -0.35111937707E+02 -0.21964921863E+02 -0.20756622356E+03  0.21165784447E+03  0.00000000000E+00 0.  1.
         11    1    1    2    0    0 -0.98698313774E+00  0.57333941121E+02 -0.10344574288E+03  0.11827584986E+03  0.00000000000E+00 0. -1.
</event>
<event>
 7    1  0.2878477E-009  0.1175751E+03  0.7561462E-02  0.1247152E+00
          1   -1    0    0  501    0  0.00000000000E+00  0.00000000000E+00  0.10119572274E+04  0.10119572274E+04  0.00000000000E+00 0. -1.
         -1   -1    0    0    0  501 -0.00000000000E+00 -0.00000000000E+00 -0.21334185953E+02  0.21334185953E+02  0.00000000000E+00 0.  1.
         25    2    1    2    0    0  0.82553524990E+02  0.54357352556E+02  0.52740440953E+03  0.55097490921E+03  0.12509249825E+03 0.  0.
          5    1    3    3  502    0  0.16125598122E+02  0.19466583878E+02  0.41483701490E+03  0.41562748241E+03  0.41800000000E+01 0. -1.
         -5    1    3    3    0  502  0.66427926868E+02  0.34890768678E+02  0.11256739463E+03  0.13534742680E+03  0.41800000000E+01 0. -1.
        -11    1    1    2    0    0  0.18980913092E+02 -0.19020650818E+02  0.92699551165E+02  0.96515630888E+02  0.00000000000E+00 0.  1.
         11    1    1    2    0    0 -0.10153443808E+03 -0.35336701738E+02  0.37051908074E+03  0.38580087325E+03  0.00000000000E+00 0. -1.
</event>
<event>
 7    1  0.2878477E-009  0.8478505E+02  0.7561462E-02  0.1315996E+00
          2   -1    0    0  501    0  0.00000000000E+00  0.00000000000E+00  0.40234080837E+03  0.40234080837E+03  0.00000000000E+00 0.  1.
         -2   -1    0    0    0  501 -0.00000000000E+00 -0.00000000000E+00 -0.50361675763E+02  0.50361675763E+02  0.00000000000E+00 0. -1.
         25    2    1    2    0    0  0.35758539950E+02 -0.44308963527E+02  0.77582038896E+02  0.15783163508E+03  0.12509953975E+03 0.  0.
          5    1    3    3  502    0  0.15846848244E+02 -0.36958153577E+02 -0.28565322811E+02  0.49502300778E+02  0.41800000000E+01 0.  1.
         -5    1    3    3    0  502  0.19911691706E+02 -0.73508099500E+01  0.10614736171E+03  0.10832933430E+03  0.41800000000E+01 0.  1.
        -11    1    1    2    0    0 -0.53440011824E+02 -0.63841697691E+01  0.12391305686E+03  0.13509640316E+03  0.00000000000E+00 0.  1.
         11    1    1    2    0    0  0.17681471874E+02  0.50693133296E+02  0.15048403685E+03  0.15977444588E+03  0.00000000000E+00 0. -1.
</event>
<event>
 7    1  0.3707661E-009  0.2354976E+03  0.7561462E-02  0.1122829E+00
          1   -1    0    0  501    0  0.00000000000E+00  0.00000000000E+00  0.48366942210E+03  0.48366942210E+03  0.00000000000E+00 0. -1.
         -1   -1    0    0    0  501 -0.00000000000E+00 -0.00000000000E+00 -0.16442186351E+03  0.16442186351E+03  0.00000000000E+00 0.  1.
         25    2    1    2    0    0 -0.22465246748E+03 -0.25679180387E+02  0.16104504099E+02  0.25890920019E+03  0.12508584029E+03 0.  0.
          5    1    3    3  502    0 -0.87337920291E+02  0.35565744849E+02  0.46859172882E+02  0.10538543073E+03  0.41800000000E+01 0. -1.
         -5    1    3    3    0  502 -0.13731454718E+03 -0.61244925236E+02 -0.30754668783E+02  0.15352376945E+03  0.41800000000E+01 0. -1.
        -11    1    1    2    0    0  0.10658444799E+03  0.15085650109E+02  0.72276092539E+02  0.12965976610E+03  0.00000000000E+00 0.  1.
         11    1    1    2    0    0  0.11806801948E+03  0.10593530278E+02  0.23086696195E+03  0.25952231932E+03  0.00000000000E+00 0. -1.
</event>
<event>
 7    1  0.2878477E-009  0.2324110E+03  0.7561462E-02  0.1124954E+00
         -1   -1    0    0    0  501 -0.00000000000E+00  0.00000000000E+00  0.29774882423E+03  0.29774882423E+03  0.00000000000E+00 0.  1.
          1   -1    0    0  501    0  0.00000000000E+00 -0.00000000000E+00 -0.23447799197E+03  0.23447799197E+03  0.00000000000E+00 0. -1.
         25    2    1    2    0    0  0.21176161965E+03 -0.63138621264E+02  0.12945117471E+03  0.28501580971E+03  0.12508771360E+03 0.  0.
          5    1    3    3  502    0  0.13818644918E+03 -0.83539485881E+02  0.38242618110E+02  0.16599491161E+03  0.41800000000E+01 0. -1.
         -5    1    3    3    0  502  0.73575170467E+02  0.20400864618E+02  0.91208556605E+02  0.11902089810E+03  0.41800000000E+01 0. -1.
        -11    1    1    2    0    0 -0.18944022024E+02  0.23137968575E+02  0.15898117196E+02  0.33867265768E+02  0.00000000000E+00 0.  1.
         11    1    1    2    0    0 -0.19281759763E+03  0.40000652688E+02 -0.82078459642E+02  0.21334374073E+03  0.00000000000E+00 0. -1.
</event>
<event>
 7    1  0.2878477E-009  0.1101618E+03  0.7561462E-02  0.1260271E+00
          2   -1    0    0  501    0  0.00000000000E+00  0.00000000000E+00  0.57859397454E+03  0.57859397454E+03  0.00000000000E+00 0. -1.
         -2   -1    0    0    0  501 -0.00000000000E+00 -0.00000000000E+00 -0.43960685727E+02  0.43960685727E+02  0.00000000000E+00 0.  1.
         25    2    1    2    0    0 -0.49339103206E+01 -0.89806965604E+02  0.34234862015E+03  0.37541760178E+03  0.12508462521E+03 0.  0.
          5    1    3    3  502    0 -0.26387519639E+02 -0.35273377139E+02  0.29937554584E+03  0.30262799305E+03  0.41800000000E+01 0.  1.
         -5    1    3    3    0  502  0.21453609318E+02 -0.54533588466E+02  0.42973074307E+02  0.72789608730E+02  0.41800000000E+01 0.  1.
        -11    1    1    2    0    0 -0.35095879508E+02  0.36194985315E+02  0.79549732714E+01  0.51039977665E+02  0.00000000000E+00 0.  1.
         11    1    1    2    0    0  0.40029789828E+02  0.53611980290E+02  0.18432969539E+03  0.19609708082E+03  0.00000000000E+00 0. -1.
</event>
<event>
 7    1  0.2878477E-009  0.9442969E+02  0.7561462E-02  0.1292466E+00
          1   -1    0    0  501    0  0.00000000000E+00  0.00000000000E+00  0.41087022174E+03  0.41087022174E+03  0.00000000000E+00 0. -1.
         -1   -1    0    0    0  501 -0.00000000000E+00 -0.00000000000E+00 -0.58264440172E+02  0.58264440172E+02  0.00000000000E+00 0.  1.
         25    2    1    2    0    0 -0.49578690584E+02 -0.50477597638E+02  0.31099121733E+03  0.34260027488E+03  0.12511345518E+03 0.  0.
          5    1    3    3  502    0  0.13029019859E+02 -0.22978387457E+02  0.28041338470E+01  0.26890466995E+02  0.41800000000E+01 0.  1.
         -5    1    3    3    0  502 -0.62607710443E+02 -0.27499210181E+02  0.30818708348E+03  0.31570980788E+03  0.41800000000E+01 0.  1.
        -11    1    1    2    0    0 -0.62898995137E+01  0.35102380390E+02 -0.20867954357E+02  0.41318415555E+02  0.00000000000E+00 0.  1.
         11    1    1    2    0    0  0.55868590098E+02  0.15375217248E+02  0.62482518589E+02  0.85215971474E+02  0.00000000000E+00 0. -1.
</event>
<event>
 7    1  0.2878477E-009  0.1325560E+03  0.7561462E-02  0.1223712E+00
          2   -1    0    0  501    0  0.00000000000E+00  0.00000000000E+00  0.42957585138E+03  0.42957585138E+03  0.00000000000E+00 0. -1.
         -2   -1    0    0    0  501 -0.00000000000E+00 -0.00000000000E+00 -0.59054510521E+02  0.59054510521E+02  0.00000000000E+00 0.  1.
         25    2    1    2    0    0  0.84677847954E+02 -0.26727434548E+02  0.31455555132E+03  0.34996785000E+03  0.12509039721E+03 0.  0.
          5    1    3    3  502    0  0.11057961679E+03 -0.43560033001E+00  0.18878357722E+03  0.21882585045E+03  0.41800000000E+01 0. -1.
         -5    1    3    3    0  502 -0.25901768841E+02 -0.26291834218E+02  0.12577197410E+03  0.13114199955E+03  0.41800000000E+01 0. -1.
        -11    1    1    2    0    0 -0.68715957990E+02  0.52854547170E+02  0.15738175860E+02  0.88108888418E+02  0.00000000000E+00 0. -1.
         11    1    1    2    0    0 -0.15961889964E+02 -0.26127112622E+02  0.40227613679E+02  0.50553623485E+02  0.00000000000E+00 0.  1.
</event>
<event>
 7    1  0.2878477E-009  0.1398676E+03  0.7561462E-02  0.1213507E+00
         -1   -1    0    0    0  501 -0.00000000000E+00  0.00000000000E+00  0.11445262975E+03  0.11445262975E+03  0.00000000000E+00 0.  1.
          1   -1    0    0  501    0  0.00000000000E+00 -0.00000000000E+00 -0.28037579599E+03  0.28037579599E+03  0.00000000000E+00 0. -1.
         25    2    1    2    0    0 -0.33417734726E+02 -0.87062274891E+02  0.30061261427E+02  0.15889925012E+03  0.12509479425E+03 0.  0.
          5    1    3    3  502    0 -0.37104155526E+02 -0.11507412560E+03  0.52954466389E+01  0.12109618860E+03  0.41800000000E+01 0.  1.
         -5    1    3    3    0  502  0.36864208000E+01  0.28011850706E+02  0.24765814788E+02  0.37803061521E+02  0.41800000000E+01 0.  1.
        -11    1    1    2    0    0 -0.20137293731E+02  0.71707138507E+02 -0.96417791223E+02  0.12183519514E+03  0.00000000000E+00 0.  1.
         11    1    1    2    0    0  0.53555028457E+02  0.15355136384E+02 -0.99566636442E+02  0.11409398047E+03  0.00000000000E+00 0. -1.
</event>
<event>
 7    1  0.2878477E-009  0.1764429E+03  0.7561462E-02  0.1171291E+00
          2   -1    0    0  501    0  0.00000000000E+00  0.00000000000E+00  0.15999498588E+04  0.15999498588E+04  0.00000000000E+00 0. -1.
         -2   -1    0    0    0  501 -0.00000000000E+00 -0.00000000000E+00 -0.22562572880E+02  0.22562572880E+02  0.00000000000E+00 0.  1.
         25    2    1    2    0    0 -0.12854903550E+03 -0.82991235676E+02  0.83432860271E+03  0.85741653861E+03  0.12508598506E+03 0.  0.
          5    1    3    3  502    0 -0.94996582599E+02 -0.97869404498E+02  0.42373808764E+03  0.44516762052E+03  0.41800000000E+01 0. -1.
         -5    1    3    3    0  502 -0.33552452904E+02  0.14878168823E+02  0.41059051506E+03  0.41224891809E+03  0.41800000000E+01 0. -1.
        -11    1    1    2    0    0  0.55723085355E+02 -0.14710289417E+02  0.17997210170E+03  0.18897463387E+03  0.00000000000E+00 0.  1.
         11    1    1    2    0    0  0.72825950148E+02  0.97701525093E+02  0.56308658148E+03  0.57612125917E+03  0.00000000000E+00 0. -1.
</event>
<event>
 7    1  0.2878477E-009  0.1174492E+03  0.7561462E-02  0.1247365E+00
          1   -1    0    0  501    0  0.00000000000E+00  0.00000000000E+00  0.81609984888E+03  0.81609984888E+03  0.00000000000E+00 0. -1.
         -1   -1    0    0    0  501 -0.00000000000E+00 -0.00000000000E+00 -0.34726895286E+02  0.34726895286E+02  0.00000000000E+00 0.  1.
         25    2    1    2    0    0 -0.47259948641E+02  0.85530646593E+02  0.20486854806E+03  0.25916763984E+03  0.12509096411E+03 0.  0.
          5    1    3    3  502    0  0.30461244683E+01  0.12331398221E+02  0.15816819347E+03  0.15873245441E+03  0.41800000000E+01 0.  1.
         -5    1    3    3    0  502 -0.50306073109E+02  0.73199248372E+02  0.46700354592E+02  0.10043518543E+03  0.41800000000E+01 0.  1.
        -11    1    1    2    0    0  0.38498390548E+00 -0.85732568182E+02  0.34904920533E+03  0.35942394077E+03  0.00000000000E+00 0.  1.
         11    1    1    2    0    0  0.46874964736E+02  0.20192158922E+00  0.22745520021E+03  0.23223516356E+03  0.00000000000E+00 0. -1.
</event>
<event>
 7    1  0.2878477E-009  0.1433561E+03  0.7561462E-02  0.1208883E+00
          2   -1    0    0  501    0  0.00000000000E+00  0.00000000000E+00  0.31754384701E+03  0.31754384701E+03  0.00000000000E+00 0. -1.
         -2   -1    0    0    0  501 -0.00000000000E+00 -0.00000000000E+00 -0.77972423500E+02  0.77972423500E+02  0.00000000000E+00 0.  1.
         25    2    1    2    0    0  0.73022775017E+02  0.88027751271E+02  0.12238986087E+03  0.20906600186E+03  0.12509238357E+03 0.  0.
          5    1    3    3  502    0  0.70049481194E+02  0.16963072844E+02  0.11716913849E+03  0.13762541579E+03  0.41800000000E+01 0.  1.
         -5    1    3    3    0  502  0.29732938226E+01  0.71064678427E+02  0.52207223720E+01  0.71440586071E+02  0.41800000000E+01 0.  1.
        -11    1    1    2    0    0 -0.66946458764E+02 -0.13252408439E+02  0.41432960893E+02  0.79838242208E+02  0.00000000000E+00 0. -1.
         11    1    1    2    0    0 -0.60763162529E+01 -0.74775342832E+02  0.75748601754E+02  0.10661202644E+03  0.00000000000E+00 0.  1.
</event>
<event>
 7    1  0.2878477E-009  0.1511680E+03  0.7561462E-02  0.1199045E+00
         -1   -1    0    0    0  501 -0.00000000000E+00  0.00000000000E+00  0.49312290483E+02  0.49312290483E+02  0.00000000000E+00 0.  1.
          1   -1    0    0  501    0  0.00000000000E+00 -0.00000000000E+00 -0.47298440756E+03  0.47298440756E+03  0.00000000000E+00 0. -1.
         25    2    1    2    0    0  0.73971620538E+02 -0.77681899486E+02 -0.22390609983E+03  0.27800783024E+03  0.12509250169E+03 0.  0.
          5    1    3    3  502    0  0.56853475636E+02  0.23725357242E+02 -0.88960841555E+02  0.10828995336E+03  0.41800000000E+01 0.  1.
         -5    1    3    3    0  502  0.17118144902E+02 -0.10140725673E+03 -0.13494525827E+03  0.16971787688E+03  0.41800000000E+01 0.  1.
        -11    1    1    2    0    0 -0.92015418299E+02  0.50290028562E+02 -0.17135629318E+03  0.20089525477E+03  0.00000000000E+00 0. -1.
         11    1    1    2    0    0  0.18043797761E+02  0.27391870923E+02 -0.28409724067E+02  0.43393613031E+02  0.00000000000E+00 0.  1.
</event>
<event>
 7    1  0.2878477E-009  0.8015476E+02  0.7561462E-02  0.1328613E+00
          1   -1    0    0  501    0  0.00000000000E+00  0.00000000000E+00  0.10862108249E+03  0.10862108249E+03  0.00000000000E+00 0. -1.
         -1   -1    0    0    0  501 -0.00000000000E+00 -0.00000000000E+00 -0.13075835329E+03  0.13075835329E+03  0.00000000000E+00 0.  1.
         25    2    1    2    0    0 -0.37227560184E+02 -0.71241039991E+01  0.19126952675E+02  0.13209682372E+03  0.12508831449E+03 0.  0.
          5    1    3    3  502    0  0.78274081831E+01  0.11248261907E+02  0.64115661752E+02  0.65696896400E+02  0.41800000000E+01 0. -1.
         -5    1    3    3    0  502 -0.45054968367E+02 -0.18372365906E+02 -0.44988709077E+02  0.66399927319E+02  0.41800000000E+01 0. -1.
        -11    1    1    2    0    0  0.45556159393E+01  0.46079232185E+02 -0.30104454699E+02  0.55229769763E+02  0.00000000000E+00 0.  1.
         11    1    1    2    0    0  0.32671944245E+02 -0.38955128185E+02 -0.11159768772E+02  0.52052842302E+02  0.00000000000E+00 0. -1.
</event>
<event>
 7    1  0.2878477E-009  0.2207962E+03  0.7561462E-02  0.1133291E+00
          2   -1    0    0  501    0  0.00000000000E+00  0.00000000000E+00  0.28649472534E+04  0.28649472534E+04  0.00000000000E+00 0. -1.
         -2   -1    0    0    0  501 -0.00000000000E+00 -0.00000000000E+00 -0.28454700325E+02  0.28454700325E+02  0.00000000000E+00 0.  1.
         25    2    1    2    0    0  0.18292567364E+03 -0.72736949859E+02  0.23516618462E+04  0.23632000667E+04  0.12509456574E+03 0.  0.
          5    1    3    3  502    0 -0.18660073392E+02 -0.61790388304E+01  0.15425106482E+03  0.15555462789E+03  0.41800000000E+01 0.  1.
         -5    1    3    3    0  502  0.20158574703E+03 -0.66557911029E+02  0.21974107814E+04  0.22076454388E+04  0.41800000000E+01 0.  1.
        -11    1    1    2    0    0 -0.87990792784E+02  0.72844510886E+02  0.20461945959E+03  0.23434552614E+03  0.00000000000E+00 0.  1.
         11    1    1    2    0    0 -0.94934880856E+02 -0.10756102722E+00  0.28021124723E+03  0.29585636084E+03  0.00000000000E+00 0. -1.
</event>
<event>
 7    1  0.2878477E-009  0.9950565E+02  0.7561462E-02  0.1281339E+00
          1   -1    0    0  501    0  0.00000000000E+00  0.00000000000E+00  0.22635957783E+03  0.22635957783E+03  0.00000000000E+00 0. -1.
         -1   -1    0    0    0  501 -0.00000000000E+00 -0.00000000000E+00 -0.66631222214E+02  0.66631222214E+02  0.00000000000E+00 0.  1.
         25    2    1    2    0    0  0.54817469947E+02  0.12997733849E+02  0.89583302179E+02  0.16386941820E+03  0.12511643415E+03 0.  0.
          5    1    3    3  502    0  0.80773028136E+02  0.93484260488E+01  0.12536607702E+02  0.82379087616E+02  0.41800000000E+01 0.  1.
         -5    1    3    3    0  502 -0.25955558189E+02  0.36493078004E+01  0.77046694477E+02  0.81490330580E+02  0.41800000000E+01 0.  1.
        -11    1    1    2    0    0  0.13977693289E+01  0.23813367602E+02 -0.88228326081E+01  0.25433690469E+02  0.00000000000E+00 0.  1.
         11    1    1    2    0    0 -0.56215239276E+02 -0.36811101451E+02  0.78967886044E+02  0.10368769138E+03  0.00000000000E+00 0. -1.
</event>
<event>
 7    1  0.2878477E-009  0.8869940E+02  0.7561462E-02  0.1306032E+00
         -3   -1    0    0    0  501 -0.00000000000E+00  0.00000000000E+00  0.69398053031E+02  0.69398053031E+02  0.00000000000E+00 0.  1.
          3   -1    0    0  501    0  0.00000000000E+00 -0.00000000000E+00 -0.17473111452E+03  0.17473111452E+03  0.00000000000E+00 0. -1.
         25    2    1    2    0    0 -0.95101708850E+01  0.10418357008E+02 -0.74181740966E+02  0.14611457318E+03  0.12509017663E+03 0.  0.
          5    1    3    3  502    0 -0.46760136406E+02 -0.37230669820E+02 -0.57943480313E+02  0.83351979237E+02  0.41800000000E+01 0.  1.
         -5    1    3    3    0  502  0.37249965521E+02  0.47649026828E+02 -0.16238260653E+02  0.62762593940E+02  0.41800000000E+01 0.  1.
        -11    1    1    2    0    0  0.36537260788E+01 -0.33165823142E+02 -0.55134422155E+02  0.64444751883E+02  0.00000000000E+00 0. -1.
         11    1    1    2    0    0  0.58564448062E+01  0.22747466134E+02  0.23983101630E+02  0.33569842494E+02  0.00000000000E+00 0.  1.
</event>
<event>
 7    1  0.2878477E-009  0.1245359E+03  0.7561462E-02  0.1235796E+00
          2   -1    0    0  501    0  0.00000000000E+00  0.00000000000E+00  0.12111039156E+04  0.12111039156E+04  0.00000000000E+00 0. -1.
         -2   -1    0    0    0  501 -0.00000000000E+00 -0.00000000000E+00 -0.13424563960E+02  0.13424563960E+02  0.00000000000E+00 0.  1.
         25    2    1    2    0    0  0.56053021962E+02  0.30679381150E+02  0.77509109079E+03  0.78771611914E+03  0.12508924668E+03 0.  0.
          5    1    3    3  502    0 -0.12745627128E+02  0.61590219672E+02  0.28933925284E+03  0.29612578713E+03  0.41800000000E+01 0.  1.
         -5    1    3    3    0  502  0.68798649090E+02 -0.30910838521E+02  0.48575183795E+03  0.49159033201E+03  0.41800000000E+01 0.  1.
        -11    1    1    2    0    0  0.20190169581E+02  0.11632523214E+02  0.95348889355E+02  0.98154822832E+02  0.00000000000E+00 0.  1.
         11    1    1    2    0    0 -0.76243191544E+02 -0.42311904365E+02  0.32723937152E+03  0.33865753761E+03  0.00000000000E+00 0. -1.
</event>
<event>
 7    1  0.2878477E-009  0.1957215E+03  0.7561462E-02  0.1153400E+00
          1   -1    0    0  501    0  0.00000000000E+00  0.00000000000E+00  0.24732645449E+03  0.24732645449E+03  0.00000000000E+00 0. -1.
         -1   -1    0    0    0  501 -0.00000000000E+00 -0.00000000000E+00 -0.18162262968E+03  0.18162262968E+03  0.00000000000E+00 0.  1.
         25    2    1    2    0    0 -0.14773035224E+03  0.10633976343E+03  0.42366741136E+02  0.22488985889E+03  0.12509238833E+03 0.  0.
          5    1    3    3  502    0 -0.59760651976E+02  0.78647932628E+02  0.78002029133E+02  0.12593101993E+03  0.41800000000E+01 0. -1.
         -5    1    3    3    0  502 -0.87969700266E+02  0.27691830804E+02 -0.35635287997E+02  0.98958838963E+02  0.41800000000E+01 0. -1.
        -11    1    1    2    0    0  0.55713468356E+02  0.48579719397E+01 -0.76256715623E+01  0.56442371622E+02  0.00000000000E+00 0.  1.
         11    1    1    2    0    0  0.92016883886E+02 -0.11119773537E+03  0.30962755229E+02  0.14761685366E+03  0.00000000000E+00 0. -1.
</event>
<event>
 7    1  0.2878477E-009  0.1912745E+03  0.7561462E-02  0.1157317E+00
         -2   -1    0    0    0  501 -0.00000000000E+00  0.00000000000E+00  0.64360769185E+02  0.64360769185E+02  0.00000000000E+00 0.  1.
          2   -1    0    0  501    0  0.00000000000E+00 -0.00000000000E+00 -0.93459755311E+03  0.93459755311E+03  0.00000000000E+00 0. -1.
         25    2    1    2    0    0 -0.13977295594E+03 -0.11806067859E+03 -0.20095258194E+03  0.29917586871E+03  0.12509779050E+03 0.  0.
          5    1    3    3  502    0 -0.87193997243E+02 -0.11712581050E+03 -0.78479095847E+02  0.16582427303E+03  0.41800000000E+01 0. -1.
         -5    1    3    3    0  502 -0.52578958699E+02 -0.93486809578E+00 -0.12247348609E+03  0.13335159568E+03  0.41800000000E+01 0. -1.
        -11    1    1    2    0    0  0.36242896865E+02  0.40560313461E+02 -0.81811398804E+02  0.98243531978E+02  0.00000000000E+00 0.  1.
         11    1    1    2    0    0  0.10353005908E+03  0.77500365131E+02 -0.58747280319E+03  0.60153892161E+03  0.00000000000E+00 0. -1.
</event>
<event>
 7    1  0.2878477E-009  0.7234722E+02  0.7561462E-02  0.1352288E+00
         -2   -1    0    0    0  501 -0.00000000000E+00  0.00000000000E+00  0.50639043632E+02  0.50639043632E+02  0.00000000000E+00 0.  1.
          2   -1    0    0  501    0  0.00000000000E+00 -0.00000000000E+00 -0.27050419240E+03  0.27050419240E+03  0.00000000000E+00 0. -1.
         25    2    1    2    0    0 -0.28801079447E+02  0.11977741995E+02 -0.77507237489E+02  0.15042591234E+03  0.12509042633E+03 0.  0.
          5    1    3    3  502    0 -0.45936702699E+02 -0.57811387468E+01 -0.10403808470E+03  0.11395173403E+03  0.41800000000E+01 0.  1.
         -5    1    3    3    0  502  0.17135623252E+02  0.17758880742E+02  0.26530847216E+02  0.36474178311E+02  0.41800000000E+01 0.  1.
        -11    1    1    2    0    0  0.48558550534E+01 -0.37713562210E+02 -0.12661308956E+03  0.13219972220E+03  0.00000000000E+00 0. -1.
         11    1    1    2    0    0  0.23945224394E+02  0.25735820215E+02 -0.15744821724E+02  0.38517601490E+02  0.00000000000E+00 0.  1.
</event>
<event>
 7    1  0.2878477E-009  0.7870762E+02  0.7561462E-02  0.1332760E+00
         -1   -1    0    0    0  501 -0.00000000000E+00  0.00000000000E+00  0.85198331427E+02  0.85198331427E+02  0.00000000000E+00 0.  1.
          1   -1    0    0  501    0  0.00000000000E+00 -0.00000000000E+00 -0.26896664343E+03  0.26896664343E+03  0.00000000000E+00 0. -1.
         25    2    1    2    0    0  0.60603722269E+02 -0.26604306676E+02 -0.19443124179E+03  0.24048347647E+03  0.12509274314E+03 0.  0.
          5    1    3    3  502    0 -0.98737549784E+01  0.71972516817E+01  0.13273391946E+02  0.18518822935E+02  0.41800000000E+01 0.  1.
         -5    1    3    3    0  502  0.70477477247E+02 -0.33801558358E+02 -0.20770463373E+03  0.22196465354E+03  0.41800000000E+01 0.  1.
        -11    1    1    2    0    0 -0.32995941685E+02  0.15729670026E+02 -0.40487797681E+02  0.54547378011E+02  0.00000000000E+00 0. -1.
         11    1    1    2    0    0 -0.27607780584E+02  0.10874636650E+02  0.51150727469E+02  0.59134120368E+02  0.00000000000E+00 0.  1.
</event>
<event>
 7    1  0.2878477E-009  0.1003488E+03  0.7561462E-02  0.1279564E+00
         -2   -1    0    0    0  501 -0.00000000000E+00  0.00000000000E+00  0.29327637204E+03  0.29327637204E+03  0.00000000000E+00 0. -1.
          2   -1    0    0  501    0  0.00000000000E+00 -0.00000000000E+00 -0.44154991421E+02  0.44154991421E+02  0.00000000000E+00 0.  1.
         25    2    1    2    0    0 -0.36300849968E+02  0.41792447052E+00  0.15750565462E+03  0.20438506519E+03  0.12508915727E+03 0.  0.
          5    1    3    3  502    0 -0.46036845303E+02  0.55743214165E+02  0.10372923540E+03  0.12650661535E+03  0.41800000000E+01 0. -1.
         -5    1    3    3    0  502  0.97359953346E+01 -0.55325289695E+02  0.53776419226E+02  0.77878449842E+02  0.41800000000E+01 0. -1.
        -11    1    1    2    0    0  0.45108405725E+02  0.20279048732E+02  0.12804084997E+02  0.51087695946E+02  0.00000000000E+00 0.  1.
         11    1    1    2    0    0 -0.88075557561E+01 -0.20696973202E+02  0.78811641004E+02  0.81958602330E+02  0.00000000000E+00 0. -1.
</event>
<event>
 7    1  0.2878477E-009  0.1270211E+03  0.7561462E-02  0.1231944E+00
          1   -1    0    0  501    0  0.00000000000E+00  0.00000000000E+00  0.12811697743E+03  0.12811697743E+03  0.00000000000E+00 0. -1.
         -1   -1    0    0    0  501 -0.00000000000E+00 -0.00000000000E+00 -0.13563680542E+03  0.13563680542E+03  0.00000000000E+00 0.  1.
         25    2    1    2    0    0 -0.59432727163E+02 -0.34447741221E+02 -0.35100726576E+02  0.14696850999E+03  0.12509510778E+03 0.  0.
          5    1    3    3  502    0 -0.41850599481E+02  0.43523869462E+02 -0.25936632838E+01  0.60580519798E+02  0.41800000000E+01 0.  1.
         -5    1    3    3    0  502 -0.17582127682E+02 -0.77971610683E+02 -0.32507063292E+02  0.86387990196E+02  0.41800000000E+01 0.  1.
        -11    1    1    2    0    0 -0.23655012409E+02  0.15428716098E+02  0.72369346829E+01  0.29154384166E+02  0.00000000000E+00 0.  1.
         11    1    1    2    0    0  0.83087739571E+02  0.19019025123E+02  0.20343963903E+02  0.87630888681E+02  0.00000000000E+00 0. -1.
</event>
<event>
 7    1  0.2878477E-009  0.1682386E+03  0.7561462E-02  0.1179697E+00
          2   -1    0    0  501    0  0.00000000000E+00  0.00000000000E+00  0.10959222769E+03  0.10959222769E+03  0.00000000000E+00 0. -1.
         -2   -1    0    0    0  501 -0.00000000000E+00 -0.00000000000E+00 -0.29859398611E+03  0.29859398611E+03  0.00000000000E+00 0.  1.
         25    2    1    2    0    0  0.51064267137E+02  0.12699859269E+03 -0.15586285365E+03  0.24223293100E+03  0.12508941519E+03 0.  0.
          5    1    3    3  502    0  0.85265362669E+02  0.81036387072E+02 -0.13946190424E+03  0.18249431014E+03  0.41800000000E+01 0.  1.
         -5    1    3    3    0  502 -0.34201095532E+02  0.45962205614E+02 -0.16400949408E+02  0.59738620858E+02  0.41800000000E+01 0.  1.
        -11    1    1    2    0    0 -0.54791932098E+02 -0.26682770231E+02 -0.24931115768E+01  0.60994603495E+02  0.00000000000E+00 0.  1.
         11    1    1    2    0    0  0.37276649615E+01 -0.10031582246E+03 -0.30645793195E+02  0.10495867931E+03  0.00000000000E+00 0. -1.
</event>
<event>
 7    1  0.2878477E-009  0.1545733E+03  0.7561462E-02  0.1194963E+00
         -2   -1    0    0    0  501 -0.00000000000E+00  0.00000000000E+00  0.35146287437E+02  0.35146287437E+02  0.00000000000E+00 0.  1.
          2   -1    0    0  501    0  0.00000000000E+00 -0.00000000000E+00 -0.68751670954E+03  0.68751670954E+03  0.00000000000E+00 0. -1.
         25    2    1    2    0    0  0.10303516345E+03 -0.38276111060E+02 -0.31840401600E+03  0.35931891089E+03  0.12509059408E+03 0.  0.
          5    1    3    3  502    0 -0.81551534871E+01  0.33010001960E+02 -0.60255505549E+02  0.69313527589E+02  0.41800000000E+01 0. -1.
         -5    1    3    3    0  502  0.11119031694E+03 -0.71286113020E+02 -0.25814851046E+03  0.29000538330E+03  0.41800000000E+01 0. -1.
        -11    1    1    2    0    0 -0.96614962461E+02  0.64223066387E+02 -0.28126937655E+03  0.30425567441E+03  0.00000000000E+00 0. -1.
         11    1    1    2    0    0 -0.64202009922E+01 -0.25946955327E+02 -0.52697029555E+02  0.59088411685E+02  0.00000000000E+00 0.  1.
</event>
<event>
 7    1  0.2978092E-009  0.1874247E+03  0.7561462E-02  0.1160805E+00
         -2   -1    0    0    0  501 -0.00000000000E+00  0.00000000000E+00  0.23219638564E+03  0.23219638564E+03  0.00000000000E+00 0.  1.
          2   -1    0    0  501    0  0.00000000000E+00 -0.00000000000E+00 -0.17393169378E+03  0.17393169378E+03  0.00000000000E+00 0. -1.
         25    2    1    2    0    0 -0.16798457290E+03 -0.18501131487E+02  0.30064303710E+02  0.21239723504E+03  0.12509042528E+03 0.  0.
          5    1    3    3  502    0 -0.18082007916E+02 -0.27273418935E+02 -0.35529701029E+02  0.48483300691E+02  0.41800000000E+01 0.  1.
         -5    1    3    3    0  502 -0.14990256498E+03  0.87722874485E+01  0.65594004740E+02  0.16391393434E+03  0.41800000000E+01 0.  1.
        -11    1    1    2    0    0  0.67965856286E+02  0.52631190218E+02  0.11120929800E+02  0.86677995385E+02  0.00000000000E+00 0.  1.
         11    1    1    2    0    0  0.10001871661E+03 -0.34130058731E+02  0.17079458344E+02  0.10705284900E+03  0.00000000000E+00 0. -1.
</event>
<event>
 7    1  0.2878477E-009  0.5986567E+02  0.7561462E-02  0.1398396E+00
         -1   -1    0    0    0  501 -0.00000000000E+00  0.00000000000E+00  0.56161660922E+03  0.56161660922E+03  0.00000000000E+00 0.  1.
          1   -1    0    0  501    0  0.00000000000E+00 -0.00000000000E+00 -0.22874984440E+02  0.22874984440E+02  0.00000000000E+00 0. -1.
         25    2    1    2    0    0 -0.16848253989E+02 -0.18930898779E+02  0.40316033583E+03  0.42288152943E+03  0.12509312112E+03 0.  0.
          5    1    3    3  502    0 -0.26419741474E+02 -0.73073136905E+01  0.10100036968E+02  0.29510722114E+02  0.41800000000E+01 0.  1.
         -5    1    3    3    0  502  0.95714874852E+01 -0.11623585088E+02  0.39306029886E+03  0.39337080731E+03  0.41800000000E+01 0.  1.
        -11    1    1    2    0    0 -0.10383957826E+02 -0.23651462134E+02  0.89704093805E+02  0.93349036880E+02  0.00000000000E+00 0.  1.
         11    1    1    2    0    0  0.27232211815E+02  0.42582360913E+02  0.45877195145E+02  0.68261027356E+02  0.00000000000E+00 0. -1.
</event>
<event>
 7    1  0.2878477E-009  0.1212020E+03  0.7561462E-02  0.1241127E+00
          2   -1    0    0  501    0  0.00000000000E+00  0.00000000000E+00  0.15893348775E+04  0.15893348775E+04  0.00000000000E+00 0. -1.
         -2   -1    0    0    0  501 -0.00000000000E+00 -0.00000000000E+00 -0.11382796741E+02  0.11382796741E+02  0.00000000000E+00 0.  1.
         25    2    1    2    0    0 -0.52600816424E+02 -0.36827226360E+02  0.11716961319E+04  0.11801024565E+04  0.12508753706E+03 0.  0.
          5    1    3    3  502    0 -0.91271519816E+02 -0.97537868974E+01  0.69272056294E+03  0.69878814916E+03  0.41800000000E+01 0.  1.
         -5    1    3    3    0  502  0.38670703392E+02 -0.27073439462E+02  0.47897556892E+03  0.48131430734E+03  0.41800000000E+01 0.  1.
        -11    1    1    2    0    0 -0.16483335571E+02 -0.10357089508E+02  0.34996926498E+02  0.40046903986E+02  0.00000000000E+00 0.  1.
         11    1    1    2    0    0  0.69084151995E+02  0.47184315867E+02  0.37125902238E+03  0.38056831374E+03  0.00000000000E+00 0. -1.
</event>
<event>
 7    1  0.2878477E-009  0.1292379E+03  0.7561462E-02  0.1228591E+00
          1   -1    0    0  501    0  0.00000000000E+00  0.00000000000E+00  0.34706232151E+03  0.34706232151E+03  0.00000000000E+00 0. -1.
         -1   -1    0    0    0  501 -0.00000000000E+00 -0.00000000000E+00 -0.52794197263E+02  0.52794197263E+02  0.00000000000E+00 0.  1.
         25    2    1    2    0    0 -0.29357516504E+01 -0.76801781561E+02  0.12473353614E+03  0.19265015697E+03  0.12509394731E+03 0.  0.
          5    1    3    3  502    0 -0.38232222541E+02 -0.95864196746E+02  0.70475012671E+02  0.12504337995E+03  0.41800000000E+01 0. -1.
         -5    1    3    3    0  502  0.35296470890E+02  0.19062415185E+02  0.54258523474E+02  0.67606777024E+02  0.41800000000E+01 0. -1.
        -11    1    1    2    0    0 -0.39487136659E+02  0.20903894051E+02  0.40395224283E+02  0.60232722775E+02  0.00000000000E+00 0. -1.
         11    1    1    2    0    0  0.42422888310E+02  0.55897887511E+02  0.12913936382E+03  0.14697363903E+03  0.00000000000E+00 0.  1.
</event>
<event>
 7    1  0.2878477E-009  0.8598021E+02  0.7561462E-02  0.1312889E+00
          2   -1    0    0  501    0  0.00000000000E+00  0.00000000000E+00  0.15977519013E+04  0.15977519013E+04  0.00000000000E+00 0. -1.
         -2   -1    0    0    0  501 -0.00000000000E+00 -0.00000000000E+00 -0.11260848271E+02  0.11260848271E+02  0.00000000000E+00 0.  1.
         25    2    1    2    0    0  0.32543038375E+02  0.50026522503E+01  0.13041197575E+04  0.13105191024E+04  0.12509156668E+03 0.  0.
          5    1    3    3  502    0  0.33618980965E+02 -0.30126803670E+02  0.17287290397E+03  0.17871869938E+03  0.41800000000E+01 0.  1.
         -5    1    3    3    0  502 -0.10759425900E+01  0.35129455921E+02  0.11312468535E+04  0.11318004030E+04  0.41800000000E+01 0.  1.
        -11    1    1    2    0    0 -0.35008544886E+02  0.35964308974E+02  0.10421279804E+03  0.11566908407E+03  0.00000000000E+00 0. -1.
         11    1    1    2    0    0  0.24655065106E+01 -0.40966961224E+02  0.17815849756E+03  0.18282456314E+03  0.00000000000E+00 0.  1.
</event>
<event>
 7    1  0.2878477E-009  0.7898428E+02  0.7561462E-02  0.1331959E+00
         -2   -1    0    0    0  501 -0.00000000000E+00  0.00000000000E+00  0.12635191487E+03  0.12635191487E+03  0.00000000000E+00 0.  1.
          2   -1    0    0  501    0  0.00000000000E+00 -0.00000000000E+00 -0.85703607549E+02  0.85703607549E+02  0.00000000000E+00 0. -1.
         25    2    1    2    0    0 -0.43215268696E+02  0.18236241184E+02  0.54894217712E+02  0.14443335273E+03  0.12508996083E+03 0.  0.
          5    1    3    3  502    0 -0.63475396091E+02  0.27853349827E+02  0.83009769031E+02  0.10822674882E+03  0.41800000000E+01 0.  1.
         -5    1    3    3    0  502  0.20260127395E+02 -0.96171086431E+01 -0.28115551318E+02  0.36206603909E+02  0.41800000000E+01 0.  1.
        -11    1    1    2    0    0 -0.19193416864E+01 -0.20433948201E+02 -0.78947869771E+01  0.21989947090E+02  0.00000000000E+00 0. -1.
         11    1    1    2    0    0  0.45134610382E+02  0.21977070172E+01 -0.63511234167E+01  0.45632222597E+02  0.00000000000E+00 0.  1.
</event>
<event>
 7    1  0.3677336E-009  0.7224682E+02  0.7561462E-02  0.1352615E+00
         -2   -1    0    0    0  501 -0.00000000000E+00  0.00000000000E+00  0.10101563917E+03  0.10101563917E+03  0.00000000000E+00 0.  1.
          2   -1    0    0  501    0  0.00000000000E+00 -0.00000000000E+00 -0.12773296209E+03  0.12773296209E+03  0.00000000000E+00 0. -1.
         25    2    1    2    0    0 -0.22396932871E+02 -0.22597901644E+02 -0.26707844843E+02  0.13183323478E+03  0.12511756493E+03 0.  0.
          5    1    3    3  502    0  0.31073728058E+02  0.83980118278E+01  0.32649793672E+02  0.46038946610E+02  0.41800000000E+01 0. -1.
         -5    1    3    3    0  502 -0.53470660929E+02 -0.30995913472E+02 -0.59357638515E+02  0.85794288168E+02  0.41800000000E+01 0. -1.
        -11    1    1    2    0    0  0.19569943395E+02 -0.66769234896E+01  0.41310790250E+02  0.46196811393E+02  0.00000000000E+00 0.  1.
         11    1    1    2    0    0  0.28269894761E+01  0.29274825134E+02 -0.41320268320E+02  0.50718555087E+02  0.00000000000E+00 0. -1.
</event>
<event>
 7    1  0.2878477E-009  0.1155194E+03  0.7561462E-02  0.1250677E+00
         -2   -1    0    0    0  501 -0.00000000000E+00  0.00000000000E+00  0.78594936789E+03  0.78594936789E+03  0.00000000000E+00 0.  1.
          2   -1    0    0  501    0  0.00000000000E+00 -0.00000000000E+00 -0.18371650475E+02  0.18371650475E+02  0.00000000000E+00 0. -1.
         25    2    1    2    0    0 -0.47335630566E+02 -0.25170598517E+01  0.36040794691E+03  0.38443233598E+03  0.12508930906E+03 0.  0.
          5    1    3    3  502    0  0.32873986866E+02  0.27617542260E+02  0.76240841430E+02  0.87598892430E+02  0.41800000000E+01 0.  1.
         -5    1    3    3    0  502 -0.80209617432E+02 -0.30134602112E+02  0.28416710548E+03  0.29683344355E+03  0.41800000000E+01 0.  1.
        -11    1    1    2    0    0  0.30096715232E+02 -0.43544538879E+02  0.23059588769E+03  0.23659332736E+03  0.00000000000E+00 0.  1.
         11    1    1    2    0    0  0.17238915334E+02  0.46061598731E+02  0.17657388282E+03  0.18329535502E+03  0.00000000000E+00 0. -1.
</event>
<event>
 7    1  0.2878477E-009  0.6361232E+02  0.7561462E-02  0.1383269E+00
          3   -1    0    0  501    0  0.00000000000E+00  0.00000000000E+00  0.11341895610E+03  0.11341895610E+03  0.00000000000E+00 0. -1.
         -3   -1    0    0    0  501 -0.00000000000E+00 -0.00000000000E+00 -0.11983841323E+03  0.11983841323E+03  0.00000000000E+00 0.  1.
         25    2    1    2    0    0  0.16143615503E+02 -0.28176721907E+02 -0.35658738779E+02  0.13406738262E+03  0.12509186006E+03 0.  0.
          5    1    3    3  502    0  0.42520199412E+02 -0.21325675339E+02  0.34351572874E+02  0.58823930043E+02  0.41800000000E+01 0.  1.
         -5    1    3    3    0  502 -0.26376583910E+02 -0.68510465684E+01 -0.70010311653E+02  0.75243452577E+02  0.41800000000E+01 0.  1.
        -11    1    1    2    0    0 -0.14962762470E+02  0.38607199611E+02 -0.21999595684E+02  0.46886910037E+02  0.00000000000E+00 0.  1.
         11    1    1    2    0    0 -0.11808530325E+01 -0.10430477704E+02  0.51238877339E+02  0.52303076678E+02  0.00000000000E+00 0. -1.
</event>
<event>
 7    1  0.2878477E-009  0.7163172E+02  0.7561462E-02  0.1354631E+00
         -1   -1    0    0    0  501 -0.00000000000E+00  0.00000000000E+00  0.25473767196E+03  0.25473767196E+03  0.00000000000E+00 0.  1.
          1   -1    0    0  501    0  0.00000000000E+00 -0.00000000000E+00 -0.70563323326E+02  0.70563323326E+02  0.00000000000E+00 0. -1.
         25    2    1    2    0    0 -0.11146189726E+02  0.17225116734E+01  0.19048342545E+03  0.22816229648E+03  0.12508754363E+03 0.  0.
          5    1    3    3  502    0 -0.27298746168E+02 -0.73351371863E+01 -0.72820098438E+01  0.29487723671E+02  0.41800000000E+01 0.  1.
         -5    1    3    3    0  502  0.16152556442E+02  0.90576488597E+01  0.19776543530E+03  0.19867457281E+03  0.41800000000E+01 0.  1.
        -11    1    1    2    0    0 -0.17119984655E+02 -0.42653924068E+02  0.46716190234E+01  0.46198215737E+02  0.00000000000E+00 0.  1.
         11    1    1    2    0    0  0.28266174381E+02  0.40931412394E+02 -0.10980695838E+02  0.50940483074E+02  0.00000000000E+00 0. -1.
</event>
<event>
 7    1  0.2878477E-009  0.1312581E+03  0.7561462E-02  0.1225601E+00
         -1   -1    0    0    0  501 -0.00000000000E+00  0.00000000000E+00  0.27048702045E+02  0.27048702045E+02  0.00000000000E+00 0.  1.
          1   -1    0    0  501    0  0.00000000000E+00 -0.00000000000E+00 -0.85803307916E+03  0.85803307916E+03  0.00000000000E+00 0. -1.
         25    2    1    2    0    0  0.79583122016E+02  0.67115327878E+02 -0.52755579384E+03  0.55208788597E+03  0.12509187692E+03 0.  0.
          5    1    3    3  502    0  0.35322236419E+02 -0.10730802716E+02 -0.36128115917E+03  0.36318639689E+03  0.41800000000E+01 0.  1.
         -5    1    3    3    0  502  0.44260885597E+02  0.77846130594E+02 -0.16627463467E+03  0.18890148908E+03  0.41800000000E+01 0.  1.
        -11    1    1    2    0    0 -0.65150367802E+02 -0.88514307448E+02 -0.26284118974E+03  0.28489444373E+03  0.00000000000E+00 0.  1.
         11    1    1    2    0    0 -0.14432754214E+02  0.21398979569E+02 -0.40587393535E+02  0.48099451502E+02  0.00000000000E+00 0. -1.
</event>
<event>
 7    1  0.2878477E-009  0.6905273E+02  0.7561462E-02  0.1363344E+00
         -2   -1    0    0    0  501 -0.00000000000E+00  0.00000000000E+00  0.97964463139E+02  0.97964463139E+02  0.00000000000E+00 0.  1.
          2   -1    0    0  501    0  0.00000000000E+00 -0.00000000000E+00 -0.13178898054E+03  0.13178898054E+03  0.00000000000E+00 0. -1.
         25    2    1    2    0    0 -0.30442805217E+02  0.20044305853E+02 -0.32552856011E+02  0.13429791874E+03  0.12509078286E+03 0.  0.
          5    1    3    3  502    0  0.16466989623E+02  0.24420932765E+02 -0.68636858785E+02  0.74806647353E+02  0.41800000000E+01 0.  1.
         -5    1    3    3    0  502 -0.46909794840E+02 -0.43766269120E+01  0.36084002773E+02  0.59491271387E+02  0.41800000000E+01 0.  1.
        -11    1    1    2    0    0  0.18085141455E+02 -0.36348713095E+02  0.35136954864E+02  0.53692707905E+02  0.00000000000E+00 0.  1.
         11    1    1    2    0    0  0.12357663762E+02  0.16304407242E+02 -0.36408616249E+02  0.41762817030E+02  0.00000000000E+00 0. -1.
</event>
<event>
 7    1  0.2878477E-009  0.1071030E+03  0.7561462E-02  0.1266031E+00
          3   -1    0    0  501    0  0.00000000000E+00  0.00000000000E+00  0.17637464972E+02  0.17637464972E+02  0.00000000000E+00 0. -1.
         -3   -1    0    0    0  501 -0.00000000000E+00 -0.00000000000E+00 -0.97067247197E+03  0.97067247197E+03  0.00000000000E+00 0.  1.
         25    2    1    2    0    0 -0.71633150638E+02  0.68722165186E+01 -0.59861454090E+03  0.61576568981E+03  0.12509788383E+03 0.  0.
          5    1    3    3  502    0 -0.25740290470E+02  0.39006738783E+02 -0.70594084986E+02  0.84764883407E+02  0.41800000000E+01 0.  1.
         -5    1    3    3    0  502 -0.45892860167E+02 -0.32134522264E+02 -0.52802045591E+03  0.53100080640E+03  0.41800000000E+01 0.  1.
        -11    1    1    2    0    0  0.55767006924E+02 -0.43800921184E+02 -0.17803826216E+03  0.19164055560E+03  0.00000000000E+00 0. -1.
         11    1    1    2    0    0  0.15866143714E+02  0.36928704666E+02 -0.17638220394E+03  0.18090369154E+03  0.00000000000E+00 0.  1.
</event>
<event>
 7    1  0.2878477E-009  0.3999459E+03  0.7561462E-02  0.1043798E+00
          1   -1    0    0  501    0  0.00000000000E+00  0.00000000000E+00  0.10454278862E+04  0.10454278862E+04  0.00000000000E+00 0. -1.
         -1   -1    0    0    0  501 -0.00000000000E+00 -0.00000000000E+00 -0.16091016583E+03  0.16091016583E+03  0.00000000000E+00 0.  1.
         25    2    1    2    0    0 -0.62533367869E+02 -0.38080534835E+03  0.33000400011E+03  0.52294710939E+03  0.12509158125E+03 0.  0.
          5    1    3    3  502    0  0.32640567337E+02 -0.18493637656E+03  0.15568414686E+03  0.24397109664E+03  0.41800000000E+01 0. -1.
         -5    1    3    3    0  502 -0.95173935207E+02 -0.19586897179E+03  0.17431985325E+03  0.27897601275E+03  0.41800000000E+01 0. -1.
        -11    1    1    2    0    0  0.78796916915E+02  0.24240964638E+03  0.30392266205E+03  0.39666153744E+03  0.00000000000E+00 0.  1.
         11    1    1    2    0    0 -0.16263549046E+02  0.13839570198E+03  0.25059105821E+03  0.28672940520E+03  0.00000000000E+00 0. -1.
</event>
<event>
 7    1  0.2878477E-009  0.2019540E+03  0.7561462E-02  0.1148101E+00
         -2   -1    0    0    0  501 -0.00000000000E+00  0.00000000000E+00  0.15585037997E+03  0.15585037997E+03  0.00000000000E+00 0.  1.
          2   -1    0    0  501    0  0.00000000000E+00 -0.00000000000E+00 -0.36958070910E+03  0.36958070910E+03  0.00000000000E+00 0. -1.
         25    2    1    2    0    0 -0.18835250584E+02 -0.18161095238E+03 -0.23232994665E+03  0.32087714493E+03  0.12509050060E+03 0.  0.
          5    1    3    3  502    0 -0.50966532409E+02 -0.17832983141E+02 -0.63105618951E+02  0.83158849539E+02  0.41800000000E+01 0. -1.
         -5    1    3    3    0  502  0.32131281826E+02 -0.16377796924E+03 -0.16922432770E+03  0.23771829539E+03  0.41800000000E+01 0. -1.
        -11    1    1    2    0    0  0.68400869316E+01  0.10795242245E+03 -0.33845313370E+02  0.11334027324E+03  0.00000000000E+00 0.  1.
         11    1    1    2    0    0  0.11995163652E+02  0.73658529930E+02  0.52444930893E+02  0.91213670899E+02  0.00000000000E+00 0. -1.
</event>
<event>
 7    1  0.2878477E-009  0.1086810E+03  0.7561462E-02  0.1263032E+00
         -2   -1    0    0    0  501 -0.00000000000E+00  0.00000000000E+00  0.11681516181E+03  0.11681516181E+03  0.00000000000E+00 0.  1.
          2   -1    0    0  501    0  0.00000000000E+00 -0.00000000000E+00 -0.14608145752E+03  0.14608145752E+03  0.00000000000E+00 0. -1.
         25    2    1    2    0    0 -0.51840798965E+02 -0.49774675983E+02 -0.24205009294E+02  0.14628876968E+03  0.12509810092E+03 0.  0.
          5    1    3    3  502    0 -0.90178376133E+02 -0.50676430504E+02 -0.61820190338E+01  0.10371079929E+03  0.41800000000E+01 0.  1.
         -5    1    3    3    0  502  0.38337577169E+02  0.90175452167E+00 -0.18022990260E+02  0.42577970387E+02  0.41800000000E+01 0.  1.
        -11    1    1    2    0    0  0.32727606613E+02  0.15946287595E+02 -0.46990905165E+02  0.59443464661E+02  0.00000000000E+00 0. -1.
         11    1    1    2    0    0  0.19113192352E+02  0.33828388388E+02  0.41929618748E+02  0.57164384989E+02  0.00000000000E+00 0.  1.
</event>
<event>
 7    1  0.2878477E-009  0.7968899E+02  0.7561462E-02  0.1329936E+00
         -1   -1    0    0    0  501 -0.00000000000E+00  0.00000000000E+00  0.46497362858E+02  0.46497362858E+02  0.00000000000E+00 0.  1.
          1   -1    0    0  501    0  0.00000000000E+00 -0.00000000000E+00 -0.31968719613E+03  0.31968719613E+03  0.00000000000E+00 0. -1.
         25    2    1    2    0    0  0.23462073956E+02  0.46848149890E+02 -0.15212271928E+03  0.20379941585E+03  0.12509061561E+03 0.  0.
          5    1    3    3  502    0  0.27715463569E+02 -0.10082500880E+02 -0.14271368478E+03  0.14578913529E+03  0.41800000000E+01 0.  1.
         -5    1    3    3    0  502 -0.42533896130E+01  0.56930650770E+02 -0.94090345053E+01  0.58010280560E+02  0.41800000000E+01 0.  1.
        -11    1    1    2    0    0 -0.20161212997E+02  0.46943898490E+01 -0.10682101772E+03  0.10880827925E+03  0.00000000000E+00 0. -1.
         11    1    1    2    0    0 -0.33008609592E+01 -0.51542539739E+02 -0.14246096265E+02  0.53576863893E+02  0.00000000000E+00 0.  1.
</event>
<event>
 7    1  0.2878477E-009  0.4586000E+03  0.7561462E-02  0.1025188E+00
          2   -1    0    0  501    0  0.00000000000E+00  0.00000000000E+00  0.98519476438E+03  0.98519476438E+03  0.00000000000E+00 0. -1.
         -2   -1    0    0    0  501 -0.00000000000E+00 -0.00000000000E+00 -0.22865693516E+03  0.22865693516E+03  0.00000000000E+00 0.  1.
         25    2    1    2    0    0 -0.76391327537E+02  0.44908093909E+03  0.47890276969E+03  0.67268508030E+03  0.12509208476E+03 0.  0.
          5    1    3    3  502    0 -0.23503040840E+02  0.87915866909E+02  0.17663475561E+03  0.19874330649E+03  0.41800000000E+01 0.  1.
         -5    1    3    3    0  502 -0.52888286696E+02  0.36116507218E+03  0.30226801407E+03  0.47394177381E+03  0.41800000000E+01 0.  1.
        -11    1    1    2    0    0  0.79682517370E+02 -0.25967996879E+03  0.19565037651E+03  0.33475671703E+03  0.00000000000E+00 0.  1.
         11    1    1    2    0    0 -0.32911898329E+01 -0.18940097030E+03  0.81984683022E+02  0.20640990221E+03  0.00000000000E+00 0. -1.
</event>
<event>
 7    1  0.2878477E-009  0.1416251E+03  0.7561462E-02  0.1211159E+00
          1   -1    0    0  501    0  0.00000000000E+00  0.00000000000E+00  0.19302341832E+03  0.19302341832E+03  0.00000000000E+00 0.  1.
         -1   -1    0    0    0  501 -0.00000000000E+00 -0.00000000000E+00 -0.13653842142E+03  0.13653842142E+03  0.00000000000E+00 0. -1.
         25    2    1    2    0    0  0.52543152123E+02  0.10017158793E+03 -0.11004822598E+02  0.16900274744E+03  0.12508274324E+03 0.  0.
          5    1    3    3  502    0 -0.38999467654E+02  0.33560134643E+02  0.12922143752E+02  0.53213676003E+02  0.41800000000E+01 0. -1.
         -5    1    3    3    0  502  0.91542619777E+02  0.66611453285E+02 -0.23926966350E+02  0.11578907143E+03  0.41800000000E+01 0. -1.
        -11    1    1    2    0    0 -0.28077804437E+01 -0.40766363310E+02  0.72176491872E+02  0.82941099508E+02  0.00000000000E+00 0. -1.
         11    1    1    2    0    0 -0.49735371679E+02 -0.59405224618E+02 -0.46866723820E+01  0.77617992798E+02  0.00000000000E+00 0.  1.
</event>
<event>
 7    1  0.2878477E-009  0.8438603E+02  0.7561462E-02  0.1317046E+00
          1   -1    0    0  501    0  0.00000000000E+00  0.00000000000E+00  0.27477893513E+03  0.27477893513E+03  0.00000000000E+00 0. -1.
         -1   -1    0    0    0  501 -0.00000000000E+00 -0.00000000000E+00 -0.50450765357E+02  0.50450765357E+02  0.00000000000E+00 0.  1.
         25    2    1    2    0    0  0.17825378883E+02 -0.21908405619E+01  0.18631475584E+03  0.22512807443E+03  0.12508764023E+03 0.  0.
          5    1    3    3  502    0  0.34457783595E+02 -0.28764177422E+02  0.10230500260E+02  0.46226099648E+02  0.41800000000E+01 0.  1.
         -5    1    3    3    0  502 -0.16632404712E+02  0.26573336860E+02  0.17608425558E+03  0.17890197479E+03  0.41800000000E+01 0.  1.
        -11    1    1    2    0    0  0.13393032447E+02  0.40494220037E+02  0.12256337657E+02  0.44377618089E+02  0.00000000000E+00 0.  1.
         11    1    1    2    0    0 -0.31218411331E+02 -0.38303379475E+02  0.25757076272E+02  0.55724007961E+02  0.00000000000E+00 0. -1.
</event>
<event>
 7    1  0.2878477E-009  0.2204120E+03  0.7561462E-02  0.1133576E+00
          2   -1    0    0  501    0  0.00000000000E+00  0.00000000000E+00  0.10894834681E+03  0.10894834681E+03  0.00000000000E+00 0. -1.
         -2   -1    0    0    0  501 -0.00000000000E+00 -0.00000000000E+00 -0.65447405158E+03  0.65447405158E+03  0.00000000000E+00 0.  1.
         25    2    1    2    0    0 -0.18882475957E+03 -0.33436648398E+02 -0.67824139239E+02  0.23879204878E+03  0.12509488166E+03 0.  0.
          5    1    3    3  502    0 -0.80999348470E+02  0.45901342984E+02 -0.42745451012E+02  0.10253035513E+03  0.41800000000E+01 0.  1.
         -5    1    3    3    0  502 -0.10782541110E+03 -0.79337991382E+02 -0.25078688226E+02  0.13626169366E+03  0.41800000000E+01 0.  1.
        -11    1    1    2    0    0  0.10819767308E+03  0.66001814965E+02 -0.32607082415E+03  0.34983590210E+03  0.00000000000E+00 0.  1.
         11    1    1    2    0    0  0.80627086485E+02 -0.32565166567E+02 -0.15163074138E+03  0.17479444751E+03  0.00000000000E+00 0. -1.
</event>
<event>
 7    1  0.2878477E-009  0.1077573E+03  0.7561462E-02  0.1264780E+00
          2   -1    0    0  501    0  0.00000000000E+00  0.00000000000E+00  0.10340600382E+03  0.10340600382E+03  0.00000000000E+00 0. -1.
         -2   -1    0    0    0  501 -0.00000000000E+00 -0.00000000000E+00 -0.13663562466E+03  0.13663562466E+03  0.00000000000E+00 0.  1.
         25    2    1    2    0    0  0.22430325309E+01 -0.38678702748E+02 -0.48306756324E+02  0.13958067988E+03  0.12509256672E+03 0.  0.
          5    1    3    3  502    0  0.45696576128E+02  0.24612705183E+02 -0.31569232273E+02  0.60893769407E+02  0.41800000000E+01 0. -1.
         -5    1    3    3    0  502 -0.43453543597E+02 -0.63291407931E+02 -0.16737524050E+02  0.78686910477E+02  0.41800000000E+01 0. -1.
        -11    1    1    2    0    0  0.20071472962E+02 -0.17171231268E+02  0.28479215018E+02  0.38843028952E+02  0.00000000000E+00 0.  1.
         11    1    1    2    0    0 -0.22314505492E+02  0.55849934016E+02 -0.13402079532E+02  0.61617919640E+02  0.00000000000E+00 0. -1.
</event>
<event>
 7    1  0.2878477E-009  0.1203213E+03  0.7561462E-02  0.1242568E+00
          3   -1    0    0  501    0  0.00000000000E+00  0.00000000000E+00  0.15306435206E+03  0.15306435206E+03  0.00000000000E+00 0. -1.
         -3   -1    0    0    0  501 -0.00000000000E+00 -0.00000000000E+00 -0.23951087495E+03  0.23951087495E+03  0.00000000000E+00 0.  1.
         25    2    1    2    0    0 -0.53489242357E+02  0.88994529135E+02 -0.16734769620E+03  0.23331218987E+03  0.12509277059E+03 0.  0.
          5    1    3    3  502    0 -0.72817083179E+02  0.40406529073E+02 -0.34054078994E+02  0.90067574024E+02  0.41800000000E+01 0. -1.
         -5    1    3    3    0  502  0.19327840822E+02  0.48588000062E+02 -0.13329361720E+03  0.14324461584E+03  0.41800000000E+01 0. -1.
        -11    1    1    2    0    0  0.44634181310E+02 -0.82574687209E+02  0.18198600731E+02  0.95613692416E+02  0.00000000000E+00 0.  1.
         11    1    1    2    0    0  0.88550610469E+01 -0.64198419254E+01  0.62702572580E+02  0.63649344731E+02  0.00000000000E+00 0. -1.
</event>
<event>
 7    1  0.2878477E-009  0.1634879E+03  0.7561462E-02  0.1184814E+00
          2   -1    0    0  501    0  0.00000000000E+00  0.00000000000E+00  0.26223614835E+03  0.26223614835E+03  0.00000000000E+00 0. -1.
         -2   -1    0    0    0  501 -0.00000000000E+00 -0.00000000000E+00 -0.12864627791E+03  0.12864627791E+03  0.00000000000E+00 0.  1.
         25    2    1    2    0    0 -0.13974844119E+03  0.28007083354E+02  0.29510824302E+02  0.19191473783E+03  0.12508538808E+03 0.  0.
          5    1    3    3  502    0 -0.40037692506E+02  0.61188768935E+02 -0.19633604102E+02  0.75828972530E+02  0.41800000000E+01 0.  1.
         -5    1    3    3    0  502 -0.99710748683E+02 -0.33181685581E+02  0.49144428404E+02  0.11608576530E+03  0.41800000000E+01 0.  1.
        -11    1    1    2    0    0  0.36021026927E+02 -0.26682117197E+02  0.81180313384E+02  0.92734529923E+02  0.00000000000E+00 0.  1.
         11    1    1    2    0    0  0.10372741426E+03 -0.13249661566E+01  0.22898732755E+02  0.10623315851E+03  0.00000000000E+00 0. -1.
</event>
<event>
 7    1  0.2878477E-009  0.1392882E+03  0.7561462E-02  0.1214290E+00
         -2   -1    0    0    0  501 -0.00000000000E+00  0.00000000000E+00  0.30968941687E+02  0.30968941687E+02  0.00000000000E+00 0.  1.
          2   -1    0    0  501    0  0.00000000000E+00 -0.00000000000E+00 -0.80280966022E+03  0.80280966022E+03  0.00000000000E+00 0. -1.
         25    2    1    2    0    0  0.10510157313E+03 -0.47797180476E+01 -0.61289279328E+03  0.63431368326E+03  0.12508831415E+03 0.  0.
          5    1    3    3  502    0 -0.23444128579E+02 -0.17744832057E+02 -0.66365038480E+02  0.72706925131E+02  0.41800000000E+01 0.  1.
         -5    1    3    3    0  502  0.12854570171E+03  0.12965114010E+02 -0.54652775480E+03  0.56160675812E+03  0.41800000000E+01 0.  1.
        -11    1    1    2    0    0 -0.68921658104E+02  0.30350802122E+02 -0.11148550628E+03  0.13453766854E+03  0.00000000000E+00 0.  1.
         11    1    1    2    0    0 -0.36179915025E+02 -0.25571084075E+02 -0.47462418977E+02  0.64927250112E+02  0.00000000000E+00 0. -1.
</event>
<event>
 7    1  0.2878477E-009  0.2015897E+03  0.7561462E-02  0.1148405E+00
         -1   -1    0    0    0  501 -0.00000000000E+00  0.00000000000E+00  0.20829899598E+03  0.20829899598E+03  0.00000000000E+00 0.  1.
          1   -1    0    0  501    0  0.00000000000E+00 -0.00000000000E+00 -0.23206497388E+03  0.23206497388E+03  0.00000000000E+00 0. -1.
         25    2    1    2    0    0 -0.28096204258E+02 -0.17094652346E+03  0.68449023584E+02  0.22437454541E+03  0.12508619917E+03 0.  0.
          5    1    3    3  502    0 -0.19678552669E+02 -0.18897437759E+03  0.49041627321E+02  0.19626796588E+03  0.41800000000E+01 0.  1.
         -5    1    3    3    0  502 -0.84176515889E+01  0.18027854136E+02  0.19407396263E+02  0.28106579528E+02  0.41800000000E+01 0.  1.
        -11    1    1    2    0    0 -0.30210362527E+02  0.47669831950E+02 -0.43220571419E+02  0.71085136814E+02  0.00000000000E+00 0.  1.
         11    1    1    2    0    0  0.58306566786E+02  0.12327669151E+03 -0.48994430067E+02  0.14490428764E+03  0.00000000000E+00 0. -1.
</event>
<event>
 7    1  0.2878477E-009  0.1116762E+03  0.7561462E-02  0.1257497E+00
          1   -1    0    0  501    0  0.00000000000E+00  0.00000000000E+00  0.11574067195E+03  0.11574067195E+03  0.00000000000E+00 0. -1.
         -1   -1    0    0    0  501 -0.00000000000E+00 -0.00000000000E+00 -0.19832461911E+03  0.19832461911E+03  0.00000000000E+00 0.  1.
         25    2    1    2    0    0  0.33959563063E+02  0.58082595871E+02  0.38638429334E+02  0.14719770099E+03  0.12508954828E+03 0.  0.
          5    1    3    3  502    0  0.58650470318E+02  0.15329809088E+02 -0.25713564801E+02  0.65981365021E+02  0.41800000000E+01 0. -1.
         -5    1    3    3    0  502 -0.24690907256E+02  0.42752786782E+02  0.64351994134E+02  0.81216335967E+02  0.41800000000E+01 0. -1.
        -11    1    1    2    0    0 -0.57129850229E+02 -0.67145470566E+02 -0.81883381259E+02  0.12032132866E+03  0.00000000000E+00 0. -1.
         11    1    1    2    0    0  0.23170287166E+02  0.90628746950E+01 -0.39338995238E+02  0.46546261412E+02  0.00000000000E+00 0.  1.
</event>
<event>
 7    1  0.2878477E-009  0.9242832E+02  0.7561462E-02  0.1297075E+00
         -2   -1    0    0    0  501 -0.00000000000E+00  0.00000000000E+00  0.49586321070E+02  0.49586321070E+02  0.00000000000E+00 0.  1.
          2   -1    0    0  501    0  0.00000000000E+00 -0.00000000000E+00 -0.35222617247E+03  0.35222617247E+03  0.00000000000E+00 0. -1.
         25    2    1    2    0    0  0.53257787230E+02 -0.53155787170E+02 -0.16329613935E+03  0.21903210129E+03  0.12508997824E+03 0.  0.
          5    1    3    3  502    0  0.16582337892E+02 -0.67704176563E+02 -0.16515610276E+03  0.17931213047E+03  0.41800000000E+01 0. -1.
         -5    1    3    3    0  502  0.36675449338E+02  0.14548389394E+02  0.18599634079E+01  0.39719970820E+02  0.41800000000E+01 0. -1.
        -11    1    1    2    0    0 -0.71936544650E+01  0.92001182140E+01  0.13114516508E+02  0.17560791069E+02  0.00000000000E+00 0.  1.
         11    1    1    2    0    0 -0.46064132765E+02  0.43955668955E+02 -0.15245822856E+03  0.16521960118E+03  0.00000000000E+00 0. -1.
</event>
<event>
 7    1  0.2878477E-009  0.1617616E+03  0.7561462E-02  0.1186722E+00
         -2   -1    0    0    0  501 -0.00000000000E+00  0.00000000000E+00  0.15674937952E+03  0.15674937952E+03  0.00000000000E+00 0.  1.
          2   -1    0    0  501    0  0.00000000000E+00 -0.00000000000E+00 -0.21947191441E+03  0.21947191441E+03  0.00000000000E+00 0. -1.
         25    2    1    2    0    0 -0.52302052461E+02  0.12024643635E+03  0.39896184775E+02  0.18556639744E+03  0.12509385338E+03 0.  0.
          5    1    3    3  502    0 -0.51891194653E+01  0.12307286641E+03 -0.57220233764E+00  0.12325444098E+03  0.41800000000E+01 0.  1.
         -5    1    3    3    0  502 -0.47112932995E+02 -0.28264300535E+01  0.40468387112E+02  0.62311956459E+02  0.41800000000E+01 0.  1.
        -11    1    1    2    0    0  0.48305711510E+02 -0.19549729473E+02 -0.85715347690E+01  0.52811976816E+02  0.00000000000E+00 0.  1.
         11    1    1    2    0    0  0.39963409511E+01 -0.10069670688E+03 -0.94047184899E+02  0.13784291968E+03  0.00000000000E+00 0. -1.
</event>
<event>
 7    1  0.2878477E-009  0.9586026E+02  0.7561462E-02  0.1289250E+00
         -1   -1    0    0    0  501 -0.00000000000E+00  0.00000000000E+00  0.17278643394E+02  0.17278643394E+02  0.00000000000E+00 0.  1.
          1   -1    0    0  501    0  0.00000000000E+00 -0.00000000000E+00 -0.11867195756E+04  0.11867195756E+04  0.00000000000E+00 0. -1.
         25    2    1    2    0    0  0.53213201860E+02 -0.22200738918E+02 -0.94783517578E+03  0.95779079720E+03  0.12508866091E+03 0.  0.
          5    1    3    3  502    0 -0.28875171893E+02  0.16155684230E+02 -0.48538209924E+03  0.48652650118E+03  0.41800000000E+01 0. -1.
         -5    1    3    3    0  502  0.82088373753E+02 -0.38356423148E+02 -0.46245307654E+03  0.47126429602E+03  0.41800000000E+01 0. -1.
        -11    1    1    2    0    0 -0.17146833840E+02 -0.95398300970E+01 -0.17322186085E+00  0.19622748911E+02  0.00000000000E+00 0.  1.
         11    1    1    2    0    0 -0.36066368020E+02  0.31740569015E+02 -0.22143253461E+03  0.22658467293E+03  0.00000000000E+00 0. -1.
</event>
<event>
 7    1  0.2878477E-009  0.1022243E+03  0.7561462E-02  0.1275687E+00
         -1   -1    0    0    0  501 -0.00000000000E+00  0.00000000000E+00  0.39005250779E+02  0.39005250779E+02  0.00000000000E+00 0.  1.
          1   -1    0    0  501    0  0.00000000000E+00 -0.00000000000E+00 -0.36335317475E+03  0.36335317475E+03  0.00000000000E+00 0. -1.
         25    2    1    2    0    0  0.63524400974E+01  0.18451182602E+02 -0.24477232042E+03  0.27557874195E+03  0.12509738020E+03 0.  0.
          5    1    3    3  502    0 -0.44051626822E+02 -0.30364727973E+02 -0.13446103046E+03  0.14477501043E+03  0.41800000000E+01 0. -1.
         -5    1    3    3    0  502  0.50404066919E+02  0.48815910575E+02 -0.11031128996E+03  0.13080373152E+03  0.41800000000E+01 0. -1.
        -11    1    1    2    0    0 -0.24542081730E+02  0.23987326002E+02 -0.72308506041E+02  0.80038900732E+02  0.00000000000E+00 0. -1.
         11    1    1    2    0    0  0.18189641633E+02 -0.42438508604E+02 -0.72670975061E+01  0.46740782850E+02  0.00000000000E+00 0.  1.
</event>
<event>
 7    1  0.2878477E-009  0.8690591E+02  0.7561462E-02  0.1310522E+00
          2   -1    0    0  501    0  0.00000000000E+00  0.00000000000E+00  0.19614441760E+03  0.19614441760E+03  0.00000000000E+00 0. -1.
         -2   -1    0    0    0  501 -0.00000000000E+00 -0.00000000000E+00 -0.66625739905E+02  0.66625739905E+02  0.00000000000E+00 0.  1.
         25    2    1    2    0    0 -0.41188543849E+02  0.22349289259E+02  0.73649365809E+02  0.15253820422E+03  0.12509071823E+03 0.  0.
          5    1    3    3  502    0 -0.67801688543E+02  0.20031792444E+02  0.94712421061E+02  0.11826350570E+03  0.41800000000E+01 0. -1.
         -5    1    3    3    0  502  0.26613144694E+02  0.23174968153E+01 -0.21063055252E+02  0.34274698519E+02  0.41800000000E+01 0. -1.
        -11    1    1    2    0    0 -0.18430838124E+00 -0.33182378167E+02 -0.72715897295E+01  0.33970284185E+02  0.00000000000E+00 0.  1.
         11    1    1    2    0    0  0.41372852230E+02  0.10833088908E+02  0.63140901620E+02  0.76261669103E+02  0.00000000000E+00 0. -1.
</event>
<event>
 7    1  0.2878477E-009  0.1512521E+03  0.7561462E-02  0.1198943E+00
         -1   -1    0    0    0  501 -0.00000000000E+00  0.00000000000E+00  0.85030041514E+03  0.85030041514E+03  0.00000000000E+00 0.  1.
          1   -1    0    0  501    0  0.00000000000E+00 -0.00000000000E+00 -0.46366813682E+02  0.46366813682E+02  0.00000000000E+00 0. -1.
         25    2    1    2    0    0 -0.10779235360E+03  0.74404099779E+02  0.66277388501E+03  0.68707472935E+03  0.12508916621E+03 0.  0.
          5    1    3    3  502    0 -0.13169444540E+02 -0.22133566226E+02  0.28909055623E+02  0.38942713315E+02  0.41800000000E+01 0.  1.
         -5    1    3    3    0  502 -0.94622909060E+02  0.96537666004E+02  0.63386482938E+03  0.64813201603E+03  0.41800000000E+01 0.  1.
        -11    1    1    2    0    0  0.56269216815E+02 -0.69486324935E+02  0.12809058250E+03  0.15621066365E+03  0.00000000000E+00 0.  1.
         11    1    1    2    0    0  0.51523136784E+02 -0.49177748436E+01  0.13069133953E+02  0.53381835823E+02  0.00000000000E+00 0. -1.
</event>
<event>
 7    1  0.2878477E-009  0.1188968E+03  0.7561462E-02  0.1244928E+00
         -2   -1    0    0    0  501 -0.00000000000E+00  0.00000000000E+00  0.65752067467E+02  0.65752067467E+02  0.00000000000E+00 0. -1.
          2   -1    0    0  501    0  0.00000000000E+00 -0.00000000000E+00 -0.26714601313E+03  0.26714601313E+03  0.00000000000E+00 0.  1.
         25    2    1    2    0    0  0.11849287646E+02 -0.74196733174E+02 -0.90010915768E+02  0.17144999522E+03  0.12509026769E+03 0.  0.
          5    1    3    3  502    0 -0.43747384810E+02 -0.41572539611E+02  0.20134270453E+00  0.60494815202E+02  0.41800000000E+01 0. -1.
         -5    1    3    3    0  502  0.55596672456E+02 -0.32624193563E+02 -0.90212258472E+02  0.11095518002E+03  0.41800000000E+01 0. -1.
        -11    1    1    2    0    0 -0.40470305942E+02  0.89419963439E+01 -0.21327332362E+02  0.46611801803E+02  0.00000000000E+00 0. -1.
         11    1    1    2    0    0  0.28621018296E+02  0.65254736830E+02 -0.90055697534E+02  0.11483628358E+03  0.00000000000E+00 0.  1.
</event>
<event>
 7    1  0.2878477E-009  0.8556707E+02  0.7561462E-02  0.1313956E+00
          1   -1    0    0  501    0  0.00000000000E+00  0.00000000000E+00  0.52030318404E+03  0.52030318404E+03  0.00000000000E+00 0.  1.
         -1   -1    0    0    0  501 -0.00000000000E+00 -0.00000000000E+00 -0.33423621226E+02  0.33423621226E+02  0.00000000000E+00 0. -1.
         25    2    1    2    0    0  0.46195484230E+02 -0.38112432572E+02  0.33127096178E+03  0.35913563239E+03  0.12510544373E+03 0.  0.
          5    1    3    3  502    0  0.68125270472E+02 -0.49565929088E+02  0.32121217773E+03  0.33210325100E+03  0.41800000000E+01 0. -1.
         -5    1    3    3    0  502 -0.21929786242E+02  0.11453496516E+02  0.10058784058E+02  0.27032381393E+02  0.41800000000E+01 0. -1.
        -11    1    1    2    0    0 -0.31147797268E+02  0.16199629741E+02 -0.16058479168E+01  0.35145298774E+02  0.00000000000E+00 0. -1.
         11    1    1    2    0    0 -0.15047686962E+02  0.21912802830E+02  0.15721444895E+03  0.15944587411E+03  0.00000000000E+00 0.  1.
</event>
<event>
 7    1  0.2878477E-009  0.9371917E+02  0.7561462E-02  0.1294087E+00
          2   -1    0    0  501    0  0.00000000000E+00  0.00000000000E+00  0.14449147846E+02  0.14449147846E+02  0.00000000000E+00 0. -1.
         -2   -1    0    0    0  501 -0.00000000000E+00 -0.00000000000E+00 -0.10789179358E+04  0.10789179358E+04  0.00000000000E+00 0.  1.
         25    2    1    2    0    0 -0.98749926624E+01 -0.43034946593E+02 -0.59157255631E+03  0.60626435130E+03  0.12509537233E+03 0.  0.
          5    1    3    3  502    0  0.12544093362E+02 -0.45937502288E+02 -0.57714818741E+03  0.57912443484E+03  0.41800000000E+01 0.  1.
         -5    1    3    3    0  502 -0.22419086025E+02  0.29025556943E+01 -0.14424368894E+02  0.27139916465E+02  0.41800000000E+01 0.  1.
        -11    1    1    2    0    0 -0.63773296219E+01 -0.35693094644E+02 -0.13630848917E+03  0.14104847237E+03  0.00000000000E+00 0.  1.
         11    1    1    2    0    0  0.16252322284E+02  0.78728041238E+02 -0.33658774246E+03  0.34605425996E+03  0.00000000000E+00 0. -1.
</event>
<event>
 7    1  0.2878477E-009  0.1052944E+03  0.7561462E-02  0.1269541E+00
          1   -1    0    0  501    0  0.00000000000E+00  0.00000000000E+00  0.47048520523E+03  0.47048520523E+03  0.00000000000E+00 0. -1.
         -1   -1    0    0    0  501 -0.00000000000E+00 -0.00000000000E+00 -0.29040479871E+02  0.29040479871E+02  0.00000000000E+00 0.  1.
         25    2    1    2    0    0 -0.61036347944E+01 -0.42613469616E+02  0.26992245955E+03  0.30059649469E+03  0.12508779436E+03 0.  0.
          5    1    3    3  502    0 -0.99284043896E+01  0.34987944879E+02  0.17029557833E+03  0.17418606689E+03  0.41800000000E+01 0. -1.
         -5    1    3    3    0  502  0.38247695952E+01 -0.77601414495E+02  0.99626881221E+02  0.12641042780E+03  0.41800000000E+01 0. -1.
        -11    1    1    2    0    0 -0.39049309274E+02  0.95277399174E+01  0.10225105980E+03  0.10986767319E+03  0.00000000000E+00 0. -1.
         11    1    1    2    0    0  0.45152944068E+02  0.33085729699E+02  0.69271206014E+02  0.89061517224E+02  0.00000000000E+00 0.  1.
</event>
<event>
 7    1  0.2878477E-009  0.8479200E+02  0.7561462E-02  0.1315977E+00
          2   -1    0    0  501    0  0.00000000000E+00  0.00000000000E+00  0.70047445502E+03  0.70047445502E+03  0.00000000000E+00 0. -1.
         -2   -1    0    0    0  501 -0.00000000000E+00 -0.00000000000E+00 -0.22909178407E+02  0.22909178407E+02  0.00000000000E+00 0.  1.
         25    2    1    2    0    0 -0.29436159171E+02 -0.45666970465E+02  0.48087558781E+03  0.49984143624E+03  0.12509264879E+03 0.  0.
          5    1    3    3  502    0  0.25140258148E+02 -0.36536292638E+02  0.56967923591E+02  0.72317010293E+02  0.41800000000E+01 0.  1.
         -5    1    3    3    0  502 -0.54576417319E+02 -0.91306778262E+01  0.42390766422E+03  0.42752442595E+03  0.41800000000E+01 0.  1.
        -11    1    1    2    0    0  0.25124179872E+02  0.15011984120E+01  0.36074853303E+01  0.25426206192E+02  0.00000000000E+00 0.  1.
         11    1    1    2    0    0  0.43119792987E+01  0.44165772053E+02  0.19308220347E+03  0.19811599099E+03  0.00000000000E+00 0. -1.
</event>
<event>
 7    1  0.2878477E-009  0.1610519E+03  0.7561462E-02  0.1187514E+00
          1   -1    0    0  501    0  0.00000000000E+00  0.00000000000E+00  0.20016986412E+03  0.20016986412E+03  0.00000000000E+00 0. -1.
         -1   -1    0    0    0  501 -0.00000000000E+00 -0.00000000000E+00 -0.15795284155E+03  0.15795284155E+03  0.00000000000E+00 0.  1.
         25    2    1    2    0    0  0.55920281547E+02 -0.12646008298E+03 -0.93563953371E+01  0.18669376115E+03  0.12509111815E+03 0.  0.
          5    1    3    3  502    0  0.81249939271E+02 -0.11478969228E+03 -0.38774415700E+02  0.14594229612E+03  0.41800000000E+01 0. -1.
         -5    1    3    3    0  502 -0.25329657723E+02 -0.11670390705E+02  0.29418020363E+02  0.40751465025E+02  0.41800000000E+01 0. -1.
        -11    1    1    2    0    0 -0.25670340517E+02  0.27104838926E+01 -0.12668643977E+02  0.28754263082E+02  0.00000000000E+00 0.  1.
         11    1    1    2    0    0 -0.30249941030E+02  0.12374959909E+03  0.64242061882E+02  0.14267468143E+03  0.00000000000E+00 0. -1.
</event>
<event>
 7    1  0.2878477E-009  0.1256569E+03  0.7561462E-02  0.1234046E+00
          1   -1    0    0  501    0  0.00000000000E+00  0.00000000000E+00  0.59768694699E+02  0.59768694699E+02  0.00000000000E+00 0. -1.
         -1   -1    0    0    0  501 -0.00000000000E+00 -0.00000000000E+00 -0.32660627752E+03  0.32660627752E+03  0.00000000000E+00 0.  1.
         25    2    1    2    0    0 -0.63540154970E+02 -0.25277941548E+02 -0.21935293431E+03  0.26160875244E+03  0.12508838452E+03 0.  0.
          5    1    3    3  502    0  0.34121465024E+02 -0.17028827590E+02 -0.31319453213E+02  0.49524094076E+02  0.41800000000E+01 0. -1.
         -5    1    3    3    0  502 -0.97661619994E+02 -0.82491139574E+01 -0.18803348109E+03  0.21208465836E+03  0.41800000000E+01 0. -1.
        -11    1    1    2    0    0  0.38107825074E+02 -0.33543722707E+02 -0.15112022060E+02  0.52969433409E+02  0.00000000000E+00 0.  1.
         11    1    1    2    0    0  0.25432329896E+02  0.58821664255E+02 -0.32372626455E+02  0.71796786371E+02  0.00000000000E+00 0. -1.
</event>
<event>
 7    1  0.2878477E-009  0.2100653E+03  0.7561462E-02  0.1141514E+00
         -1   -1    0    0    0  501 -0.00000000000E+00  0.00000000000E+00  0.64021777840E+02  0.64021777840E+02  0.00000000000E+00 0.  1.
          1   -1    0    0  501    0  0.00000000000E+00 -0.00000000000E+00 -0.76668177830E+03  0.76668177830E+03  0.00000000000E+00 0. -1.
         25    2    1    2    0    0 -0.17730752178E+03 -0.59056241249E+02 -0.46087520145E+03  0.51281494185E+03  0.12509043274E+03 0.  0.
          5    1    3    3  502    0 -0.27167676029E+02 -0.57403476476E+02 -0.72876623245E+02  0.96755962855E+02  0.41800000000E+01 0. -1.
         -5    1    3    3    0  502 -0.15013984575E+03 -0.16527647728E+01 -0.38799857820E+03  0.41605897899E+03  0.41800000000E+01 0. -1.
        -11    1    1    2    0    0  0.25209433801E+02 -0.22415805359E+02 -0.43339662834E+02  0.54920945522E+02  0.00000000000E+00 0.  1.
         11    1    1    2    0    0  0.15209808798E+03  0.81472046607E+02 -0.19844513618E+03  0.26296766877E+03  0.00000000000E+00 0. -1.
</event>
<event>
 7    1  0.2878477E-009  0.8475383E+02  0.7561462E-02  0.1316078E+00
          2   -1    0    0  501    0  0.00000000000E+00  0.00000000000E+00  0.53812430534E+03  0.53812430534E+03  0.00000000000E+00 0.  1.
         -2   -1    0    0    0  501 -0.00000000000E+00 -0.00000000000E+00 -0.24562581335E+02  0.24562581335E+02  0.00000000000E+00 0. -1.
         25    2    1    2    0    0  0.18446472676E+02 -0.25030597118E+02  0.35059375902E+03  0.37353819303E+03  0.12509194474E+03 0.  0.
          5    1    3    3  502    0  0.37573198182E+02  0.23897284956E+02  0.45041736517E+02  0.63474844453E+02  0.41800000000E+01 0. -1.
         -5    1    3    3    0  502 -0.19126725506E+02 -0.48927882074E+02  0.30555202250E+03  0.31006334857E+03  0.41800000000E+01 0. -1.
        -11    1    1    2    0    0 -0.83432640851E+01 -0.22235675114E+02  0.12621075893E+03  0.12842581895E+03  0.00000000000E+00 0.  1.
         11    1    1    2    0    0 -0.10103208591E+02  0.47266272233E+02  0.36757206053E+02  0.60722874697E+02  0.00000000000E+00 0. -1.
</event>
<event>
 7    1  0.2878477E-009  0.1717944E+03  0.7561462E-02  0.1175989E+00
          1   -1    0    0  501    0  0.00000000000E+00  0.00000000000E+00  0.75116023466E+03  0.75116023466E+03  0.00000000000E+00 0. -1.
         -1   -1    0    0    0  501 -0.00000000000E+00 -0.00000000000E+00 -0.48647590951E+02  0.48647590951E+02  0.00000000000E+00 0.  1.
         25    2    1    2    0    0 -0.26343311745E+02  0.14994307838E+03  0.44786580876E+03  0.48929337541E+03  0.12508927908E+03 0.  0.
          5    1    3    3  502    0  0.36270508548E+02  0.46590229852E+02  0.25404955254E+03  0.26085407195E+03  0.41800000000E+01 0.  1.
         -5    1    3    3    0  502 -0.62613820293E+02  0.10335284853E+03  0.19381625622E+03  0.22843930346E+03  0.41800000000E+01 0.  1.
        -11    1    1    2    0    0 -0.61622840373E+01 -0.11714730663E+03  0.22996195611E+03  0.25815492723E+03  0.00000000000E+00 0. -1.
         11    1    1    2    0    0  0.32505595782E+02 -0.32795771751E+02  0.24684878841E+02  0.52359522967E+02  0.00000000000E+00 0.  1.
</event>
<event>
 7    1  0.2878477E-009  0.1074996E+03  0.7561462E-02  0.1265271E+00
         -1   -1    0    0    0  501 -0.00000000000E+00  0.00000000000E+00  0.89892192115E+02  0.89892192115E+02  0.00000000000E+00 0.  1.
          1   -1    0    0  501    0  0.00000000000E+00 -0.00000000000E+00 -0.20167408421E+03  0.20167408421E+03  0.00000000000E+00 0. -1.
         25    2    1    2    0    0 -0.73274663124E+02 -0.34697464909E+02 -0.68138920413E+02  0.16389978985E+03  0.12508852189E+03 0.  0.
          5    1    3    3  502    0 -0.50670701934E+02 -0.66236503786E+02  0.21223895463E+01  0.83527069898E+02  0.41800000000E+01 0. -1.
         -5    1    3    3    0  502 -0.22603961191E+02  0.31539038877E+02 -0.70261309960E+02  0.80372719949E+02  0.41800000000E+01 0. -1.
        -11    1    1    2    0    0  0.43446754622E+02 -0.39802276444E+01  0.19540908574E+02  0.47804914049E+02  0.00000000000E+00 0.  1.
         11    1    1    2    0    0  0.29827908502E+02  0.38677692553E+02 -0.63183880255E+02  0.79861572430E+02  0.00000000000E+00 0. -1.
</event>
<event>
 7    1  0.2878477E-009  0.6847790E+02  0.7561462E-02  0.1365347E+00
         -2   -1    0    0    0  501 -0.00000000000E+00  0.00000000000E+00  0.17145904589E+02  0.17145904589E+02  0.00000000000E+00 0. -1.
          2   -1    0    0  501    0  0.00000000000E+00 -0.00000000000E+00 -0.73235684615E+03  0.73235684615E+03  0.00000000000E+00 0.  1.
         25    2    1    2    0    0 -0.28304524748E+02 -0.10041430377E+02 -0.35835911741E+03  0.38075174130E+03  0.12509458432E+03 0.  0.
          5    1    3    3  502    0 -0.45245807791E+01 -0.21122564503E+02 -0.60307028420E+00  0.22010694132E+02  0.41800000000E+01 0. -1.
         -5    1    3    3    0  502 -0.23779943969E+02  0.11081134126E+02 -0.35775604712E+03  0.35874104717E+03  0.41800000000E+01 0. -1.
        -11    1    1    2    0    0  0.30559757884E+02  0.44429896192E+02 -0.26959449345E+03  0.27493472930E+03  0.00000000000E+00 0.  1.
         11    1    1    2    0    0 -0.22552331362E+01 -0.34388465816E+02 -0.87257330709E+02  0.93816280144E+02  0.00000000000E+00 0. -1.
</event>
<event>
 7    1  0.2878477E-009  0.9286088E+02  0.7561462E-02  0.1296068E+00
          2   -1    0    0  501    0  0.00000000000E+00  0.00000000000E+00  0.47517810911E+03  0.47517810911E+03  0.00000000000E+00 0. -1.
         -2   -1    0    0    0  501 -0.00000000000E+00 -0.00000000000E+00 -0.34073421876E+02  0.34073421876E+02  0.00000000000E+00 0.  1.
         25    2    1    2    0    0  0.50976813312E+02  0.23432644249E+02  0.20230654723E+03  0.24438659209E+03  0.12509653484E+03 0.  0.
          5    1    3    3  502    0  0.48408098029E+02 -0.11363491325E+02  0.20319776202E+03  0.20923497743E+03  0.41800000000E+01 0. -1.
         -5    1    3    3    0  502  0.25687152837E+01  0.34796135573E+02 -0.89121479421E+00  0.35151614655E+02  0.41800000000E+01 0. -1.
        -11    1    1    2    0    0  0.21331236268E+01 -0.43762245680E+02  0.17025593606E+03  0.17580320852E+03  0.00000000000E+00 0. -1.
         11    1    1    2    0    0 -0.53109936939E+02  0.20329601431E+02  0.68542203952E+02  0.89061730382E+02  0.00000000000E+00 0.  1.
</event>
<event>
 7    1  0.3095697E-009  0.1565130E+03  0.7561462E-02  0.1192691E+00
          2   -1    0    0  501    0  0.00000000000E+00  0.00000000000E+00  0.50656104797E+03  0.50656104797E+03  0.00000000000E+00 0.  1.
         -2   -1    0    0    0  501 -0.00000000000E+00 -0.00000000000E+00 -0.56913081034E+02  0.56913081034E+02  0.00000000000E+00 0. -1.
         25    2    1    2    0    0  0.10008283932E+03 -0.83679707680E+02  0.24822459376E+03  0.30705284249E+03  0.12508849239E+03 0.  0.
          5    1    3    3  502    0  0.29899429437E+02  0.30801102288E+02  0.87667762682E+02  0.97702573131E+02  0.41800000000E+01 0. -1.
         -5    1    3    3    0  502  0.70183409886E+02 -0.11448080997E+03  0.16055683108E+03  0.20935026936E+03  0.41800000000E+01 0. -1.
        -11    1    1    2    0    0 -0.28800989594E+02  0.47386993598E+01  0.62741517985E+00  0.29194964001E+02  0.00000000000E+00 0. -1.
         11    1    1    2    0    0 -0.71281849729E+02  0.78941008320E+02  0.20079595800E+03  0.22722632252E+03  0.00000000000E+00 0.  1.
</event>
<event>
 7    1  0.2878477E-009  0.9642514E+02  0.7561462E-02  0.1287998E+00
         -1   -1    0    0    0  501 -0.00000000000E+00  0.00000000000E+00  0.20740167665E+02  0.20740167665E+02  0.00000000000E+00 0.  1.
          1   -1    0    0  501    0  0.00000000000E+00 -0.00000000000E+00 -0.62424902129E+03  0.62424902129E+03  0.00000000000E+00 0. -1.
         25    2    1    2    0    0  0.24017183932E+02  0.10005648895E+02 -0.24231263726E+03  0.27392762713E+03  0.12507594732E+03 0.  0.
          5    1    3    3  502    0 -0.10953617305E+02  0.51890935420E+02 -0.19321944744E+03  0.20040927668E+03  0.41800000000E+01 0. -1.
         -5    1    3    3    0  502  0.34970801236E+02 -0.41885286525E+02 -0.49093189818E+02  0.73518350450E+02  0.41800000000E+01 0. -1.
        -11    1    1    2    0    0 -0.53967741785E+02 -0.23786724243E+01 -0.22256208437E+03  0.22902413985E+03  0.00000000000E+00 0.  1.
         11    1    1    2    0    0  0.29950557854E+02 -0.76269764708E+01 -0.13863413200E+03  0.14203742198E+03  0.00000000000E+00 0. -1.
</event>
<event>
 7    1  0.2878477E-009  0.9260539E+02  0.7561462E-02  0.1296662E+00
          2   -1    0    0  501    0  0.00000000000E+00  0.00000000000E+00  0.45314590247E+03  0.45314590247E+03  0.00000000000E+00 0. -1.
         -2   -1    0    0    0  501 -0.00000000000E+00 -0.00000000000E+00 -0.43238987470E+02  0.43238987470E+02  0.00000000000E+00 0.  1.
         25    2    1    2    0    0 -0.26680336424E+02 -0.60935080059E+02  0.32526120774E+03  0.35477789796E+03  0.12509028455E+03 0.  0.
          5    1    3    3  502    0  0.10706885945E+02 -0.18492090675E+01 -0.80708206453E+01  0.14165716597E+02  0.41800000000E+01 0. -1.
         -5    1    3    3    0  502 -0.37387222369E+02 -0.59085870992E+02  0.33333202838E+03  0.34061218137E+03  0.41800000000E+01 0. -1.
        -11    1    1    2    0    0 -0.37663544068E+01  0.71270655809E+02  0.28386932053E+02  0.76808265938E+02  0.00000000000E+00 0.  1.
         11    1    1    2    0    0  0.30446690831E+02 -0.10335575750E+02  0.56258775212E+02  0.64798726045E+02  0.00000000000E+00 0. -1.
</event>
<event>
 7    1  0.2878477E-009  0.1453184E+03  0.7561462E-02  0.1206347E+00
          1   -1    0    0  501    0  0.00000000000E+00  0.00000000000E+00  0.13610375313E+04  0.13610375313E+04  0.00000000000E+00 0. -1.
         -1   -1    0    0    0  501 -0.00000000000E+00 -0.00000000000E+00 -0.17930482210E+02  0.17930482210E+02  0.00000000000E+00 0.  1.
         25    2    1    2    0    0 -0.44132288516E+02 -0.34397802052E+02  0.86679227444E+03  0.87755737842E+03  0.12508891919E+03 0.  0.
          5    1    3    3  502    0 -0.83109060996E+02 -0.45050537483E+02  0.53709412823E+03  0.54536615400E+03  0.41800000000E+01 0. -1.
         -5    1    3    3    0  502  0.38976772480E+02  0.10652735431E+02  0.32969814621E+03  0.33219122442E+03  0.41800000000E+01 0. -1.
        -11    1    1    2    0    0 -0.91976873077E+01 -0.52571558539E+02  0.19487849668E+03  0.20205443496E+03  0.00000000000E+00 0. -1.
         11    1    1    2    0    0  0.53329975824E+02  0.86969360591E+02  0.28143627800E+03  0.29935620016E+03  0.00000000000E+00 0.  1.
</event>
<event>
 7    1  0.2878477E-009  0.8499349E+02  0.7561462E-02  0.1315450E+00
          2   -1    0    0  501    0  0.00000000000E+00  0.00000000000E+00  0.71178489501E+02  0.71178489501E+02  0.00000000000E+00 0. -1.
         -2   -1    0    0    0  501 -0.00000000000E+00 -0.00000000000E+00 -0.18259089376E+03  0.18259089376E+03  0.00000000000E+00 0.  1.
         25    2    1    2    0    0 -0.19070699392E+02  0.28572364416E+02 -0.76071963509E+02  0.15039031569E+03  0.12510088663E+03 0.  0.
          5    1    3    3  502    0 -0.61457317641E+02  0.53960830044E+01 -0.20113142517E+01  0.61867902732E+02  0.41800000000E+01 0. -1.
         -5    1    3    3    0  502  0.42386618249E+02  0.23176281411E+02 -0.74060649258E+02  0.88522412954E+02  0.41800000000E+01 0. -1.
        -11    1    1    2    0    0 -0.27971960058E+01 -0.36346178587E+02  0.21263473326E+02  0.42201946653E+02  0.00000000000E+00 0. -1.
         11    1    1    2    0    0  0.21867895397E+02  0.77738141716E+01 -0.56603914077E+02  0.61177120925E+02  0.00000000000E+00 0.  1.
</event>
<event>
 7    1  0.2878477E-009  0.7666879E+02  0.7561462E-02  0.1338780E+00
         -2   -1    0    0    0  501 -0.00000000000E+00  0.00000000000E+00  0.31603637193E+02  0.31603637193E+02  0.00000000000E+00 0.  1.
          2   -1    0    0  501    0  0.00000000000E+00 -0.00000000000E+00 -0.66958659042E+03  0.66958659042E+03  0.00000000000E+00 0. -1.
         25    2    1    2    0    0 -0.43734049718E+02 -0.26691922404E+01 -0.56278475494E+03  0.57818220607E+03  0.12509273092E+03 0.  0.
          5    1    3    3  502    0  0.12295030195E+01 -0.16631322546E+02 -0.49635562945E+03  0.49665329543E+03  0.41800000000E+01 0.  1.
         -5    1    3    3    0  502 -0.44963552738E+02  0.13962130306E+02 -0.66429125487E+02  0.81528910642E+02  0.41800000000E+01 0.  1.
        -11    1    1    2    0    0  0.65880913597E+02  0.71987663380E+01 -0.30575463539E+02  0.72986135559E+02  0.00000000000E+00 0.  1.
         11    1    1    2    0    0 -0.22146863879E+02 -0.45295740976E+01 -0.44622734744E+02  0.50021885982E+02  0.00000000000E+00 0. -1.
</event>
<event>
 7    1  0.2878477E-009  0.9291455E+02  0.7561462E-02  0.1295943E+00
         -1   -1    0    0    0  501 -0.00000000000E+00  0.00000000000E+00  0.14428887884E+03  0.14428887884E+03  0.00000000000E+00 0.  1.
          1   -1    0    0  501    0  0.00000000000E+00 -0.00000000000E+00 -0.95680565453E+02  0.95680565453E+02  0.00000000000E+00 0. -1.
         25    2    1    2    0    0 -0.36339188225E+02  0.15925536883E+02  0.30005764018E+02  0.13461711445E+03  0.12508901751E+03 0.  0.
          5    1    3    3  502    0 -0.10704855885E+02 -0.29283409485E+02  0.64733051126E+02  0.71971885613E+02  0.41800000000E+01 0. -1.
         -5    1    3    3    0  502 -0.25634332340E+02  0.45208946368E+02 -0.34727287107E+02  0.62645228837E+02  0.41800000000E+01 0. -1.
        -11    1    1    2    0    0 -0.25855663640E+02  0.17888085137E+02 -0.23395254393E+01  0.31527326424E+02  0.00000000000E+00 0.  1.
         11    1    1    2    0    0  0.62194851865E+02 -0.33813622020E+02  0.20942074810E+02  0.73825003420E+02  0.00000000000E+00 0. -1.
</event>
<event>
 7    1  0.2878477E-009  0.9481298E+02  0.7561462E-02  0.1291598E+00
          1   -1    0    0  501    0  0.00000000000E+00  0.00000000000E+00  0.64928157176E+02  0.64928157176E+02  0.00000000000E+00 0. -1.
         -1   -1    0    0    0  501 -0.00000000000E+00 -0.00000000000E+00 -0.39470275921E+03  0.39470275921E+03  0.00000000000E+00 0.  1.
         25    2    1    2    0    0 -0.44153678073E+00  0.53776690079E+02 -0.28464345883E+02  0.13910537986E+03  0.12509180776E+03 0.  0.
          5    1    3    3  502    0  0.16379755717E+02 -0.20944854026E+02  0.31724754777E+02  0.41604275900E+02  0.41800000000E+01 0. -1.
         -5    1    3    3    0  502 -0.16821292498E+02  0.74721544105E+02 -0.60189100660E+02  0.97501103958E+02  0.41800000000E+01 0. -1.
        -11    1    1    2    0    0 -0.31907253057E+02 -0.39142918256E+02 -0.26489715301E+03  0.26966783739E+03  0.00000000000E+00 0.  1.
         11    1    1    2    0    0  0.32348789837E+02 -0.14633771823E+02 -0.36413103138E+02  0.50857699140E+02  0.00000000000E+00 0. -1.
</event>
<event>
 7    1  0.2878477E-009  0.1245339E+03  0.7561462E-02  0.1235800E+00
          1   -1    0    0  501    0  0.00000000000E+00  0.00000000000E+00  0.34189331336E+03  0.34189331336E+03  0.00000000000E+00 0. -1.
         -1   -1    0    0    0  501 -0.00000000000E+00 -0.00000000000E+00 -0.93500872502E+02  0.93500872502E+02  0.00000000000E+00 0.  1.
         25    2    1    2    0    0  0.21420599229E+01  0.65348679119E+02  0.28434576947E+03  0.31745656989E+03  0.12510443185E+03 0.  0.
          5    1    3    3  502    0  0.20143136021E+02  0.98521302015E+02  0.23102406347E+03  0.25199560151E+03  0.41800000000E+01 0. -1.
         -5    1    3    3    0  502 -0.18001076098E+02 -0.33172622896E+02  0.53321706006E+02  0.65460968385E+02  0.41800000000E+01 0. -1.
        -11    1    1    2    0    0  0.31032756653E+02  0.61428973560E+01 -0.81454003710E+00  0.31645389062E+02  0.00000000000E+00 0. -1.
         11    1    1    2    0    0 -0.33174816576E+02 -0.71491576475E+02 -0.35138788577E+02  0.86292226906E+02  0.00000000000E+00 0.  1.
</event>
<event>
 7    1  0.2878477E-009  0.1642795E+03  0.7561462E-02  0.1183948E+00
          1   -1    0    0  501    0  0.00000000000E+00  0.00000000000E+00  0.29157518313E+03  0.29157518313E+03  0.00000000000E+00 0. -1.
         -1   -1    0    0    0  501 -0.00000000000E+00 -0.00000000000E+00 -0.16306076544E+03  0.16306076544E+03  0.00000000000E+00 0.  1.
         25    2    1    2    0    0  0.58129841553E+02 -0.12913255549E+03  0.19634622928E+03  0.27249474230E+03  0.12508895820E+03 0.  0.
          5    1    3    3  502    0  0.43034598568E+02 -0.23972057749E+00  0.83783447602E+01  0.44042061723E+02  0.41800000000E+01 0.  1.
         -5    1    3    3    0  502  0.15095242985E+02 -0.12889283491E+03  0.18796788452E+03  0.22845268058E+03  0.41800000000E+01 0.  1.
        -11    1    1    2    0    0  0.13892303306E+02  0.14349934572E+02  0.13492877612E+02  0.24103411784E+02  0.00000000000E+00 0. -1.
         11    1    1    2    0    0 -0.72022144859E+02  0.11478262091E+03 -0.81324689204E+02  0.15803779449E+03  0.00000000000E+00 0.  1.
</event>
<event>
 7    1  0.2878477E-009  0.1178413E+03  0.7561462E-02  0.1246701E+00
         -3   -1    0    0    0  501 -0.00000000000E+00  0.00000000000E+00  0.28968364715E+02  0.28968364715E+02  0.00000000000E+00 0.  1.
          3   -1    0    0  501    0  0.00000000000E+00 -0.00000000000E+00 -0.10820066822E+04  0.10820066822E+04  0.00000000000E+00 0. -1.
         25    2    1    2    0    0 -0.70264757113E+02  0.28054699630E+02 -0.91382440083E+03  0.92544408488E+03  0.12509003329E+03 0.  0.
          5    1    3    3  502    0 -0.36641292849E+02  0.57714023783E+02 -0.80162834930E+03  0.80454892685E+03  0.41800000000E+01 0. -1.
         -5    1    3    3    0  502 -0.33623464264E+02 -0.29659324153E+02 -0.11219605153E+03  0.12089515804E+03  0.41800000000E+01 0. -1.
        -11    1    1    2    0    0  0.24879657281E+02  0.35937711571E+02 -0.42098274765E+02  0.60685922565E+02  0.00000000000E+00 0.  1.
         11    1    1    2    0    0  0.45385099832E+02 -0.63992411201E+02 -0.97115641852E+02  0.12484503943E+03  0.00000000000E+00 0. -1.
</event>
<event>
 6    1  0.2878477E-009  0.1189309E+03  0.7561462E-02  0.1244871E+00
         -1   -1    0    0    0  501 -0.00000000000E+00  0.00000000000E+00  0.14403767193E+03  0.14403767193E+03  0.00000000000E+00 0.  1.
          1   -1    0    0  501    0  0.00000000000E+00 -0.00000000000E+00 -0.10284254850E+03  0.10284254850E+03  0.00000000000E+00 0. -1.
          5    1    1    2  502    0  0.84591594959E+02  0.14027257447E+02  0.35583353180E+02  0.92930884601E+02  0.41800000000E+01 0. -1.
         -5    1    1    2    0  502 -0.33923003693E+02 -0.34255654113E+02  0.15319891866E+01  0.48415280740E+02  0.41800000000E+01 0. -1.
        -11    1    1    2    0    0 -0.63070632037E+02  0.43936892129E+02 -0.56266302080E+01  0.77071486835E+02  0.00000000000E+00 0. -1.
         11    1    1    2    0    0  0.12402040771E+02 -0.23708495463E+02  0.97064112709E+01  0.28462568264E+02  0.00000000000E+00 0.  1.
</event>
<event>
 7    1  0.2878477E-009  0.2019810E+03  0.7561462E-02  0.1148078E+00
          2   -1    0    0  501    0  0.00000000000E+00  0.00000000000E+00  0.26510729159E+03  0.26510729159E+03  0.00000000000E+00 0. -1.
         -2   -1    0    0    0  501 -0.00000000000E+00 -0.00000000000E+00 -0.18401287265E+03  0.18401287265E+03  0.00000000000E+00 0.  1.
         25    2    1    2    0    0  0.17939198073E+03  0.38252199749E+02  0.10076245978E+03  0.24381450338E+03  0.12509086786E+03 0.  0.
          5    1    3    3  502    0  0.13718372868E+03 -0.10732257158E+02  0.18203501964E+02  0.13886467025E+03  0.41800000000E+01 0.  1.
         -5    1    3    3    0  502  0.42208252045E+02  0.48984456907E+02  0.82558957813E+02  0.10494983313E+03  0.41800000000E+01 0.  1.
        -11    1    1    2    0    0 -0.35556526508E+02 -0.45185063570E+02  0.97793603118E+01  0.58323172370E+02  0.00000000000E+00 0. -1.
         11    1    1    2    0    0 -0.14383545422E+03  0.69328638213E+01 -0.29447401145E+02  0.14698248850E+03  0.00000000000E+00 0.  1.
</event>
<event>
 7    1  0.2878477E-009  0.2002401E+03  0.7561462E-02  0.1149537E+00
          1   -1    0    0  501    0  0.00000000000E+00  0.00000000000E+00  0.78087779106E+02  0.78087779106E+02  0.00000000000E+00 0. -1.
         -1   -1    0    0    0  501 -0.00000000000E+00 -0.00000000000E+00 -0.64748360896E+03  0.64748360896E+03  0.00000000000E+00 0.  1.
         25    2    1    2    0    0  0.41517542530E+00 -0.18271583048E+03 -0.17645743636E+03  0.28314288297E+03  0.12508964087E+03 0.  0.
          5    1    3    3  502    0  0.50804420524E+02 -0.13066370619E+03 -0.15137419723E+03  0.20636306173E+03  0.41800000000E+01 0. -1.
         -5    1    3    3    0  502 -0.50389245099E+02 -0.52052124292E+02 -0.25083239130E+02  0.76779821243E+02  0.41800000000E+01 0. -1.
        -11    1    1    2    0    0  0.21145830175E+02  0.84862278874E+02 -0.10011185759E+03  0.13293282717E+03  0.00000000000E+00 0.  1.
         11    1    1    2    0    0 -0.21561005601E+02  0.97853551604E+02 -0.29282653591E+03  0.30949567793E+03  0.00000000000E+00 0. -1.
</event>
<event>
 7    1  0.2878477E-009  0.7924597E+02  0.7561462E-02  0.1331205E+00
          2   -1    0    0  501    0  0.00000000000E+00  0.00000000000E+00  0.79322932451E+02  0.79322932451E+02  0.00000000000E+00 0. -1.
         -2   -1    0    0    0  501 -0.00000000000E+00 -0.00000000000E+00 -0.19700373219E+03  0.19700373219E+03  0.00000000000E+00 0.  1.
         25    2    1    2    0    0  0.37159735911E+02  0.51837922228E+02 -0.56451798985E+02  0.15133555638E+03  0.12509048269E+03 0.  0.
          5    1    3    3  502    0  0.23093453336E+02  0.92232063494E+01 -0.91075086448E+02  0.94501422708E+02  0.41800000000E+01 0.  1.
         -5    1    3    3    0  502  0.14066282576E+02  0.42614715878E+02  0.34623287463E+02  0.56834133667E+02  0.41800000000E+01 0.  1.
        -11    1    1    2    0    0  0.58131365009E+00 -0.50434989300E+02 -0.69942234420E+02  0.86231909563E+02  0.00000000000E+00 0. -1.
         11    1    1    2    0    0 -0.37741049562E+02 -0.14029329272E+01  0.87132336705E+01  0.38759198699E+02  0.00000000000E+00 0.  1.
</event>
<event>
 7    1  0.2878477E-009  0.1011466E+03  0.7561462E-02  0.1277903E+00
          2   -1    0    0  501    0  0.00000000000E+00  0.00000000000E+00  0.16465596830E+03  0.16465596830E+03  0.00000000000E+00 0. -1.
         -2   -1    0    0    0  501 -0.00000000000E+00 -0.00000000000E+00 -0.93784646535E+02  0.93784646535E+02  0.00000000000E+00 0.  1.
         25    2    1    2    0    0  0.50690992254E+02 -0.17644652459E+02  0.67283120450E+02  0.15183961951E+03  0.12508933328E+03 0.  0.
          5    1    3    3  502    0  0.11037565792E+02 -0.67651653663E+02  0.51842317739E+02  0.86044595475E+02  0.41800000000E+01 0.  1.
         -5    1    3    3    0  502  0.39653426462E+02  0.50007001203E+02  0.15440802711E+02  0.65795024036E+02  0.41800000000E+01 0.  1.
        -11    1    1    2    0    0 -0.58300004095E+02  0.10526346654E+02 -0.33512756156E+02  0.68064669811E+02  0.00000000000E+00 0.  1.
         11    1    1    2    0    0  0.76090118402E+01  0.71183058054E+01  0.37100957470E+02  0.38536325511E+02  0.00000000000E+00 0. -1.
</event>
<event>
 7    1  0.2878477E-009  0.2079849E+03  0.7561462E-02  0.1143172E+00
          2   -1    0    0  501    0  0.00000000000E+00  0.00000000000E+00  0.79704711275E+02  0.79704711275E+02  0.00000000000E+00 0. -1.
         -2   -1    0    0    0  501 -0.00000000000E+00 -0.00000000000E+00 -0.64832759965E+03  0.64832759965E+03  0.00000000000E+00 0.  1.
         25    2    1    2    0    0  0.54091575260E+02 -0.18173607205E+03 -0.40732676854E+03  0.46638172711E+03  0.12507166191E+03 0.  0.
          5    1    3    3  502    0 -0.55343506663E+01 -0.13640662844E+03 -0.17346376672E+03  0.22078167516E+03  0.41800000000E+01 0. -1.
         -5    1    3    3    0  502  0.59625925926E+02 -0.45329443616E+02 -0.23386300182E+03  0.24560005195E+03  0.41800000000E+01 0. -1.
        -11    1    1    2    0    0 -0.69030105379E+02  0.10146079355E+03 -0.80398748282E+02  0.14670857781E+03  0.00000000000E+00 0.  1.
         11    1    1    2    0    0  0.14938530119E+02  0.80275278500E+02 -0.80897371550E+02  0.11494200600E+03  0.00000000000E+00 0. -1.
</event>
<event>
 7    1  0.2878477E-009  0.1948281E+03  0.7561462E-02  0.1154177E+00
          4   -1    0    0  501    0  0.00000000000E+00  0.00000000000E+00  0.68058993995E+02  0.68058993995E+02  0.00000000000E+00 0. -1.
         -4   -1    0    0    0  501 -0.00000000000E+00 -0.00000000000E+00 -0.65070952909E+03  0.65070952909E+03  0.00000000000E+00 0.  1.
         25    2    1    2    0    0  0.67871741385E+02  0.16410019144E+03 -0.25841301481E+03  0.33757987605E+03  0.12508972932E+03 0.  0.
          5    1    3    3  502    0  0.48824398511E+02  0.17977518523E+03 -0.24865554467E+03  0.31072494495E+03  0.41800000000E+01 0.  1.
         -5    1    3    3    0  502  0.19047342874E+02 -0.15674993796E+02 -0.97574701385E+01  0.26854931103E+02  0.41800000000E+01 0.  1.
        -11    1    1    2    0    0 -0.16381314573E+02 -0.24158893159E+02 -0.14559199245E+03  0.14848915062E+03  0.00000000000E+00 0.  1.
         11    1    1    2    0    0 -0.51490426812E+02 -0.13994129828E+03 -0.17864552784E+03  0.23269949642E+03  0.00000000000E+00 0. -1.
</event>
<event>
 7    1  0.2878477E-009  0.9693902E+02  0.7561462E-02  0.1286868E+00
          1   -1    0    0  501    0  0.00000000000E+00  0.00000000000E+00  0.30291670779E+02  0.30291670779E+02  0.00000000000E+00 0. -1.
         -1   -1    0    0    0  501 -0.00000000000E+00 -0.00000000000E+00 -0.42354409976E+03  0.42354409976E+03  0.00000000000E+00 0.  1.
         25    2    1    2    0    0 -0.14354880096E+02 -0.28875769563E+02 -0.19587517531E+03  0.23463640621E+03  0.12508911291E+03 0.  0.
          5    1    3    3  502    0  0.19742026957E+01 -0.76235800921E+02 -0.94700713214E+02  0.12166138377E+03  0.41800000000E+01 0. -1.
         -5    1    3    3    0  502 -0.16329082792E+02  0.47360031359E+02 -0.10117446209E+03  0.11297502244E+03  0.41800000000E+01 0. -1.
        -11    1    1    2    0    0  0.28037082424E+02  0.40514216968E+02 -0.19494274362E+03  0.20107250697E+03  0.00000000000E+00 0.  1.
         11    1    1    2    0    0 -0.13682202328E+02 -0.11638447405E+02 -0.24345100518E+01  0.18126857359E+02  0.00000000000E+00 0. -1.
</event>
<event>
 7    1  0.3024492E-009  0.7963284E+02  0.7561462E-02  0.1330097E+00
         -1   -1    0    0    0  501 -0.00000000000E+00  0.00000000000E+00  0.50878657819E+02  0.50878657819E+02  0.00000000000E+00 0.  1.
          1   -1    0    0  501    0  0.00000000000E+00 -0.00000000000E+00 -0.26078146721E+03  0.26078146721E+03  0.00000000000E+00 0. -1.
         25    2    1    2    0    0  0.12119355915E+02 -0.35730516072E+01 -0.16978093856E+03  0.21126363032E+03  0.12508840439E+03 0.  0.
          5    1    3    3  502    0  0.32568937050E+02  0.44777599663E+02 -0.32759911778E+02  0.64470561591E+02  0.41800000000E+01 0. -1.
         -5    1    3    3    0  502 -0.20449581135E+02 -0.48350651270E+02 -0.13702102678E+03  0.14679306873E+03  0.41800000000E+01 0. -1.
        -11    1    1    2    0    0 -0.28696460013E+02 -0.92139840292E+01  0.20374457200E+02  0.36379978356E+02  0.00000000000E+00 0.  1.
         11    1    1    2    0    0  0.16577104098E+02  0.12787035636E+02 -0.60496328024E+02  0.64016516346E+02  0.00000000000E+00 0. -1.
</event>
<event>
 7    1  0.2878477E-009  0.1562565E+03  0.7561462E-02  0.1192989E+00
          2   -1    0    0  501    0  0.00000000000E+00  0.00000000000E+00  0.13335798445E+04  0.13335798445E+04  0.00000000000E+00 0. -1.
         -2   -1    0    0    0  501 -0.00000000000E+00 -0.00000000000E+00 -0.53063668760E+02  0.53063668760E+02  0.00000000000E+00 0.  1.
         25    2    1    2    0    0  0.22458098562E+02  0.14301705886E+03  0.11652964751E+04  0.11808987320E+04  0.12509074739E+03 0.  0.
          5    1    3    3  502    0  0.22192275629E+02  0.47428331042E+02  0.84463200871E+03  0.84626393413E+03  0.41800000000E+01 0. -1.
         -5    1    3    3    0  502  0.26582293279E+00  0.95588727820E+02  0.32066446643E+03  0.33463479792E+03  0.41800000000E+01 0. -1.
        -11    1    1    2    0    0 -0.50165686427E+02 -0.69312182815E+02  0.87202100863E+02  0.12216784019E+03  0.00000000000E+00 0. -1.
         11    1    1    2    0    0  0.27707587865E+02 -0.73704876048E+02  0.28017599774E+02  0.83576941052E+02  0.00000000000E+00 0.  1.
</event>
<event>
 7    1  0.2878477E-009  0.9766933E+02  0.7561462E-02  0.1285275E+00
          1   -1    0    0  501    0  0.00000000000E+00  0.00000000000E+00  0.56645628306E+02  0.56645628306E+02  0.00000000000E+00 0. -1.
         -1   -1    0    0    0  501 -0.00000000000E+00 -0.00000000000E+00 -0.46801886860E+03  0.46801886860E+03  0.00000000000E+00 0.  1.
         25    2    1    2    0    0 -0.33581993331E+02 -0.48737756622E+02 -0.38718871036E+03  0.41117729530E+03  0.12509417067E+03 0.  0.
          5    1    3    3  502    0 -0.54877151630E+02  0.10140038278E+01 -0.32049399658E+03  0.32518672209E+03  0.41800000000E+01 0. -1.
         -5    1    3    3    0  502  0.21295158298E+02 -0.49751760449E+02 -0.66694713781E+02  0.85990573211E+02  0.41800000000E+01 0. -1.
        -11    1    1    2    0    0 -0.10291331599E+02  0.39969867082E+02 -0.47589594432E+02  0.62994216233E+02  0.00000000000E+00 0.  1.
         11    1    1    2    0    0  0.43873324930E+02  0.87678895398E+01  0.23405064506E+02  0.50492985374E+02  0.00000000000E+00 0. -1.
</event>
<event>
 7    1  0.2878477E-009  0.1068201E+03  0.7561462E-02  0.1266574E+00
         -2   -1    0    0    0  501 -0.00000000000E+00  0.00000000000E+00  0.36830803559E+03  0.36830803559E+03  0.00000000000E+00 0.  1.
          2   -1    0    0  501    0  0.00000000000E+00 -0.00000000000E+00 -0.53115511327E+02  0.53115511327E+02  0.00000000000E+00 0. -1.
         25    2    1    2    0    0  0.58605895350E+02 -0.18492709968E+02  0.79421999130E+02  0.16041618553E+03  0.12509543294E+03 0.  0.
          5    1    3    3  502    0 -0.18691786660E+02 -0.24538921020E+02 -0.17905079114E+02  0.35911081736E+02  0.41800000000E+01 0.  1.
         -5    1    3    3    0  502  0.77297682010E+02  0.60462110524E+01  0.97327078244E+02  0.12450510380E+03  0.41800000000E+01 0.  1.
        -11    1    1    2    0    0  0.22217077333E+02  0.14482811158E+01  0.96927168712E+02  0.99451355335E+02  0.00000000000E+00 0. -1.
         11    1    1    2    0    0 -0.80822972684E+02  0.17044428852E+02  0.13884335642E+03  0.16155600605E+03  0.00000000000E+00 0.  1.
</event>
<event>
 7    1  0.2878477E-009  0.1209764E+03  0.7561462E-02  0.1241495E+00
         -2   -1    0    0    0  501 -0.00000000000E+00  0.00000000000E+00  0.28102731504E+02  0.28102731504E+02  0.00000000000E+00 0.  1.
          2   -1    0    0  501    0  0.00000000000E+00 -0.00000000000E+00 -0.64620847638E+03  0.64620847638E+03  0.00000000000E+00 0. -1.
         25    2    1    2    0    0 -0.17358402297E+02 -0.51981106564E+02 -0.47879359402E+03  0.49789007482E+03  0.12509145199E+03 0.  0.
          5    1    3    3  502    0  0.44613438996E+02  0.10871348052E+02 -0.12515026914E+03  0.13337393828E+03  0.41800000000E+01 0. -1.
         -5    1    3    3    0  502 -0.61971841293E+02 -0.62852454616E+02 -0.35364332488E+03  0.36451613654E+03  0.41800000000E+01 0. -1.
        -11    1    1    2    0    0 -0.36630936448E+02  0.35547906576E+02 -0.55761193171E+02  0.75596228946E+02  0.00000000000E+00 0.  1.
         11    1    1    2    0    0  0.53989338745E+02  0.16433199988E+02 -0.83550957687E+02  0.10082490412E+03  0.00000000000E+00 0. -1.
</event>
<event>
 7    1  0.2878477E-009  0.8908027E+02  0.7561462E-02  0.1305094E+00
          2   -1    0    0  501    0  0.00000000000E+00  0.00000000000E+00  0.29207186882E+03  0.29207186882E+03  0.00000000000E+00 0. -1.
         -2   -1    0    0    0  501 -0.00000000000E+00 -0.00000000000E+00 -0.56148612575E+02  0.56148612575E+02  0.00000000000E+00 0.  1.
         25    2    1    2    0    0 -0.17944432625E+02 -0.81537100204E+01  0.39216940698E+02  0.13256800931E+03  0.12509125871E+03 0.  0.
          5    1    3    3  502    0  0.36291416889E+02  0.24595920061E+02 -0.17540001958E+02  0.47404116827E+02  0.41800000000E+01 0.  1.
         -5    1    3    3    0  502 -0.54235849514E+02 -0.32749630081E+02  0.56756942655E+02  0.85163892481E+02  0.41800000000E+01 0.  1.
        -11    1    1    2    0    0  0.23212052066E+02  0.35699039406E+02  0.17522915964E+03  0.18032880847E+03  0.00000000000E+00 0. -1.
         11    1    1    2    0    0 -0.52676194411E+01 -0.27545329386E+02  0.21477155905E+02  0.35323663617E+02  0.00000000000E+00 0.  1.
</event>
<event>
 7    1  0.2878477E-009  0.7859141E+02  0.7561462E-02  0.1333097E+00
          1   -1    0    0  501    0  0.00000000000E+00  0.00000000000E+00  0.62668978148E+02  0.62668978148E+02  0.00000000000E+00 0. -1.
         -1   -1    0    0    0  501 -0.00000000000E+00 -0.00000000000E+00 -0.23442072758E+03  0.23442072758E+03  0.00000000000E+00 0.  1.
         25    2    1    2    0    0  0.51100051699E+02  0.60410430501E+01 -0.92116654785E+02  0.16365125735E+03  0.12509415038E+03 0.  0.
          5    1    3    3  502    0  0.23467879092E+02 -0.25779726931E+02  0.22336472252E+02  0.41614012813E+02  0.41800000000E+01 0. -1.
         -5    1    3    3    0  502  0.27632172607E+02  0.31820769981E+02 -0.11445312704E+03  0.12203724454E+03  0.41800000000E+01 0. -1.
        -11    1    1    2    0    0 -0.43065288316E+02  0.23532407629E+02 -0.10469506002E+01  0.49086549809E+02  0.00000000000E+00 0. -1.
         11    1    1    2    0    0 -0.80347633829E+01 -0.29573450679E+02 -0.78588144042E+02  0.84351898566E+02  0.00000000000E+00 0.  1.
</event>
<event>
 7    1  0.3277800E-009  0.1183254E+03  0.7561462E-02  0.1245885E+00
         -1   -1    0    0    0  501 -0.00000000000E+00  0.00000000000E+00  0.69528313609E+02  0.69528313609E+02  0.00000000000E+00 0.  1.
          1   -1    0    0  501    0  0.00000000000E+00 -0.00000000000E+00 -0.22503026874E+03  0.22503026874E+03  0.00000000000E+00 0. -1.
         25    2    1    2    0    0 -0.55523715796E+02 -0.21582742244E+02 -0.10391108354E+03  0.17319351329E+03  0.12509908866E+03 0.  0.
          5    1    3    3  502    0  0.34430834012E+01  0.42950539822E+02 -0.92351133483E+01  0.44264697139E+02  0.41800000000E+01 0.  1.
         -5    1    3    3    0  502 -0.58966799197E+02 -0.64533282066E+02 -0.94675970188E+02  0.12892881615E+03  0.41800000000E+01 0.  1.
        -11    1    1    2    0    0  0.44124072234E+02 -0.29778711196E+02 -0.96904735344E+01  0.54107399386E+02  0.00000000000E+00 0. -1.
         11    1    1    2    0    0  0.11399643562E+02  0.51361453440E+02 -0.41900398060E+02  0.67257669677E+02  0.00000000000E+00 0.  1.
</event>
<event>
 7    1  0.2878477E-009  0.1137155E+03  0.7561462E-02  0.1253840E+00
         -2   -1    0    0    0  501 -0.00000000000E+00  0.00000000000E+00  0.81461569524E+02  0.81461569524E+02  0.00000000000E+00 0.  1.
          2   -1    0    0  501    0  0.00000000000E+00 -0.00000000000E+00 -0.24830003822E+03  0.24830003822E+03  0.00000000000E+00 0. -1.
         25    2    1    2    0    0  0.51102294547E+02 -0.14260431495E+02 -0.34814987183E+01  0.13592143439E+03  0.12509081133E+03 0.  0.
          5    1    3    3  502    0 -0.40385475224E+02  0.63097079838E+01  0.62193243657E+01  0.41556605005E+02  0.41800000000E+01 0.  1.
         -5    1    3    3    0  502  0.91487769771E+02 -0.20570139479E+02 -0.97008230840E+01  0.94364829383E+02  0.41800000000E+01 0.  1.
        -11    1    1    2    0    0 -0.92219841310E+01  0.41503749229E+02 -0.31732123841E+02  0.53052180680E+02  0.00000000000E+00 0.  1.
         11    1    1    2    0    0 -0.41880310416E+02 -0.27243317734E+02 -0.13162484613E+03  0.14078799268E+03  0.00000000000E+00 0. -1.
</event>
<event>
 7    1  0.2878477E-009  0.1564539E+03  0.7561462E-02  0.1192759E+00
         -2   -1    0    0    0  501 -0.00000000000E+00  0.00000000000E+00  0.39874085307E+02  0.39874085307E+02  0.00000000000E+00 0.  1.
          2   -1    0    0  501    0  0.00000000000E+00 -0.00000000000E+00 -0.75463471439E+03  0.75463471439E+03  0.00000000000E+00 0. -1.
         25    2    1    2    0    0  0.87991941364E+02 -0.99315416782E+02 -0.32503582837E+03  0.37269203519E+03  0.12507969304E+03 0.  0.
          5    1    3    3  502    0  0.94290742179E+02 -0.57367586079E+02 -0.30726287990E+03  0.32651146038E+03  0.41800000000E+01 0. -1.
         -5    1    3    3    0  502 -0.62988008148E+01 -0.41947830703E+02 -0.17772948471E+02  0.46180574809E+02  0.41800000000E+01 0. -1.
        -11    1    1    2    0    0  0.17705191953E+02  0.55890597307E+01 -0.29199485319E+02  0.34602331622E+02  0.00000000000E+00 0.  1.
         11    1    1    2    0    0 -0.10569713332E+03  0.93726357051E+02 -0.36052531539E+03  0.38721443288E+03  0.00000000000E+00 0. -1.
</event>
<event>
 7    1  0.2878477E-009  0.1346503E+03  0.7561462E-02  0.1220714E+00
          2   -1    0    0  501    0  0.00000000000E+00  0.00000000000E+00  0.58362757406E+03  0.58362757406E+03  0.00000000000E+00 0. -1.
         -2   -1    0    0    0  501 -0.00000000000E+00 -0.00000000000E+00 -0.46132794629E+02  0.46132794629E+02  0.00000000000E+00 0.  1.
         25    2    1    2    0    0 -0.11610344361E+03 -0.82434651546E+01  0.21421645292E+03  0.27401461661E+03  0.12508939634E+03 0.  0.
          5    1    3    3  502    0 -0.27934014983E+02  0.38637686408E+02  0.13399700379E+02  0.49701150633E+02  0.41800000000E+01 0. -1.
         -5    1    3    3    0  502 -0.88169428631E+02 -0.46881151563E+02  0.20081675255E+03  0.22431346598E+03  0.41800000000E+01 0. -1.
        -11    1    1    2    0    0  0.88252049299E+02 -0.90428247904E+01  0.30618262437E+03  0.31877577754E+03  0.00000000000E+00 0. -1.
         11    1    1    2    0    0  0.27851394315E+02  0.17286289945E+02  0.17095702144E+02  0.36969974536E+02  0.00000000000E+00 0.  1.
</event>
<event>
 7    1  0.2878477E-009  0.1162231E+03  0.7561462E-02  0.1249461E+00
          2   -1    0    0  501    0  0.00000000000E+00  0.00000000000E+00  0.67919597927E+02  0.67919597927E+02  0.00000000000E+00 0.  1.
         -2   -1    0    0    0  501 -0.00000000000E+00 -0.00000000000E+00 -0.33407204978E+03  0.33407204978E+03  0.00000000000E+00 0. -1.
         25    2    1    2    0    0 -0.47955038707E+02  0.21971164731E+02 -0.26426872946E+03  0.29709811624E+03  0.12508761525E+03 0.  0.
          5    1    3    3  502    0  0.40079246373E+02 -0.10141624165E+02 -0.70913905939E+02  0.82191562743E+02  0.41800000000E+01 0.  1.
         -5    1    3    3    0  502 -0.88034285080E+02  0.32112788896E+02 -0.19335482352E+03  0.21490655350E+03  0.41800000000E+01 0.  1.
        -11    1    1    2    0    0  0.23283809567E+02 -0.52741095103E+02  0.18435210040E+02  0.60527810714E+02  0.00000000000E+00 0.  1.
         11    1    1    2    0    0  0.24671229140E+02  0.30769930371E+02 -0.20318932439E+02  0.44365720751E+02  0.00000000000E+00 0. -1.
</event>
<event>
 7    1  0.2878477E-009  0.1558133E+03  0.7561462E-02  0.1193506E+00
         -1   -1    0    0    0  501 -0.00000000000E+00  0.00000000000E+00  0.56190457379E+03  0.56190457379E+03  0.00000000000E+00 0.  1.
          1   -1    0    0  501    0  0.00000000000E+00 -0.00000000000E+00 -0.61691107192E+02  0.61691107192E+02  0.00000000000E+00 0. -1.
         25    2    1    2    0    0 -0.14434272952E+03 -0.15170164614E+02  0.33299562652E+03  0.38418525055E+03  0.12508901629E+03 0.  0.
          5    1    3    3  502    0 -0.15379276976E+03 -0.92431680337E+01  0.20934643543E+03  0.25996356401E+03  0.41800000000E+01 0. -1.
         -5    1    3    3    0  502  0.94500402386E+01 -0.59269965807E+01  0.12364919109E+03  0.12422168654E+03  0.41800000000E+01 0. -1.
        -11    1    1    2    0    0  0.80833764501E+02  0.27838113768E+01  0.27486545820E+02  0.85424570765E+02  0.00000000000E+00 0.  1.
         11    1    1    2    0    0  0.63508965016E+02  0.12386353238E+02  0.13973129426E+03  0.15398585967E+03  0.00000000000E+00 0. -1.
</event>
<event>
 7    1  0.2878477E-009  0.1432177E+03  0.7561462E-02  0.1209064E+00
         -2   -1    0    0    0  501 -0.00000000000E+00  0.00000000000E+00  0.23260024794E+02  0.23260024794E+02  0.00000000000E+00 0.  1.
          2   -1    0    0  501    0  0.00000000000E+00 -0.00000000000E+00 -0.12161342664E+04  0.12161342664E+04  0.00000000000E+00 0. -1.
         25    2    1    2    0    0 -0.11885825247E+03  0.30204128552E+02 -0.76925289127E+03  0.78894405705E+03  0.12507254238E+03 0.  0.
          5    1    3    3  502    0 -0.59833411837E+02 -0.17711245407E+02 -0.60123824940E+03  0.60448211746E+03  0.41800000000E+01 0.  1.
         -5    1    3    3    0  502 -0.59024840634E+02  0.47915373959E+02 -0.16801464187E+03  0.18446193959E+03  0.41800000000E+01 0.  1.
        -11    1    1    2    0    0  0.12807609004E+03 -0.40124336151E+02 -0.40928596821E+03  0.43073013705E+03  0.00000000000E+00 0. -1.
         11    1    1    2    0    0 -0.92178375680E+01  0.99202075985E+01 -0.14335382077E+02  0.19720097046E+02  0.00000000000E+00 0.  1.
</event>
<event>
 7    1  0.2878477E-009  0.1069578E+03  0.7561462E-02  0.1266310E+00
          2   -1    0    0  501    0  0.00000000000E+00  0.00000000000E+00  0.48957967715E+03  0.48957967715E+03  0.00000000000E+00 0. -1.
         -2   -1    0    0    0  501 -0.00000000000E+00 -0.00000000000E+00 -0.39966579903E+02  0.39966579903E+02  0.00000000000E+00 0.  1.
         25    2    1    2    0    0 -0.44837530441E+02 -0.48815902451E+02  0.35408166725E+03  0.38133237486E+03  0.12508859487E+03 0.  0.
          5    1    3    3  502    0 -0.62104470072E+02  0.23386708957E+02  0.14814695328E+03  0.16238502248E+03  0.41800000000E+01 0. -1.
         -5    1    3    3    0  502  0.17266939632E+02 -0.72202611408E+02  0.20593471396E+03  0.21894735238E+03  0.41800000000E+01 0. -1.
        -11    1    1    2    0    0  0.42039012713E+02  0.24638370432E+02 -0.92322228514E+00  0.48735820777E+02  0.00000000000E+00 0.  1.
         11    1    1    2    0    0  0.27985177280E+01  0.24177532019E+02  0.96454652290E+02  0.99478061423E+02  0.00000000000E+00 0. -1.
</event>
<event>
 7    1  0.2878477E-009  0.1631391E+03  0.7561462E-02  0.1185198E+00
          2   -1    0    0  501    0  0.00000000000E+00  0.00000000000E+00  0.35493195544E+03  0.35493195544E+03  0.00000000000E+00 0. -1.
         -2   -1    0    0    0  501 -0.00000000000E+00 -0.00000000000E+00 -0.95852308343E+02  0.95852308343E+02  0.00000000000E+00 0.  1.
         25    2    1    2    0    0 -0.12235561939E+03  0.60814544316E+02  0.70781342163E+02  0.19831619718E+03  0.12509999709E+03 0.  0.
          5    1    3    3  502    0 -0.46577303154E+02  0.91733509664E+02  0.33441692889E+02  0.10826033986E+03  0.41800000000E+01 0.  1.
         -5    1    3    3    0  502 -0.75778316233E+02 -0.30918965349E+02  0.37339649275E+02  0.90055857318E+02  0.41800000000E+01 0.  1.
        -11    1    1    2    0    0  0.54460448776E+02 -0.47303914163E+02  0.16389300885E+03  0.17906568383E+03  0.00000000000E+00 0. -1.
         11    1    1    2    0    0  0.67895170611E+02 -0.13510630152E+02  0.24405296085E+02  0.73402382770E+02  0.00000000000E+00 0.  1.
</event>
<event>
 7    1  0.2878477E-009  0.6119296E+02  0.7561462E-02  0.1392893E+00
         -1   -1    0    0    0  501 -0.00000000000E+00  0.00000000000E+00  0.99501623703E+02  0.99501623703E+02  0.00000000000E+00 0.  1.
          1   -1    0    0  501    0  0.00000000000E+00 -0.00000000000E+00 -0.14502311444E+03  0.14502311444E+03  0.00000000000E+00 0. -1.
         25    2    1    2    0    0  0.63790404879E+01 -0.14105251435E+02 -0.72576257144E+02  0.14544548576E+03  0.12508967164E+03 0.  0.
          5    1    3    3  502    0 -0.25348674553E+02 -0.12247597901E+02 -0.99557702641E+02  0.10354596811E+03  0.41800000000E+01 0. -1.
         -5    1    3    3    0  502  0.31727715041E+02 -0.18576535345E+01  0.26981445498E+02  0.41899517653E+02  0.41800000000E+01 0. -1.
        -11    1    1    2    0    0 -0.53452928981E+01 -0.23575658352E+02  0.49585217774E+02  0.55164097424E+02  0.00000000000E+00 0.  1.
         11    1    1    2    0    0 -0.10337475898E+01  0.37680909787E+02 -0.22530451371E+02  0.43915154963E+02  0.00000000000E+00 0. -1.
</event>
<event>
 7    1  0.2878477E-009  0.1215837E+03  0.7561462E-02  0.1240507E+00
         -2   -1    0    0    0  501 -0.00000000000E+00  0.00000000000E+00  0.22860208786E+02  0.22860208786E+02  0.00000000000E+00 0.  1.
          2   -1    0    0  501    0  0.00000000000E+00 -0.00000000000E+00 -0.69852619648E+03  0.69852619648E+03  0.00000000000E+00 0. -1.
         25    2    1    2    0    0  0.57656415911E+02  0.16528710902E+02 -0.31903825171E+03  0.34789315971E+03  0.12508710541E+03 0.  0.
          5    1    3    3  502    0  0.16125539135E+01  0.63857840028E+02 -0.17184181794E+03  0.18337804355E+03  0.41800000000E+01 0.  1.
         -5    1    3    3    0  502  0.56043861998E+02 -0.47329129127E+02 -0.14719643378E+03  0.16451511617E+03  0.41800000000E+01 0.  1.
        -11    1    1    2    0    0 -0.64692902968E+02  0.20596390868E+02 -0.27921728827E+03  0.28735287902E+03  0.00000000000E+00 0. -1.
         11    1    1    2    0    0  0.70364870564E+01 -0.37125101770E+02 -0.77410447712E+02  0.86140366534E+02  0.00000000000E+00 0.  1.
</event>
<event>
 7    1  0.2890988E-009  0.8136286E+02  0.7561462E-02  0.1325228E+00
         -4   -1    0    0    0  501 -0.00000000000E+00  0.00000000000E+00  0.55045302700E+02  0.55045302700E+02  0.00000000000E+00 0.  1.
          4   -1    0    0  501    0  0.00000000000E+00 -0.00000000000E+00 -0.23340970279E+03  0.23340970279E+03  0.00000000000E+00 0. -1.
         25    2    1    2    0    0 -0.11926805190E+02 -0.31252718393E+02 -0.93290262052E+02  0.15958668314E+03  0.12508339359E+03 0.  0.
          5    1    3    3  502    0 -0.52276781055E+02  0.26293970627E+02 -0.36144053393E+02  0.68906456334E+02  0.41800000000E+01 0. -1.
         -5    1    3    3    0  502  0.40349975865E+02 -0.57546689020E+02 -0.57146208659E+02  0.90680226806E+02  0.41800000000E+01 0. -1.
        -11    1    1    2    0    0  0.56842390172E+01  0.10011548062E+02  0.19136078625E+02  0.22332289917E+02  0.00000000000E+00 0.  1.
         11    1    1    2    0    0  0.62425661724E+01  0.21241170331E+02 -0.10421021666E+03  0.10653603243E+03  0.00000000000E+00 0. -1.
</event>
<event>
 7    1  0.2878477E-009  0.2287049E+03  0.7561462E-02  0.1127555E+00
          1   -1    0    0  501    0  0.00000000000E+00  0.00000000000E+00  0.16151190503E+03  0.16151190503E+03  0.00000000000E+00 0. -1.
         -1   -1    0    0    0  501 -0.00000000000E+00 -0.00000000000E+00 -0.34892865345E+03  0.34892865345E+03  0.00000000000E+00 0.  1.
         25    2    1    2    0    0  0.17905681955E+03  0.11207676930E+03 -0.10655937555E+03  0.26762745702E+03  0.12508800257E+03 0.  0.
          5    1    3    3  502    0  0.18295175337E+03  0.74562181480E+02 -0.57887580669E+02  0.20591092094E+03  0.41800000000E+01 0. -1.
         -5    1    3    3    0  502 -0.38949338135E+01  0.37514587817E+02 -0.48671794879E+02  0.61716536076E+02  0.41800000000E+01 0. -1.
        -11    1    1    2    0    0 -0.59517910400E+02 -0.76913741526E+02 -0.59667013191E+01  0.97435654761E+02  0.00000000000E+00 0. -1.
         11    1    1    2    0    0 -0.11953890915E+03 -0.35163027771E+02 -0.74890671554E+02  0.14537744670E+03  0.00000000000E+00 0.  1.
</event>
<event>
 7    1  0.2878477E-009  0.1491991E+03  0.7561462E-02  0.1201461E+00
         -2   -1    0    0    0  501 -0.00000000000E+00  0.00000000000E+00  0.13933190675E+03  0.13933190675E+03  0.00000000000E+00 0.  1.
          2   -1    0    0  501    0  0.00000000000E+00 -0.00000000000E+00 -0.18849896471E+03  0.18849896471E+03  0.00000000000E+00 0. -1.
         25    2    1    2    0    0  0.42738630007E+02 -0.10725330949E+03 -0.52967987602E+02  0.17827806288E+03  0.12509035576E+03 0.  0.
          5    1    3    3  502    0  0.65946427931E+02 -0.36480298790E+02 -0.68672462991E+02  0.10204471143E+03  0.41800000000E+01 0.  1.
         -5    1    3    3    0  502 -0.23207797924E+02 -0.70773010695E+02  0.15704475389E+02  0.76233351458E+02  0.41800000000E+01 0.  1.
        -11    1    1    2    0    0 -0.63349445776E+02  0.33340203513E+02 -0.75524027786E+01  0.71984444418E+02  0.00000000000E+00 0.  1.
         11    1    1    2    0    0  0.20610815769E+02  0.73913105972E+02  0.11353332415E+02  0.77568364157E+02  0.00000000000E+00 0. -1.
</event>
<event>
 7    1  0.2878477E-009  0.2679031E+03  0.7561462E-02  0.1102486E+00
         -1   -1    0    0    0  501 -0.00000000000E+00  0.00000000000E+00  0.43727093493E+03  0.43727093493E+03  0.00000000000E+00 0.  1.
          1   -1    0    0  501    0  0.00000000000E+00 -0.00000000000E+00 -0.16921978740E+03  0.16921978740E+03  0.00000000000E+00 0. -1.
         25    2    1    2    0    0  0.22248545876E+03 -0.11490268118E+03  0.10465874459E+03  0.29883615812E+03  0.12508873283E+03 0.  0.
          5    1    3    3  502    0  0.23840558214E+03 -0.11074469253E+03  0.99312366258E+02  0.28103741212E+03  0.41800000000E+01 0.  1.
         -5    1    3    3    0  502 -0.15920123381E+02 -0.41579886476E+01  0.53463783335E+01  0.17798746005E+02  0.41800000000E+01 0.  1.
        -11    1    1    2    0    0 -0.63901769615E+02  0.73809517949E+01  0.68064451238E+02  0.93651930742E+02  0.00000000000E+00 0. -1.
         11    1    1    2    0    0 -0.15858368914E+03  0.10752172938E+03  0.95327951698E+02  0.21400263346E+03  0.00000000000E+00 0.  1.
</event>
<event>
 7    1  0.2878477E-009  0.1719296E+03  0.7561462E-02  0.1175850E+00
          2   -1    0    0  501    0  0.00000000000E+00  0.00000000000E+00  0.90744421066E+03  0.90744421066E+03  0.00000000000E+00 0. -1.
         -2   -1    0    0    0  501 -0.00000000000E+00 -0.00000000000E+00 -0.46461958882E+02  0.46461958882E+02  0.00000000000E+00 0.  1.
         25    2    1    2    0    0 -0.12332300466E+03 -0.11695079044E+03  0.53500244702E+03  0.57511865661E+03  0.12509116678E+03 0.  0.
          5    1    3    3  502    0 -0.86055560156E+02 -0.60852535526E+02  0.46904498855E+03  0.48075905005E+03  0.41800000000E+01 0.  1.
         -5    1    3    3    0  502 -0.37267444508E+02 -0.56098254912E+02  0.65957458464E+02  0.94359606566E+02  0.41800000000E+01 0.  1.
        -11    1    1    2    0    0  0.45458494359E+02  0.31565047516E+02  0.34447301046E+02  0.65187755625E+02  0.00000000000E+00 0.  1.
         11    1    1    2    0    0  0.77864510305E+02  0.85385742923E+02  0.29153250371E+03  0.31359975730E+03  0.00000000000E+00 0. -1.
</event>
<event>
 7    1  0.2878477E-009  0.2755265E+03  0.7561462E-02  0.1098158E+00
          1   -1    0    0  501    0  0.00000000000E+00  0.00000000000E+00  0.16903320067E+04  0.16903320067E+04  0.00000000000E+00 0. -1.
         -1   -1    0    0    0  501 -0.00000000000E+00 -0.00000000000E+00 -0.46964442268E+02  0.46964442268E+02  0.00000000000E+00 0.  1.
         25    2    1    2    0    0 -0.25528613284E+03  0.41489985281E+02  0.75611873534E+03  0.80885782049E+03  0.12507199258E+03 0.  0.
          5    1    3    3  502    0 -0.14230315994E+03 -0.39399149135E+02  0.41464918482E+03  0.44017485293E+03  0.41800000000E+01 0.  1.
         -5    1    3    3    0  502 -0.11298297290E+03  0.80889134416E+02  0.34146955052E+03  0.36868296755E+03  0.41800000000E+01 0.  1.
        -11    1    1    2    0    0  0.10711672873E+03 -0.44815297136E+02  0.27503227531E+03  0.29853836754E+03  0.00000000000E+00 0.  1.
         11    1    1    2    0    0  0.14816940410E+03  0.33253118553E+01  0.61221655379E+03  0.62990026095E+03  0.00000000000E+00 0. -1.
</event>
<event>
 7    1  0.2878477E-009  0.1233154E+03  0.7561462E-02  0.1237726E+00
         -2   -1    0    0    0  501 -0.00000000000E+00  0.00000000000E+00  0.30246918126E+02  0.30246918126E+02  0.00000000000E+00 0. -1.
          2   -1    0    0  501    0  0.00000000000E+00 -0.00000000000E+00 -0.64615177791E+03  0.64615177791E+03  0.00000000000E+00 0.  1.
         25    2    1    2    0    0 -0.10447332049E+02  0.86178200517E+02 -0.30052747978E+03  0.33689750860E+03  0.12508931292E+03 0.  0.
          5    1    3    3  502    0 -0.59697974217E+02  0.39592649584E+02 -0.22076695327E+03  0.23213562002E+03  0.41800000000E+01 0. -1.
         -5    1    3    3    0  502  0.49250642168E+02  0.46585550933E+02 -0.79760526513E+02  0.10476188858E+03  0.41800000000E+01 0. -1.
        -11    1    1    2    0    0  0.79735340522E+01 -0.96251391944E+02 -0.31460943272E+03  0.32910029300E+03  0.00000000000E+00 0.  1.
         11    1    1    2    0    0  0.24737979970E+01  0.10073191428E+02 -0.76794728627E+00  0.10400894438E+02  0.00000000000E+00 0. -1.
</event>
<event>
 7    1  0.2878477E-009  0.1459085E+03  0.7561462E-02  0.1205593E+00
          1   -1    0    0  501    0  0.00000000000E+00  0.00000000000E+00  0.23040678654E+03  0.23040678654E+03  0.00000000000E+00 0. -1.
         -1   -1    0    0    0  501 -0.00000000000E+00 -0.00000000000E+00 -0.10730732076E+03  0.10730732076E+03  0.00000000000E+00 0.  1.
         25    2    1    2    0    0 -0.29895522132E+02 -0.10706680713E+03  0.90869995754E+02  0.19043181919E+03  0.12509947322E+03 0.  0.
          5    1    3    3  502    0 -0.71605732496E+02 -0.30313762923E+02  0.57619206287E+02  0.96869760411E+02  0.41800000000E+01 0. -1.
         -5    1    3    3    0  502  0.41710210364E+02 -0.76753044207E+02  0.33250789468E+02  0.93562058784E+02  0.41800000000E+01 0. -1.
        -11    1    1    2    0    0  0.43301355952E+02  0.42950445683E+02 -0.19266894158E+02  0.63960623997E+02  0.00000000000E+00 0. -1.
         11    1    1    2    0    0 -0.13405833819E+02  0.64116361447E+02  0.51496364179E+02  0.83321664105E+02  0.00000000000E+00 0.  1.
</event>
<event>
 7    1  0.2878477E-009  0.1084651E+03  0.7561462E-02  0.1263439E+00
          2   -1    0    0  501    0  0.00000000000E+00  0.00000000000E+00  0.27654412740E+03  0.27654412740E+03  0.00000000000E+00 0. -1.
         -2   -1    0    0    0  501 -0.00000000000E+00 -0.00000000000E+00 -0.55310034475E+02  0.55310034475E+02  0.00000000000E+00 0.  1.
         25    2    1    2    0    0  0.24344288890E+02  0.28714838973E+01  0.54936619515E+02  0.13881049525E+03  0.12509768825E+03 0.  0.
          5    1    3    3  502    0  0.66657601487E+01 -0.57558042457E+02  0.47945709714E+02  0.75323463077E+02  0.41800000000E+01 0. -1.
         -5    1    3    3    0  502  0.17678528741E+02  0.60429526355E+02  0.69909098006E+01  0.63487032170E+02  0.41800000000E+01 0. -1.
        -11    1    1    2    0    0  0.11185151329E+02 -0.41659549335E+02  0.95995886679E+02  0.10524179740E+03  0.00000000000E+00 0.  1.
         11    1    1    2    0    0 -0.35529440219E+02  0.38788065438E+02  0.70301586726E+02  0.87801869222E+02  0.00000000000E+00 0. -1.
</event>
<event>
 7    1  0.2878477E-009  0.1289832E+03  0.7561462E-02  0.1228972E+00
         -2   -1    0    0    0  501 -0.00000000000E+00  0.00000000000E+00  0.10937670931E+03  0.10937670931E+03  0.00000000000E+00 0.  1.
          2   -1    0    0  501    0  0.00000000000E+00 -0.00000000000E+00 -0.18868240835E+03  0.18868240835E+03  0.00000000000E+00 0. -1.
         25    2    1    2    0    0  0.61965786798E+02 -0.66884928724E+02 -0.18099742567E+02  0.15584921164E+03  0.12509206075E+03 0.  0.
          5    1    3    3  502    0  0.75625748581E+02 -0.11689683270E+02 -0.49035945163E+02  0.90982959182E+02  0.41800000000E+01 0. -1.
         -5    1    3    3    0  502 -0.13659961783E+02 -0.55195245453E+02  0.30936202596E+02  0.64866252455E+02  0.41800000000E+01 0. -1.
        -11    1    1    2    0    0 -0.72604800632E+02  0.18707122491E+02 -0.53885526011E+02  0.92331270002E+02  0.00000000000E+00 0. -1.
         11    1    1    2    0    0  0.10639013833E+02  0.48177806232E+02 -0.73204304639E+01  0.49878636017E+02  0.00000000000E+00 0.  1.
</event>
<event>
 7    1  0.2878477E-009  0.1067051E+03  0.7561462E-02  0.1266796E+00
          1   -1    0    0  501    0  0.00000000000E+00  0.00000000000E+00  0.51171227653E+02  0.51171227653E+02  0.00000000000E+00 0. -1.
         -1   -1    0    0    0  501 -0.00000000000E+00 -0.00000000000E+00 -0.39744260250E+03  0.39744260250E+03  0.00000000000E+00 0.  1.
         25    2    1    2    0    0 -0.18330349830E+02 -0.85060073492E+02 -0.13770978915E+03  0.20538150568E+03  0.12508540691E+03 0.  0.
          5    1    3    3  502    0 -0.44834329815E+02 -0.96711031458E+01  0.62832432229E-01  0.46055658870E+02  0.41800000000E+01 0. -1.
         -5    1    3    3    0  502  0.26503979985E+02 -0.75388970346E+02 -0.13777262158E+03  0.15932584681E+03  0.41800000000E+01 0. -1.
        -11    1    1    2    0    0  0.59184012470E+01  0.45186142583E+02 -0.19423498965E+02  0.49538745108E+02  0.00000000000E+00 0. -1.
         11    1    1    2    0    0  0.12411948583E+02  0.39873930909E+02 -0.18913808673E+03  0.19369357936E+03  0.00000000000E+00 0.  1.
</event>
<event>
 7    1  0.2878477E-009  0.1790172E+03  0.7561462E-02  0.1168758E+00
          1   -1    0    0  501    0  0.00000000000E+00  0.00000000000E+00  0.73162783003E+03  0.73162783003E+03  0.00000000000E+00 0. -1.
         -1   -1    0    0    0  501 -0.00000000000E+00 -0.00000000000E+00 -0.45820736987E+02  0.45820736987E+02  0.00000000000E+00 0.  1.
         25    2    1    2    0    0  0.65240647722E+02 -0.12979664765E+03  0.34063002392E+03  0.39087111635E+03  0.12509158464E+03 0.  0.
          5    1    3    3  502    0 -0.36617036925E+02 -0.28759708882E+02  0.64419475254E+02  0.79594405835E+02  0.41800000000E+01 0.  1.
         -5    1    3    3    0  502  0.10185768465E+03 -0.10103693877E+03  0.27621054867E+03  0.31127671052E+03  0.41800000000E+01 0.  1.
        -11    1    1    2    0    0 -0.15569776819E+02  0.11482767603E+03  0.28167094008E+03  0.30457565828E+03  0.00000000000E+00 0.  1.
         11    1    1    2    0    0 -0.49670870903E+02  0.14968971628E+02  0.63506129047E+02  0.82001792385E+02  0.00000000000E+00 0. -1.
</event>
<event>
 7    1  0.2878477E-009  0.1583373E+03  0.7561462E-02  0.1190587E+00
          1   -1    0    0  501    0  0.00000000000E+00  0.00000000000E+00  0.13897641985E+03  0.13897641985E+03  0.00000000000E+00 0. -1.
         -1   -1    0    0    0  501 -0.00000000000E+00 -0.00000000000E+00 -0.24263211636E+03  0.24263211636E+03  0.00000000000E+00 0.  1.
         25    2    1    2    0    0  0.13998063759E+03 -0.42631642151E+02 -0.77541005231E+02  0.20753541995E+03  0.12508519987E+03 0.  0.
          5    1    3    3  502    0  0.32105259199E+02 -0.37547818500E+01 -0.86506174676E+02  0.92442613075E+02  0.41800000000E+01 0.  1.
         -5    1    3    3    0  502  0.10787537839E+03 -0.38876860301E+02  0.89651694456E+01  0.11509280687E+03  0.41800000000E+01 0.  1.
        -11    1    1    2    0    0 -0.17267121835E+02  0.43307482227E+02 -0.21314168766E+02  0.51263879130E+02  0.00000000000E+00 0.  1.
         11    1    1    2    0    0 -0.12271351576E+03 -0.67584007538E+00 -0.48005225084E+01  0.12280923713E+03  0.00000000000E+00 0. -1.
</event>
<event>
 7    1  0.2878477E-009  0.8931001E+02  0.7561462E-02  0.1304531E+00
         -2   -1    0    0    0  501 -0.00000000000E+00  0.00000000000E+00  0.12611469471E+02  0.12611469471E+02  0.00000000000E+00 0.  1.
          2   -1    0    0  501    0  0.00000000000E+00 -0.00000000000E+00 -0.13795912515E+04  0.13795912515E+04  0.00000000000E+00 0. -1.
         25    2    1    2    0    0 -0.60943733870E+02 -0.16169681973E+02 -0.95757839411E+03  0.96777054639E+03  0.12509137575E+03 0.  0.
          5    1    3    3  502    0 -0.13562802865E+02  0.64534776774E+01 -0.82450729952E+03  0.82465468916E+03  0.41800000000E+01 0. -1.
         -5    1    3    3    0  502 -0.47380931005E+02 -0.22623159650E+02 -0.13307109459E+03  0.14311585723E+03  0.41800000000E+01 0. -1.
        -11    1    1    2    0    0  0.64548634750E+02  0.46665342010E+02 -0.26083067350E+03  0.27272114079E+03  0.00000000000E+00 0.  1.
         11    1    1    2    0    0 -0.36049008804E+01 -0.30495660037E+02 -0.14857071445E+03  0.15171103382E+03  0.00000000000E+00 0. -1.
</event>
<event>
 7    1  0.2878477E-009  0.7718135E+02  0.7561462E-02  0.1337246E+00
         -3   -1    0    0    0  501 -0.00000000000E+00  0.00000000000E+00  0.55136861182E+02  0.55136861182E+02  0.00000000000E+00 0.  1.
          3   -1    0    0  501    0  0.00000000000E+00 -0.00000000000E+00 -0.44761717515E+03  0.44761717515E+03  0.00000000000E+00 0. -1.
         25    2    1    2    0    0 -0.38380051540E+00 -0.13457384502E+02 -0.39223954316E+03  0.41192289482E+03  0.12508942226E+03 0.  0.
          5    1    3    3  502    0 -0.32499227556E+02 -0.16142511616E+02 -0.37167442695E+03  0.37346503521E+03  0.41800000000E+01 0.  1.
         -5    1    3    3    0  502  0.32115427040E+02  0.26851271133E+01 -0.20565116205E+02  0.38457859615E+02  0.41800000000E+01 0.  1.
        -11    1    1    2    0    0 -0.41048521893E+02 -0.20471393505E+01  0.15428155147E+02  0.43899884970E+02  0.00000000000E+00 0.  1.
         11    1    1    2    0    0  0.41432322408E+02  0.15504523853E+02 -0.15668925962E+02  0.46931256544E+02  0.00000000000E+00 0. -1.
</event>
<event>
 7    1  0.2878477E-009  0.1092946E+03  0.7561462E-02  0.1261882E+00
         -2   -1    0    0    0  501 -0.00000000000E+00  0.00000000000E+00  0.26163270893E+02  0.26163270893E+02  0.00000000000E+00 0.  1.
          2   -1    0    0  501    0  0.00000000000E+00 -0.00000000000E+00 -0.55847148887E+03  0.55847148887E+03  0.00000000000E+00 0. -1.
         25    2    1    2    0    0  0.49412828357E+02 -0.24620149505E+01 -0.24365277093E+03  0.27831964162E+03  0.12508981175E+03 0.  0.
          5    1    3    3  502    0 -0.14385197732E+02  0.48023085174E+02 -0.66956813347E+02  0.83748658956E+02  0.41800000000E+01 0.  1.
         -5    1    3    3    0  502  0.63798026089E+02 -0.50485100124E+02 -0.17669595758E+03  0.19457098266E+03  0.41800000000E+01 0.  1.
        -11    1    1    2    0    0 -0.53443892010E+01 -0.31018506495E+02 -0.36680998177E+02  0.48334313571E+02  0.00000000000E+00 0.  1.
         11    1    1    2    0    0 -0.44068439156E+02  0.33480521446E+02 -0.25197444887E+03  0.25798080458E+03  0.00000000000E+00 0. -1.
</event>
<event>
 7    1  0.2878477E-009  0.1153222E+03  0.7561462E-02  0.1251020E+00
         -1   -1    0    0    0  501 -0.00000000000E+00  0.00000000000E+00  0.94420592401E+02  0.94420592401E+02  0.00000000000E+00 0.  1.
          1   -1    0    0  501    0  0.00000000000E+00 -0.00000000000E+00 -0.20811538580E+03  0.20811538580E+03  0.00000000000E+00 0. -1.
         25    2    1    2    0    0 -0.81059034704E+02 -0.12960886184E+02 -0.96772011124E+02  0.17818844520E+03  0.12509095966E+03 0.  0.
          5    1    3    3  502    0 -0.63458825407E+02  0.22653487135E+02  0.61465931069E+01  0.67789792802E+02  0.41800000000E+01 0. -1.
         -5    1    3    3    0  502 -0.17600209297E+02 -0.35614373319E+02 -0.10291860423E+03  0.11039865240E+03  0.41800000000E+01 0. -1.
        -11    1    1    2    0    0 -0.16658456926E+02 -0.14065723532E+02 -0.32657701702E+01  0.22045725673E+02  0.00000000000E+00 0.  1.
         11    1    1    2    0    0  0.97717491630E+02  0.27026609716E+02 -0.13657012105E+02  0.10230180733E+03  0.00000000000E+00 0. -1.
</event>
<event>
 7    1  0.2878477E-009  0.1012399E+03  0.7561462E-02  0.1277710E+00
         -2   -1    0    0    0  501 -0.00000000000E+00  0.00000000000E+00  0.27647069292E+03  0.27647069292E+03  0.00000000000E+00 0. -1.
          2   -1    0    0  501    0  0.00000000000E+00 -0.00000000000E+00 -0.13901204380E+03  0.13901204380E+03  0.00000000000E+00 0.  1.
         25    2    1    2    0    0  0.37265404685E+01 -0.36937115229E+02  0.23910587311E+03  0.27239185717E+03  0.12508983857E+03 0.  0.
          5    1    3    3  502    0 -0.58825423343E+02 -0.14769063243E+02  0.14437068523E+03  0.15664904345E+03  0.41800000000E+01 0.  1.
         -5    1    3    3    0  502  0.62551963811E+02 -0.22168051986E+02  0.94735187882E+02  0.11574281372E+03  0.41800000000E+01 0.  1.
        -11    1    1    2    0    0 -0.16934982447E+02  0.52274021464E+02 -0.19217321113E+02  0.58212304381E+02  0.00000000000E+00 0. -1.
         11    1    1    2    0    0  0.13208441978E+02 -0.15336906235E+02 -0.82429902878E+02  0.84878575158E+02  0.00000000000E+00 0.  1.
</event>
<event>
 7    1  0.2878477E-009  0.7039772E+02  0.7561462E-02  0.1358746E+00
          2   -1    0    0  501    0  0.00000000000E+00  0.00000000000E+00  0.40223170636E+03  0.40223170636E+03  0.00000000000E+00 0. -1.
         -2   -1    0    0    0  501 -0.00000000000E+00 -0.00000000000E+00 -0.37852994320E+02  0.37852994320E+02  0.00000000000E+00 0.  1.
         25    2    1    2    0    0  0.44551722831E+02  0.12858584009E+02  0.27199494098E+03  0.30295060731E+03  0.12509046071E+03 0.  0.
          5    1    3    3  502    0 -0.38655278810E+01  0.16214006422E+01 -0.12650944780E+02  0.13967463967E+02  0.41800000000E+01 0. -1.
         -5    1    3    3    0  502  0.48417250712E+02  0.11237183367E+02  0.28464588576E+03  0.28898314335E+03  0.41800000000E+01 0. -1.
        -11    1    1    2    0    0 -0.25699005608E+02 -0.42618443985E+02  0.14791351298E+02  0.51918731978E+02  0.00000000000E+00 0.  1.
         11    1    1    2    0    0 -0.18852717222E+02  0.29759859976E+02  0.77592419761E+02  0.85215361390E+02  0.00000000000E+00 0. -1.
</event>
<event>
 7    1  0.2878477E-009  0.1887046E+03  0.7561462E-02  0.1159635E+00
          1   -1    0    0  501    0  0.00000000000E+00  0.00000000000E+00  0.24554454966E+03  0.24554454966E+03  0.00000000000E+00 0. -1.
         -1   -1    0    0    0  501 -0.00000000000E+00 -0.00000000000E+00 -0.14540244307E+03  0.14540244307E+03  0.00000000000E+00 0.  1.
         25    2    1    2    0    0  0.14618384516E+03 -0.48231426070E+02  0.54334737522E+02  0.20566064383E+03  0.12509216471E+03 0.  0.
          5    1    3    3  502    0  0.16213336678E+03 -0.64965306582E+02  0.45306833292E+02  0.18049349358E+03  0.41800000000E+01 0. -1.
         -5    1    3    3    0  502 -0.15949521617E+02  0.16733880512E+02  0.90279042304E+01  0.25167150248E+02  0.41800000000E+01 0. -1.
        -11    1    1    2    0    0 -0.10627345361E+02 -0.23533085161E+02  0.10625698988E+02  0.27922250009E+02  0.00000000000E+00 0. -1.
         11    1    1    2    0    0 -0.13555649980E+03  0.71764511231E+02  0.35181670083E+02  0.15736409889E+03  0.00000000000E+00 0.  1.
</event>
<event>
 7    1  0.2878477E-009  0.1145729E+03  0.7561462E-02  0.1252328E+00
          1   -1    0    0  501    0  0.00000000000E+00  0.00000000000E+00  0.10206044845E+03  0.10206044845E+03  0.00000000000E+00 0. -1.
         -1   -1    0    0    0  501 -0.00000000000E+00 -0.00000000000E+00 -0.16703545118E+03  0.16703545118E+03  0.00000000000E+00 0.  1.
         25    2    1    2    0    0  0.43359514779E+02  0.49521786552E+02 -0.64863750591E+01  0.14149990051E+03  0.12509074273E+03 0.  0.
          5    1    3    3  502    0 -0.42572661845E+02  0.30643025121E+02  0.41274946982E+01  0.52781958448E+02  0.41800000000E+01 0.  1.
         -5    1    3    3    0  502  0.85932176624E+02  0.18878761431E+02 -0.10613869757E+02  0.88717942062E+02  0.41800000000E+01 0.  1.
        -11    1    1    2    0    0 -0.43147192586E+02 -0.44539338650E+01 -0.68828720890E+02  0.81356687336E+02  0.00000000000E+00 0.  1.
         11    1    1    2    0    0 -0.21232219321E+00 -0.45067852687E+02  0.10340093213E+02  0.46239311783E+02  0.00000000000E+00 0. -1.
</event>
<event>
 7    1  0.2878477E-009  0.1053423E+03  0.7561462E-02  0.1269447E+00
         -1   -1    0    0    0  501 -0.00000000000E+00  0.00000000000E+00  0.39276215291E+02  0.39276215291E+02  0.00000000000E+00 0.  1.
          1   -1    0    0  501    0  0.00000000000E+00 -0.00000000000E+00 -0.43935633859E+03  0.43935633859E+03  0.00000000000E+00 0. -1.
         25    2    1    2    0    0  0.54801516471E+02 -0.21143400483E+02 -0.11194407865E+03  0.17784808037E+03  0.12509281896E+03 0.  0.
          5    1    3    3  502    0  0.77884455366E+02  0.26043470771E+02 -0.86439446458E+02  0.11930423740E+03  0.41800000000E+01 0. -1.
         -5    1    3    3    0  502 -0.23082938895E+02 -0.47186871254E+02 -0.25504632194E+02  0.58543842974E+02  0.41800000000E+01 0. -1.
        -11    1    1    2    0    0 -0.59881612694E+01 -0.14254636326E+02 -0.16810070125E+02  0.22839246699E+02  0.00000000000E+00 0.  1.
         11    1    1    2    0    0 -0.48813355202E+02  0.35398036809E+02 -0.27132597452E+03  0.27794522681E+03  0.00000000000E+00 0. -1.
</event>
<event>
 7    1  0.2878477E-009  0.8683005E+02  0.7561462E-02  0.1310715E+00
          4   -1    0    0  501    0  0.00000000000E+00  0.00000000000E+00  0.29832111967E+02  0.29832111967E+02  0.00000000000E+00 0. -1.
         -4   -1    0    0    0  501 -0.00000000000E+00 -0.00000000000E+00 -0.36729962031E+03  0.36729962031E+03  0.00000000000E+00 0.  1.
         25    2    1    2    0    0  0.13667933501E+02 -0.89191476918E+01 -0.19705210142E+03  0.23397816769E+03  0.12509951511E+03 0.  0.
          5    1    3    3  502    0 -0.23996221302E+02  0.29712203014E+02 -0.16843706426E+03  0.17276327926E+03  0.41800000000E+01 0.  1.
         -5    1    3    3    0  502  0.37664154803E+02 -0.38631350706E+02 -0.28615037163E+02  0.61214888436E+02  0.41800000000E+01 0.  1.
        -11    1    1    2    0    0  0.32303448057E+02 -0.58715749803E+01 -0.74745639045E+02  0.81638830868E+02  0.00000000000E+00 0.  1.
         11    1    1    2    0    0 -0.45971381559E+02  0.14790722672E+02 -0.65669767882E+02  0.81514733719E+02  0.00000000000E+00 0. -1.
</event>
<event>
 7    1  0.2878477E-009  0.1108640E+03  0.7561462E-02  0.1258978E+00
          1   -1    0    0  501    0  0.00000000000E+00  0.00000000000E+00  0.39086752134E+02  0.39086752134E+02  0.00000000000E+00 0. -1.
         -1   -1    0    0    0  501 -0.00000000000E+00 -0.00000000000E+00 -0.46668448873E+03  0.46668448873E+03  0.00000000000E+00 0.  1.
         25    2    1    2    0    0 -0.36312769173E+02  0.41000873455E+02 -0.12519138911E+03  0.18525512015E+03  0.12508751659E+03 0.  0.
          5    1    3    3  502    0 -0.44613805191E+02  0.79562230854E+02 -0.10955339009E+03  0.14261822419E+03  0.41800000000E+01 0. -1.
         -5    1    3    3    0  502  0.83010360177E+01 -0.38561357399E+02 -0.15637999017E+02  0.42636895955E+02  0.41800000000E+01 0. -1.
        -11    1    1    2    0    0 -0.22026447679E+02 -0.16275599100E+02 -0.29099297150E+02  0.39960338062E+02  0.00000000000E+00 0. -1.
         11    1    1    2    0    0  0.58339216851E+02 -0.24725274355E+02 -0.27330705034E+03  0.28055578265E+03  0.00000000000E+00 0.  1.
</event>
<event>
 7    1  0.2878477E-009  0.1159659E+03  0.7561462E-02  0.1249904E+00
          2   -1    0    0  501    0  0.00000000000E+00  0.00000000000E+00  0.27777275251E+03  0.27777275251E+03  0.00000000000E+00 0. -1.
         -2   -1    0    0    0  501 -0.00000000000E+00 -0.00000000000E+00 -0.48990171773E+02  0.48990171773E+02  0.00000000000E+00 0.  1.
         25    2    1    2    0    0  0.37716103355E+02  0.44863169939E+01  0.12525919009E+03  0.18105243047E+03  0.12508991320E+03 0.  0.
          5    1    3    3  502    0 -0.76452463730E+01  0.58291950704E+02  0.69783244285E+02  0.91343171020E+02  0.41800000000E+01 0.  1.
         -5    1    3    3    0  502  0.45361349728E+02 -0.53805633710E+02  0.55475945800E+02  0.89709259447E+02  0.41800000000E+01 0.  1.
        -11    1    1    2    0    0 -0.48515502169E+02 -0.41557320229E+02  0.66652616784E+02  0.92321915814E+02  0.00000000000E+00 0.  1.
         11    1    1    2    0    0  0.10799398815E+02  0.37071003235E+02  0.36870773871E+02  0.53388578006E+02  0.00000000000E+00 0. -1.
</event>
<event>
 7    1  0.2878477E-009  0.1197010E+03  0.7561462E-02  0.1243591E+00
         -2   -1    0    0    0  501 -0.00000000000E+00  0.00000000000E+00  0.21105941013E+03  0.21105941013E+03  0.00000000000E+00 0.  1.
          2   -1    0    0  501    0  0.00000000000E+00 -0.00000000000E+00 -0.74071059882E+02  0.74071059882E+02  0.00000000000E+00 0. -1.
         25    2    1    2    0    0  0.35385182618E+02 -0.48360323776E+02  0.57097188819E+02  0.14999525452E+03  0.12509058855E+03 0.  0.
          5    1    3    3  502    0 -0.34912423161E+02  0.13941347060E+02 -0.37329802063E+01  0.38008498918E+02  0.41800000000E+01 0. -1.
         -5    1    3    3    0  502  0.70297605779E+02 -0.62301670835E+02  0.60830169026E+02  0.11198675560E+03  0.41800000000E+01 0. -1.
        -11    1    1    2    0    0 -0.60634359942E+02  0.97416841770E+01  0.34635939203E+02  0.70505845862E+02  0.00000000000E+00 0.  1.
         11    1    1    2    0    0  0.25249177324E+02  0.38618639598E+02  0.45255222228E+02  0.64629369631E+02  0.00000000000E+00 0. -1.
</event>
<event>
 7    1  0.2878477E-009  0.5904108E+02  0.7561462E-02  0.1401901E+00
         -1   -1    0    0    0  501 -0.00000000000E+00  0.00000000000E+00  0.12462516458E+03  0.12462516458E+03  0.00000000000E+00 0.  1.
          1   -1    0    0  501    0  0.00000000000E+00 -0.00000000000E+00 -0.70800392798E+02  0.70800392798E+02  0.00000000000E+00 0. -1.
         25    2    1    2    0    0 -0.99661984994E-01 -0.57899675907E+01  0.72268307899E+02  0.14458150090E+03  0.12509024110E+03 0.  0.
          5    1    3    3  502    0  0.28355066753E+02 -0.35638011435E+02 -0.14867595444E+02  0.48089452730E+02  0.41800000000E+01 0. -1.
         -5    1    3    3    0  502 -0.28454728738E+02  0.29848043844E+02  0.87135903343E+02  0.96492048171E+02  0.41800000000E+01 0. -1.
        -11    1    1    2    0    0 -0.13734557551E+02 -0.35764655143E+01  0.10342454147E+02  0.17561193993E+02  0.00000000000E+00 0.  1.
         11    1    1    2    0    0  0.13834219536E+02  0.93664331050E+01 -0.28785990267E+02  0.33282862481E+02  0.00000000000E+00 0. -1.
</event>
<event>
 7    1  0.2878477E-009  0.1662330E+03  0.7561462E-02  0.1181834E+00
         -2   -1    0    0    0  501 -0.00000000000E+00  0.00000000000E+00  0.17425024255E+03  0.17425024255E+03  0.00000000000E+00 0. -1.
          2   -1    0    0  501    0  0.00000000000E+00 -0.00000000000E+00 -0.32319923939E+03  0.32319923939E+03  0.00000000000E+00 0.  1.
         25    2    1    2    0    0  0.15148408545E+03  0.25805755090E+02  0.73318910707E+02  0.21127400716E+03  0.12509068028E+03 0.  0.
          5    1    3    3  502    0  0.12976610069E+03  0.55011843218E+02  0.93748542296E+02  0.16932750918E+03  0.41800000000E+01 0.  1.
         -5    1    3    3    0  502  0.21717984760E+02 -0.29206088129E+02 -0.20429631589E+02  0.41946497979E+02  0.41800000000E+01 0.  1.
        -11    1    1    2    0    0 -0.50503693144E+02  0.37294390481E+00 -0.12697204712E+02  0.52076684954E+02  0.00000000000E+00 0. -1.
         11    1    1    2    0    0 -0.10098039231E+03 -0.26178698994E+02 -0.20957070283E+03  0.23409878982E+03  0.00000000000E+00 0.  1.
</event>
<event>
 7    1  0.2878477E-009  0.7934367E+02  0.7561462E-02  0.1330924E+00
         -2   -1    0    0    0  501 -0.00000000000E+00  0.00000000000E+00  0.13268209470E+03  0.13268209470E+03  0.00000000000E+00 0.  1.
          2   -1    0    0  501    0  0.00000000000E+00 -0.00000000000E+00 -0.65157693608E+02  0.65157693608E+02  0.00000000000E+00 0. -1.
         25    2    1    2    0    0  0.46541908076E+01  0.16664315310E+02  0.51610570395E+02  0.13642038422E+03  0.12509000503E+03 0.  0.
          5    1    3    3  502    0  0.50556622244E+02  0.16681527810E+02  0.68917697140E+02  0.87185817665E+02  0.41800000000E+01 0. -1.
         -5    1    3    3    0  502 -0.45902431436E+02 -0.17212500083E-01 -0.17307126745E+02  0.49234566558E+02  0.41800000000E+01 0. -1.
        -11    1    1    2    0    0 -0.34233723497E+01  0.21116721906E+02  0.38197473627E+01  0.21730759127E+02  0.00000000000E+00 0.  1.
         11    1    1    2    0    0 -0.12308184579E+01 -0.37781037216E+02  0.12094083338E+02  0.39688644963E+02  0.00000000000E+00 0. -1.
</event>
<event>
 7    1  0.2878477E-009  0.1309132E+03  0.7561462E-02  0.1226107E+00
          2   -1    0    0  501    0  0.00000000000E+00  0.00000000000E+00  0.14372096415E+04  0.14372096415E+04  0.00000000000E+00 0. -1.
         -2   -1    0    0    0  501 -0.00000000000E+00 -0.00000000000E+00 -0.13947265641E+02  0.13947265641E+02  0.00000000000E+00 0.  1.
         25    2    1    2    0    0  0.66469704995E+02 -0.65449274210E+02  0.80087069294E+03  0.81593167881E+03  0.12509519775E+03 0.  0.
          5    1    3    3  502    0  0.87926320342E+02 -0.70040546256E+02  0.76796957524E+03  0.77616458101E+03  0.41800000000E+01 0. -1.
         -5    1    3    3    0  502 -0.21456615347E+02  0.45912720462E+01  0.32901117701E+02  0.39767097797E+02  0.41800000000E+01 0. -1.
        -11    1    1    2    0    0 -0.68030940673E+02  0.68459842117E+01  0.32679103365E+03  0.33386742288E+03  0.00000000000E+00 0.  1.
         11    1    1    2    0    0  0.15612356773E+01  0.58603289998E+02  0.29560064927E+03  0.30135780545E+03  0.00000000000E+00 0. -1.
</event>
<event>
 7    1  0.2878477E-009  0.1988600E+03  0.7561462E-02  0.1150704E+00
          2   -1    0    0  501    0  0.00000000000E+00  0.00000000000E+00  0.53763176564E+03  0.53763176564E+03  0.00000000000E+00 0.  1.
         -2   -1    0    0    0  501 -0.00000000000E+00 -0.00000000000E+00 -0.10794481441E+03  0.10794481441E+03  0.00000000000E+00 0. -1.
         25    2    1    2    0    0 -0.21776699761E+02 -0.18811840306E+03  0.86487909973E+02  0.24288047651E+03  0.12509200244E+03 0.  0.
          5    1    3    3  502    0 -0.13357277333E+02 -0.63959111135E+00  0.49645750878E+02  0.51584870987E+02  0.41800000000E+01 0. -1.
         -5    1    3    3    0  502 -0.84194224288E+01 -0.18747881195E+03  0.36842159095E+02  0.19129560552E+03  0.41800000000E+01 0. -1.
        -11    1    1    2    0    0  0.35881470510E+02  0.90346834066E+02  0.24422151061E+03  0.26285771170E+03  0.00000000000E+00 0.  1.
         11    1    1    2    0    0 -0.14104770748E+02  0.97771568996E+02  0.98977530649E+02  0.13983839185E+03  0.00000000000E+00 0. -1.
</event>
<event>
 7    1  0.2878477E-009  0.5486452E+02  0.7561462E-02  0.1420741E+00
          2   -1    0    0  501    0  0.00000000000E+00  0.00000000000E+00  0.14966168124E+03  0.14966168124E+03  0.00000000000E+00 0. -1.
         -2   -1    0    0    0  501 -0.00000000000E+00 -0.00000000000E+00 -0.93595740699E+02  0.93595740699E+02  0.00000000000E+00 0.  1.
         25    2    1    2    0    0  0.37362490721E+02  0.27733404882E+02  0.33672692244E+01  0.13350508120E+03  0.12508865154E+03 0.  0.
          5    1    3    3  502    0  0.42323121145E+02  0.91949017796E+01 -0.56032167804E+02  0.70942716547E+02  0.41800000000E+01 0.  1.
         -5    1    3    3    0  502 -0.49606304240E+01  0.18538503102E+02  0.59399437028E+02  0.62562364651E+02  0.41800000000E+01 0.  1.
        -11    1    1    2    0    0 -0.27242126775E+02 -0.21348046276E+02 -0.17331408387E+02  0.38707237924E+02  0.00000000000E+00 0.  1.
         11    1    1    2    0    0 -0.10120363946E+02 -0.63853586064E+01  0.70030079700E+02  0.71045102813E+02  0.00000000000E+00 0. -1.
</event>
<event>
 7    1  0.2878477E-009  0.1159104E+03  0.7561462E-02  0.1250000E+00
         -1   -1    0    0    0  501 -0.00000000000E+00  0.00000000000E+00  0.84312878872E+03  0.84312878872E+03  0.00000000000E+00 0.  1.
          1   -1    0    0  501    0  0.00000000000E+00 -0.00000000000E+00 -0.26161957262E+02  0.26161957262E+02  0.00000000000E+00 0. -1.
         25    2    1    2    0    0  0.34882523548E+02 -0.85095211486E+02  0.56217193508E+03  0.58321736812E+03  0.12508888208E+03 0.  0.
          5    1    3    3  502    0  0.51734811684E+01  0.72421125978E+01 -0.25920757903E+01  0.10168793398E+02  0.41800000000E+01 0.  1.
         -5    1    3    3    0  502  0.29709042380E+02 -0.92337324084E+02  0.56476401087E+03  0.57304857472E+03  0.41800000000E+01 0.  1.
        -11    1    1    2    0    0 -0.41155162857E+02  0.16186985716E+01  0.49673132690E+02  0.64527418405E+02  0.00000000000E+00 0. -1.
         11    1    1    2    0    0  0.62726393086E+01  0.83476512915E+02  0.20512176369E+03  0.22154595946E+03  0.00000000000E+00 0.  1.
</event>
<event>
 7    1  0.2878477E-009  0.1389258E+03  0.7561462E-02  0.1214782E+00
         -3   -1    0    0    0  501 -0.00000000000E+00  0.00000000000E+00  0.45287087008E+03  0.45287087008E+03  0.00000000000E+00 0.  1.
          3   -1    0    0  501    0  0.00000000000E+00 -0.00000000000E+00 -0.43951763328E+02  0.43951763328E+02  0.00000000000E+00 0. -1.
         25    2    1    2    0    0 -0.47966673617E+02  0.73621816964E+02  0.26174398392E+03  0.30312412393E+03  0.12511333932E+03 0.  0.
          5    1    3    3  502    0  0.37576541277E+02  0.52370185414E+02  0.11454831679E+03  0.13150445641E+03  0.41800000000E+01 0.  1.
         -5    1    3    3    0  502 -0.85543214894E+02  0.21251631551E+02  0.14719566713E+03  0.17161966752E+03  0.41800000000E+01 0.  1.
        -11    1    1    2    0    0 -0.25235441975E+02 -0.32192696798E+02  0.37584168161E+02  0.55549680064E+02  0.00000000000E+00 0. -1.
         11    1    1    2    0    0  0.73202115592E+02 -0.41429120166E+02  0.10959095467E+03  0.13814882942E+03  0.00000000000E+00 0.  1.
</event>
<event>
 7    1  0.2878477E-009  0.1312660E+03  0.7561462E-02  0.1225589E+00
          4   -1    0    0  501    0  0.00000000000E+00  0.00000000000E+00  0.60411491278E+03  0.60411491278E+03  0.00000000000E+00 0. -1.
         -4   -1    0    0    0  501 -0.00000000000E+00 -0.00000000000E+00 -0.40697954294E+02  0.40697954294E+02  0.00000000000E+00 0.  1.
         25    2    1    2    0    0 -0.56323668767E+02  0.79175856958E+02  0.41702160563E+03  0.44608904448E+03  0.12508894455E+03 0.  0.
          5    1    3    3  502    0  0.24599134634E+02 -0.63409222151E+01  0.21968579037E+02  0.33843988893E+02  0.41800000000E+01 0.  1.
         -5    1    3    3    0  502 -0.80922803401E+02  0.85516779173E+02  0.39505302660E+03  0.41224505558E+03  0.41800000000E+01 0.  1.
        -11    1    1    2    0    0  0.47871421318E+02 -0.91947194063E+02  0.80991104980E+02  0.13155044113E+03  0.00000000000E+00 0.  1.
         11    1    1    2    0    0  0.84522474492E+01  0.12771337105E+02  0.65404247868E+02  0.67173381466E+02  0.00000000000E+00 0. -1.
</event>
<event>
 7    1  0.2878477E-009  0.1366785E+03  0.7561462E-02  0.1217869E+00
         -1   -1    0    0    0  501 -0.00000000000E+00  0.00000000000E+00  0.29686629488E+03  0.29686629488E+03  0.00000000000E+00 0.  1.
          1   -1    0    0  501    0  0.00000000000E+00 -0.00000000000E+00 -0.80150801291E+02  0.80150801291E+02  0.00000000000E+00 0. -1.
         25    2    1    2    0    0  0.32734932562E+02  0.10351821097E+03  0.11417099633E+03  0.20114747954E+03  0.12505077493E+03 0.  0.
          5    1    3    3  502    0  0.48057309906E+02 -0.94807098322E+01  0.19533114745E+02  0.52899942022E+02  0.41800000000E+01 0.  1.
         -5    1    3    3    0  502 -0.15322377343E+02  0.11299892080E+03  0.94637881589E+02  0.14824753752E+03  0.41800000000E+01 0.  1.
        -11    1    1    2    0    0 -0.93705857194E+00 -0.29644303030E+02  0.89633629329E+02  0.94413189161E+02  0.00000000000E+00 0.  1.
         11    1    1    2    0    0 -0.31797873990E+02 -0.73873907939E+02  0.12910867924E+02  0.81456427463E+02  0.00000000000E+00 0. -1.
</event>
<event>
 7    1  0.2878477E-009  0.1325674E+03  0.7561462E-02  0.1223695E+00
         -1   -1    0    0    0  501 -0.00000000000E+00  0.00000000000E+00  0.10891620916E+04  0.10891620916E+04  0.00000000000E+00 0.  1.
          1   -1    0    0  501    0  0.00000000000E+00 -0.00000000000E+00 -0.18444983394E+02  0.18444983394E+02  0.00000000000E+00 0. -1.
         25    2    1    2    0    0 -0.83045839360E+02 -0.19913328186E+02  0.71529446530E+03  0.73115357918E+03  0.12508489987E+03 0.  0.
          5    1    3    3  502    0 -0.11567453427E+03 -0.23012522000E+02  0.57978008113E+03  0.59166932397E+03  0.41800000000E+01 0. -1.
         -5    1    3    3    0  502  0.32628694912E+02  0.30991938138E+01  0.13551438417E+03  0.13948425521E+03  0.41800000000E+01 0. -1.
        -11    1    1    2    0    0  0.50472159015E+02 -0.26787045446E+02  0.25196306552E+03  0.25836093169E+03  0.00000000000E+00 0.  1.
         11    1    1    2    0    0  0.32573680345E+02  0.46700373632E+02  0.10345957736E+03  0.11809256411E+03  0.00000000000E+00 0. -1.
</event>
<event>
 7    1  0.2878477E-009  0.1081752E+03  0.7561462E-02  0.1263987E+00
         -1   -1    0    0    0  501 -0.00000000000E+00  0.00000000000E+00  0.81297134914E+02  0.81297134914E+02  0.00000000000E+00 0.  1.
          1   -1    0    0  501    0  0.00000000000E+00 -0.00000000000E+00 -0.28677974569E+03  0.28677974569E+03  0.00000000000E+00 0. -1.
         25    2    1    2    0    0 -0.39729120241E+02 -0.83804646196E+02 -0.43147598168E+02  0.16158776431E+03  0.12508904279E+03 0.  0.
          5    1    3    3  502    0  0.10381337338E+01 -0.21140552748E+02 -0.76599652066E+02  0.79580021292E+02  0.41800000000E+01 0.  1.
         -5    1    3    3    0  502 -0.40767253975E+02 -0.62664093448E+02  0.33452053899E+02  0.82007743015E+02  0.41800000000E+01 0.  1.
        -11    1    1    2    0    0 -0.21517983122E+02  0.37058281608E+02 -0.26676782902E+02  0.50477624542E+02  0.00000000000E+00 0. -1.
         11    1    1    2    0    0  0.61247103363E+02  0.46746364588E+02 -0.13565822971E+03  0.15601149176E+03  0.00000000000E+00 0.  1.
</event>
<event>
 7    1  0.2878477E-009  0.1279028E+03  0.7561462E-02  0.1230601E+00
          2   -1    0    0  501    0  0.00000000000E+00  0.00000000000E+00  0.25480471022E+03  0.25480471022E+03  0.00000000000E+00 0. -1.
         -2   -1    0    0    0  501 -0.00000000000E+00 -0.00000000000E+00 -0.99639505380E+02  0.99639505380E+02  0.00000000000E+00 0.  1.
         25    2    1    2    0    0  0.67432979360E+01 -0.88039919423E+02 -0.12405614417E+01  0.15312012431E+03  0.12509090293E+03 0.  0.
          5    1    3    3  502    0 -0.18973805335E+02 -0.98922541405E+02  0.35413341620E+02  0.10685154024E+03  0.41800000000E+01 0.  1.
         -5    1    3    3    0  502  0.25717103271E+02  0.10882621982E+02 -0.36653903062E+02  0.46268584066E+02  0.41800000000E+01 0.  1.
        -11    1    1    2    0    0  0.42186867818E+02  0.43362736278E+02  0.73756977429E+02  0.95394708623E+02  0.00000000000E+00 0. -1.
         11    1    1    2    0    0 -0.48930165754E+02  0.44677183145E+02  0.82648788853E+02  0.10592938267E+03  0.00000000000E+00 0.  1.
</event>
<event>
 7    1  0.2878477E-009  0.9256753E+02  0.7561462E-02  0.1296751E+00
         -2   -1    0    0    0  501 -0.00000000000E+00  0.00000000000E+00  0.12902035794E+03  0.12902035794E+03  0.00000000000E+00 0.  1.
          2   -1    0    0  501    0  0.00000000000E+00 -0.00000000000E+00 -0.25975049688E+03  0.25975049688E+03  0.00000000000E+00 0. -1.
         25    2    1    2    0    0  0.92060825817E+01  0.12197207151E+02 -0.22431276278E+03  0.25728540829E+03  0.12508413950E+03 0.  0.
          5    1    3    3  502    0 -0.36680328592E+02  0.47420615237E+02 -0.15878711178E+03  0.16977921110E+03  0.41800000000E+01 0. -1.
         -5    1    3    3    0  502  0.45886411174E+02 -0.35223408085E+02 -0.65525650999E+02  0.87506197188E+02  0.41800000000E+01 0. -1.
        -11    1    1    2    0    0 -0.37342727015E+02 -0.10783061970E+02  0.58072617399E+01  0.39299847014E+02  0.00000000000E+00 0. -1.
         11    1    1    2    0    0  0.28136644433E+02 -0.14141451812E+01  0.87775362103E+02  0.92185599520E+02  0.00000000000E+00 0.  1.
</event>
<event>
 7    1  0.2878477E-009  0.9076010E+02  0.7561462E-02  0.1301021E+00
          1   -1    0    0  501    0  0.00000000000E+00  0.00000000000E+00  0.11353155198E+04  0.11353155198E+04  0.00000000000E+00 0. -1.
         -1   -1    0    0    0  501 -0.00000000000E+00 -0.00000000000E+00 -0.12239989193E+02  0.12239989193E+02  0.00000000000E+00 0.  1.
         25    2    1    2    0    0  0.37025019892E+02 -0.21966601135E+02  0.71164186230E+03  0.72383338184E+03  0.12508893164E+03 0.  0.
          5    1    3    3  502    0 -0.20861598150E+02 -0.68885123943E+01  0.56449156877E+03  0.56493438689E+03  0.41800000000E+01 0.  1.
         -5    1    3    3    0  502  0.57886618042E+02 -0.15078088740E+02  0.14715029354E+03  0.15889899495E+03  0.41800000000E+01 0.  1.
        -11    1    1    2    0    0  0.13713249865E+02 -0.25984355926E+02  0.16479433032E+03  0.16739298456E+03  0.00000000000E+00 0. -1.
         11    1    1    2    0    0 -0.50738269757E+02  0.47950957061E+02  0.24663933799E+03  0.25632914260E+03  0.00000000000E+00 0.  1.
</event>
<event>
 7    1  0.2878477E-009  0.1846913E+03  0.7561462E-02  0.1163338E+00
         -2   -1    0    0    0  501 -0.00000000000E+00  0.00000000000E+00  0.99767687671E+02  0.99767687671E+02  0.00000000000E+00 0.  1.
          2   -1    0    0  501    0  0.00000000000E+00 -0.00000000000E+00 -0.35916336272E+03  0.35916336272E+03  0.00000000000E+00 0. -1.
         25    2    1    2    0    0 -0.12245661526E+03 -0.94618329023E+02 -0.11513611207E+03  0.22989709595E+03  0.12509236434E+03 0.  0.
          5    1    3    3  502    0 -0.10753131050E+02  0.28350659272E+02 -0.63078341855E+01  0.31251414058E+02  0.41800000000E+01 0. -1.
         -5    1    3    3    0  502 -0.11170348421E+03 -0.12296898830E+03 -0.10882827788E+03  0.19864568189E+03  0.41800000000E+01 0. -1.
        -11    1    1    2    0    0  0.10868799890E+03  0.10812093929E+03 -0.14309754275E+03  0.20971438997E+03  0.00000000000E+00 0.  1.
         11    1    1    2    0    0  0.13768616356E+02 -0.13502610270E+02 -0.11620202340E+01  0.19319564474E+02  0.00000000000E+00 0. -1.
</event>
<event>
 7    1  0.2878477E-009  0.2320175E+03  0.7561462E-02  0.1125228E+00
          3   -1    0    0  501    0  0.00000000000E+00  0.00000000000E+00  0.12080691952E+04  0.12080691952E+04  0.00000000000E+00 0. -1.
         -3   -1    0    0    0  501 -0.00000000000E+00 -0.00000000000E+00 -0.49087041073E+02  0.49087041073E+02  0.00000000000E+00 0.  1.
         25    2    1    2    0    0 -0.17342340915E+03  0.12911842322E+03  0.66569911451E+03  0.71101968243E+03  0.12508569736E+03 0.  0.
          5    1    3    3  502    0 -0.17334233836E+03  0.96607449694E+02  0.63781066382E+03  0.66798239565E+03  0.41800000000E+01 0. -1.
         -5    1    3    3    0  502 -0.81070793566E-01  0.32510973523E+02  0.27888450682E+02  0.43037286780E+02  0.41800000000E+01 0. -1.
        -11    1    1    2    0    0  0.14794763940E+03 -0.60980749788E+02  0.30810726674E+03  0.34718473997E+03  0.00000000000E+00 0.  1.
         11    1    1    2    0    0  0.25475769753E+02 -0.68137673429E+02  0.18517577288E+03  0.19895181388E+03  0.00000000000E+00 0. -1.
</event>
<event>
 7    1  0.2878477E-009  0.1204614E+03  0.7561462E-02  0.1242338E+00
         -1   -1    0    0    0  501 -0.00000000000E+00  0.00000000000E+00  0.39379385088E+02  0.39379385088E+02  0.00000000000E+00 0.  1.
          1   -1    0    0  501    0  0.00000000000E+00 -0.00000000000E+00 -0.65122728416E+03  0.65122728416E+03  0.00000000000E+00 0. -1.
         25    2    1    2    0    0 -0.10762734173E+03 -0.14641839066E+02 -0.41825527993E+03  0.44986902855E+03  0.12508651214E+03 0.  0.
          5    1    3    3  502    0 -0.36292603924E+02 -0.40170736815E+01 -0.34511268436E+03  0.34706415443E+03  0.41800000000E+01 0.  1.
         -5    1    3    3    0  502 -0.71334737802E+02 -0.10624765384E+02 -0.73142595568E+02  0.10280487412E+03  0.41800000000E+01 0.  1.
        -11    1    1    2    0    0  0.33654280066E+02  0.41319598180E+02 -0.12687232599E+03  0.13760998097E+03  0.00000000000E+00 0.  1.
         11    1    1    2    0    0  0.73973061659E+02 -0.26677759114E+02 -0.66720293145E+02  0.10312765972E+03  0.00000000000E+00 0. -1.
</event>
<event>
 7    1  0.2878477E-009  0.1246265E+03  0.7561462E-02  0.1235654E+00
          1   -1    0    0  501    0  0.00000000000E+00  0.00000000000E+00  0.10103210468E+03  0.10103210468E+03  0.00000000000E+00 0. -1.
         -1   -1    0    0    0  501 -0.00000000000E+00 -0.00000000000E+00 -0.25456314447E+03  0.25456314447E+03  0.00000000000E+00 0.  1.
         25    2    1    2    0    0 -0.72853736070E+02 -0.87711365264E+02 -0.11638061416E+03  0.20540931736E+03  0.12509032677E+03 0.  0.
          5    1    3    3  502    0 -0.45568022522E+02 -0.48044346493E+02 -0.13749890303E+03  0.15266998605E+03  0.41800000000E+01 0.  1.
         -5    1    3    3    0  502 -0.27285713548E+02 -0.39667018771E+02  0.21118288871E+02  0.52739331309E+02  0.41800000000E+01 0.  1.
        -11    1    1    2    0    0 -0.14062958184E+02  0.19749606854E+02 -0.31444099690E+02  0.39705732194E+02  0.00000000000E+00 0.  1.
         11    1    1    2    0    0  0.86916694254E+02  0.67961758410E+02 -0.57063259405E+01  0.11048019959E+03  0.00000000000E+00 0. -1.
</event>
<event>
 7    1  0.2878477E-009  0.1180114E+03  0.7561462E-02  0.1246414E+00
          3   -1    0    0  501    0  0.00000000000E+00  0.00000000000E+00  0.98159935125E+02  0.98159935125E+02  0.00000000000E+00 0. -1.
         -3   -1    0    0    0  501 -0.00000000000E+00 -0.00000000000E+00 -0.15759758704E+03  0.15759758704E+03  0.00000000000E+00 0.  1.
         25    2    1    2    0    0 -0.54934821402E+01 -0.56039973579E+02 -0.52149539099E+02  0.14675430744E+03  0.12508635153E+03 0.  0.
          5    1    3    3  502    0 -0.61613603733E+02 -0.84336228047E+01 -0.33322796832E+02  0.70677035501E+02  0.41800000000E+01 0.  1.
         -5    1    3    3    0  502  0.56120121593E+02 -0.47606350775E+02 -0.18826742267E+02  0.76077271941E+02  0.41800000000E+01 0.  1.
        -11    1    1    2    0    0 -0.20391253912E+01  0.77352266575E+02 -0.23860822559E+02  0.80974502344E+02  0.00000000000E+00 0.  1.
         11    1    1    2    0    0  0.75326075314E+01 -0.21312292996E+02  0.16572709747E+02  0.28028712373E+02  0.00000000000E+00 0. -1.
</event>
<event>
 7    1  0.2878477E-009  0.1318039E+03  0.7561462E-02  0.1224803E+00
         -1   -1    0    0    0  501 -0.00000000000E+00  0.00000000000E+00  0.39806101363E+02  0.39806101363E+02  0.00000000000E+00 0.  1.
          1   -1    0    0  501    0  0.00000000000E+00 -0.00000000000E+00 -0.74077868812E+03  0.74077868812E+03  0.00000000000E+00 0. -1.
         25    2    1    2    0    0 -0.43160268169E+02  0.76584385363E+02 -0.31748354254E+03  0.35237874853E+03  0.12508799223E+03 0.  0.
          5    1    3    3  502    0 -0.52335942201E+02  0.42412433762E+02 -0.30827850035E+03  0.31558037259E+03  0.41800000000E+01 0. -1.
         -5    1    3    3    0  502  0.91756740323E+01  0.34171951601E+02 -0.92050421882E+01  0.36798375940E+02  0.41800000000E+01 0. -1.
        -11    1    1    2    0    0 -0.28978264881E+02 -0.83144628814E+02 -0.89990863178E+02  0.12590124936E+03  0.00000000000E+00 0. -1.
         11    1    1    2    0    0  0.72138533050E+02  0.65602434510E+01 -0.29349818104E+03  0.30230479159E+03  0.00000000000E+00 0.  1.
</event>
<event>
 7    1  0.2878477E-009  0.2601647E+03  0.7561462E-02  0.1107044E+00
          1   -1    0    0  501    0  0.00000000000E+00  0.00000000000E+00  0.15855487821E+04  0.15855487821E+04  0.00000000000E+00 0. -1.
         -1   -1    0    0    0  501 -0.00000000000E+00 -0.00000000000E+00 -0.47513009925E+02  0.47513009925E+02  0.00000000000E+00 0.  1.
         25    2    1    2    0    0  0.16516519606E+03  0.18128646073E+03  0.93211549466E+03  0.97192128251E+03  0.12508941270E+03 0.  0.
          5    1    3    3  502    0  0.67962083920E+02  0.18275120801E+02  0.13259708994E+03  0.15017418404E+03  0.41800000000E+01 0. -1.
         -5    1    3    3    0  502  0.97203112142E+02  0.16301133993E+03  0.79951840472E+03  0.82174709847E+03  0.41800000000E+01 0. -1.
        -11    1    1    2    0    0 -0.37510171537E+02  0.91348072364E+00  0.51235429256E+02  0.63505248813E+02  0.00000000000E+00 0.  1.
         11    1    1    2    0    0 -0.12765502452E+03 -0.18219994145E+03  0.55468484828E+03  0.59763526073E+03  0.00000000000E+00 0. -1.
</event>
<event>
 7    1  0.2878477E-009  0.1252943E+03  0.7561462E-02  0.1234610E+00
         -2   -1    0    0    0  501 -0.00000000000E+00  0.00000000000E+00  0.48063313178E+02  0.48063313178E+02  0.00000000000E+00 0.  1.
          2   -1    0    0  501    0  0.00000000000E+00 -0.00000000000E+00 -0.37111915631E+03  0.37111915631E+03  0.00000000000E+00 0. -1.
         25    2    1    2    0    0  0.66998354548E+02  0.39880262840E+02 -0.16445924827E+03  0.22085124720E+03  0.12509681920E+03 0.  0.
          5    1    3    3  502    0  0.73161890627E+02  0.71503082192E+02 -0.78678525730E+02  0.12912449734E+03  0.41800000000E+01 0. -1.
         -5    1    3    3    0  502 -0.61635360792E+01 -0.31622819352E+02 -0.85780722538E+02  0.91726749861E+02  0.41800000000E+01 0. -1.
        -11    1    1    2    0    0 -0.25562149758E+02  0.26909800173E+02 -0.30485647684E+02  0.48030569020E+02  0.00000000000E+00 0. -1.
         11    1    1    2    0    0 -0.41436204790E+02 -0.66790063013E+02 -0.12811094718E+03  0.15030065327E+03  0.00000000000E+00 0.  1.
</event>
<event>
 7    1  0.2878477E-009  0.1046748E+03  0.7561462E-02  0.1270762E+00
          2   -1    0    0  501    0  0.00000000000E+00  0.00000000000E+00  0.11232694326E+03  0.11232694326E+03  0.00000000000E+00 0. -1.
         -2   -1    0    0    0  501 -0.00000000000E+00 -0.00000000000E+00 -0.19351530767E+03  0.19351530767E+03  0.00000000000E+00 0.  1.
         25    2    1    2    0    0  0.17216601676E+01 -0.39760514588E+02  0.51253863216E+02  0.14091748337E+03  0.12508763324E+03 0.  0.
          5    1    3    3  502    0 -0.25550280644E+02  0.31530305673E+02  0.49909088866E+02  0.64462132824E+02  0.41800000000E+01 0. -1.
         -5    1    3    3    0  502  0.27271940812E+02 -0.71290820260E+02  0.13447743499E+01  0.76455350546E+02  0.41800000000E+01 0. -1.
        -11    1    1    2    0    0 -0.42401278367E+02  0.20726062791E+02 -0.96419581438E+02  0.10735070457E+03  0.00000000000E+00 0. -1.
         11    1    1    2    0    0  0.40679618200E+02  0.19034451797E+02 -0.36022646189E+02  0.57574063002E+02  0.00000000000E+00 0.  1.
</event>
<event>
 7    1  0.2878477E-009  0.1339001E+03  0.7561462E-02  0.1221781E+00
          3   -1    0    0  501    0  0.00000000000E+00  0.00000000000E+00  0.56821459403E+03  0.56821459403E+03  0.00000000000E+00 0. -1.
         -3   -1    0    0    0  501 -0.00000000000E+00 -0.00000000000E+00 -0.50168997681E+02  0.50168997681E+02  0.00000000000E+00 0.  1.
         25    2    1    2    0    0 -0.39080373020E+02 -0.91999390904E+02  0.42594001849E+03  0.45503815616E+03  0.12507462065E+03 0.  0.
          5    1    3    3  502    0  0.10612567086E+02 -0.82119383573E+02  0.12606437228E+03  0.15088379004E+03  0.41800000000E+01 0.  1.
         -5    1    3    3    0  502 -0.49692940106E+02 -0.98800073314E+01  0.29987564621E+03  0.30415436612E+03  0.41800000000E+01 0.  1.
        -11    1    1    2    0    0 -0.26438087918E+02  0.81953971967E+01  0.26774221459E+02  0.38509686609E+02  0.00000000000E+00 0. -1.
         11    1    1    2    0    0  0.65518460937E+02  0.83803993708E+02  0.65331356405E+02  0.12483574894E+03  0.00000000000E+00 0.  1.
</event>
<event>
 7    1  0.2878477E-009  0.2009722E+03  0.7561462E-02  0.1148921E+00
          1   -1    0    0  501    0  0.00000000000E+00  0.00000000000E+00  0.10600213508E+03  0.10600213508E+03  0.00000000000E+00 0. -1.
         -1   -1    0    0    0  501 -0.00000000000E+00 -0.00000000000E+00 -0.52811777124E+03  0.52811777124E+03  0.00000000000E+00 0.  1.
         25    2    1    2    0    0 -0.16096801475E+03  0.99171536691E+02 -0.95369047393E+02  0.24594423298E+03  0.12509042759E+03 0.  0.
          5    1    3    3  502    0 -0.73870808904E+02  0.71815105116E+02  0.13289919724E+02  0.10396345559E+03  0.41800000000E+01 0. -1.
         -5    1    3    3    0  502 -0.87097205850E+02  0.27356431575E+02 -0.10865896712E+03  0.14198077740E+03  0.41800000000E+01 0. -1.
        -11    1    1    2    0    0  0.74335482976E+01  0.14579016169E+02 -0.13344556732E+02  0.21115931121E+02  0.00000000000E+00 0. -1.
         11    1    1    2    0    0  0.15353446646E+03 -0.11375055286E+03 -0.31340203204E+03  0.36705974221E+03  0.00000000000E+00 0.  1.
</event>
<event>
 7    1  0.2878477E-009  0.1408505E+03  0.7561462E-02  0.1212189E+00
          2   -1    0    0  501    0  0.00000000000E+00  0.00000000000E+00  0.93296081710E+03  0.93296081710E+03  0.00000000000E+00 0. -1.
         -2   -1    0    0    0  501 -0.00000000000E+00 -0.00000000000E+00 -0.33051378478E+02  0.33051378478E+02  0.00000000000E+00 0.  1.
         25    2    1    2    0    0  0.83724865635E+02  0.90783739434E+02  0.64223603337E+03  0.66585738753E+03  0.12508955790E+03 0.  0.
          5    1    3    3  502    0 -0.18043557134E+02  0.30295224352E+02  0.46768166364E+02  0.58720561625E+02  0.41800000000E+01 0. -1.
         -5    1    3    3    0  502  0.10176842277E+03  0.60488515082E+02  0.59546786701E+03  0.60713682590E+03  0.41800000000E+01 0. -1.
        -11    1    1    2    0    0 -0.35652314799E+02 -0.16586577143E+02  0.15357260163E+02  0.42214304822E+02  0.00000000000E+00 0.  1.
         11    1    1    2    0    0 -0.48072550836E+02 -0.74197162291E+02  0.24231614509E+03  0.25794050323E+03  0.00000000000E+00 0. -1.
</event>
<event>
 7    1  0.2878477E-009  0.5229388E+02  0.7561462E-02  0.1433348E+00
          2   -1    0    0  501    0  0.00000000000E+00  0.00000000000E+00  0.28296359166E+02  0.28296359166E+02  0.00000000000E+00 0. -1.
         -2   -1    0    0    0  501 -0.00000000000E+00 -0.00000000000E+00 -0.45217691327E+03  0.45217691327E+03  0.00000000000E+00 0.  1.
         25    2    1    2    0    0  0.33747103914E+02  0.19054218796E+01 -0.24103773466E+03  0.27365813663E+03  0.12508832303E+03 0.  0.
          5    1    3    3  502    0 -0.33799949741E+01 -0.12416337305E+00 -0.23581772714E+03  0.23587902114E+03  0.41800000000E+01 0.  1.
         -5    1    3    3    0  502  0.37127098888E+02  0.20295852526E+01 -0.52200075149E+01  0.37779115482E+02  0.41800000000E+01 0.  1.
        -11    1    1    2    0    0 -0.22923096856E+02 -0.26430672213E+02 -0.17559296469E+03  0.17904451416E+03  0.00000000000E+00 0.  1.
         11    1    1    2    0    0 -0.10824007058E+02  0.24525250333E+02 -0.72498547609E+01  0.27770621648E+02  0.00000000000E+00 0. -1.
</event>
<event>
 7    1  0.3826102E-009  0.1998860E+03  0.7561462E-02  0.1149835E+00
         -2   -1    0    0    0  501 -0.00000000000E+00  0.00000000000E+00  0.11355297811E+03  0.11355297811E+03  0.00000000000E+00 0.  1.
          2   -1    0    0  501    0  0.00000000000E+00 -0.00000000000E+00 -0.41296281240E+03  0.41296281240E+03  0.00000000000E+00 0. -1.
         25    2    1    2    0    0  0.13095901793E+03  0.13306258478E+03 -0.14631062136E+03  0.26816250639E+03  0.12509362920E+03 0.  0.
          5    1    3    3  502    0  0.82581133311E+02  0.11646525398E+03 -0.16056730749E+03  0.21490260957E+03  0.41800000000E+01 0. -1.
         -5    1    3    3    0  502  0.48377884622E+02  0.16597330796E+02  0.14256686133E+02  0.53259896822E+02  0.41800000000E+01 0. -1.
        -11    1    1    2    0    0 -0.18681612927E+02 -0.78681249375E+02 -0.41159689192E+02  0.90740628602E+02  0.00000000000E+00 0. -1.
         11    1    1    2    0    0 -0.11227740501E+03 -0.54381335404E+02 -0.11193952373E+03  0.16761265552E+03  0.00000000000E+00 0.  1.
</event>
<event>
 7    1  0.2878477E-009  0.1045382E+03  0.7561462E-02  0.1271032E+00
          1   -1    0    0  501    0  0.00000000000E+00  0.00000000000E+00  0.25596145941E+03  0.25596145941E+03  0.00000000000E+00 0. -1.
         -1   -1    0    0    0  501 -0.00000000000E+00 -0.00000000000E+00 -0.14294954904E+03  0.14294954904E+03  0.00000000000E+00 0.  1.
         25    2    1    2    0    0  0.37414008584E+02 -0.74460783256E+02  0.19996150496E+03  0.25015272851E+03  0.12509023876E+03 0.  0.
          5    1    3    3  502    0  0.45237329603E+02 -0.92596369885E+02  0.85634392320E+02  0.13405679861E+03  0.41800000000E+01 0.  1.
         -5    1    3    3    0  502 -0.78233210192E+01  0.18135586629E+02  0.11432711264E+03  0.11609592990E+03  0.41800000000E+01 0.  1.
        -11    1    1    2    0    0 -0.11850511448E+02  0.73797139643E+01  0.17270390499E+02  0.22207232781E+02  0.00000000000E+00 0. -1.
         11    1    1    2    0    0 -0.25563497135E+02  0.67081069291E+02 -0.10421998509E+03  0.12655104715E+03  0.00000000000E+00 0.  1.
</event>
<event>
 7    1  0.2878477E-009  0.1120476E+03  0.7561462E-02  0.1256824E+00
         -2   -1    0    0    0  501 -0.00000000000E+00  0.00000000000E+00  0.30866633370E+02  0.30866633370E+02  0.00000000000E+00 0.  1.
          2   -1    0    0  501    0  0.00000000000E+00 -0.00000000000E+00 -0.55453455355E+03  0.55453455355E+03  0.00000000000E+00 0. -1.
         25    2    1    2    0    0  0.38244147731E+01  0.66714301614E+02 -0.35379350932E+03  0.38116027927E+03  0.12509151477E+03 0.  0.
          5    1    3    3  502    0  0.45461715764E+02  0.11360219704E+02 -0.46568297594E+02  0.66195928370E+02  0.41800000000E+01 0. -1.
         -5    1    3    3    0  502 -0.41637300991E+02  0.55354081910E+02 -0.30722521172E+03  0.31496435090E+03  0.41800000000E+01 0. -1.
        -11    1    1    2    0    0  0.33378188894E+02 -0.61658375046E+02 -0.13880532062E+03  0.15550812113E+03  0.00000000000E+00 0. -1.
         11    1    1    2    0    0 -0.37202603667E+02 -0.50559265678E+01 -0.31069090245E+02  0.48732786517E+02  0.00000000000E+00 0.  1.
</event>
<event>
 7    1  0.2878477E-009  0.1092966E+03  0.7561462E-02  0.1261878E+00
          1   -1    0    0  501    0  0.00000000000E+00  0.00000000000E+00  0.45508466573E+02  0.45508466573E+02  0.00000000000E+00 0. -1.
         -1   -1    0    0    0  501 -0.00000000000E+00 -0.00000000000E+00 -0.47563645847E+03  0.47563645847E+03  0.00000000000E+00 0.  1.
         25    2    1    2    0    0  0.49847809330E+02  0.82384242520E+02 -0.19142426559E+03  0.24812262645E+03  0.12509844440E+03 0.  0.
          5    1    3    3  502    0  0.32511958025E+02  0.18033424466E+02  0.76157367765E+01  0.38179885532E+02  0.41800000000E+01 0.  1.
         -5    1    3    3    0  502  0.17335851305E+02  0.64350818054E+02 -0.19904000236E+03  0.20994274092E+03  0.41800000000E+01 0.  1.
        -11    1    1    2    0    0  0.12938280378E+02 -0.29871150276E+02 -0.14497328862E+03  0.14858310514E+03  0.00000000000E+00 0.  1.
         11    1    1    2    0    0 -0.62786089708E+02 -0.52513092245E+02 -0.93730437686E+02  0.12443919345E+03  0.00000000000E+00 0. -1.
</event>
<event>
 7    1  0.2878477E-009  0.1036200E+03  0.7561462E-02  0.1272863E+00
         -4   -1    0    0    0  501 -0.00000000000E+00  0.00000000000E+00  0.79568604272E+02  0.79568604272E+02  0.00000000000E+00 0.  1.
          4   -1    0    0  501    0  0.00000000000E+00 -0.00000000000E+00 -0.20205691003E+03  0.20205691003E+03  0.00000000000E+00 0. -1.
         25    2    1    2    0    0  0.31487685308E+02 -0.50256893823E+02 -0.36044387986E+02  0.14305052663E+03  0.12508807121E+03 0.  0.
          5    1    3    3  502    0  0.31974957415E+02 -0.76871765430E+02  0.15591323172E+02  0.84807004312E+02  0.41800000000E+01 0.  1.
         -5    1    3    3    0  502 -0.48727210743E+00  0.26614871607E+02 -0.51635711158E+02  0.58243522314E+02  0.41800000000E+01 0.  1.
        -11    1    1    2    0    0 -0.15596765574E+00  0.63078956568E+02 -0.23897102192E+02  0.67454062745E+02  0.00000000000E+00 0.  1.
         11    1    1    2    0    0 -0.31331717652E+02 -0.12822062745E+02 -0.62546815583E+02  0.71120924935E+02  0.00000000000E+00 0. -1.
</event>
<event>
 7    1  0.2878477E-009  0.2592478E+03  0.7561462E-02  0.1107596E+00
         -3   -1    0    0    0  501 -0.00000000000E+00  0.00000000000E+00  0.21856286351E+03  0.21856286351E+03  0.00000000000E+00 0.  1.
          3   -1    0    0  501    0  0.00000000000E+00 -0.00000000000E+00 -0.46736240056E+03  0.46736240056E+03  0.00000000000E+00 0. -1.
         25    2    1    2    0    0 -0.23544927399E+03 -0.41059151409E+02  0.68761948252E+02  0.27838511291E+03  0.12509137070E+03 0.  0.
          5    1    3    3  502    0 -0.13579124373E+03  0.33744694661E+02  0.94086480593E+01  0.14029954151E+03  0.41800000000E+01 0. -1.
         -5    1    3    3    0  502 -0.99658030262E+02 -0.74803846070E+02  0.59353300193E+02  0.13808557139E+03  0.41800000000E+01 0. -1.
        -11    1    1    2    0    0  0.16049140257E+03 -0.13594461075E+02 -0.17906097362E+03  0.24084254596E+03  0.00000000000E+00 0. -1.
         11    1    1    2    0    0  0.74957871419E+02  0.54653612484E+02 -0.13850051168E+03  0.16669760520E+03  0.00000000000E+00 0.  1.
</event>
<event>
 6    1  0.2878477E-009  0.1453756E+03  0.7561462E-02  0.1206273E+00
          2   -1    0    0  501    0  0.00000000000E+00  0.00000000000E+00  0.19440348406E+03  0.19440348406E+03  0.00000000000E+00 0. -1.
         -2   -1    0    0    0  501 -0.00000000000E+00 -0.00000000000E+00 -0.14101447963E+03  0.14101447963E+03  0.00000000000E+00 0.  1.
          5    1    1    2  502    0  0.73373376633E+02  0.59994757846E+02  0.91973378876E+02  0.13213477283E+03  0.41800000000E+01 0.  1.
         -5    1    1    2    0  502  0.39503942610E+02 -0.31098560532E+02 -0.18640061297E+02  0.53782954865E+02  0.41800000000E+01 0.  1.
        -11    1    1    2    0    0 -0.61270621033E+01 -0.37815390234E+02  0.72304267165E+01  0.38984916302E+02  0.00000000000E+00 0. -1.
         11    1    1    2    0    0 -0.10675025714E+03  0.89191929194E+01 -0.27174739868E+02  0.11051531970E+03  0.00000000000E+00 0.  1.
</event>
<event>
 7    1  0.2878477E-009  0.1360025E+03  0.7561462E-02  0.1218811E+00
         -2   -1    0    0    0  501 -0.00000000000E+00  0.00000000000E+00  0.36737213574E+02  0.36737213574E+02  0.00000000000E+00 0.  1.
          2   -1    0    0  501    0  0.00000000000E+00 -0.00000000000E+00 -0.62439758527E+03  0.62439758527E+03  0.00000000000E+00 0. -1.
         25    2    1    2    0    0  0.63931614832E+02  0.67109167893E+02 -0.20107873897E+03  0.25430480820E+03  0.12508950562E+03 0.  0.
          5    1    3    3  502    0  0.35202539777E+02  0.99369077080E+02 -0.17294023933E+03  0.20258141836E+03  0.41800000000E+01 0. -1.
         -5    1    3    3    0  502  0.28729075056E+02 -0.32259909187E+02 -0.28138499640E+02  0.51723389838E+02  0.41800000000E+01 0. -1.
        -11    1    1    2    0    0  0.10996930765E+02  0.10514447649E+02 -0.89080242060E+02  0.90370214236E+02  0.00000000000E+00 0. -1.
         11    1    1    2    0    0 -0.74928545597E+02 -0.77623615543E+02 -0.29750139067E+03  0.31645977641E+03  0.00000000000E+00 0.  1.
</event>
<event>
 7    1  0.2878477E-009  0.1307816E+03  0.7561462E-02  0.1226301E+00
          1   -1    0    0  501    0  0.00000000000E+00  0.00000000000E+00  0.44914178849E+03  0.44914178849E+03  0.00000000000E+00 0. -1.
         -1   -1    0    0    0  501 -0.00000000000E+00 -0.00000000000E+00 -0.41203285711E+02  0.41203285711E+02  0.00000000000E+00 0.  1.
         25    2    1    2    0    0 -0.67316028074E+02 -0.35011257678E+02  0.28240146306E+03  0.31804980602E+03  0.12509139447E+03 0.  0.
          5    1    3    3  502    0  0.51603886788E+01 -0.65301820375E+02  0.15492603667E+03  0.16825726313E+03  0.41800000000E+01 0. -1.
         -5    1    3    3    0  502 -0.72476416753E+02  0.30290562697E+02  0.12747542639E+03  0.14979254289E+03  0.41800000000E+01 0. -1.
        -11    1    1    2    0    0  0.25881335042E+02 -0.30341822523E+02  0.52124413915E+02  0.65630970003E+02  0.00000000000E+00 0.  1.
         11    1    1    2    0    0  0.41434693032E+02  0.65353080201E+02  0.73412625805E+02  0.10666429818E+03  0.00000000000E+00 0. -1.
</event>
<event>
 7    1  0.2878477E-009  0.9721379E+02  0.7561462E-02  0.1286267E+00
         -4   -1    0    0    0  501 -0.00000000000E+00  0.00000000000E+00  0.17265202113E+03  0.17265202113E+03  0.00000000000E+00 0.  1.
          4   -1    0    0  501    0  0.00000000000E+00 -0.00000000000E+00 -0.13698035367E+03  0.13698035367E+03  0.00000000000E+00 0. -1.
         25    2    1    2    0    0 -0.47460250215E+02 -0.19888075846E+02  0.10926333418E+03  0.17387155279E+03  0.12507929389E+03 0.  0.
          5    1    3    3  502    0 -0.36640414217E+02  0.17780166556E+02  0.12492325216E+03  0.13146081396E+03  0.41800000000E+01 0.  1.
         -5    1    3    3    0  502 -0.10819835998E+02 -0.37668242403E+02 -0.15659917978E+02  0.42410738826E+02  0.41800000000E+01 0.  1.
        -11    1    1    2    0    0  0.71232753930E+02  0.41077438439E+02 -0.53893974671E+02  0.98315927942E+02  0.00000000000E+00 0.  1.
         11    1    1    2    0    0 -0.23772503715E+02 -0.21189362592E+02 -0.19697692052E+02  0.37444894073E+02  0.00000000000E+00 0. -1.
</event>
<event>
 7    1  0.2878477E-009  0.1030526E+03  0.7561462E-02  0.1274005E+00
          4   -1    0    0  501    0  0.00000000000E+00  0.00000000000E+00  0.43653345426E+02  0.43653345426E+02  0.00000000000E+00 0. -1.
         -4   -1    0    0    0  501 -0.00000000000E+00 -0.00000000000E+00 -0.33455113788E+03  0.33455113788E+03  0.00000000000E+00 0.  1.
         25    2    1    2    0    0 -0.46941492323E+02  0.65684298765E+01 -0.26287483224E+03  0.29495426815E+03  0.12509274520E+03 0.  0.
          5    1    3    3  502    0 -0.20634590955E+02 -0.56532952946E+02 -0.16339231904E+03  0.17417314212E+03  0.41800000000E+01 0. -1.
         -5    1    3    3    0  502 -0.26306901367E+02  0.63101382823E+02 -0.99482513202E+02  0.12078112604E+03  0.41800000000E+01 0. -1.
        -11    1    1    2    0    0 -0.13875760994E+02  0.61097007921E+01 -0.11314819301E+02  0.18917989395E+02  0.00000000000E+00 0.  1.
         11    1    1    2    0    0  0.60817253317E+02 -0.12678130669E+02 -0.16708140909E+02  0.64332225758E+02  0.00000000000E+00 0. -1.
</event>
<event>
 7    1  0.3625947E-009  0.2644443E+03  0.7561462E-02  0.1104502E+00
         -2   -1    0    0    0  501 -0.00000000000E+00  0.00000000000E+00  0.97335594809E+02  0.97335594809E+02  0.00000000000E+00 0.  1.
          2   -1    0    0  501    0  0.00000000000E+00 -0.00000000000E+00 -0.81115841473E+03  0.81115841473E+03  0.00000000000E+00 0. -1.
         25    2    1    2    0    0 -0.77514435173E+02 -0.24129300425E+03 -0.27954165929E+03  0.39752040247E+03  0.12509248395E+03 0.  0.
          5    1    3    3  502    0 -0.10474784772E+03 -0.19658159226E+03 -0.18591419321E+03  0.29016890539E+03  0.41800000000E+01 0. -1.
         -5    1    3    3    0  502  0.27233412548E+02 -0.44711411998E+02 -0.93627466080E+02  0.10735149709E+03  0.41800000000E+01 0. -1.
        -11    1    1    2    0    0  0.45125617446E+02  0.15398301246E+03 -0.35142804753E+03  0.38632727326E+03  0.00000000000E+00 0. -1.
         11    1    1    2    0    0  0.32388817727E+02  0.87309991793E+02 -0.82853113105E+02  0.12464633381E+03  0.00000000000E+00 0.  1.
</event>
<event>
 7    1  0.2878477E-009  0.1159392E+03  0.7561462E-02  0.1249950E+00
         -2   -1    0    0    0  501 -0.00000000000E+00  0.00000000000E+00  0.97857025984E+02  0.97857025984E+02  0.00000000000E+00 0.  1.
          2   -1    0    0  501    0  0.00000000000E+00 -0.00000000000E+00 -0.19416742065E+03  0.19416742065E+03  0.00000000000E+00 0. -1.
         25    2    1    2    0    0  0.20535044169E+02 -0.55767468741E+02  0.92647673737E+01  0.13879746297E+03  0.12508877329E+03 0.  0.
          5    1    3    3  502    0  0.32208516712E+02  0.24988062420E+02 -0.27348694437E+02  0.49266776835E+02  0.41800000000E+01 0.  1.
         -5    1    3    3    0  502 -0.11673472543E+02 -0.80755531161E+02  0.36613461811E+02  0.89530686137E+02  0.41800000000E+01 0.  1.
        -11    1    1    2    0    0 -0.26628148960E+01 -0.25677334438E+02 -0.13959641464E+02  0.29347703092E+02  0.00000000000E+00 0.  1.
         11    1    1    2    0    0 -0.17872229273E+02  0.81444803178E+02 -0.91615520573E+02  0.12387928057E+03  0.00000000000E+00 0. -1.
</event>
<event>
 7    1  0.2878477E-009  0.2175383E+03  0.7561462E-02  0.1135732E+00
          1   -1    0    0  501    0  0.00000000000E+00  0.00000000000E+00  0.62688979068E+03  0.62688979068E+03  0.00000000000E+00 0. -1.
         -1   -1    0    0    0  501 -0.00000000000E+00 -0.00000000000E+00 -0.91820963885E+02  0.91820963885E+02  0.00000000000E+00 0.  1.
         25    2    1    2    0    0  0.20058078649E+03  0.15347853101E+02  0.16819073501E+03  0.29052342456E+03  0.12509008103E+03 0.  0.
          5    1    3    3  502    0  0.31842784900E+02 -0.41922032851E+02  0.13478478856E+02  0.54502858464E+02  0.41800000000E+01 0.  1.
         -5    1    3    3    0  502  0.16873800159E+03  0.57269885952E+02  0.15471225615E+03  0.23602056610E+03  0.41800000000E+01 0.  1.
        -11    1    1    2    0    0 -0.10113614387E+03  0.93274314605E+01  0.10093802704E+03  0.14319219908E+03  0.00000000000E+00 0.  1.
         11    1    1    2    0    0 -0.99444642611E+02 -0.24675284562E+02  0.26594006475E+03  0.28499513092E+03  0.00000000000E+00 0. -1.
</event>
<event>
 7    1  0.2878477E-009  0.1186940E+03  0.7561462E-02  0.1245267E+00
         -1   -1    0    0    0  501 -0.00000000000E+00  0.00000000000E+00  0.47968470271E+03  0.47968470271E+03  0.00000000000E+00 0.  1.
          1   -1    0    0  501    0  0.00000000000E+00 -0.00000000000E+00 -0.41748243387E+02  0.41748243387E+02  0.00000000000E+00 0. -1.
         25    2    1    2    0    0 -0.87525275128E+02 -0.18373749442E+02  0.25032363235E+03  0.29378132792E+03  0.12508908532E+03 0.  0.
          5    1    3    3  502    0  0.22576421336E+02  0.69228806951E+01  0.62249585926E+01  0.24775867027E+02  0.41800000000E+01 0.  1.
         -5    1    3    3    0  502 -0.11010169646E+03 -0.25296630137E+02  0.24409867375E+03  0.26900546089E+03  0.41800000000E+01 0.  1.
        -11    1    1    2    0    0  0.35134354263E+02  0.30564824180E+02  0.18360790693E+02  0.50057466591E+02  0.00000000000E+00 0. -1.
         11    1    1    2    0    0  0.52390920865E+02 -0.12191074738E+02  0.16925203628E+03  0.17759415159E+03  0.00000000000E+00 0.  1.
</event>
<event>
 7    1  0.3386279E-009  0.1532449E+03  0.7561462E-02  0.1196541E+00
          1   -1    0    0  501    0  0.00000000000E+00  0.00000000000E+00  0.97110087302E+03  0.97110087302E+03  0.00000000000E+00 0. -1.
         -1   -1    0    0    0  501 -0.00000000000E+00 -0.00000000000E+00 -0.29958807132E+02  0.29958807132E+02  0.00000000000E+00 0.  1.
         25    2    1    2    0    0 -0.11698521584E+03 -0.29879580284E+01  0.32655035934E+03  0.36876819932E+03  0.12514143611E+03 0.  0.
          5    1    3    3  502    0 -0.10247380888E+03 -0.47504571301E+02  0.28280201318E+03  0.30455215786E+03  0.41800000000E+01 0. -1.
         -5    1    3    3    0  502 -0.14511406968E+02  0.44516613273E+02  0.43748346155E+02  0.64216041460E+02  0.41800000000E+01 0. -1.
        -11    1    1    2    0    0  0.10528487356E+03 -0.31613405345E+02  0.50307082081E+03  0.51494131971E+03  0.00000000000E+00 0.  1.
         11    1    1    2    0    0  0.11700342289E+02  0.34601363374E+02  0.11152088574E+03  0.11735016111E+03  0.00000000000E+00 0. -1.
</event>
<event>
 7    1  0.2878477E-009  0.8259624E+02  0.7561462E-02  0.1321841E+00
         -1   -1    0    0    0  501 -0.00000000000E+00  0.00000000000E+00  0.18921350857E+03  0.18921350857E+03  0.00000000000E+00 0.  1.
          1   -1    0    0  501    0  0.00000000000E+00 -0.00000000000E+00 -0.11450802240E+03  0.11450802240E+03  0.00000000000E+00 0. -1.
         25    2    1    2    0    0 -0.35554256103E+02 -0.23968537840E+02  0.13222495957E+03  0.18700379455E+03  0.12509349828E+03 0.  0.
          5    1    3    3  502    0 -0.32823563690E+02 -0.61342125071E+02  0.13203059882E+03  0.14929766933E+03  0.41800000000E+01 0. -1.
         -5    1    3    3    0  502 -0.27306924126E+01  0.37373587230E+02  0.19436074615E+00  0.37706125227E+02  0.41800000000E+01 0. -1.
        -11    1    1    2    0    0  0.32962494807E+02 -0.71506956605E+00  0.17762116448E+02  0.37450369412E+02  0.00000000000E+00 0.  1.
         11    1    1    2    0    0  0.25917612962E+01  0.24683607406E+02 -0.75281589849E+02  0.79267367002E+02  0.00000000000E+00 0. -1.
</event>
<event>
 7    1  0.2878477E-009  0.1805030E+03  0.7561462E-02  0.1167317E+00
         -2   -1    0    0    0  501 -0.00000000000E+00  0.00000000000E+00  0.68727270587E+02  0.68727270587E+02  0.00000000000E+00 0.  1.
          2   -1    0    0  501    0  0.00000000000E+00 -0.00000000000E+00 -0.77296388487E+03  0.77296388487E+03  0.00000000000E+00 0. -1.
         25    2    1    2    0    0  0.82900980168E+02 -0.14472823302E+03 -0.58079641610E+03  0.61708010907E+03  0.12507817601E+03 0.  0.
          5    1    3    3  502    0  0.38135569377E+02 -0.13558222625E+02 -0.31184373396E+03  0.31448709650E+03  0.41800000000E+01 0. -1.
         -5    1    3    3    0  502  0.44765410791E+02 -0.13117001039E+03 -0.26895268214E+03  0.30259301257E+03  0.41800000000E+01 0. -1.
        -11    1    1    2    0    0  0.12325327109E+02  0.68854020671E+01 -0.29086390797E+02  0.32331727136E+02  0.00000000000E+00 0. -1.
         11    1    1    2    0    0 -0.95226307277E+02  0.13784283095E+03 -0.94353807379E+02  0.19227931924E+03  0.00000000000E+00 0.  1.
</event>
<event>
 6    1  0.3211694E-009  0.1065389E+03  0.7561462E-02  0.1267117E+00
          3   -1    0    0  501    0  0.00000000000E+00  0.00000000000E+00  0.17625770833E+03  0.17625770833E+03  0.00000000000E+00 0. -1.
         -3   -1    0    0    0  501 -0.00000000000E+00 -0.00000000000E+00 -0.89861514709E+02  0.89861514709E+02  0.00000000000E+00 0.  1.
          5    1    1    2  502    0 -0.48820450511E+02 -0.37515929082E+02  0.93885167480E+01  0.62421935004E+02  0.41800000000E+01 0. -1.
         -5    1    1    2    0  502  0.18979012286E+02  0.64763764710E+02 -0.13171960697E+02  0.68887742563E+02  0.41800000000E+01 0. -1.
        -11    1    1    2    0    0  0.45875604608E+02 -0.41824543793E+02  0.26419085068E+02  0.67467263302E+02  0.00000000000E+00 0.  1.
         11    1    1    2    0    0 -0.16034166383E+02  0.14576708165E+02  0.63760552504E+02  0.67342282172E+02  0.00000000000E+00 0. -1.
</event>
<event>
 6    1  0.2878477E-009  0.1439831E+03  0.7561462E-02  0.1208068E+00
          2   -1    0    0  501    0  0.00000000000E+00  0.00000000000E+00  0.31629709647E+03  0.31629709647E+03  0.00000000000E+00 0. -1.
         -2   -1    0    0    0  501 -0.00000000000E+00 -0.00000000000E+00 -0.94262946869E+02  0.94262946869E+02  0.00000000000E+00 0.  1.
          5    1    1    2  502    0 -0.25179715023E+02 -0.86367538040E+02  0.10600676819E+03  0.13909808402E+03  0.41800000000E+01 0. -1.
         -5    1    1    2    0  502  0.11008201009E+02 -0.41824922096E+02 -0.33012091168E+02  0.54568994504E+02  0.41800000000E+01 0. -1.
        -11    1    1    2    0    0  0.28741280002E+02  0.13524710971E+03  0.11753373614E+03  0.18147181873E+03  0.00000000000E+00 0.  1.
         11    1    1    2    0    0 -0.14569765989E+02 -0.70546495735E+01  0.31505736445E+02  0.35421146092E+02  0.00000000000E+00 0. -1.
</event>
<event>
 7    1  0.2878477E-009  0.1051428E+03  0.7561462E-02  0.1269839E+00
          2   -1    0    0  501    0  0.00000000000E+00  0.00000000000E+00  0.43223822256E+02  0.43223822256E+02  0.00000000000E+00 0. -1.
         -2   -1    0    0    0  501 -0.00000000000E+00 -0.00000000000E+00 -0.29033735220E+03  0.29033735220E+03  0.00000000000E+00 0.  1.
         25    2    1    2    0    0  0.16953979602E+02 -0.23206078344E+02 -0.17478860076E+03  0.21685188525E+03  0.12509086971E+03 0.  0.
          5    1    3    3  502    0  0.56372213659E+02 -0.46286670520E+02 -0.14439735659E+03  0.16182815370E+03  0.41800000000E+01 0. -1.
         -5    1    3    3    0  502 -0.39418234057E+02  0.23080592176E+02 -0.30391244165E+02  0.55023731546E+02  0.41800000000E+01 0. -1.
        -11    1    1    2    0    0 -0.38857024363E+02 -0.19414432124E+02 -0.30168590562E+02  0.52886031933E+02  0.00000000000E+00 0. -1.
         11    1    1    2    0    0  0.21903044762E+02  0.42620510469E+02 -0.42156338620E+02  0.63823257268E+02  0.00000000000E+00 0.  1.
</event>
<event>
 7    1  0.2878477E-009  0.1173764E+03  0.7561462E-02  0.1247489E+00
          1   -1    0    0  501    0  0.00000000000E+00  0.00000000000E+00  0.15245859592E+03  0.15245859592E+03  0.00000000000E+00 0. -1.
         -1   -1    0    0    0  501 -0.00000000000E+00 -0.00000000000E+00 -0.11193926675E+03  0.11193926675E+03  0.00000000000E+00 0.  1.
         25    2    1    2    0    0 -0.36093711763E+01 -0.62873694845E+02  0.38211329466E+02  0.14516975279E+03  0.12509205555E+03 0.  0.
          5    1    3    3  502    0  0.78102928445E+01 -0.94652094329E+02  0.52114519036E+02  0.10841316862E+03  0.41800000000E+01 0. -1.
         -5    1    3    3    0  502 -0.11419664021E+02  0.31778399484E+02 -0.13903189570E+02  0.36756584177E+02  0.41800000000E+01 0. -1.
        -11    1    1    2    0    0  0.37691044404E+02  0.43554334503E+01 -0.25825501195E+02  0.45897071157E+02  0.00000000000E+00 0.  1.
         11    1    1    2    0    0 -0.34081673228E+02  0.58518261395E+02  0.28133500895E+02  0.73331038717E+02  0.00000000000E+00 0. -1.
</event>
<event>
 7    1  0.2878477E-009  0.1270457E+03  0.7561462E-02  0.1231906E+00
         -2   -1    0    0    0  501 -0.00000000000E+00  0.00000000000E+00  0.57825940324E+03  0.57825940324E+03  0.00000000000E+00 0.  1.
          2   -1    0    0  501    0  0.00000000000E+00 -0.00000000000E+00 -0.46497846381E+02  0.46497846381E+02  0.00000000000E+00 0. -1.
         25    2    1    2    0    0  0.55157244827E+02  0.10033914522E+03  0.37848292227E+03  0.41473775085E+03  0.12509122194E+03 0.  0.
          5    1    3    3  502    0  0.37396832043E+02  0.16558436575E+01  0.24425263844E+03  0.24713981600E+03  0.41800000000E+01 0. -1.
         -5    1    3    3    0  502  0.17760412784E+02  0.98683301560E+02  0.13423028383E+03  0.16759793485E+03  0.41800000000E+01 0. -1.
        -11    1    1    2    0    0 -0.20718719893E+01 -0.17883719178E+02  0.93396714636E+02  0.95116067886E+02  0.00000000000E+00 0.  1.
         11    1    1    2    0    0 -0.53085372838E+02 -0.82455426039E+02  0.59881919948E+02  0.11490343089E+03  0.00000000000E+00 0. -1.
</event>
<event>
 7    1  0.2878477E-009  0.2466943E+03  0.7561462E-02  0.1115412E+00
          2   -1    0    0  501    0  0.00000000000E+00  0.00000000000E+00  0.25643258498E+03  0.25643258498E+03  0.00000000000E+00 0. -1.
         -2   -1    0    0    0  501 -0.00000000000E+00 -0.00000000000E+00 -0.27440893881E+03  0.27440893881E+03  0.00000000000E+00 0.  1.
         25    2    1    2    0    0 -0.11439693160E+03 -0.19968698757E+03 -0.83813723880E+02  0.27501545134E+03  0.12508879727E+03 0.  0.
          5    1    3    3  502    0 -0.13014822023E+03 -0.14064848589E+03 -0.31039995319E+02  0.19416876557E+03  0.41800000000E+01 0.  1.
         -5    1    3    3    0  502  0.15751288633E+02 -0.59038501675E+02 -0.52773728561E+02  0.80846685769E+02  0.41800000000E+01 0.  1.
        -11    1    1    2    0    0  0.80797295087E+02  0.71295725958E+02  0.17496271797E+00  0.10775580748E+03  0.00000000000E+00 0. -1.
         11    1    1    2    0    0  0.33599636513E+02  0.12839126161E+03  0.65662407332E+02  0.14807026497E+03  0.00000000000E+00 0.  1.
</event>
<event>
 7    1  0.2878477E-009  0.1366500E+03  0.7561462E-02  0.1217909E+00
          1   -1    0    0  501    0  0.00000000000E+00  0.00000000000E+00  0.10824382953E+04  0.10824382953E+04  0.00000000000E+00 0. -1.
         -1   -1    0    0    0  501 -0.00000000000E+00 -0.00000000000E+00 -0.26623091346E+02  0.26623091346E+02  0.00000000000E+00 0.  1.
         25    2    1    2    0    0  0.87287475987E+02  0.57051433026E+02  0.81981651605E+03  0.83583525681E+03  0.12508991589E+03 0.  0.
          5    1    3    3  502    0 -0.45266500715E+00  0.47023793736E+02  0.54738568300E+03  0.54941787415E+03  0.41800000000E+01 0. -1.
         -5    1    3    3    0  502  0.87740140994E+02  0.10027639290E+02  0.27243083305E+03  0.28641738266E+03  0.41800000000E+01 0. -1.
        -11    1    1    2    0    0  0.18439155106E+02 -0.21997678165E+01  0.30928859326E+02  0.36075417650E+02  0.00000000000E+00 0.  1.
         11    1    1    2    0    0 -0.10572663109E+03 -0.54851665209E+02  0.20506982857E+03  0.23715071218E+03  0.00000000000E+00 0. -1.
</event>
<event>
 7    1  0.2878477E-009  0.9809969E+02  0.7561462E-02  0.1284344E+00
          2   -1    0    0  501    0  0.00000000000E+00  0.00000000000E+00  0.27612577257E+03  0.27612577257E+03  0.00000000000E+00 0. -1.
         -2   -1    0    0    0  501 -0.00000000000E+00 -0.00000000000E+00 -0.48585085237E+02  0.48585085237E+02  0.00000000000E+00 0.  1.
         25    2    1    2    0    0  0.44158812404E+02 -0.21293659527E+02  0.14945362283E+03  0.20096673417E+03  0.12509125557E+03 0.  0.
          5    1    3    3  502    0  0.48632820651E+02  0.25467271596E+02  0.14316836702E+03  0.15338965703E+03  0.41800000000E+01 0.  1.
         -5    1    3    3    0  502 -0.44740082474E+01 -0.46760931123E+02  0.62852558056E+01  0.47577077147E+02  0.41800000000E+01 0.  1.
        -11    1    1    2    0    0  0.21449914595E+02 -0.69576727595E+01  0.30423417188E+02  0.37869411928E+02  0.00000000000E+00 0.  1.
         11    1    1    2    0    0 -0.65608726999E+02  0.28251332287E+02  0.47663647312E+02  0.85874711699E+02  0.00000000000E+00 0. -1.
</event>
<event>
 7    1  0.2878477E-009  0.1009233E+03  0.7561462E-02  0.1278366E+00
          1   -1    0    0  501    0  0.00000000000E+00  0.00000000000E+00  0.19930638042E+03  0.19930638042E+03  0.00000000000E+00 0. -1.
         -1   -1    0    0    0  501 -0.00000000000E+00 -0.00000000000E+00 -0.73250333077E+02  0.73250333077E+02  0.00000000000E+00 0.  1.
         25    2    1    2    0    0  0.52964616941E+02 -0.51297536443E+01  0.40072565520E+02  0.14172065826E+03  0.12508944579E+03 0.  0.
          5    1    3    3  502    0  0.33058882964E+00 -0.48525253768E+02  0.53198098146E+02  0.72127107170E+02  0.41800000000E+01 0.  1.
         -5    1    3    3    0  502  0.52634028111E+02  0.43395500124E+02 -0.13125532626E+02  0.69593551087E+02  0.41800000000E+01 0.  1.
        -11    1    1    2    0    0  0.22352639103E+01  0.25767516588E+02 -0.86739963107E+00  0.25878827215E+02  0.00000000000E+00 0.  1.
         11    1    1    2    0    0 -0.55199880851E+02 -0.20637762944E+02  0.86850881454E+02  0.10495722802E+03  0.00000000000E+00 0. -1.
</event>
<event>
 7    1  0.2878477E-009  0.1724656E+03  0.7561462E-02  0.1175301E+00
          2   -1    0    0  501    0  0.00000000000E+00  0.00000000000E+00  0.13482147534E+04  0.13482147534E+04  0.00000000000E+00 0.  1.
         -2   -1    0    0    0  501 -0.00000000000E+00 -0.00000000000E+00 -0.22897246400E+02  0.22897246400E+02  0.00000000000E+00 0. -1.
         25    2    1    2    0    0 -0.80823450539E+02 -0.10884652615E+03  0.60331503857E+03  0.63088563187E+03  0.12509056046E+03 0.  0.
          5    1    3    3  502    0 -0.32094562470E+02 -0.12783200913E+03  0.44236318156E+03  0.46159911211E+03  0.41800000000E+01 0. -1.
         -5    1    3    3    0  502 -0.48728888069E+02  0.18985482981E+02  0.16095185701E+03  0.16928651976E+03  0.41800000000E+01 0. -1.
        -11    1    1    2    0    0 -0.72274720192E+01  0.58959528815E+02  0.33412255948E+03  0.33936167601E+03  0.00000000000E+00 0.  1.
         11    1    1    2    0    0  0.88050922559E+02  0.49886997338E+02  0.38787990896E+03  0.40086469193E+03  0.00000000000E+00 0. -1.
</event>
<event>
 7    1  0.2878477E-009  0.1889054E+03  0.7561462E-02  0.1159452E+00
         -1   -1    0    0    0  501 -0.00000000000E+00  0.00000000000E+00  0.26600756407E+02  0.26600756407E+02  0.00000000000E+00 0.  1.
          1   -1    0    0  501    0  0.00000000000E+00 -0.00000000000E+00 -0.16304313158E+04  0.16304313158E+04  0.00000000000E+00 0. -1.
         25    2    1    2    0    0 -0.89267704130E+02  0.15385888922E+03 -0.80564469030E+03  0.83447713411E+03  0.12508972599E+03 0.  0.
          5    1    3    3  502    0 -0.33915292107E+02  0.10486982509E+03 -0.24149967861E+03  0.26549481053E+03  0.41800000000E+01 0.  1.
         -5    1    3    3    0  502 -0.55352412023E+02  0.48989064128E+02 -0.56414501169E+03  0.56898232357E+03  0.41800000000E+01 0.  1.
        -11    1    1    2    0    0  0.17154860571E+01 -0.76874251134E+02 -0.22941255759E+03  0.24195601864E+03  0.00000000000E+00 0.  1.
         11    1    1    2    0    0  0.87552218073E+02 -0.76984638084E+02 -0.56877331153E+03  0.58059891948E+03  0.00000000000E+00 0. -1.
</event>
<event>
 7    1  0.2878477E-009  0.1373822E+03  0.7561462E-02  0.1216895E+00
          1   -1    0    0  501    0  0.00000000000E+00  0.00000000000E+00  0.11834012043E+04  0.11834012043E+04  0.00000000000E+00 0. -1.
         -1   -1    0    0    0  501 -0.00000000000E+00 -0.00000000000E+00 -0.29236243803E+02  0.29236243803E+02  0.00000000000E+00 0.  1.
         25    2    1    2    0    0  0.11736687465E+03  0.32935844188E+02  0.91071013567E+03  0.92730821350E+03  0.12509124075E+03 0.  0.
          5    1    3    3  502    0  0.12951950303E+02  0.45406826566E+02  0.11092861582E+03  0.12063234692E+03  0.41800000000E+01 0.  1.
         -5    1    3    3    0  502  0.10441492435E+03 -0.12470982378E+02  0.79978151985E+03  0.80667586658E+03  0.41800000000E+01 0.  1.
        -11    1    1    2    0    0 -0.76147838597E+02 -0.24992506467E+02  0.68563455549E+02  0.10547068853E+03  0.00000000000E+00 0.  1.
         11    1    1    2    0    0 -0.41219036054E+02 -0.79433377205E+01  0.17489136923E+03  0.17985854603E+03  0.00000000000E+00 0. -1.
</event>
<event>
 7    1  0.2878477E-009  0.1010444E+03  0.7561462E-02  0.1278115E+00
         -1   -1    0    0    0  501 -0.00000000000E+00  0.00000000000E+00  0.34953833092E+02  0.34953833092E+02  0.00000000000E+00 0.  1.
          1   -1    0    0  501    0  0.00000000000E+00 -0.00000000000E+00 -0.49441722849E+03  0.49441722849E+03  0.00000000000E+00 0. -1.
         25    2    1    2    0    0  0.55557798309E+02  0.12530201329E+02 -0.15631430052E+03  0.20815958264E+03  0.12511025696E+03 0.  0.
          5    1    3    3  502    0  0.32878242058E+02  0.62351184545E+02 -0.44145252349E+02  0.83276195398E+02  0.41800000000E+01 0.  1.
         -5    1    3    3    0  502  0.22679556251E+02 -0.49820983216E+02 -0.11216904817E+03  0.12488338724E+03  0.41800000000E+01 0.  1.
        -11    1    1    2    0    0 -0.55730352085E+01 -0.24543815481E+02 -0.16744541989E+02  0.30229741750E+02  0.00000000000E+00 0.  1.
         11    1    1    2    0    0 -0.49984763100E+02  0.12013614153E+02 -0.28640455289E+03  0.29098173719E+03  0.00000000000E+00 0. -1.
</event>
<event>
 7    1  0.2878477E-009  0.1437805E+03  0.7561462E-02  0.1208331E+00
         -2   -1    0    0    0  501 -0.00000000000E+00  0.00000000000E+00  0.59695283009E+02  0.59695283009E+02  0.00000000000E+00 0.  1.
          2   -1    0    0  501    0  0.00000000000E+00 -0.00000000000E+00 -0.38479844643E+03  0.38479844643E+03  0.00000000000E+00 0. -1.
         25    2    1    2    0    0  0.78742604049E+02 -0.70601273086E+02 -0.17687335910E+03  0.24107166000E+03  0.12508566122E+03 0.  0.
          5    1    3    3  502    0 -0.23169742731E+02  0.85097359155E+01 -0.67122542127E+02  0.71639099975E+02  0.41800000000E+01 0. -1.
         -5    1    3    3    0  502  0.10191234678E+03 -0.79111009001E+02 -0.10975081697E+03  0.16943256002E+03  0.41800000000E+01 0. -1.
        -11    1    1    2    0    0 -0.24882632187E+02  0.75372539672E+02 -0.11573565182E+03  0.14033854147E+03  0.00000000000E+00 0. -1.
         11    1    1    2    0    0 -0.53859971862E+02 -0.47712665864E+01 -0.32494152513E+02  0.63083527971E+02  0.00000000000E+00 0.  1.
</event>
<event>
 7    1  0.2878477E-009  0.1405035E+03  0.7561462E-02  0.1212653E+00
         -1   -1    0    0    0  501 -0.00000000000E+00  0.00000000000E+00  0.10438155144E+03  0.10438155144E+03  0.00000000000E+00 0.  1.
          1   -1    0    0  501    0  0.00000000000E+00 -0.00000000000E+00 -0.23189609207E+03  0.23189609207E+03  0.00000000000E+00 0. -1.
         25    2    1    2    0    0 -0.98872345665E+02  0.48731451529E+02 -0.47670753579E+02  0.17340349378E+03  0.12508307561E+03 0.  0.
          5    1    3    3  502    0 -0.25662900024E+02  0.59973872220E+02 -0.70151917712E+02  0.95886462785E+02  0.41800000000E+01 0. -1.
         -5    1    3    3    0  502 -0.73209445641E+02 -0.11242420691E+02  0.22481164133E+02  0.77517030999E+02  0.41800000000E+01 0. -1.
        -11    1    1    2    0    0  0.39168315406E+02  0.25086650003E+02 -0.32817933351E+02  0.56925510007E+02  0.00000000000E+00 0. -1.
         11    1    1    2    0    0  0.59704030260E+02 -0.73818101532E+02 -0.47025853698E+02  0.10594863972E+03  0.00000000000E+00 0.  1.
</event>
<event>
 7    1  0.2878477E-009  0.1451361E+03  0.7561462E-02  0.1206580E+00
         -1   -1    0    0    0  501 -0.00000000000E+00  0.00000000000E+00  0.33349326019E+02  0.33349326019E+02  0.00000000000E+00 0.  1.
          1   -1    0    0  501    0  0.00000000000E+00 -0.00000000000E+00 -0.10676385346E+04  0.10676385346E+04  0.00000000000E+00 0. -1.
         25    2    1    2    0    0 -0.10066557063E+03  0.55317686941E+02 -0.84163931189E+03  0.85860240412E+03  0.12509098065E+03 0.  0.
          5    1    3    3  502    0  0.12971148713E+02  0.49333724036E+02 -0.17590110323E+03  0.18319589936E+03  0.41800000000E+01 0. -1.
         -5    1    3    3    0  502 -0.11363671934E+03  0.59839629054E+01 -0.66573820866E+03  0.67540650476E+03  0.41800000000E+01 0. -1.
        -11    1    1    2    0    0  0.39102608507E+02  0.45261494204E+01 -0.10077445453E+02  0.40633175208E+02  0.00000000000E+00 0.  1.
         11    1    1    2    0    0  0.61562962119E+02 -0.59843836361E+02 -0.18257245123E+03  0.20175228129E+03  0.00000000000E+00 0. -1.
</event>
<event>
 7    1  0.2878477E-009  0.1452124E+03  0.7561462E-02  0.1206482E+00
          1   -1    0    0  501    0  0.00000000000E+00  0.00000000000E+00  0.32960452169E+03  0.32960452169E+03  0.00000000000E+00 0. -1.
         -1   -1    0    0    0  501 -0.00000000000E+00 -0.00000000000E+00 -0.81146753847E+02  0.81146753847E+02  0.00000000000E+00 0.  1.
         25    2    1    2    0    0 -0.90095307686E+02  0.40995526308E+02  0.18655103393E+03  0.24545417218E+03  0.12509462313E+03 0.  0.
          5    1    3    3  502    0 -0.93602353052E+02 -0.24360859688E+01  0.59364188316E+02  0.11094554640E+03  0.41800000000E+01 0.  1.
         -5    1    3    3    0  502  0.35070453662E+01  0.43431612277E+02  0.12718684562E+03  0.13450862578E+03  0.41800000000E+01 0.  1.
        -11    1    1    2    0    0  0.11066394099E+03 -0.41680601792E+01  0.49705479346E+02  0.12138581152E+03  0.00000000000E+00 0.  1.
         11    1    1    2    0    0 -0.20568633308E+02 -0.36827466129E+02  0.12201254570E+02  0.43911291836E+02  0.00000000000E+00 0. -1.
</event>
<event>
 7    1  0.2878477E-009  0.1075423E+03  0.7561462E-02  0.1265190E+00
         -2   -1    0    0    0  501 -0.00000000000E+00  0.00000000000E+00  0.16952587567E+02  0.16952587567E+02  0.00000000000E+00 0.  1.
          2   -1    0    0  501    0  0.00000000000E+00 -0.00000000000E+00 -0.81012886091E+03  0.81012886091E+03  0.00000000000E+00 0. -1.
         25    2    1    2    0    0 -0.39583122645E+02  0.21081978612E+02 -0.45329932000E+03  0.47237678959E+03  0.12509310294E+03 0.  0.
          5    1    3    3  502    0 -0.73154897285E+02 -0.22704452654E+02 -0.23663729875E+03  0.24876055702E+03  0.41800000000E+01 0.  1.
         -5    1    3    3    0  502  0.33571774640E+02  0.43786431265E+02 -0.21666202125E+03  0.22361623257E+03  0.41800000000E+01 0.  1.
        -11    1    1    2    0    0 -0.19742839163E+02 -0.11777576609E+02 -0.24246280992E+02  0.33412170701E+02  0.00000000000E+00 0.  1.
         11    1    1    2    0    0  0.59325961808E+02 -0.93044020024E+01 -0.31563067235E+03  0.32129248819E+03  0.00000000000E+00 0. -1.
</event>
<event>
 7    1  0.2878477E-009  0.1257551E+03  0.7561462E-02  0.1233894E+00
          1   -1    0    0  501    0  0.00000000000E+00  0.00000000000E+00  0.29171393133E+03  0.29171393133E+03  0.00000000000E+00 0. -1.
         -1   -1    0    0    0  501 -0.00000000000E+00 -0.00000000000E+00 -0.60371388309E+02  0.60371388309E+02  0.00000000000E+00 0.  1.
         25    2    1    2    0    0 -0.26008002034E+02  0.70835090879E+02  0.14752156894E+03  0.20761469690E+03  0.12508885961E+03 0.  0.
          5    1    3    3  502    0 -0.68294977247E+02  0.10876523499E+02  0.49704195298E+02  0.85267122097E+02  0.41800000000E+01 0.  1.
         -5    1    3    3    0  502  0.42286975213E+02  0.59958567381E+02  0.97817373642E+02  0.12234757481E+03  0.41800000000E+01 0.  1.
        -11    1    1    2    0    0 -0.25264494522E+02 -0.44322206903E+02  0.12146373671E+02  0.52443179743E+02  0.00000000000E+00 0.  1.
         11    1    1    2    0    0  0.51272496555E+02 -0.26512883976E+02  0.71674600415E+02  0.92027442996E+02  0.00000000000E+00 0. -1.
</event>
<event>
 7    1  0.2878477E-009  0.9626610E+02  0.7561462E-02  0.1288350E+00
         -2   -1    0    0    0  501 -0.00000000000E+00  0.00000000000E+00  0.85488929222E+02  0.85488929222E+02  0.00000000000E+00 0.  1.
          2   -1    0    0  501    0  0.00000000000E+00 -0.00000000000E+00 -0.18157841879E+03  0.18157841879E+03  0.00000000000E+00 0. -1.
         25    2    1    2    0    0 -0.39375255636E+02  0.42893865029E+02 -0.33498336061E+02  0.14198336776E+03  0.12508734463E+03 0.  0.
          5    1    3    3  502    0  0.20714678011E+02 -0.26636164871E+02 -0.36576552090E+02  0.49938960010E+02  0.41800000000E+01 0. -1.
         -5    1    3    3    0  502 -0.60089933647E+02  0.69530029900E+02  0.30782160287E+01  0.92044407747E+02  0.41800000000E+01 0. -1.
        -11    1    1    2    0    0  0.19155668267E+02 -0.42157528323E+02 -0.83818447962E+02  0.95758702162E+02  0.00000000000E+00 0. -1.
         11    1    1    2    0    0  0.20219587368E+02 -0.73633670619E+00  0.21227294458E+02  0.29325278091E+02  0.00000000000E+00 0.  1.
</event>
<event>
 7    1  0.2878477E-009  0.3414895E+03  0.7561462E-02  0.1066163E+00
          1   -1    0    0  501    0  0.00000000000E+00  0.00000000000E+00  0.14639223770E+04  0.14639223770E+04  0.00000000000E+00 0. -1.
         -1   -1    0    0    0  501 -0.00000000000E+00 -0.00000000000E+00 -0.87092034152E+02  0.87092034152E+02  0.00000000000E+00 0.  1.
         25    2    1    2    0    0  0.32749821664E+03  0.32318060204E+02  0.87115769889E+03  0.93960343158E+03  0.12505732039E+03 0.  0.
          5    1    3    3  502    0  0.19453056888E+03 -0.42358245296E+02  0.47216983551E+03  0.51244335213E+03  0.41800000000E+01 0.  1.
         -5    1    3    3    0  502  0.13296764776E+03  0.74676305500E+02  0.39898786338E+03  0.42716007945E+03  0.41800000000E+01 0.  1.
        -11    1    1    2    0    0 -0.26701623179E+03 -0.41132883064E+02  0.33649181775E+03  0.43152789658E+03  0.00000000000E+00 0.  1.
         11    1    1    2    0    0 -0.60481984847E+02  0.88148228605E+01  0.16918082622E+03  0.17988308302E+03  0.00000000000E+00 0. -1.
</event>
<event>
 7    1  0.2878477E-009  0.1435072E+03  0.7561462E-02  0.1208686E+00
          1   -1    0    0  501    0  0.00000000000E+00  0.00000000000E+00  0.13811445051E+03  0.13811445051E+03  0.00000000000E+00 0. -1.
         -1   -1    0    0    0  501 -0.00000000000E+00 -0.00000000000E+00 -0.16219174267E+03  0.16219174267E+03  0.00000000000E+00 0.  1.
         25    2    1    2    0    0 -0.52511983617E+02 -0.85493986388E+02 -0.40950036193E+02  0.16550352923E+03  0.12509109717E+03 0.  0.
          5    1    3    3  502    0 -0.18227740059E+02  0.30795955617E+02 -0.23322188276E+02  0.42918973147E+02  0.41800000000E+01 0.  1.
         -5    1    3    3    0  502 -0.34284243558E+02 -0.11628994200E+03 -0.17627847918E+02  0.12258455608E+03  0.41800000000E+01 0.  1.
        -11    1    1    2    0    0  0.69006256236E+02  0.36680012388E+02 -0.61024322923E+01  0.78387029465E+02  0.00000000000E+00 0.  1.
         11    1    1    2    0    0 -0.16494272619E+02  0.48813974000E+02  0.22975176332E+02  0.56415634485E+02  0.00000000000E+00 0. -1.
</event>
<event>
 7    1  0.2878477E-009  0.1138569E+03  0.7561462E-02  0.1253590E+00
          1   -1    0    0  501    0  0.00000000000E+00  0.00000000000E+00  0.12224755988E+04  0.12224755988E+04  0.00000000000E+00 0. -1.
         -1   -1    0    0    0  501 -0.00000000000E+00 -0.00000000000E+00 -0.18737169824E+02  0.18737169824E+02  0.00000000000E+00 0.  1.
         25    2    1    2    0    0  0.20091141652E+02  0.69623974942E+02  0.95975221117E+03  0.97057874818E+03  0.12509055803E+03 0.  0.
          5    1    3    3  502    0  0.44890793210E+02 -0.21417844940E+02  0.30803143007E+03  0.31204926167E+03  0.41800000000E+01 0.  1.
         -5    1    3    3    0  502 -0.24799651557E+02  0.91041819882E+02  0.65172078110E+03  0.65852948651E+03  0.41800000000E+01 0.  1.
        -11    1    1    2    0    0  0.11642585665E+02 -0.32430008331E+02  0.16962896158E+02  0.38405664782E+02  0.00000000000E+00 0.  1.
         11    1    1    2    0    0 -0.31733727317E+02 -0.37193966612E+02  0.22702332164E+03  0.23222835566E+03  0.00000000000E+00 0. -1.
</event>
<event>
 7    1  0.2878477E-009  0.1127802E+03  0.7561462E-02  0.1255506E+00
         -1   -1    0    0    0  501 -0.00000000000E+00  0.00000000000E+00  0.72787146593E+02  0.72787146593E+02  0.00000000000E+00 0.  1.
          1   -1    0    0  501    0  0.00000000000E+00 -0.00000000000E+00 -0.29464533792E+03  0.29464533792E+03  0.00000000000E+00 0. -1.
         25    2    1    2    0    0 -0.17071271505E+02 -0.62944775289E+02 -0.21753953480E+03  0.25927631922E+03  0.12508911808E+03 0.  0.
          5    1    3    3  502    0  0.46970253470E+02 -0.60615892371E+02 -0.11496491307E+03  0.13825662644E+03  0.41800000000E+01 0.  1.
         -5    1    3    3    0  502 -0.64041524975E+02 -0.23288829185E+01 -0.10257462173E+03  0.12101969278E+03  0.41800000000E+01 0.  1.
        -11    1    1    2    0    0 -0.10011125949E+02  0.55582519471E+02 -0.35104380626E+02  0.66497794344E+02  0.00000000000E+00 0. -1.
         11    1    1    2    0    0  0.27082397454E+02  0.73622558181E+01  0.30785724092E+02  0.41658370953E+02  0.00000000000E+00 0.  1.
</event>
<event>
 7    1  0.2878477E-009  0.2507067E+03  0.7561462E-02  0.1112859E+00
          2   -1    0    0  501    0  0.00000000000E+00  0.00000000000E+00  0.15391420093E+04  0.15391420093E+04  0.00000000000E+00 0. -1.
         -2   -1    0    0    0  501 -0.00000000000E+00 -0.00000000000E+00 -0.54151430390E+02  0.54151430390E+02  0.00000000000E+00 0.  1.
         25    2    1    2    0    0  0.15249339538E+03 -0.19797901632E+03  0.10155424775E+04  0.10532928455E+04  0.12509743467E+03 0.  0.
          5    1    3    3  502    0  0.40778555490E+02 -0.68751850009E+02  0.57888677387E+03  0.58439462423E+03  0.41800000000E+01 0.  1.
         -5    1    3    3    0  502  0.11171483989E+03 -0.12922716631E+03  0.43665570363E+03  0.46889822124E+03  0.41800000000E+01 0.  1.
        -11    1    1    2    0    0 -0.13728418395E+03  0.18577394718E+03  0.35254239960E+03  0.42147959634E+03  0.00000000000E+00 0.  1.
         11    1    1    2    0    0 -0.15209211430E+02  0.12205069132E+02  0.11690570177E+03  0.11852099785E+03  0.00000000000E+00 0. -1.
</event>
<event>
 7    1  0.2878477E-009  0.1146779E+03  0.7561462E-02  0.1252144E+00
          3   -1    0    0  501    0  0.00000000000E+00  0.00000000000E+00  0.59060112467E+02  0.59060112467E+02  0.00000000000E+00 0. -1.
         -3   -1    0    0    0  501 -0.00000000000E+00 -0.00000000000E+00 -0.41663043912E+03  0.41663043912E+03  0.00000000000E+00 0.  1.
         25    2    1    2    0    0  0.41902826448E+02  0.52608628943E+02 -0.32941840672E+03  0.35873000591E+03  0.12508883143E+03 0.  0.
          5    1    3    3  502    0  0.77171845537E+01 -0.36407135972E+02 -0.15952146665E+03  0.16385849142E+03  0.41800000000E+01 0. -1.
         -5    1    3    3    0  502  0.34185641894E+02  0.89015764915E+02 -0.16989694007E+03  0.19487151449E+03  0.41800000000E+01 0. -1.
        -11    1    1    2    0    0 -0.30025563629E+02  0.10829801290E+02 -0.40173147092E+02  0.51309851047E+02  0.00000000000E+00 0.  1.
         11    1    1    2    0    0 -0.11877262819E+02 -0.63438430233E+02  0.12021227164E+02  0.65650694627E+02  0.00000000000E+00 0. -1.
</event>
<event>
 7    1  0.2878477E-009  0.2100811E+03  0.7561462E-02  0.1141502E+00
         -2   -1    0    0    0  501 -0.00000000000E+00  0.00000000000E+00  0.92537239301E+02  0.92537239301E+02  0.00000000000E+00 0.  1.
          2   -1    0    0  501    0  0.00000000000E+00 -0.00000000000E+00 -0.52703308221E+03  0.52703308221E+03  0.00000000000E+00 0. -1.
         25    2    1    2    0    0  0.85031511297E+01 -0.18242450870E+03 -0.30712740709E+03  0.37858499000E+03  0.12509334720E+03 0.  0.
          5    1    3    3  502    0 -0.37835415478E+02 -0.10784152080E+02 -0.31522238807E+02  0.50585971770E+02  0.41800000000E+01 0.  1.
         -5    1    3    3    0  502  0.46338566608E+02 -0.17164035662E+03 -0.27560516828E+03  0.32799901823E+03  0.41800000000E+01 0.  1.
        -11    1    1    2    0    0 -0.43176483560E+02  0.14693738506E+03 -0.10942948872E+03  0.18822756669E+03  0.00000000000E+00 0.  1.
         11    1    1    2    0    0  0.34673332430E+02  0.35487123640E+02 -0.17938947096E+02  0.52757764821E+02  0.00000000000E+00 0. -1.
</event>
<event>
 7    1  0.2878477E-009  0.1579997E+03  0.7561462E-02  0.1190974E+00
         -1   -1    0    0    0  501 -0.00000000000E+00  0.00000000000E+00  0.29968348516E+02  0.29968348516E+02  0.00000000000E+00 0.  1.
          1   -1    0    0  501    0  0.00000000000E+00 -0.00000000000E+00 -0.10483322128E+04  0.10483322128E+04  0.00000000000E+00 0. -1.
         25    2    1    2    0    0 -0.11134837050E+03 -0.35336680243E+02 -0.76577452870E+03  0.78466909884E+03  0.12509126779E+03 0.  0.
          5    1    3    3  502    0 -0.12606316693E+02 -0.63276565633E+02 -0.21952047532E+03  0.22884395221E+03  0.41800000000E+01 0.  1.
         -5    1    3    3    0  502 -0.98742053803E+02  0.27939885390E+02 -0.54625405338E+03  0.55582514662E+03  0.41800000000E+01 0.  1.
        -11    1    1    2    0    0  0.35641121179E+02  0.59338231541E+02 -0.13536604920E+03  0.15203710901E+03  0.00000000000E+00 0. -1.
         11    1    1    2    0    0  0.75707249317E+02 -0.24001551298E+02 -0.11722328640E+03  0.14159435348E+03  0.00000000000E+00 0.  1.
</event>
<event>
 7    1  0.2878477E-009  0.1304546E+03  0.7561462E-02  0.1226783E+00
          1   -1    0    0  501    0  0.00000000000E+00  0.00000000000E+00  0.76925690226E+03  0.76925690226E+03  0.00000000000E+00 0. -1.
         -1   -1    0    0    0  501 -0.00000000000E+00 -0.00000000000E+00 -0.27706315653E+02  0.27706315653E+02  0.00000000000E+00 0.  1.
         25    2    1    2    0    0 -0.47100211142E+02  0.83225373603E+02  0.44284427846E+03  0.47000302815E+03  0.12508756456E+03 0.  0.
          5    1    3    3  502    0  0.33329754499E+02  0.87168684082E+01  0.20697326228E+03  0.20986247884E+03  0.41800000000E+01 0.  1.
         -5    1    3    3    0  502 -0.80429965640E+02  0.74508505195E+02  0.23587101618E+03  0.26014054931E+03  0.41800000000E+01 0.  1.
        -11    1    1    2    0    0 -0.11996231837E+02 -0.43884193085E+02  0.20160225436E+03  0.20667172265E+03  0.00000000000E+00 0. -1.
         11    1    1    2    0    0  0.59096442979E+02 -0.39341180518E+02  0.97104053793E+02  0.12028846711E+03  0.00000000000E+00 0.  1.
</event>
<event>
 7    1  0.2878477E-009  0.1374996E+03  0.7561462E-02  0.1216734E+00
         -1   -1    0    0    0  501 -0.00000000000E+00  0.00000000000E+00  0.12317280897E+02  0.12317280897E+02  0.00000000000E+00 0.  1.
          1   -1    0    0  501    0  0.00000000000E+00 -0.00000000000E+00 -0.18204321760E+04  0.18204321760E+04  0.00000000000E+00 0. -1.
         25    2    1    2    0    0 -0.82598799756E+02 -0.41209180655E+02 -0.12587546945E+04  0.12683183118E+04  0.12508877119E+03 0.  0.
          5    1    3    3  502    0 -0.10966365569E+03 -0.50692922842E+02 -0.85209827467E+03  0.86063048511E+03  0.41800000000E+01 0.  1.
         -5    1    3    3    0  502  0.27064855935E+02  0.94837421876E+01 -0.40665641985E+03  0.40768782665E+03  0.41800000000E+01 0.  1.
        -11    1    1    2    0    0  0.96318159706E+02  0.17727031771E+02 -0.48081592543E+03  0.49068868918E+03  0.00000000000E+00 0. -1.
         11    1    1    2    0    0 -0.13719359950E+02  0.23482148883E+02 -0.68544275103E+02  0.73742455906E+02  0.00000000000E+00 0.  1.
</event>
<event>
 7    1  0.2878477E-009  0.8939053E+02  0.7561462E-02  0.1304334E+00
         -1   -1    0    0    0  501 -0.00000000000E+00  0.00000000000E+00  0.35470219747E+03  0.35470219747E+03  0.00000000000E+00 0.  1.
          1   -1    0    0  501    0  0.00000000000E+00 -0.00000000000E+00 -0.55619311646E+02  0.55619311646E+02  0.00000000000E+00 0. -1.
         25    2    1    2    0    0 -0.17356718836E+02  0.28775188806E+02  0.29097192029E+03  0.31849609950E+03  0.12508333149E+03 0.  0.
          5    1    3    3  502    0  0.72408839551E+01 -0.31185883200E+02  0.16143129075E+02  0.36097960160E+02  0.41800000000E+01 0.  1.
         -5    1    3    3    0  502 -0.24597602791E+02  0.59961072005E+02  0.27482879122E+03  0.28239813934E+03  0.41800000000E+01 0.  1.
        -11    1    1    2    0    0  0.67663316812E+01 -0.53879258496E+02  0.24987444076E+02  0.59775664798E+02  0.00000000000E+00 0.  1.
         11    1    1    2    0    0  0.10590387155E+02  0.25104069691E+02 -0.16876478544E+02  0.32049744822E+02  0.00000000000E+00 0. -1.
</event>
<event>
 7    1  0.2878477E-009  0.5058808E+02  0.7561462E-02  0.1442195E+00
         -2   -1    0    0    0  501 -0.00000000000E+00  0.00000000000E+00  0.22221443734E+02  0.22221443734E+02  0.00000000000E+00 0.  1.
          2   -1    0    0  501    0  0.00000000000E+00 -0.00000000000E+00 -0.57241702170E+03  0.57241702170E+03  0.00000000000E+00 0. -1.
         25    2    1    2    0    0  0.20796038282E+02 -0.16354546135E+02 -0.36159012996E+03  0.38353186536E+03  0.12509725525E+03 0.  0.
          5    1    3    3  502    0  0.45151349997E+00  0.37202284088E+01  0.96529519198E+01  0.11166729361E+02  0.41800000000E+01 0. -1.
         -5    1    3    3    0  502  0.20344524782E+02 -0.20074774544E+02 -0.37124308188E+03  0.37236513600E+03  0.41800000000E+01 0. -1.
        -11    1    1    2    0    0  0.88456333478E+01  0.31971615226E+02 -0.19010415072E+02  0.38233823909E+02  0.00000000000E+00 0.  1.
         11    1    1    2    0    0 -0.29641671630E+02 -0.15617069091E+02 -0.16959503293E+03  0.17287277617E+03  0.00000000000E+00 0. -1.
</event>
<event>
 7    1  0.2878477E-009  0.1787072E+03  0.7561462E-02  0.1169060E+00
          1   -1    0    0  501    0  0.00000000000E+00  0.00000000000E+00  0.17939856518E+03  0.17939856518E+03  0.00000000000E+00 0. -1.
         -1   -1    0    0    0  501 -0.00000000000E+00 -0.00000000000E+00 -0.24109956451E+03  0.24109956451E+03  0.00000000000E+00 0.  1.
         25    2    1    2    0    0 -0.12217613033E+03  0.12718266142E+03 -0.19030063094E+02  0.21705378568E+03  0.12509103240E+03 0.  0.
          5    1    3    3  502    0 -0.79883561885E+02  0.92448617011E+02 -0.71077596819E+02  0.14141296764E+03  0.41800000000E+01 0.  1.
         -5    1    3    3    0  502 -0.42292568443E+02  0.34734044413E+02  0.52047533724E+02  0.75640818038E+02  0.41800000000E+01 0.  1.
        -11    1    1    2    0    0  0.67031768905E+02 -0.42997406847E+02  0.23462691238E+02  0.83021279912E+02  0.00000000000E+00 0. -1.
         11    1    1    2    0    0  0.55144361423E+02 -0.84185254576E+02 -0.66133627468E+02  0.12042306410E+03  0.00000000000E+00 0.  1.
</event>
<event>
 7    1  0.2878477E-009  0.4561085E+02  0.7561462E-02  0.1470564E+00
          1   -1    0    0  501    0  0.00000000000E+00  0.00000000000E+00  0.82374483161E+02  0.82374483161E+02  0.00000000000E+00 0. -1.
         -1   -1    0    0    0  501 -0.00000000000E+00 -0.00000000000E+00 -0.20511356451E+03  0.20511356451E+03  0.00000000000E+00 0.  1.
         25    2    1    2    0    0  0.12354156388E+02  0.17543447955E+02 -0.14458896829E+03  0.19239103073E+03  0.12509173118E+03 0.  0.
          5    1    3    3  502    0 -0.87439487887E+01  0.25152870912E+02 -0.16166304487E+03  0.16389489325E+03  0.41800000000E+01 0. -1.
         -5    1    3    3    0  502  0.21098105177E+02 -0.76094229569E+01  0.17074076589E+02  0.28496137478E+02  0.41800000000E+01 0. -1.
        -11    1    1    2    0    0  0.11633469511E+01 -0.25658813850E+02 -0.30818906160E+02  0.40118986542E+02  0.00000000000E+00 0.  1.
         11    1    1    2    0    0 -0.13517503340E+02  0.81153658943E+01  0.52668793097E+02  0.54978030398E+02  0.00000000000E+00 0. -1.
</event>
<event>
 7    1  0.2878477E-009  0.2010494E+03  0.7561462E-02  0.1148857E+00
         -2   -1    0    0    0  501 -0.00000000000E+00  0.00000000000E+00  0.39515577929E+02  0.39515577929E+02  0.00000000000E+00 0.  1.
          2   -1    0    0  501    0  0.00000000000E+00 -0.00000000000E+00 -0.11856962832E+04  0.11856962832E+04  0.00000000000E+00 0. -1.
         25    2    1    2    0    0  0.17521993963E+03 -0.47638879306E+02 -0.72390527280E+03  0.75674254625E+03  0.12509575231E+03 0.  0.
          5    1    3    3  502    0  0.11186371845E+03  0.32727842373E+02 -0.34188198200E+03  0.36122758088E+03  0.41800000000E+01 0. -1.
         -5    1    3    3    0  502  0.63356221182E+02 -0.80366721679E+02 -0.38202329080E+03  0.39551496537E+03  0.41800000000E+01 0. -1.
        -11    1    1    2    0    0 -0.62503947544E+02  0.56223473119E+01 -0.60307808370E+02  0.87036693401E+02  0.00000000000E+00 0.  1.
         11    1    1    2    0    0 -0.11271599208E+03  0.42016531994E+02 -0.36196762406E+03  0.38143262144E+03  0.00000000000E+00 0. -1.
</event>
<event>
 7    1  0.2878477E-009  0.9619461E+02  0.7561462E-02  0.1288508E+00
          1   -1    0    0  501    0  0.00000000000E+00  0.00000000000E+00  0.96315740424E+03  0.96315740424E+03  0.00000000000E+00 0. -1.
         -1   -1    0    0    0  501 -0.00000000000E+00 -0.00000000000E+00 -0.16789901397E+02  0.16789901397E+02  0.00000000000E+00 0.  1.
         25    2    1    2    0    0  0.42840933069E+01  0.48601529574E+02  0.70554306850E+03  0.71820542300E+03  0.12509015146E+03 0.  0.
          5    1    3    3  502    0  0.55754828477E+02  0.10904605925E+02  0.18028667919E+03  0.18907213021E+03  0.41800000000E+01 0.  1.
         -5    1    3    3    0  502 -0.51470735170E+02  0.37696923649E+02  0.52525638931E+03  0.52913329279E+03  0.41800000000E+01 0.  1.
        -11    1    1    2    0    0  0.24071205081E+02 -0.22283417745E+02  0.21935854528E+02  0.39460807573E+02  0.00000000000E+00 0.  1.
         11    1    1    2    0    0 -0.28355298388E+02 -0.26318111828E+02  0.21888857982E+03  0.22228107506E+03  0.00000000000E+00 0. -1.
</event>
<event>
 6    1  0.2878477E-009  0.1068052E+03  0.7561462E-02  0.1266603E+00
          1   -1    0    0  501    0  0.00000000000E+00  0.00000000000E+00  0.52374610239E+03  0.52374610239E+03  0.00000000000E+00 0. -1.
         -1   -1    0    0    0  501 -0.00000000000E+00 -0.00000000000E+00 -0.39818007750E+02  0.39818007750E+02  0.00000000000E+00 0.  1.
          5    1    1    2  502    0 -0.39246644821E+02  0.23334015611E+02  0.15037555412E+02  0.48253247425E+02  0.41800000000E+01 0. -1.
         -5    1    1    2    0  502 -0.36452898797E+01 -0.88622852279E+02  0.13989228982E+03  0.16569436694E+03  0.41800000000E+01 0. -1.
        -11    1    1    2    0    0  0.59352787396E+01  0.17960814345E+02  0.42818733052E+01  0.19394659694E+02  0.00000000000E+00 0.  1.
         11    1    1    2    0    0  0.36956655961E+02  0.47328022323E+02  0.32471637610E+03  0.33022183608E+03  0.00000000000E+00 0. -1.
</event>
<event>
 7    1  0.2878477E-009  0.9489002E+02  0.7561462E-02  0.1291424E+00
          1   -1    0    0  501    0  0.00000000000E+00  0.00000000000E+00  0.86939214732E+02  0.86939214732E+02  0.00000000000E+00 0. -1.
         -1   -1    0    0    0  501 -0.00000000000E+00 -0.00000000000E+00 -0.14229617544E+03  0.14229617544E+03  0.00000000000E+00 0.  1.
         25    2    1    2    0    0 -0.29335835603E-01 -0.17464796167E+02 -0.80313899291E+01  0.12655707079E+03  0.12508864448E+03 0.  0.
          5    1    3    3  502    0 -0.60094315604E+02 -0.43948597736E+01 -0.20329634320E+02  0.63729176928E+02  0.41800000000E+01 0.  1.
         -5    1    3    3    0  502  0.60064979768E+02 -0.13069936394E+02  0.12298244391E+02  0.62827893861E+02  0.41800000000E+01 0.  1.
        -11    1    1    2    0    0  0.11035987602E+02 -0.23172592148E+02 -0.54246153950E+02  0.60011726083E+02  0.00000000000E+00 0.  1.
         11    1    1    2    0    0 -0.11006651766E+02  0.40637388315E+02  0.69205831736E+01  0.42666593297E+02  0.00000000000E+00 0. -1.
</event>
<event>
 7    1  0.2878477E-009  0.1094553E+03  0.7561462E-02  0.1261582E+00
         -2   -1    0    0    0  501 -0.00000000000E+00  0.00000000000E+00  0.89030218415E+02  0.89030218415E+02  0.00000000000E+00 0.  1.
          2   -1    0    0  501    0  0.00000000000E+00 -0.00000000000E+00 -0.18158631060E+03  0.18158631060E+03  0.00000000000E+00 0. -1.
         25    2    1    2    0    0  0.10883092073E+02 -0.59025490825E+02 -0.79110566075E+02  0.15971747768E+03  0.12509492696E+03 0.  0.
          5    1    3    3  502    0 -0.33862086270E+02  0.24554625252E+02 -0.36591682857E+02  0.55731446798E+02  0.41800000000E+01 0.  1.
         -5    1    3    3    0  502  0.44745178342E+02 -0.83580116077E+02 -0.42518883218E+02  0.10398603088E+03  0.41800000000E+01 0.  1.
        -11    1    1    2    0    0 -0.33611044179E+02  0.29518232991E+02  0.29857317096E+02  0.53781853388E+02  0.00000000000E+00 0.  1.
         11    1    1    2    0    0  0.22727952106E+02  0.29507257834E+02 -0.43302843204E+02  0.57117197948E+02  0.00000000000E+00 0. -1.
</event>
<event>
 7    1  0.2878477E-009  0.8732872E+02  0.7561462E-02  0.1309453E+00
          2   -1    0    0  501    0  0.00000000000E+00  0.00000000000E+00  0.53239995957E+02  0.53239995957E+02  0.00000000000E+00 0. -1.
         -2   -1    0    0    0  501 -0.00000000000E+00 -0.00000000000E+00 -0.28140209059E+03  0.28140209059E+03  0.00000000000E+00 0.  1.
         25    2    1    2    0    0 -0.17150926153E+02 -0.47722023791E+02 -0.17871428921E+03  0.22395969029E+03  0.12509036688E+03 0.  0.
          5    1    3    3  502    0 -0.36067368675E+02 -0.18934270101E+02 -0.18431702117E+03  0.18881101229E+03  0.41800000000E+01 0. -1.
         -5    1    3    3    0  502  0.18916442522E+02 -0.28787753690E+02  0.56027319597E+01  0.35148678007E+02  0.41800000000E+01 0. -1.
        -11    1    1    2    0    0  0.28910421025E+02 -0.16791139033E+02 -0.15827125125E+02  0.36989899751E+02  0.00000000000E+00 0.  1.
         11    1    1    2    0    0 -0.11759494872E+02  0.64513162824E+02 -0.33620680299E+02  0.73692496504E+02  0.00000000000E+00 0. -1.
</event>
<event>
 7    1  0.2878477E-009  0.4594977E+02  0.7561462E-02  0.1468498E+00
         -2   -1    0    0    0  501 -0.00000000000E+00  0.00000000000E+00  0.23881664568E+02  0.23881664568E+02  0.00000000000E+00 0.  1.
          2   -1    0    0  501    0  0.00000000000E+00 -0.00000000000E+00 -0.50383792020E+03  0.50383792020E+03  0.00000000000E+00 0. -1.
         25    2    1    2    0    0  0.84051172261E+01  0.59321876348E+01 -0.28540409567E+03  0.31178382012E+03  0.12509122999E+03 0.  0.
          5    1    3    3  502    0 -0.69819750963E+01  0.19826304155E-01 -0.29303258569E+03  0.29314555608E+03  0.41800000000E+01 0. -1.
         -5    1    3    3    0  502  0.15387092322E+02  0.59123613307E+01  0.76284900230E+01  0.18638264047E+02  0.41800000000E+01 0. -1.
        -11    1    1    2    0    0 -0.35035481418E+02 -0.15698256682E+02 -0.29374193078E+02  0.48340081092E+02  0.00000000000E+00 0.  1.
         11    1    1    2    0    0  0.26630364192E+02  0.97660690472E+01 -0.16517796688E+03  0.16759568355E+03  0.00000000000E+00 0. -1.
</event>
<event>
 7    1  0.2878477E-009  0.1104929E+03  0.7561462E-02  0.1259660E+00
          1   -1    0    0  501    0  0.00000000000E+00  0.00000000000E+00  0.23540957422E+03  0.23540957422E+03  0.00000000000E+00 0. -1.
         -1   -1    0    0    0  501 -0.00000000000E+00 -0.00000000000E+00 -0.57879757116E+02  0.57879757116E+02  0.00000000000E+00 0.  1.
         25    2    1    2    0    0 -0.33134923454E+02  0.62374161056E+01  0.67055619048E+02  0.14588439195E+03  0.12509584828E+03 0.  0.
          5    1    3    3  502    0 -0.68964416524E+02 -0.27556467557E+02  0.60780772553E+02  0.96058442434E+02  0.41800000000E+01 0. -1.
         -5    1    3    3    0  502  0.35829493071E+02  0.33793883663E+02  0.62748464954E+01  0.49825949517E+02  0.41800000000E+01 0. -1.
        -11    1    1    2    0    0  0.35322253882E+02 -0.45638698388E+02  0.72203449968E+02  0.92433168274E+02  0.00000000000E+00 0. -1.
         11    1    1    2    0    0 -0.21873304283E+01  0.39401282282E+02  0.38270748092E+02  0.54971771114E+02  0.00000000000E+00 0.  1.
</event>
<event>
 7    1  0.2878477E-009  0.2456930E+03  0.7561462E-02  0.1116057E+00
         -2   -1    0    0    0  501 -0.00000000000E+00  0.00000000000E+00  0.44231528954E+02  0.44231528954E+02  0.00000000000E+00 0. -1.
          2   -1    0    0  501    0  0.00000000000E+00 -0.00000000000E+00 -0.25083881015E+04  0.25083881015E+04  0.00000000000E+00 0.  1.
         25    2    1    2    0    0 -0.15416907091E+03 -0.18614902391E+03 -0.20266085285E+04  0.20448006843E+04  0.12509256234E+03 0.  0.
          5    1    3    3  502    0 -0.10959080611E+03 -0.12244384818E+03 -0.85820420685E+03  0.87380465426E+03  0.41800000000E+01 0.  1.
         -5    1    3    3    0  502 -0.44578264794E+02 -0.63705175732E+02 -0.11684043217E+04  0.11709960300E+04  0.41800000000E+01 0.  1.
        -11    1    1    2    0    0  0.17452154630E+02  0.62202827334E+02 -0.17794718919E+03  0.18931183685E+03  0.00000000000E+00 0.  1.
         11    1    1    2    0    0  0.13671691628E+03  0.12394619658E+03 -0.25960085484E+03  0.31850710930E+03  0.00000000000E+00 0. -1.
</event>
<event>
 7    1  0.2878477E-009  0.1983768E+03  0.7561462E-02  0.1151116E+00
          1   -1    0    0  501    0  0.00000000000E+00  0.00000000000E+00  0.17658724733E+03  0.17658724733E+03  0.00000000000E+00 0. -1.
         -1   -1    0    0    0  501 -0.00000000000E+00 -0.00000000000E+00 -0.32537063476E+03  0.32537063476E+03  0.00000000000E+00 0.  1.
         25    2    1    2    0    0  0.12178801546E+03  0.12825165849E+03  0.48226388728E+02  0.22193198243E+03  0.12508881500E+03 0.  0.
          5    1    3    3  502    0  0.12011284365E+03  0.14918939948E+03  0.55262872180E+02  0.19938914105E+03  0.41800000000E+01 0. -1.
         -5    1    3    3    0  502  0.16751718085E+01 -0.20937740985E+02 -0.70364834518E+01  0.22542841380E+02  0.41800000000E+01 0. -1.
        -11    1    1    2    0    0 -0.80137878810E+02 -0.48188335243E+02 -0.46262486496E+02  0.10432838986E+03  0.00000000000E+00 0. -1.
         11    1    1    2    0    0 -0.41650136647E+02 -0.80063323251E+02 -0.15074728966E+03  0.17569750980E+03  0.00000000000E+00 0.  1.
</event>
<event>
 7    1  0.2878477E-009  0.1770368E+03  0.7561462E-02  0.1170702E+00
          2   -1    0    0  501    0  0.00000000000E+00  0.00000000000E+00  0.13735896145E+04  0.13735896145E+04  0.00000000000E+00 0. -1.
         -2   -1    0    0    0  501 -0.00000000000E+00 -0.00000000000E+00 -0.30027361284E+02  0.30027361284E+02  0.00000000000E+00 0.  1.
         25    2    1    2    0    0 -0.16255260834E+03  0.32301717048E+02  0.86289837919E+03  0.88752914585E+03  0.12509044935E+03 0.  0.
          5    1    3    3  502    0 -0.17223397748E+03  0.35792470576E+02  0.62298642871E+03  0.64736018314E+03  0.41800000000E+01 0. -1.
         -5    1    3    3    0  502  0.96813691425E+01 -0.34907535280E+01  0.23991195047E+03  0.24016896271E+03  0.41800000000E+01 0. -1.
        -11    1    1    2    0    0  0.43576065006E+02 -0.18082883156E+02  0.48668761847E+02  0.67782833257E+02  0.00000000000E+00 0.  1.
         11    1    1    2    0    0  0.11897654334E+03 -0.14218833893E+02  0.43199511222E+03  0.44830499672E+03  0.00000000000E+00 0. -1.
</event>
<event>
 7    1  0.2878477E-009  0.3010128E+03  0.7561462E-02  0.1084735E+00
          2   -1    0    0  501    0  0.00000000000E+00  0.00000000000E+00  0.15379476751E+04  0.15379476751E+04  0.00000000000E+00 0. -1.
         -2   -1    0    0    0  501 -0.00000000000E+00 -0.00000000000E+00 -0.97585336021E+02  0.97585336021E+02  0.00000000000E+00 0.  1.
         25    2    1    2    0    0  0.27538597443E+03  0.12033914281E+03  0.11902908073E+04  0.12340011942E+04  0.12509115511E+03 0.  0.
          5    1    3    3  502    0  0.18962044588E+03  0.71901103839E+02  0.99234637802E+03  0.10128644967E+04  0.41800000000E+01 0.  1.
         -5    1    3    3    0  502  0.85765528540E+02  0.48438038969E+02  0.19794442928E+03  0.22113669752E+03  0.41800000000E+01 0.  1.
        -11    1    1    2    0    0 -0.26613923884E+02 -0.13741424871E+02 -0.41167798889E+01  0.30233682849E+02  0.00000000000E+00 0. -1.
         11    1    1    2    0    0 -0.24877205054E+03 -0.10659771794E+03  0.25418831170E+03  0.37129813413E+03  0.00000000000E+00 0.  1.
</event>
<event>
 7    1  0.2878477E-009  0.1205572E+03  0.7561462E-02  0.1242181E+00
         -2   -1    0    0    0  501 -0.00000000000E+00  0.00000000000E+00  0.42839272216E+02  0.42839272216E+02  0.00000000000E+00 0.  1.
          2   -1    0    0  501    0  0.00000000000E+00 -0.00000000000E+00 -0.71780821257E+03  0.71780821257E+03  0.00000000000E+00 0. -1.
         25    2    1    2    0    0 -0.45339827816E+02 -0.73402139012E+02 -0.58803552510E+03  0.60735201960E+03  0.12508846043E+03 0.  0.
          5    1    3    3  502    0 -0.68436932104E+02 -0.36654251161E+02 -0.16867541086E+03  0.18573102711E+03  0.41800000000E+01 0. -1.
         -5    1    3    3    0  502  0.23097104287E+02 -0.36747887851E+02 -0.41936011424E+03  0.42162099248E+03  0.41800000000E+01 0. -1.
        -11    1    1    2    0    0 -0.99484579498E+01  0.62654630639E+02 -0.70026163558E+02  0.94489354632E+02  0.00000000000E+00 0. -1.
         11    1    1    2    0    0  0.55288285766E+02  0.10747508373E+02 -0.16907251700E+02  0.58806110560E+02  0.00000000000E+00 0.  1.
</event>
<event>
 7    1  0.2878477E-009  0.1358988E+03  0.7561462E-02  0.1218956E+00
          2   -1    0    0  501    0  0.00000000000E+00  0.00000000000E+00  0.84495988052E+03  0.84495988052E+03  0.00000000000E+00 0. -1.
         -2   -1    0    0    0  501 -0.00000000000E+00 -0.00000000000E+00 -0.33200634041E+02  0.33200634041E+02  0.00000000000E+00 0.  1.
         25    2    1    2    0    0 -0.11535397694E+03 -0.39912892591E+02  0.51710685183E+03  0.54584546352E+03  0.12509274497E+03 0.  0.
          5    1    3    3  502    0 -0.11497675298E+03 -0.55212108972E+02  0.27442880737E+03  0.30264942329E+03  0.41800000000E+01 0. -1.
         -5    1    3    3    0  502 -0.37722395513E+00  0.15299216381E+02  0.24267804446E+03  0.24319604023E+03  0.41800000000E+01 0. -1.
        -11    1    1    2    0    0  0.34135605492E+02 -0.65365768620E+01  0.15788516009E+02  0.38173860653E+02  0.00000000000E+00 0.  1.
         11    1    1    2    0    0  0.81218371446E+02  0.46449469453E+02  0.27886387864E+03  0.29414119039E+03  0.00000000000E+00 0. -1.
</event>
<event>
 7    1  0.2878477E-009  0.1474073E+03  0.7561462E-02  0.1203696E+00
         -3   -1    0    0    0  501 -0.00000000000E+00  0.00000000000E+00  0.64625730544E+02  0.64625730544E+02  0.00000000000E+00 0.  1.
          3   -1    0    0  501    0  0.00000000000E+00 -0.00000000000E+00 -0.48494521634E+03  0.48494521634E+03  0.00000000000E+00 0. -1.
         25    2    1    2    0    0  0.10465604991E+02 -0.12453696594E+03 -0.12464619148E+03  0.21633851992E+03  0.12508675939E+03 0.  0.
          5    1    3    3  502    0 -0.19149275391E+02  0.14908656661E+02  0.31676513331E+01  0.24828797925E+02  0.41800000000E+01 0. -1.
         -5    1    3    3    0  502  0.29614880382E+02 -0.13944562260E+03 -0.12781384282E+03  0.19150972199E+03  0.41800000000E+01 0. -1.
        -11    1    1    2    0    0 -0.18206302104E+02  0.63914593719E+02 -0.24496641710E+03  0.25382098068E+03  0.00000000000E+00 0. -1.
         11    1    1    2    0    0  0.77406971135E+01  0.60622372217E+02 -0.50706877213E+02  0.79411446289E+02  0.00000000000E+00 0.  1.
</event>
<event>
 7    1  0.2878477E-009  0.6380013E+02  0.7561462E-02  0.1382543E+00
         -3   -1    0    0    0  501 -0.00000000000E+00  0.00000000000E+00  0.18091649599E+03  0.18091649599E+03  0.00000000000E+00 0.  1.
          3   -1    0    0  501    0  0.00000000000E+00 -0.00000000000E+00 -0.80855725439E+02  0.80855725439E+02  0.00000000000E+00 0. -1.
         25    2    1    2    0    0  0.13668866547E+02 -0.43274015020E+02  0.26367220702E+02  0.13565476152E+03  0.12508999043E+03 0.  0.
          5    1    3    3  502    0  0.72828274497E+01 -0.77901687022E+01  0.74497593182E+02  0.75373006401E+02  0.41800000000E+01 0.  1.
         -5    1    3    3    0  502  0.63860390976E+01 -0.35483846317E+02 -0.48130372481E+02  0.60281755117E+02  0.41800000000E+01 0.  1.
        -11    1    1    2    0    0 -0.29142588616E+02 -0.46312714601E+01  0.69614285646E+02  0.75610104567E+02  0.00000000000E+00 0.  1.
         11    1    1    2    0    0  0.15473722069E+02  0.47905286480E+02  0.40792642024E+01  0.50507355343E+02  0.00000000000E+00 0. -1.
</event>
<event>
 7    1  0.2878477E-009  0.1126896E+03  0.7561462E-02  0.1255669E+00
         -1   -1    0    0    0  501 -0.00000000000E+00  0.00000000000E+00  0.28643000992E+02  0.28643000992E+02  0.00000000000E+00 0.  1.
          1   -1    0    0  501    0  0.00000000000E+00 -0.00000000000E+00 -0.47576957188E+03  0.47576957188E+03  0.00000000000E+00 0. -1.
         25    2    1    2    0    0 -0.20094269908E+02  0.36620065202E+02 -0.27038501318E+03  0.30083295481E+03  0.12509037729E+03 0.  0.
          5    1    3    3  502    0 -0.26738293180E+02 -0.43064133819E+02 -0.12302714734E+03  0.13312628338E+03  0.41800000000E+01 0. -1.
         -5    1    3    3    0  502  0.66440232724E+01  0.79684199021E+02 -0.14735786583E+03  0.16770667143E+03  0.41800000000E+01 0. -1.
        -11    1    1    2    0    0  0.31275661870E+01 -0.63002575334E+02 -0.14861717957E+03  0.16145021595E+03  0.00000000000E+00 0. -1.
         11    1    1    2    0    0  0.16966703721E+02  0.26382510132E+02 -0.28124378146E+02  0.42129402110E+02  0.00000000000E+00 0.  1.
</event>
<event>
 7    1  0.2878477E-009  0.1291728E+03  0.7561462E-02  0.1228688E+00
          1   -1    0    0  501    0  0.00000000000E+00  0.00000000000E+00  0.30258092248E+03  0.30258092248E+03  0.00000000000E+00 0. -1.
         -1   -1    0    0    0  501 -0.00000000000E+00 -0.00000000000E+00 -0.80683498835E+02  0.80683498835E+02  0.00000000000E+00 0.  1.
         25    2    1    2    0    0  0.78616864778E+02  0.57604559859E+02  0.49775248927E+02  0.16620042224E+03  0.12508440432E+03 0.  0.
          5    1    3    3  502    0 -0.23682081954E+02  0.11685336099E+02  0.46861543410E+02  0.53952430308E+02  0.41800000000E+01 0.  1.
         -5    1    3    3    0  502  0.10229894673E+03  0.45919223760E+02  0.29137055169E+01  0.11224799193E+03  0.41800000000E+01 0.  1.
        -11    1    1    2    0    0 -0.67921749832E+02 -0.76952573417E+01  0.49960947342E+02  0.84668042053E+02  0.00000000000E+00 0.  1.
         11    1    1    2    0    0 -0.10695114946E+02 -0.49909302517E+02  0.12216122738E+03  0.13239595702E+03  0.00000000000E+00 0. -1.
</event>
<event>
 7    1  0.2878477E-009  0.1086955E+03  0.7561462E-02  0.1263005E+00
         -1   -1    0    0    0  501 -0.00000000000E+00  0.00000000000E+00  0.26011116161E+02  0.26011116161E+02  0.00000000000E+00 0.  1.
          1   -1    0    0  501    0  0.00000000000E+00 -0.00000000000E+00 -0.64883053305E+03  0.64883053305E+03  0.00000000000E+00 0. -1.
         25    2    1    2    0    0 -0.70155879879E+02  0.11126658220E+02 -0.34962355941E+03  0.37806006851E+03  0.12508849707E+03 0.  0.
          5    1    3    3  502    0  0.70410239138E+01 -0.38704388418E+02 -0.45311323298E+02  0.60151426580E+02  0.41800000000E+01 0.  1.
         -5    1    3    3    0  502 -0.77196903792E+02  0.49831046638E+02 -0.30431223611E+03  0.31790864193E+03  0.41800000000E+01 0.  1.
        -11    1    1    2    0    0  0.48269614640E+02  0.16132115318E+02 -0.24928821610E+03  0.25443037462E+03  0.00000000000E+00 0. -1.
         11    1    1    2    0    0  0.21886265238E+02 -0.27258773538E+02 -0.23907641384E+02  0.42351206092E+02  0.00000000000E+00 0.  1.
</event>
<event>
 7    1  0.2878477E-009  0.1124992E+03  0.7561462E-02  0.1256010E+00
          1   -1    0    0  501    0  0.00000000000E+00  0.00000000000E+00  0.35036617330E+03  0.35036617330E+03  0.00000000000E+00 0. -1.
         -1   -1    0    0    0  501 -0.00000000000E+00 -0.00000000000E+00 -0.67742428528E+02  0.67742428528E+02  0.00000000000E+00 0.  1.
         25    2    1    2    0    0  0.70899777496E+02 -0.33729743115E+02  0.49177344244E+02  0.15566230459E+03  0.12509143801E+03 0.  0.
          5    1    3    3  502    0  0.81447302097E+02 -0.46038414616E+02  0.78299573271E+02  0.12207167654E+03  0.41800000000E+01 0. -1.
         -5    1    3    3    0  502 -0.10547524602E+02  0.12308671500E+02 -0.29122229027E+02  0.33590628050E+02  0.41800000000E+01 0. -1.
        -11    1    1    2    0    0 -0.77736745627E+02 -0.24610603757E+01  0.11850369087E+03  0.14174689834E+03  0.00000000000E+00 0. -1.
         11    1    1    2    0    0  0.68369681313E+01  0.36190803491E+02  0.11494270966E+03  0.12069939890E+03  0.00000000000E+00 0.  1.
</event>
<event>
 7    1  0.2878477E-009  0.1481834E+03  0.7561462E-02  0.1202723E+00
         -1   -1    0    0    0  501 -0.00000000000E+00  0.00000000000E+00  0.51079266152E+02  0.51079266152E+02  0.00000000000E+00 0.  1.
          1   -1    0    0  501    0  0.00000000000E+00 -0.00000000000E+00 -0.53250189235E+03  0.53250189235E+03  0.00000000000E+00 0. -1.
         25    2    1    2    0    0 -0.44684714074E+02 -0.10590356323E+03 -0.33622837636E+03  0.37670828548E+03  0.12508925976E+03 0.  0.
          5    1    3    3  502    0  0.30865275228E+02  0.30232527289E+01 -0.31661464179E+02  0.44516581023E+02  0.41800000000E+01 0. -1.
         -5    1    3    3    0  502 -0.75549989302E+02 -0.10892681596E+03 -0.30456691218E+03  0.33219170446E+03  0.41800000000E+01 0. -1.
        -11    1    1    2    0    0 -0.23211049850E+01  0.77477508299E+02 -0.12740544810E+03  0.14913182097E+03  0.00000000000E+00 0. -1.
         11    1    1    2    0    0  0.47005819059E+02  0.28426054930E+02 -0.17788801741E+02  0.57741052048E+02  0.00000000000E+00 0.  1.
</event>
<event>
 7    1  0.2878477E-009  0.1878563E+03  0.7561462E-02  0.1160409E+00
          4   -1    0    0  501    0  0.00000000000E+00  0.00000000000E+00  0.26854866075E+03  0.26854866075E+03  0.00000000000E+00 0. -1.
         -4   -1    0    0    0  501 -0.00000000000E+00 -0.00000000000E+00 -0.14514026530E+03  0.14514026530E+03  0.00000000000E+00 0.  1.
         25    2    1    2    0    0  0.11011550416E+03  0.12027707738E+03  0.10069707921E+03  0.22886737708E+03  0.12509346477E+03 0.  0.
          5    1    3    3  502    0  0.98479504358E+02  0.20939604730E+02  0.26295928915E+02  0.10414234539E+03  0.41800000000E+01 0. -1.
         -5    1    3    3    0  502  0.11635999798E+02  0.99337472655E+02  0.74401150298E+02  0.12472503169E+03  0.41800000000E+01 0. -1.
        -11    1    1    2    0    0  0.21534222963E+01 -0.31867855111E+02 -0.17434648611E+02  0.36389069638E+02  0.00000000000E+00 0.  1.
         11    1    1    2    0    0 -0.11226892645E+03 -0.88409222273E+02  0.40145964846E+02  0.14843247934E+03  0.00000000000E+00 0. -1.
</event>
<event>
 7    1  0.2878477E-009  0.1030607E+03  0.7561462E-02  0.1273988E+00
         -3   -1    0    0    0  501 -0.00000000000E+00  0.00000000000E+00  0.44421748463E+02  0.44421748463E+02  0.00000000000E+00 0.  1.
          3   -1    0    0  501    0  0.00000000000E+00 -0.00000000000E+00 -0.28208864663E+03  0.28208864663E+03  0.00000000000E+00 0. -1.
         25    2    1    2    0    0 -0.40769414260E+01 -0.17241437587E+02 -0.10334081633E+03  0.16321857552E+03  0.12508833061E+03 0.  0.
          5    1    3    3  502    0 -0.57690289039E+02 -0.44505017793E+01 -0.16562369686E+02  0.60330431004E+02  0.41800000000E+01 0. -1.
         -5    1    3    3    0  502  0.53613347613E+02 -0.12790935808E+02 -0.86778446640E+02  0.10288814452E+03  0.41800000000E+01 0. -1.
        -11    1    1    2    0    0  0.25756581215E+02 -0.30785605338E+02 -0.56621308945E+02  0.69405530028E+02  0.00000000000E+00 0.  1.
         11    1    1    2    0    0 -0.21679639789E+02  0.48027042925E+02 -0.77704772899E+02  0.93886289547E+02  0.00000000000E+00 0. -1.
</event>
<event>
 7    1  0.2878477E-009  0.9248460E+02  0.7561462E-02  0.1296944E+00
         -1   -1    0    0    0  501 -0.00000000000E+00  0.00000000000E+00  0.18237891638E+03  0.18237891638E+03  0.00000000000E+00 0.  1.
          1   -1    0    0  501    0  0.00000000000E+00 -0.00000000000E+00 -0.78445574584E+02  0.78445574584E+02  0.00000000000E+00 0. -1.
         25    2    1    2    0    0  0.43037937417E+02  0.29434222342E+02  0.31193175357E+02  0.13906427371E+03  0.12508885055E+03 0.  0.
          5    1    3    3  502    0 -0.75437042756E+01 -0.42055614237E+02 -0.68826507672E+01  0.43479023041E+02  0.41800000000E+01 0.  1.
         -5    1    3    3    0  502  0.50581641693E+02  0.71489836579E+02  0.38075826124E+02  0.95585250669E+02  0.41800000000E+01 0.  1.
        -11    1    1    2    0    0 -0.25827151169E+02 -0.83416176312E+01  0.86924579576E+02  0.91063202539E+02  0.00000000000E+00 0.  1.
         11    1    1    2    0    0 -0.17210786248E+02 -0.21092604710E+02 -0.14184413132E+02  0.30697014719E+02  0.00000000000E+00 0. -1.
</event>
<event>
 7    1  0.2878477E-009  0.9531511E+02  0.7561462E-02  0.1290468E+00
         -2   -1    0    0    0  501 -0.00000000000E+00  0.00000000000E+00  0.61351808074E+02  0.61351808074E+02  0.00000000000E+00 0.  1.
          2   -1    0    0  501    0  0.00000000000E+00 -0.00000000000E+00 -0.20511245944E+03  0.20511245944E+03  0.00000000000E+00 0. -1.
         25    2    1    2    0    0 -0.61205597063E+01 -0.65347575470E+01 -0.43628366217E+02  0.13278027339E+03  0.12508797846E+03 0.  0.
          5    1    3    3  502    0 -0.57416771974E+02 -0.14153153679E+02 -0.53465670089E+02  0.79831370658E+02  0.41800000000E+01 0.  1.
         -5    1    3    3    0  502  0.51296212268E+02  0.76183961321E+01  0.98373038720E+01  0.52948902728E+02  0.41800000000E+01 0.  1.
        -11    1    1    2    0    0 -0.13964450486E+02 -0.32526620766E+02 -0.16146393633E+02  0.38906207258E+02  0.00000000000E+00 0. -1.
         11    1    1    2    0    0  0.20085010193E+02  0.39061378313E+02 -0.83985891513E+02  0.94777786867E+02  0.00000000000E+00 0.  1.
</event>
<event>
 7    1  0.2878477E-009  0.3110382E+03  0.7561462E-02  0.1079849E+00
         -1   -1    0    0    0  501 -0.00000000000E+00  0.00000000000E+00  0.17583987453E+03  0.17583987453E+03  0.00000000000E+00 0.  1.
          1   -1    0    0  501    0  0.00000000000E+00 -0.00000000000E+00 -0.91333302874E+03  0.91333302874E+03  0.00000000000E+00 0. -1.
         25    2    1    2    0    0 -0.83905698176E+02 -0.29149116996E+03 -0.49444275844E+02  0.33181231806E+03  0.12508960649E+03 0.  0.
          5    1    3    3  502    0  0.13132450526E+02 -0.37384109996E+02 -0.44499225812E+02  0.59730113300E+02  0.41800000000E+01 0.  1.
         -5    1    3    3    0  502 -0.97038148701E+02 -0.25410705997E+03 -0.49450500316E+01  0.27208220476E+03  0.41800000000E+01 0.  1.
        -11    1    1    2    0    0 -0.10351359020E+02  0.47860137656E+02 -0.62058608556E+02  0.79050707182E+02  0.00000000000E+00 0.  1.
         11    1    1    2    0    0  0.94257057195E+02  0.24363103231E+03 -0.62599026981E+03  0.67830987803E+03  0.00000000000E+00 0. -1.
</event>
<event>
 7    1  0.2878477E-009  0.1258335E+03  0.7561462E-02  0.1233772E+00
         -1   -1    0    0    0  501 -0.00000000000E+00  0.00000000000E+00  0.58263967491E+02  0.58263967491E+02  0.00000000000E+00 0.  1.
          1   -1    0    0  501    0  0.00000000000E+00 -0.00000000000E+00 -0.31996282350E+03  0.31996282350E+03  0.00000000000E+00 0. -1.
         25    2    1    2    0    0  0.18913141461E+02 -0.72371675349E+02 -0.20341501128E+03  0.25023965024E+03  0.12508736717E+03 0.  0.
          5    1    3    3  502    0 -0.52272197107E+02 -0.33176784124E+02 -0.11050226283E+03  0.12673320041E+03  0.41800000000E+01 0. -1.
         -5    1    3    3    0  502  0.71185338567E+02 -0.39194891224E+02 -0.92912748448E+02  0.12350644983E+03  0.41800000000E+01 0. -1.
        -11    1    1    2    0    0 -0.20838514061E+02  0.89049768190E+02 -0.32182721907E+02  0.96952733186E+02  0.00000000000E+00 0.  1.
         11    1    1    2    0    0  0.19253726001E+01 -0.16678092841E+02 -0.26101122819E+02  0.31034407564E+02  0.00000000000E+00 0. -1.
</event>
<event>
 7    1  0.2878477E-009  0.1049790E+03  0.7561462E-02  0.1270161E+00
         -3   -1    0    0    0  501 -0.00000000000E+00  0.00000000000E+00  0.82922106595E+02  0.82922106595E+02  0.00000000000E+00 0.  1.
          3   -1    0    0  501    0  0.00000000000E+00 -0.00000000000E+00 -0.26356159871E+03  0.26356159871E+03  0.00000000000E+00 0. -1.
         25    2    1    2    0    0 -0.49977888051E+02 -0.78104565394E+02 -0.14311955199E+03  0.21149493024E+03  0.12509511153E+03 0.  0.
          5    1    3    3  502    0 -0.67551378520E+02 -0.54957954295E+02 -0.26332709305E+02  0.91073868149E+02  0.41800000000E+01 0. -1.
         -5    1    3    3    0  502  0.17573490468E+02 -0.23146611099E+02 -0.11678684268E+03  0.12042106209E+03  0.41800000000E+01 0. -1.
        -11    1    1    2    0    0  0.27615322674E+01  0.11135028432E+02  0.27880329614E+02  0.30148427787E+02  0.00000000000E+00 0.  1.
         11    1    1    2    0    0  0.47216355784E+02  0.66969536962E+02 -0.65400269744E+02  0.10484034728E+03  0.00000000000E+00 0. -1.
</event>
<event>
 7    1  0.2878477E-009  0.6872606E+02  0.7561462E-02  0.1364480E+00
          1   -1    0    0  501    0  0.00000000000E+00  0.00000000000E+00  0.62589129626E+03  0.62589129626E+03  0.00000000000E+00 0. -1.
         -1   -1    0    0    0  501 -0.00000000000E+00 -0.00000000000E+00 -0.24472555492E+02  0.24472555492E+02  0.00000000000E+00 0.  1.
         25    2    1    2    0    0 -0.30162442373E+02  0.11774605142E+02  0.46412131028E+03  0.48177018405E+03  0.12508199441E+03 0.  0.
          5    1    3    3  502    0 -0.12694792259E+01 -0.23747307374E+02  0.11367727819E+02  0.26687896523E+02  0.41800000000E+01 0.  1.
         -5    1    3    3    0  502 -0.28892963147E+02  0.35521912517E+02  0.45275358246E+03  0.45508228752E+03  0.41800000000E+01 0.  1.
        -11    1    1    2    0    0  0.13331552639E+01 -0.32052760087E+02  0.59861767827E+01  0.32634200536E+02  0.00000000000E+00 0.  1.
         11    1    1    2    0    0  0.28829287109E+02  0.20278154945E+02  0.13131125371E+03  0.13595946718E+03  0.00000000000E+00 0. -1.
</event>
<event>
 7    1  0.2878477E-009  0.1208640E+03  0.7561462E-02  0.1241679E+00
         -3   -1    0    0    0  501 -0.00000000000E+00  0.00000000000E+00  0.55035532662E+02  0.55035532662E+02  0.00000000000E+00 0.  1.
          3   -1    0    0  501    0  0.00000000000E+00 -0.00000000000E+00 -0.40608625409E+03  0.40608625409E+03  0.00000000000E+00 0. -1.
         25    2    1    2    0    0 -0.10071141145E+03  0.47642599688E+01 -0.21023602596E+03  0.26459779168E+03  0.12508924088E+03 0.  0.
          5    1    3    3  502    0  0.12978327594E+02 -0.16117197259E+02  0.36642987738E+01  0.21426631096E+02  0.41800000000E+01 0. -1.
         -5    1    3    3    0  502 -0.11368973905E+03  0.20881457228E+02 -0.21390032473E+03  0.24317116059E+03  0.41800000000E+01 0. -1.
        -11    1    1    2    0    0  0.31773517574E+02  0.12065867419E+02 -0.11674307030E+03  0.12158982703E+03  0.00000000000E+00 0. -1.
         11    1    1    2    0    0  0.68937893880E+02 -0.16830127388E+02 -0.24071625170E+02  0.74934168033E+02  0.00000000000E+00 0.  1.
</event>
<event>
 7    1  0.2878477E-009  0.9524310E+02  0.7561462E-02  0.1290630E+00
         -2   -1    0    0    0  501 -0.00000000000E+00  0.00000000000E+00  0.19308691744E+02  0.19308691744E+02  0.00000000000E+00 0.  1.
          2   -1    0    0  501    0  0.00000000000E+00 -0.00000000000E+00 -0.67528370583E+03  0.67528370583E+03  0.00000000000E+00 0. -1.
         25    2    1    2    0    0  0.19634321235E+02  0.30740575406E+02 -0.34873896376E+03  0.37228571984E+03  0.12508917941E+03 0.  0.
          5    1    3    3  502    0  0.16305012176E+02  0.62691714342E+02 -0.86989179306E+02  0.10853890632E+03  0.41800000000E+01 0. -1.
         -5    1    3    3    0  502  0.33293090582E+01 -0.31951138937E+02 -0.26174978445E+03  0.26374681352E+03  0.41800000000E+01 0. -1.
        -11    1    1    2    0    0 -0.27728180179E+02 -0.58245101444E+02 -0.16403112830E+03  0.17625990716E+03  0.00000000000E+00 0.  1.
         11    1    1    2    0    0  0.80938589441E+01  0.27504526038E+02 -0.14320492202E+03  0.14604677058E+03  0.00000000000E+00 0. -1.
</event>
<event>
 7    1  0.2878477E-009  0.6236688E+02  0.7561462E-02  0.1388159E+00
          2   -1    0    0  501    0  0.00000000000E+00  0.00000000000E+00  0.19261080950E+03  0.19261080950E+03  0.00000000000E+00 0. -1.
         -2   -1    0    0    0  501 -0.00000000000E+00 -0.00000000000E+00 -0.68279548706E+02  0.68279548706E+02  0.00000000000E+00 0.  1.
         25    2    1    2    0    0 -0.16369802279E+01  0.17942609724E+02  0.10943839066E+03  0.16715404535E+03  0.12505637361E+03 0.  0.
          5    1    3    3  502    0  0.99969256136E+01  0.24564849598E+02  0.13519059749E+03  0.13783083982E+03  0.41800000000E+01 0. -1.
         -5    1    3    3    0  502 -0.11633905841E+02 -0.66222398741E+01 -0.25752206830E+02  0.29323205533E+02  0.41800000000E+01 0. -1.
        -11    1    1    2    0    0 -0.50367697400E+01 -0.50437343261E+02 -0.10740418930E+02  0.51813620250E+02  0.00000000000E+00 0.  1.
         11    1    1    2    0    0  0.66737499679E+01  0.32494733537E+02  0.25633289065E+02  0.41922692597E+02  0.00000000000E+00 0. -1.
</event>
<event>
 7    1  0.2878477E-009  0.9472965E+02  0.7561462E-02  0.1291786E+00
          1   -1    0    0  501    0  0.00000000000E+00  0.00000000000E+00  0.21887810635E+03  0.21887810635E+03  0.00000000000E+00 0. -1.
         -1   -1    0    0    0  501 -0.00000000000E+00 -0.00000000000E+00 -0.72833646881E+02  0.72833646881E+02  0.00000000000E+00 0.  1.
         25    2    1    2    0    0  0.17691810520E+02  0.62803725050E+02  0.95746498651E+02  0.17050546889E+03  0.12508962738E+03 0.  0.
          5    1    3    3  502    0 -0.81036112332E+01  0.72646711609E+02  0.11518238135E+03  0.13648320994E+03  0.41800000000E+01 0. -1.
         -5    1    3    3    0  502  0.25795421754E+02 -0.98429865594E+01 -0.19435882698E+02  0.34022258951E+02  0.41800000000E+01 0. -1.
        -11    1    1    2    0    0 -0.15487236736E+02  0.80335402480E+01 -0.16356492491E+02  0.23914997747E+02  0.00000000000E+00 0.  1.
         11    1    1    2    0    0 -0.22045737845E+01 -0.70837265298E+02  0.66654453305E+02  0.97291286587E+02  0.00000000000E+00 0. -1.
</event>
<event>
 7    1  0.2878477E-009  0.1162911E+03  0.7561462E-02  0.1249344E+00
         -2   -1    0    0    0  501 -0.00000000000E+00  0.00000000000E+00  0.51437315571E+02  0.51437315571E+02  0.00000000000E+00 0.  1.
          2   -1    0    0  501    0  0.00000000000E+00 -0.00000000000E+00 -0.38435455738E+03  0.38435455738E+03  0.00000000000E+00 0. -1.
         25    2    1    2    0    0 -0.34438526331E+02  0.39749442863E+02 -0.27307138577E+03  0.30492895275E+03  0.12509058395E+03 0.  0.
          5    1    3    3  502    0  0.10330303285E+02  0.64362696564E+02 -0.71082457652E+02  0.96537350599E+02  0.41800000000E+01 0.  1.
         -5    1    3    3    0  502 -0.44768829616E+02 -0.24613253701E+02 -0.20198892812E+03  0.20839160215E+03  0.41800000000E+01 0.  1.
        -11    1    1    2    0    0  0.23898871420E+02 -0.75258642368E+02 -0.45559355487E+02  0.91162899134E+02  0.00000000000E+00 0.  1.
         11    1    1    2    0    0  0.10539654911E+02  0.35509199505E+02 -0.14286500554E+02  0.39700021073E+02  0.00000000000E+00 0. -1.
</event>
<event>
 7    1  0.2878477E-009  0.2174057E+03  0.7561462E-02  0.1135832E+00
          1   -1    0    0  501    0  0.00000000000E+00  0.00000000000E+00  0.32477000042E+02  0.32477000042E+02  0.00000000000E+00 0. -1.
         -1   -1    0    0    0  501 -0.00000000000E+00 -0.00000000000E+00 -0.15721592919E+04  0.15721592919E+04  0.00000000000E+00 0.  1.
         25    2    1    2    0    0 -0.55686987335E+02 -0.18903016668E+03 -0.75916697174E+03  0.79423904907E+03  0.12509089337E+03 0.  0.
          5    1    3    3  502    0  0.16357460180E+02  0.11391571091E+02 -0.62910220207E+02  0.66124901527E+02  0.41800000000E+01 0. -1.
         -5    1    3    3    0  502 -0.72044447515E+02 -0.20042173777E+03 -0.69625675154E+03  0.72811414754E+03  0.41800000000E+01 0. -1.
        -11    1    1    2    0    0  0.44690127226E+02  0.18397152432E+03 -0.77365710537E+03  0.79648480583E+03  0.00000000000E+00 0.  1.
         11    1    1    2    0    0  0.10996860109E+02  0.50586423563E+01 -0.68582147247E+01  0.13912437024E+02  0.00000000000E+00 0. -1.
</event>
<event>
 7    1  0.2878477E-009  0.3800577E+03  0.7561462E-02  0.1050912E+00
         -2   -1    0    0    0  501 -0.00000000000E+00  0.00000000000E+00  0.18045024421E+03  0.18045024421E+03  0.00000000000E+00 0. -1.
          2   -1    0    0  501    0  0.00000000000E+00 -0.00000000000E+00 -0.15320033063E+04  0.15320033063E+04  0.00000000000E+00 0.  1.
         25    2    1    2    0    0 -0.34509017603E+03 -0.12465718861E+03 -0.93460865773E+02  0.39874969298E+03  0.12505894592E+03 0.  0.
          5    1    3    3  502    0 -0.27329074370E+03 -0.39957448245E+02 -0.73697040426E+02  0.28589010901E+03  0.41800000000E+01 0.  1.
         -5    1    3    3    0  502 -0.71799432329E+02 -0.84699740369E+02 -0.19763825347E+02  0.11285958397E+03  0.41800000000E+01 0.  1.
        -11    1    1    2    0    0  0.12657263658E+03  0.80007647671E+02 -0.61749086211E+03  0.63538714246E+03  0.00000000000E+00 0.  1.
         11    1    1    2    0    0  0.21851753945E+03  0.44649540943E+02 -0.64060133418E+03  0.67831671504E+03  0.00000000000E+00 0. -1.
</event>
<event>
 7    1  0.3558328E-009  0.2081364E+03  0.7561462E-02  0.1143050E+00
          2   -1    0    0  501    0  0.00000000000E+00  0.00000000000E+00  0.62739781270E+03  0.62739781270E+03  0.00000000000E+00 0. -1.
         -2   -1    0    0    0  501 -0.00000000000E+00 -0.00000000000E+00 -0.93659389524E+02  0.93659389524E+02  0.00000000000E+00 0.  1.
         25    2    1    2    0    0 -0.18645442349E+03 -0.53574626941E+02  0.13165900318E+03  0.26573776502E+03  0.12508786491E+03 0.  0.
          5    1    3    3  502    0 -0.20772279106E+02 -0.30642252411E+02 -0.17892305117E+02  0.41328467120E+02  0.41800000000E+01 0. -1.
         -5    1    3    3    0  502 -0.16568214439E+03 -0.22932374530E+02  0.14955130830E+03  0.22440929790E+03  0.41800000000E+01 0. -1.
        -11    1    1    2    0    0  0.68995056738E+02  0.63575499205E+02  0.20909207583E+03  0.22917604179E+03  0.00000000000E+00 0.  1.
         11    1    1    2    0    0  0.11745936676E+03 -0.10000872264E+02  0.19298734416E+03  0.22614339542E+03  0.00000000000E+00 0. -1.
</event>
<event>
 7    1  0.2878477E-009  0.1401884E+03  0.7561462E-02  0.1213076E+00
          2   -1    0    0  501    0  0.00000000000E+00  0.00000000000E+00  0.59536351985E+03  0.59536351985E+03  0.00000000000E+00 0. -1.
         -2   -1    0    0    0  501 -0.00000000000E+00 -0.00000000000E+00 -0.36457512888E+02  0.36457512888E+02  0.00000000000E+00 0.  1.
         25    2    1    2    0    0  0.45206759956E+02  0.80428284091E+02  0.22227432130E+03  0.27122824573E+03  0.12508607975E+03 0.  0.
          5    1    3    3  502    0  0.57700625437E+02 -0.12458380029E+02  0.63439894574E+02  0.86756360184E+02  0.41800000000E+01 0. -1.
         -5    1    3    3    0  502 -0.12493865481E+02  0.92886664120E+02  0.15883442672E+03  0.18447188555E+03  0.41800000000E+01 0. -1.
        -11    1    1    2    0    0  0.19840201875E+02 -0.53358415783E+02  0.18134764151E+03  0.19007293660E+03  0.00000000000E+00 0.  1.
         11    1    1    2    0    0 -0.65046961831E+02 -0.27069868308E+02  0.15528404415E+03  0.17051985040E+03  0.00000000000E+00 0. -1.
</event>
<event>
 7    1  0.2878477E-009  0.1179338E+03  0.7561462E-02  0.1246545E+00
          2   -1    0    0  501    0  0.00000000000E+00  0.00000000000E+00  0.16135136930E+04  0.16135136930E+04  0.00000000000E+00 0. -1.
         -2   -1    0    0    0  501 -0.00000000000E+00 -0.00000000000E+00 -0.14621574037E+02  0.14621574037E+02  0.00000000000E+00 0.  1.
         25    2    1    2    0    0  0.48990558330E+02  0.37647144959E+02  0.13324718804E+04  0.13397563006E+04  0.12509296756E+03 0.  0.
          5    1    3    3  502    0  0.29898600100E+02 -0.37370099102E+02  0.25409251997E+03  0.25859414475E+03  0.41800000000E+01 0. -1.
         -5    1    3    3    0  502  0.19091958230E+02  0.75017244061E+02  0.10783793605E+04  0.10811621559E+04  0.41800000000E+01 0. -1.
        -11    1    1    2    0    0 -0.77680618815E+01 -0.61961394415E+02  0.15588792633E+03  0.16793035091E+03  0.00000000000E+00 0.  1.
         11    1    1    2    0    0 -0.41222496449E+02  0.24314249456E+02  0.11053231223E+03  0.12044861554E+03  0.00000000000E+00 0. -1.
</event>
<event>
 7    1  0.2878477E-009  0.9226365E+02  0.7561462E-02  0.1297461E+00
          2   -1    0    0  501    0  0.00000000000E+00  0.00000000000E+00  0.24021700695E+03  0.24021700695E+03  0.00000000000E+00 0. -1.
         -2   -1    0    0    0  501 -0.00000000000E+00 -0.00000000000E+00 -0.55360366572E+02  0.55360366572E+02  0.00000000000E+00 0.  1.
         25    2    1    2    0    0 -0.42452514795E+01 -0.36486138883E+02  0.79922885869E+02  0.15292737812E+03  0.12509937970E+03 0.  0.
          5    1    3    3  502    0 -0.85123907238E+00 -0.66085890452E+02 -0.13787152758E+01  0.66237774575E+02  0.41800000000E+01 0. -1.
         -5    1    3    3    0  502 -0.33940124071E+01  0.29599751569E+02  0.81301601145E+02  0.86689603540E+02  0.41800000000E+01 0. -1.
        -11    1    1    2    0    0  0.42136578844E+02  0.15452984732E+02  0.82338202901E+02  0.93775613411E+02  0.00000000000E+00 0.  1.
         11    1    1    2    0    0 -0.37891327364E+02  0.21033154151E+02  0.22595551606E+02  0.48874381994E+02  0.00000000000E+00 0. -1.
</event>
<event>
 7    1  0.2878477E-009  0.1037518E+03  0.7561462E-02  0.1272598E+00
         -2   -1    0    0    0  501 -0.00000000000E+00  0.00000000000E+00  0.42677230536E+03  0.42677230536E+03  0.00000000000E+00 0.  1.
          2   -1    0    0  501    0  0.00000000000E+00 -0.00000000000E+00 -0.42696584134E+02  0.42696584134E+02  0.00000000000E+00 0. -1.
         25    2    1    2    0    0 -0.29837443542E+02 -0.89727979049E+01  0.34245145953E+03  0.36591074446E+03  0.12508751592E+03 0.  0.
          5    1    3    3  502    0  0.23669796532E+02  0.45617103863E+02  0.15811367511E+03  0.16630870720E+03  0.41800000000E+01 0. -1.
         -5    1    3    3    0  502 -0.53507240074E+02 -0.54589901768E+02  0.18433778442E+03  0.19960203726E+03  0.41800000000E+01 0. -1.
        -11    1    1    2    0    0  0.41118556518E+02  0.33078582439E+02  0.52837536537E+02  0.74677530580E+02  0.00000000000E+00 0.  1.
         11    1    1    2    0    0 -0.11281112976E+02 -0.24105784535E+02 -0.11213274847E+02  0.28880614446E+02  0.00000000000E+00 0. -1.
</event>
<event>
 7    1  0.2878477E-009  0.9904863E+02  0.7561462E-02  0.1282309E+00
          3   -1    0    0  501    0  0.00000000000E+00  0.00000000000E+00  0.47794896153E+03  0.47794896153E+03  0.00000000000E+00 0. -1.
         -3   -1    0    0    0  501 -0.00000000000E+00 -0.00000000000E+00 -0.35195015726E+02  0.35195015726E+02  0.00000000000E+00 0.  1.
         25    2    1    2    0    0  0.29302957433E+02 -0.38447927220E+02  0.33802239971E+03  0.36365363190E+03  0.12509162590E+03 0.  0.
          5    1    3    3  502    0  0.27035515200E+01 -0.61452072744E+02  0.31598212144E+03  0.32194073974E+03  0.41800000000E+01 0.  1.
         -5    1    3    3    0  502  0.26599405913E+02  0.23004145524E+02  0.22040278264E+02  0.41712892158E+02  0.41800000000E+01 0.  1.
        -11    1    1    2    0    0  0.25282395382E+02  0.38956670043E+02  0.72493984876E+02  0.86094131626E+02  0.00000000000E+00 0. -1.
         11    1    1    2    0    0 -0.54585352815E+02 -0.50874282347E+00  0.32237561216E+02  0.63396213723E+02  0.00000000000E+00 0.  1.
</event>
<event>
 7    1  0.2878477E-009  0.1020385E+03  0.7561462E-02  0.1276067E+00
         -3   -1    0    0    0  501 -0.00000000000E+00  0.00000000000E+00  0.37185140916E+02  0.37185140916E+02  0.00000000000E+00 0.  1.
          3   -1    0    0  501    0  0.00000000000E+00 -0.00000000000E+00 -0.41574392534E+03  0.41574392534E+03  0.00000000000E+00 0. -1.
         25    2    1    2    0    0  0.41608388917E+02  0.11289872054E+02 -0.30511726935E+03  0.33256993502E+03  0.12508994517E+03 0.  0.
          5    1    3    3  502    0  0.34554039856E+02 -0.42489247686E+02 -0.24671939694E+03  0.25275927494E+03  0.41800000000E+01 0.  1.
         -5    1    3    3    0  502  0.70543490616E+01  0.53779119741E+02 -0.58397872403E+02  0.79810660077E+02  0.41800000000E+01 0.  1.
        -11    1    1    2    0    0 -0.69108912809E+01 -0.45501690413E+02 -0.28923366169E+02  0.54357385508E+02  0.00000000000E+00 0. -1.
         11    1    1    2    0    0 -0.34697497636E+02  0.34211818358E+02 -0.44518148911E+02  0.66001745735E+02  0.00000000000E+00 0.  1.
</event>
<event>
 7    1  0.2878477E-009  0.9213781E+02  0.7561462E-02  0.1297756E+00
         -2   -1    0    0    0  501 -0.00000000000E+00  0.00000000000E+00  0.64336005278E+02  0.64336005278E+02  0.00000000000E+00 0.  1.
          2   -1    0    0  501    0  0.00000000000E+00 -0.00000000000E+00 -0.24979970015E+03  0.24979970015E+03  0.00000000000E+00 0. -1.
         25    2    1    2    0    0 -0.55981610597E+02  0.37269544901E+02 -0.10616544493E+03  0.17732269264E+03  0.12509706602E+03 0.  0.
          5    1    3    3  502    0 -0.69593642581E+02 -0.73451681746E+01 -0.10603583863E+02  0.70902291740E+02  0.41800000000E+01 0. -1.
         -5    1    3    3    0  502  0.13612031985E+02  0.44614713076E+02 -0.95561861066E+02  0.10642040090E+03  0.41800000000E+01 0. -1.
        -11    1    1    2    0    0  0.28596163975E+02 -0.16996873349E+02 -0.93993391991E+02  0.99706529554E+02  0.00000000000E+00 0. -1.
         11    1    1    2    0    0  0.27385446621E+02 -0.20272671552E+02  0.14695142044E+02  0.37106483237E+02  0.00000000000E+00 0.  1.
</event>
<event>
 7    1  0.2878477E-009  0.9533103E+02  0.7561462E-02  0.1290432E+00
         -1   -1    0    0    0  501 -0.00000000000E+00  0.00000000000E+00  0.55743973238E+02  0.55743973238E+02  0.00000000000E+00 0.  1.
          1   -1    0    0  501    0  0.00000000000E+00 -0.00000000000E+00 -0.22791353178E+03  0.22791353178E+03  0.00000000000E+00 0. -1.
         25    2    1    2    0    0  0.11280709393E+02 -0.22944138573E+02 -0.11609771806E+03  0.17256895544E+03  0.12509067248E+03 0.  0.
          5    1    3    3  502    0  0.35598244727E+02 -0.57642132777E+02 -0.11042144639E+03  0.12961565770E+03  0.41800000000E+01 0.  1.
         -5    1    3    3    0  502 -0.24317535334E+02  0.34697994204E+02 -0.56762716783E+01  0.42953297739E+02  0.41800000000E+01 0.  1.
        -11    1    1    2    0    0 -0.42896257326E+02  0.33806338703E+01  0.92328788379E+00  0.43039168654E+02  0.00000000000E+00 0.  1.
         11    1    1    2    0    0  0.31615547933E+02  0.19563504703E+02 -0.56995128359E+02  0.68049380924E+02  0.00000000000E+00 0. -1.
</event>
<event>
 7    1  0.2878477E-009  0.7966472E+02  0.7561462E-02  0.1330006E+00
          2   -1    0    0  501    0  0.00000000000E+00  0.00000000000E+00  0.12048808861E+03  0.12048808861E+03  0.00000000000E+00 0. -1.
         -2   -1    0    0    0  501 -0.00000000000E+00 -0.00000000000E+00 -0.14969575630E+03  0.14969575630E+03  0.00000000000E+00 0.  1.
         25    2    1    2    0    0  0.20628149486E+01  0.51599729706E+01 -0.96687148560E+02  0.15819871728E+03  0.12509016319E+03 0.  0.
          5    1    3    3  502    0  0.35749466506E+02 -0.12508870617E+02 -0.11098707708E+03  0.11734606886E+03  0.41800000000E+01 0.  1.
         -5    1    3    3    0  502 -0.33686651558E+02  0.17668843588E+02  0.14299928518E+02  0.40852648415E+02  0.41800000000E+01 0.  1.
        -11    1    1    2    0    0  0.34115586565E+02 -0.24435262061E+02  0.13251073192E+02  0.44006206601E+02  0.00000000000E+00 0.  1.
         11    1    1    2    0    0 -0.36178401514E+02  0.19275289091E+02  0.54228407675E+02  0.67978921031E+02  0.00000000000E+00 0. -1.
</event>
<event>
 7    1  0.2878477E-009  0.2138721E+03  0.7561462E-02  0.1138536E+00
          1   -1    0    0  501    0  0.00000000000E+00  0.00000000000E+00  0.90214103574E+03  0.90214103574E+03  0.00000000000E+00 0. -1.
         -1   -1    0    0    0  501 -0.00000000000E+00 -0.00000000000E+00 -0.54604557007E+02  0.54604557007E+02  0.00000000000E+00 0.  1.
         25    2    1    2    0    0 -0.42423557966E+01  0.19272423877E+03  0.41337686693E+03  0.47295875827E+03  0.12509565584E+03 0.  0.
          5    1    3    3  502    0  0.57419576221E+02  0.12767159863E+03  0.25508095844E+03  0.29099967799E+03  0.41800000000E+01 0.  1.
         -5    1    3    3    0  502 -0.61661932017E+02  0.65052640147E+02  0.15829590849E+03  0.18195908028E+03  0.41800000000E+01 0.  1.
        -11    1    1    2    0    0  0.24615028722E+02 -0.11567820952E+03  0.16453107596E+03  0.20262730011E+03  0.00000000000E+00 0.  1.
         11    1    1    2    0    0 -0.20372672925E+02 -0.77046029255E+02  0.26962853584E+03  0.28115953437E+03  0.00000000000E+00 0. -1.
</event>
<event>
 7    1  0.2878477E-009  0.1539574E+03  0.7561462E-02  0.1195693E+00
          2   -1    0    0  501    0  0.00000000000E+00  0.00000000000E+00  0.49232098788E+03  0.49232098788E+03  0.00000000000E+00 0. -1.
         -2   -1    0    0    0  501 -0.00000000000E+00 -0.00000000000E+00 -0.63317219950E+02  0.63317219950E+02  0.00000000000E+00 0.  1.
         25    2    1    2    0    0  0.12683484683E+03 -0.58060897636E+01  0.15469580313E+03  0.23601842287E+03  0.12511241097E+03 0.  0.
          5    1    3    3  502    0  0.14358768699E+03  0.95203082036E+01  0.15676334312E+03  0.21283862025E+03  0.41800000000E+01 0. -1.
         -5    1    3    3    0  502 -0.16752840157E+02 -0.15326397967E+02 -0.20675399901E+01  0.23179802621E+02  0.41800000000E+01 0. -1.
        -11    1    1    2    0    0 -0.40989956351E+02  0.31006593490E+02  0.30152048810E+02  0.59588013971E+02  0.00000000000E+00 0.  1.
         11    1    1    2    0    0 -0.85844890483E+02 -0.25200503727E+02  0.24415591599E+03  0.26003177099E+03  0.00000000000E+00 0. -1.
</event>
<event>
 7    1  0.2878477E-009  0.1302794E+03  0.7561462E-02  0.1227042E+00
          1   -1    0    0  501    0  0.00000000000E+00  0.00000000000E+00  0.53156670837E+03  0.53156670837E+03  0.00000000000E+00 0. -1.
         -1   -1    0    0    0  501 -0.00000000000E+00 -0.00000000000E+00 -0.43263213113E+02  0.43263213113E+02  0.00000000000E+00 0.  1.
         25    2    1    2    0    0  0.93685560936E+02  0.47848208161E+02  0.25829809037E+03  0.30566641221E+03  0.12509043415E+03 0.  0.
          5    1    3    3  502    0  0.11173011951E+03  0.26120575523E+02  0.25127334075E+03  0.27626376571E+03  0.41800000000E+01 0.  1.
         -5    1    3    3    0  502 -0.18044558575E+02  0.21727632638E+02  0.70247496165E+01  0.29402646503E+02  0.41800000000E+01 0.  1.
        -11    1    1    2    0    0 -0.37530259910E+02  0.75772347491E+01  0.16770726791E+02  0.41799427896E+02  0.00000000000E+00 0.  1.
         11    1    1    2    0    0 -0.56155301025E+02 -0.55425442910E+02  0.21323467809E+03  0.22736408137E+03  0.00000000000E+00 0. -1.
</event>
<event>
 7    1  0.2878477E-009  0.9562744E+02  0.7561462E-02  0.1289769E+00
          1   -1    0    0  501    0  0.00000000000E+00  0.00000000000E+00  0.20518487228E+03  0.20518487228E+03  0.00000000000E+00 0. -1.
         -1   -1    0    0    0  501 -0.00000000000E+00 -0.00000000000E+00 -0.72270914293E+02  0.72270914293E+02  0.00000000000E+00 0.  1.
         25    2    1    2    0    0 -0.13606292442E+02 -0.52956174533E+02  0.91301212020E+02  0.16423374321E+03  0.12508926204E+03 0.  0.
          5    1    3    3  502    0 -0.36906847036E+02  0.29486403045E+02  0.15866498809E+02  0.50007814460E+02  0.41800000000E+01 0.  1.
         -5    1    3    3    0  502  0.23300554593E+02 -0.82442577578E+02  0.75434713211E+02  0.11422592875E+03  0.41800000000E+01 0.  1.
        -11    1    1    2    0    0  0.15793346840E+02  0.22318252838E+02  0.67643167451E+02  0.72959799321E+02  0.00000000000E+00 0. -1.
         11    1    1    2    0    0 -0.21870543974E+01  0.30637921695E+02 -0.26030421481E+02  0.40262244041E+02  0.00000000000E+00 0.  1.
</event>
<event>
 7    1  0.2878477E-009  0.1506508E+03  0.7561462E-02  0.1199676E+00
          2   -1    0    0  501    0  0.00000000000E+00  0.00000000000E+00  0.38799007836E+02  0.38799007836E+02  0.00000000000E+00 0. -1.
         -2   -1    0    0    0  501 -0.00000000000E+00 -0.00000000000E+00 -0.63635447510E+03  0.63635447510E+03  0.00000000000E+00 0.  1.
         25    2    1    2    0    0  0.11184176141E+03  0.18877774910E+02 -0.29273422454E+03  0.33794283689E+03  0.12508830805E+03 0.  0.
          5    1    3    3  502    0  0.97426883263E+02  0.67039048374E+02 -0.20067060768E+03  0.23296436804E+03  0.41800000000E+01 0. -1.
         -5    1    3    3    0  502  0.14414878145E+02 -0.48161273463E+02 -0.92063616861E+02  0.10497846885E+03  0.41800000000E+01 0. -1.
        -11    1    1    2    0    0 -0.10580367888E+03  0.69142084824E+01 -0.17420410461E+03  0.20393453559E+03  0.00000000000E+00 0. -1.
         11    1    1    2    0    0 -0.60380825247E+01 -0.25791983393E+02 -0.13061713811E+03  0.13327611045E+03  0.00000000000E+00 0.  1.
</event>
<event>
 7    1  0.2878477E-009  0.1112606E+03  0.7561462E-02  0.1258253E+00
         -2   -1    0    0    0  501 -0.00000000000E+00  0.00000000000E+00  0.31963439240E+02  0.31963439240E+02  0.00000000000E+00 0.  1.
          2   -1    0    0  501    0  0.00000000000E+00 -0.00000000000E+00 -0.44955811073E+03  0.44955811073E+03  0.00000000000E+00 0. -1.
         25    2    1    2    0    0 -0.19294563144E+02 -0.42723258854E+02 -0.20712566159E+03  0.24646678382E+03  0.12508908356E+03 0.  0.
          5    1    3    3  502    0 -0.70194462801E+02 -0.18625494997E+02 -0.84736401211E+02  0.11167766904E+03  0.41800000000E+01 0.  1.
         -5    1    3    3    0  502  0.50899899657E+02 -0.24097763856E+02 -0.12238926038E+03  0.13478911479E+03  0.41800000000E+01 0.  1.
        -11    1    1    2    0    0  0.28155151166E+02 -0.17026687065E+02 -0.29217322045E+02  0.44003096676E+02  0.00000000000E+00 0.  1.
         11    1    1    2    0    0 -0.88605880219E+01  0.59749945919E+02 -0.18125168785E+03  0.19105166947E+03  0.00000000000E+00 0. -1.
</event>
<event>
 7    1  0.2878477E-009  0.1180102E+03  0.7561462E-02  0.1246416E+00
          2   -1    0    0  501    0  0.00000000000E+00  0.00000000000E+00  0.75384107943E+03  0.75384107943E+03  0.00000000000E+00 0. -1.
         -2   -1    0    0    0  501 -0.00000000000E+00 -0.00000000000E+00 -0.26487404082E+02  0.26487404082E+02  0.00000000000E+00 0.  1.
         25    2    1    2    0    0 -0.42991113123E+02 -0.75007415043E+02  0.51153246476E+03  0.53365447273E+03  0.12508911082E+03 0.  0.
          5    1    3    3  502    0 -0.39204510020E+02 -0.10798325454E+03  0.34052278837E+03  0.35940314226E+03  0.41800000000E+01 0.  1.
         -5    1    3    3    0  502 -0.37866031033E+01  0.32975839494E+02  0.17100967639E+03  0.17425133048E+03  0.41800000000E+01 0.  1.
        -11    1    1    2    0    0  0.31566317179E+02  0.65639950503E+02  0.21965047647E+03  0.23141168358E+03  0.00000000000E+00 0. -1.
         11    1    1    2    0    0  0.11424795944E+02  0.93674645396E+01 -0.38292658852E+01  0.15262327198E+02  0.00000000000E+00 0.  1.
</event>
<event>
 7    1  0.2878477E-009  0.1291671E+03  0.7561462E-02  0.1228697E+00
          1   -1    0    0  501    0  0.00000000000E+00  0.00000000000E+00  0.53194177992E+02  0.53194177992E+02  0.00000000000E+00 0. -1.
         -1   -1    0    0    0  501 -0.00000000000E+00 -0.00000000000E+00 -0.52325623435E+03  0.52325623435E+03  0.00000000000E+00 0.  1.
         25    2    1    2    0    0 -0.85766563656E+02 -0.44168707567E+02 -0.10784786640E+03  0.19127179830E+03  0.12508781063E+03 0.  0.
          5    1    3    3  502    0 -0.10248348649E+03  0.60329264192E+01 -0.85558643059E+02  0.13370495505E+03  0.41800000000E+01 0. -1.
         -5    1    3    3    0  502  0.16716922833E+02 -0.50201633986E+02 -0.22289223339E+02  0.57566843243E+02  0.41800000000E+01 0. -1.
        -11    1    1    2    0    0  0.17626609869E+02  0.26996093014E+02 -0.25212786587E+02  0.40928853160E+02  0.00000000000E+00 0. -1.
         11    1    1    2    0    0  0.68139953787E+02  0.17172614553E+02 -0.33700140337E+03  0.34424976088E+03  0.00000000000E+00 0.  1.
</event>
<event>
 7    1  0.2878477E-009  0.1249479E+03  0.7561462E-02  0.1235151E+00
          1   -1    0    0  501    0  0.00000000000E+00  0.00000000000E+00  0.29079865521E+02  0.29079865521E+02  0.00000000000E+00 0. -1.
         -1   -1    0    0    0  501 -0.00000000000E+00 -0.00000000000E+00 -0.69112670427E+03  0.69112670427E+03  0.00000000000E+00 0.  1.
         25    2    1    2    0    0  0.20499940451E+02  0.66602208124E+02 -0.51704138254E+03  0.53650543826E+03  0.12510072879E+03 0.  0.
          5    1    3    3  502    0  0.69693360811E+02  0.14681439861E+02 -0.27243481468E+03  0.28162192717E+03  0.41800000000E+01 0.  1.
         -5    1    3    3    0  502 -0.49193420360E+02  0.51920768263E+02 -0.24460656786E+03  0.25488351109E+03  0.41800000000E+01 0.  1.
        -11    1    1    2    0    0  0.27977820206E+02 -0.48480940782E+01 -0.15749048893E+02  0.32469908850E+02  0.00000000000E+00 0. -1.
         11    1    1    2    0    0 -0.48477760657E+02 -0.61754114046E+02 -0.12925640732E+03  0.15123122268E+03  0.00000000000E+00 0.  1.
</event>
<event>
 7    1  0.2878477E-009  0.8180341E+02  0.7561462E-02  0.1324010E+00
         -2   -1    0    0    0  501 -0.00000000000E+00  0.00000000000E+00  0.40787635719E+03  0.40787635719E+03  0.00000000000E+00 0.  1.
          2   -1    0    0  501    0  0.00000000000E+00 -0.00000000000E+00 -0.44729844944E+02  0.44729844944E+02  0.00000000000E+00 0. -1.
         25    2    1    2    0    0  0.73960897800E+02 -0.61328369047E+01  0.14712970747E+03  0.20688775834E+03  0.12509023798E+03 0.  0.
          5    1    3    3  502    0  0.38650937092E+02 -0.51221448973E+01 -0.14183986065E+02  0.41698790955E+02  0.41800000000E+01 0.  1.
         -5    1    3    3    0  502  0.35309960708E+02 -0.10106920074E+01  0.16131369354E+03  0.16518896738E+03  0.41800000000E+01 0.  1.
        -11    1    1    2    0    0 -0.52006910857E+02 -0.19076112655E+02  0.20202115821E+03  0.20947831682E+03  0.00000000000E+00 0.  1.
         11    1    1    2    0    0 -0.21953986943E+02  0.25208949560E+02  0.13995646564E+02  0.36240126978E+02  0.00000000000E+00 0. -1.
</event>
<event>
 7    1  0.2878477E-009  0.1737348E+03  0.7561462E-02  0.1174008E+00
          1   -1    0    0  501    0  0.00000000000E+00  0.00000000000E+00  0.60305188449E+02  0.60305188449E+02  0.00000000000E+00 0. -1.
         -1   -1    0    0    0  501 -0.00000000000E+00 -0.00000000000E+00 -0.73080924359E+03  0.73080924359E+03  0.00000000000E+00 0.  1.
         25    2    1    2    0    0 -0.67743511980E+02  0.14986365886E+03 -0.21390915212E+03  0.29741233041E+03  0.12509464120E+03 0.  0.
          5    1    3    3  502    0 -0.50694746354E+02  0.12026771779E+03 -0.67466417529E+02  0.14698119317E+03  0.41800000000E+01 0. -1.
         -5    1    3    3    0  502 -0.17048765626E+02  0.29595941071E+02 -0.14644273459E+03  0.15043113724E+03  0.41800000000E+01 0. -1.
        -11    1    1    2    0    0  0.35988556071E+02 -0.76907270477E+01 -0.52197036055E+02  0.63865906582E+02  0.00000000000E+00 0. -1.
         11    1    1    2    0    0  0.31754955909E+02 -0.14217293182E+03 -0.40439786697E+03  0.42983619505E+03  0.00000000000E+00 0.  1.
</event>
<event>
 7    1  0.2878477E-009  0.1386439E+03  0.7561462E-02  0.1215165E+00
          2   -1    0    0  501    0  0.00000000000E+00  0.00000000000E+00  0.17138150414E+04  0.17138150414E+04  0.00000000000E+00 0. -1.
         -2   -1    0    0    0  501 -0.00000000000E+00 -0.00000000000E+00 -0.16233818257E+02  0.16233818257E+02  0.00000000000E+00 0.  1.
         25    2    1    2    0    0  0.41938927158E+02 -0.97645932505E+02  0.14170312161E+04  0.14265079040E+04  0.12511487173E+03 0.  0.
          5    1    3    3  502    0 -0.42297344953E+02 -0.48779254019E+02  0.67708216806E+03  0.68016631475E+03  0.41800000000E+01 0.  1.
         -5    1    3    3    0  502  0.84236272112E+02 -0.48866678486E+02  0.73994904802E+03  0.74634158927E+03  0.41800000000E+01 0.  1.
        -11    1    1    2    0    0 -0.97568875355E+01  0.75314384610E+02  0.16795255170E+03  0.18432447750E+03  0.00000000000E+00 0.  1.
         11    1    1    2    0    0 -0.32182039623E+02  0.22331547895E+02  0.11259745535E+03  0.11921647813E+03  0.00000000000E+00 0. -1.
</event>
<event>
 7    1  0.2878477E-009  0.9001869E+02  0.7561462E-02  0.1302806E+00
         -1   -1    0    0    0  501 -0.00000000000E+00  0.00000000000E+00  0.83273998973E+02  0.83273998973E+02  0.00000000000E+00 0.  1.
          1   -1    0    0  501    0  0.00000000000E+00 -0.00000000000E+00 -0.15269834304E+03  0.15269834304E+03  0.00000000000E+00 0. -1.
         25    2    1    2    0    0  0.75828536479E+01  0.31013799775E+02 -0.45771339544E+02  0.13696861760E+03  0.12508409667E+03 0.  0.
          5    1    3    3  502    0  0.50724682009E+02  0.30543230613E+02 -0.66315149372E+02  0.89000301895E+02  0.41800000000E+01 0.  1.
         -5    1    3    3    0  502 -0.43141828361E+02  0.47056916173E+00  0.20543809828E+02  0.47968315709E+02  0.41800000000E+01 0.  1.
        -11    1    1    2    0    0 -0.33387262999E+02 -0.38015834496E+02 -0.42675394490E+02  0.66189895738E+02  0.00000000000E+00 0.  1.
         11    1    1    2    0    0  0.25804409351E+02  0.70020347213E+01  0.19022389965E+02  0.32813828673E+02  0.00000000000E+00 0. -1.
</event>
<event>
 7    1  0.2878477E-009  0.2520298E+03  0.7561462E-02  0.1112029E+00
         -2   -1    0    0    0  501 -0.00000000000E+00  0.00000000000E+00  0.53198043177E+03  0.53198043177E+03  0.00000000000E+00 0.  1.
          2   -1    0    0  501    0  0.00000000000E+00 -0.00000000000E+00 -0.16008663840E+03  0.16008663840E+03  0.00000000000E+00 0. -1.
         25    2    1    2    0    0  0.24333327938E+03 -0.56463432599E+02  0.32440436573E+03  0.42811800750E+03  0.12509049434E+03 0.  0.
          5    1    3    3  502    0  0.45845176974E+02 -0.47540513229E+01  0.15822044899E+03  0.16485012628E+03  0.41800000000E+01 0. -1.
         -5    1    3    3    0  502  0.19748810240E+03 -0.51709381276E+02  0.16618391673E+03  0.26326788122E+03  0.41800000000E+01 0. -1.
        -11    1    1    2    0    0 -0.39534920444E+02  0.26517328515E+02 -0.12846998359E+02  0.49307443788E+02  0.00000000000E+00 0.  1.
         11    1    1    2    0    0 -0.20379835893E+03  0.29946104083E+02  0.60336425998E+02  0.21464161888E+03  0.00000000000E+00 0. -1.
</event>
<event>
 7    1  0.2878477E-009  0.8108082E+02  0.7561462E-02  0.1326012E+00
         -1   -1    0    0    0  501 -0.00000000000E+00  0.00000000000E+00  0.27538419207E+02  0.27538419207E+02  0.00000000000E+00 0.  1.
          1   -1    0    0  501    0  0.00000000000E+00 -0.00000000000E+00 -0.45918776913E+03  0.45918776913E+03  0.00000000000E+00 0. -1.
         25    2    1    2    0    0  0.52347246569E+01 -0.32465055562E+02 -0.21627318194E+03  0.25199760809E+03  0.12508926047E+03 0.  0.
          5    1    3    3  502    0 -0.34286971047E+02  0.18025329265E+01 -0.57868460755E+01  0.35068582749E+02  0.41800000000E+01 0.  1.
         -5    1    3    3    0  502  0.39521695704E+02 -0.34267588489E+02 -0.21048633586E+03  0.21692902534E+03  0.41800000000E+01 0.  1.
        -11    1    1    2    0    0 -0.18273724350E+02 -0.16381313547E+02 -0.16610885730E+02  0.29634405003E+02  0.00000000000E+00 0.  1.
         11    1    1    2    0    0  0.13038999693E+02  0.48846369109E+02 -0.19876528225E+03  0.20509417524E+03  0.00000000000E+00 0. -1.
</event>
<event>
 7    1  0.2878477E-009  0.1364257E+03  0.7561462E-02  0.1218221E+00
          1   -1    0    0  501    0  0.00000000000E+00  0.00000000000E+00  0.54061070671E+03  0.54061070671E+03  0.00000000000E+00 0. -1.
         -1   -1    0    0    0  501 -0.00000000000E+00 -0.00000000000E+00 -0.35028577553E+02  0.35028577553E+02  0.00000000000E+00 0.  1.
         25    2    1    2    0    0  0.66962850042E+02 -0.51692033793E+02  0.29311143202E+03  0.32972377693E+03  0.12508943939E+03 0.  0.
          5    1    3    3  502    0 -0.35368173686E+02 -0.22729019845E+01  0.51106426228E+02  0.62333081066E+02  0.41800000000E+01 0.  1.
         -5    1    3    3    0  502  0.10233102373E+03 -0.49419131809E+02  0.24200500579E+03  0.26739069586E+03  0.41800000000E+01 0.  1.
        -11    1    1    2    0    0  0.20837903454E+02  0.23099096067E+02  0.45617233403E+02  0.55215201193E+02  0.00000000000E+00 0. -1.
         11    1    1    2    0    0 -0.87800753496E+02  0.28592937726E+02  0.16685346373E+03  0.19070030614E+03  0.00000000000E+00 0.  1.
</event>
<event>
 7    1  0.2878477E-009  0.1706099E+03  0.7561462E-02  0.1177213E+00
         -2   -1    0    0    0  501 -0.00000000000E+00  0.00000000000E+00  0.21669655002E+03  0.21669655002E+03  0.00000000000E+00 0.  1.
          2   -1    0    0  501    0  0.00000000000E+00 -0.00000000000E+00 -0.19111007081E+03  0.19111007081E+03  0.00000000000E+00 0. -1.
         25    2    1    2    0    0  0.15504856525E+03  0.34965824896E+00  0.87718426086E+02  0.21767651424E+03  0.12509341602E+03 0.  0.
          5    1    3    3  502    0  0.86317684615E+01  0.34299956959E+02  0.52176880225E+02  0.63173520594E+02  0.41800000000E+01 0. -1.
         -5    1    3    3    0  502  0.14641679679E+03 -0.33950298710E+02  0.35541545860E+02  0.15450299365E+03  0.41800000000E+01 0. -1.
        -11    1    1    2    0    0 -0.72418792172E+02  0.37251750506E+01  0.18254947589E+02  0.74777011844E+02  0.00000000000E+00 0.  1.
         11    1    1    2    0    0 -0.82629773075E+02 -0.40748332995E+01 -0.80386894465E+02  0.11535309474E+03  0.00000000000E+00 0. -1.
</event>
<event>
 7    1  0.2878477E-009  0.1087083E+03  0.7561462E-02  0.1262981E+00
          2   -1    0    0  501    0  0.00000000000E+00  0.00000000000E+00  0.13042288929E+03  0.13042288929E+03  0.00000000000E+00 0. -1.
         -2   -1    0    0    0  501 -0.00000000000E+00 -0.00000000000E+00 -0.98275122103E+02  0.98275122103E+02  0.00000000000E+00 0.  1.
         25    2    1    2    0    0  0.88108412038E+01 -0.30388993452E+02  0.25945047706E+02  0.13161379546E+03  0.12509166163E+03 0.  0.
          5    1    3    3  502    0 -0.44604459880E+02 -0.49068926028E+02 -0.56239296376E+01  0.66681469144E+02  0.41800000000E+01 0. -1.
         -5    1    3    3    0  502  0.53415301084E+02  0.18679932575E+02  0.31568977343E+02  0.64932326320E+02  0.41800000000E+01 0. -1.
        -11    1    1    2    0    0  0.32365917757E+02  0.40487370665E+02 -0.78366233385E+01  0.52423205557E+02  0.00000000000E+00 0.  1.
         11    1    1    2    0    0 -0.41176758960E+02 -0.10098377212E+02  0.14039342823E+02  0.44661010375E+02  0.00000000000E+00 0. -1.
</event>
<event>
 7    1  0.2941501E-009  0.8552020E+02  0.7561462E-02  0.1314078E+00
         -1   -1    0    0    0  501 -0.00000000000E+00  0.00000000000E+00  0.40346937949E+02  0.40346937949E+02  0.00000000000E+00 0.  1.
          1   -1    0    0  501    0  0.00000000000E+00 -0.00000000000E+00 -0.38441635460E+03  0.38441635460E+03  0.00000000000E+00 0. -1.
         25    2    1    2    0    0 -0.42539111301E+02  0.40754910108E+02 -0.16650664225E+03  0.21641860835E+03  0.12506803524E+03 0.  0.
          5    1    3    3  502    0  0.15522469505E+02  0.20069402748E+02 -0.15039081172E+03  0.15257325007E+03  0.41800000000E+01 0.  1.
         -5    1    3    3    0  502 -0.58061580805E+02  0.20685507361E+02 -0.16115830531E+02  0.63845358282E+02  0.41800000000E+01 0.  1.
        -11    1    1    2    0    0 -0.11161289318E+02  0.57095203516E+01  0.41848168797E+01  0.13216871574E+02  0.00000000000E+00 0.  1.
         11    1    1    2    0    0  0.53700400619E+02 -0.46464430460E+02 -0.18174759128E+03  0.19512781263E+03  0.00000000000E+00 0. -1.
</event>
<event>
 7    1  0.2878477E-009  0.7629195E+02  0.7561462E-02  0.1339916E+00
          1   -1    0    0  501    0  0.00000000000E+00  0.00000000000E+00  0.19911902173E+03  0.19911902173E+03  0.00000000000E+00 0. -1.
         -1   -1    0    0    0  501 -0.00000000000E+00 -0.00000000000E+00 -0.73730438610E+02  0.73730438610E+02  0.00000000000E+00 0.  1.
         25    2    1    2    0    0 -0.34552148120E+02  0.20142079301E+02  0.28181727193E+02  0.13431798350E+03  0.12509019404E+03 0.  0.
          5    1    3    3  502    0  0.13327938510E+02  0.38825178802E+02 -0.34051095060E+02  0.53497457217E+02  0.41800000000E+01 0. -1.
         -5    1    3    3    0  502 -0.47880086629E+02 -0.18683099501E+02  0.62232822253E+02  0.80820526280E+02  0.41800000000E+01 0. -1.
        -11    1    1    2    0    0  0.66496365979E+00 -0.25447979707E+02  0.10087342775E+03  0.10403600470E+03  0.00000000000E+00 0. -1.
         11    1    1    2    0    0  0.33887184460E+02  0.53059004062E+01 -0.36665718182E+01  0.34495472147E+02  0.00000000000E+00 0.  1.
</event>
<event>
 7    1  0.2878477E-009  0.9802950E+02  0.7561462E-02  0.1284495E+00
          2   -1    0    0  501    0  0.00000000000E+00  0.00000000000E+00  0.14891527154E+04  0.14891527154E+04  0.00000000000E+00 0.  1.
         -2   -1    0    0    0  501 -0.00000000000E+00 -0.00000000000E+00 -0.12747719277E+02  0.12747719277E+02  0.00000000000E+00 0. -1.
         25    2    1    2    0    0 -0.10056566885E+02  0.77324883359E+02  0.10003221052E+04  0.10111240136E+04  0.12508870629E+03 0.  0.
          5    1    3    3  502    0 -0.13577439764E+02  0.65462225706E+02  0.99461892362E+03  0.99687207077E+03  0.41800000000E+01 0. -1.
         -5    1    3    3    0  502  0.35208728790E+01  0.11862657652E+02  0.57031816098E+01  0.14251942776E+02  0.41800000000E+01 0. -1.
        -11    1    1    2    0    0  0.45585784619E+02 -0.62863621333E+02  0.26126939660E+03  0.27256484778E+03  0.00000000000E+00 0. -1.
         11    1    1    2    0    0 -0.35529217734E+02 -0.14461262026E+02  0.21481349430E+03  0.21821157335E+03  0.00000000000E+00 0.  1.
</event>
<event>
 7    1  0.2878477E-009  0.1696502E+03  0.7561462E-02  0.1178213E+00
         -2   -1    0    0    0  501 -0.00000000000E+00  0.00000000000E+00  0.12993612039E+03  0.12993612039E+03  0.00000000000E+00 0.  1.
          2   -1    0    0  501    0  0.00000000000E+00 -0.00000000000E+00 -0.22843232259E+03  0.22843232259E+03  0.00000000000E+00 0. -1.
         25    2    1    2    0    0 -0.57636117180E+02  0.11874895920E+03 -0.75005559689E+02  0.19671437533E+03  0.12508986435E+03 0.  0.
          5    1    3    3  502    0  0.18687962749E+02  0.98533549168E+02 -0.57688971785E+02  0.11577387498E+03  0.41800000000E+01 0.  1.
         -5    1    3    3    0  502 -0.76324079929E+02  0.20215410035E+02 -0.17316587904E+02  0.80940500348E+02  0.41800000000E+01 0.  1.
        -11    1    1    2    0    0 -0.24263282866E+02 -0.19154979230E+02 -0.65874120738E+01  0.31607184667E+02  0.00000000000E+00 0.  1.
         11    1    1    2    0    0  0.81899400046E+02 -0.99593979974E+02 -0.16903230438E+02  0.13004688299E+03  0.00000000000E+00 0. -1.
</event>
<event>
 7    1  0.2878477E-009  0.2613572E+03  0.7561462E-02  0.1106331E+00
         -2   -1    0    0    0  501 -0.00000000000E+00  0.00000000000E+00  0.38836140762E+03  0.38836140762E+03  0.00000000000E+00 0.  1.
          2   -1    0    0  501    0  0.00000000000E+00 -0.00000000000E+00 -0.19640547441E+03  0.19640547441E+03  0.00000000000E+00 0. -1.
         25    2    1    2    0    0  0.83894573174E+02 -0.23575464706E+03  0.53954422561E+02  0.28491467172E+03  0.12508691949E+03 0.  0.
          5    1    3    3  502    0  0.37776720659E+02 -0.21770559959E+03  0.71393097308E+02  0.23224395678E+03  0.41800000000E+01 0.  1.
         -5    1    3    3    0  502  0.46117852515E+02 -0.18049047465E+02 -0.17438674747E+02  0.52670714936E+02  0.41800000000E+01 0.  1.
        -11    1    1    2    0    0 -0.53940672649E+01  0.50882640348E+02  0.72213900963E+02  0.88504161160E+02  0.00000000000E+00 0.  1.
         11    1    1    2    0    0 -0.78500505909E+02  0.18487200671E+03  0.65787609690E+02  0.21134804916E+03  0.00000000000E+00 0. -1.
</event>
<event>
 7    1  0.2878477E-009  0.8784354E+02  0.7561462E-02  0.1308160E+00
         -1   -1    0    0    0  501 -0.00000000000E+00  0.00000000000E+00  0.16438689258E+03  0.16438689258E+03  0.00000000000E+00 0.  1.
          1   -1    0    0  501    0  0.00000000000E+00 -0.00000000000E+00 -0.10807616315E+03  0.10807616315E+03  0.00000000000E+00 0. -1.
         25    2    1    2    0    0 -0.30525866023E+02 -0.70653649494E+02  0.41400866964E+02  0.15259762733E+03  0.12509291506E+03 0.  0.
          5    1    3    3  502    0 -0.46846502946E+02 -0.55437846210E+02 -0.29268631442E+02  0.78371390298E+02  0.41800000000E+01 0.  1.
         -5    1    3    3    0  502  0.16320636923E+02 -0.15215803284E+02  0.70669498406E+02  0.74226237034E+02  0.41800000000E+01 0.  1.
        -11    1    1    2    0    0  0.70867396921E+01  0.44923605969E+02  0.51945739232E+02  0.69041379455E+02  0.00000000000E+00 0.  1.
         11    1    1    2    0    0  0.23439126330E+02  0.25730043525E+02 -0.37035876766E+02  0.50824048941E+02  0.00000000000E+00 0. -1.
</event>
<event>
 7    1  0.2878477E-009  0.1757007E+03  0.7561462E-02  0.1172030E+00
          1   -1    0    0  501    0  0.00000000000E+00  0.00000000000E+00  0.11057421541E+04  0.11057421541E+04  0.00000000000E+00 0. -1.
         -1   -1    0    0    0  501 -0.00000000000E+00 -0.00000000000E+00 -0.31810931767E+02  0.31810931767E+02  0.00000000000E+00 0.  1.
         25    2    1    2    0    0 -0.10048668661E+03 -0.11039464531E+03  0.65802979715E+03  0.68624719383E+03  0.12508974859E+03 0.  0.
          5    1    3    3  502    0 -0.95275810618E+02 -0.23326184360E+02  0.45085100858E+03  0.46141705138E+03  0.41800000000E+01 0. -1.
         -5    1    3    3    0  502 -0.52108759966E+01 -0.87068460950E+02  0.20717878857E+03  0.22483014245E+03  0.41800000000E+01 0. -1.
        -11    1    1    2    0    0  0.54160793076E+01  0.56210610435E+02  0.21768165142E+03  0.22488723397E+03  0.00000000000E+00 0. -1.
         11    1    1    2    0    0  0.95070607307E+02  0.54184034875E+02  0.19821977379E+03  0.22641865809E+03  0.00000000000E+00 0.  1.
</event>
<event>
 7    1  0.2878477E-009  0.1122157E+03  0.7561462E-02  0.1256521E+00
         -3   -1    0    0    0  501 -0.00000000000E+00  0.00000000000E+00  0.45718009776E+03  0.45718009776E+03  0.00000000000E+00 0.  1.
          3   -1    0    0  501    0  0.00000000000E+00 -0.00000000000E+00 -0.42234218802E+02  0.42234218802E+02  0.00000000000E+00 0. -1.
         25    2    1    2    0    0  0.73251852574E+02  0.45830060120E+02  0.24422674558E+03  0.28768017721E+03  0.12508778033E+03 0.  0.
          5    1    3    3  502    0 -0.16856268637E+02  0.38865589646E+02  0.22378874417E+02  0.48093183208E+02  0.41800000000E+01 0.  1.
         -5    1    3    3    0  502  0.90108121211E+02  0.69644704742E+01  0.22184787116E+03  0.23958699401E+03  0.41800000000E+01 0.  1.
        -11    1    1    2    0    0 -0.24786397311E+02 -0.32966860295E+02  0.87266816199E+01  0.42158443300E+02  0.00000000000E+00 0. -1.
         11    1    1    2    0    0 -0.48465455264E+02 -0.12863199825E+02  0.16199245176E+03  0.16957569605E+03  0.00000000000E+00 0.  1.
</event>
<event>
 7    1  0.2878477E-009  0.9747540E+02  0.7561462E-02  0.1285696E+00
          1   -1    0    0  501    0  0.00000000000E+00  0.00000000000E+00  0.46209187325E+03  0.46209187325E+03  0.00000000000E+00 0. -1.
         -1   -1    0    0    0  501 -0.00000000000E+00 -0.00000000000E+00 -0.29052726629E+02  0.29052726629E+02  0.00000000000E+00 0.  1.
         25    2    1    2    0    0  0.26948997596E+02  0.15156177626E+01  0.18273273208E+03  0.22309536766E+03  0.12510693878E+03 0.  0.
          5    1    3    3  502    0  0.38469270598E+02 -0.42458579750E+02  0.32333385542E+02  0.65920679572E+02  0.41800000000E+01 0.  1.
         -5    1    3    3    0  502 -0.11520273002E+02  0.43974197512E+02  0.15039934654E+03  0.15717468809E+03  0.41800000000E+01 0.  1.
        -11    1    1    2    0    0 -0.50121290078E+02  0.25522400106E+02  0.11332652886E+03  0.12651655532E+03  0.00000000000E+00 0.  1.
         11    1    1    2    0    0  0.23172292482E+02 -0.27038017868E+02  0.13697988568E+03  0.14153267690E+03  0.00000000000E+00 0. -1.
</event>
<event>
 7    1  0.2878477E-009  0.1072790E+03  0.7561462E-02  0.1265693E+00
          2   -1    0    0  501    0  0.00000000000E+00  0.00000000000E+00  0.16940463014E+03  0.16940463014E+03  0.00000000000E+00 0. -1.
         -2   -1    0    0    0  501 -0.00000000000E+00 -0.00000000000E+00 -0.73084044810E+02  0.73084044810E+02  0.00000000000E+00 0.  1.
         25    2    1    2    0    0 -0.11733097245E+02 -0.13785086189E+02  0.81511198376E+02  0.15039672200E+03  0.12508958532E+03 0.  0.
          5    1    3    3  502    0  0.51619069710E+02 -0.31320513314E+02  0.39560632290E+02  0.72305040897E+02  0.41800000000E+01 0. -1.
         -5    1    3    3    0  502 -0.63352166955E+02  0.17535427125E+02  0.41950566086E+02  0.78091681101E+02  0.41800000000E+01 0. -1.
        -11    1    1    2    0    0  0.88750770233E+01  0.50534571979E+02 -0.25016144740E+01  0.51368940346E+02  0.00000000000E+00 0.  1.
         11    1    1    2    0    0  0.28580202216E+01 -0.36749485791E+02  0.17311001432E+02  0.40723012610E+02  0.00000000000E+00 0. -1.
</event>
<event>
 7    1  0.2878477E-009  0.2139082E+03  0.7561462E-02  0.1138508E+00
          1   -1    0    0  501    0  0.00000000000E+00  0.00000000000E+00  0.74178594791E+03  0.74178594791E+03  0.00000000000E+00 0.  1.
         -1   -1    0    0    0  501 -0.00000000000E+00 -0.00000000000E+00 -0.69854395431E+02  0.69854395431E+02  0.00000000000E+00 0. -1.
         25    2    1    2    0    0 -0.18031469443E+03 -0.75477794283E+02  0.40720691524E+03  0.46869424750E+03  0.12508612780E+03 0.  0.
          5    1    3    3  502    0 -0.11952176286E+03 -0.10899665441E+03  0.26747590353E+03  0.31261246591E+03  0.41800000000E+01 0. -1.
         -5    1    3    3    0  502 -0.60792931565E+02  0.33518860131E+02  0.13973101171E+03  0.15608178159E+03  0.41800000000E+01 0. -1.
        -11    1    1    2    0    0  0.84653072715E+02  0.46071068066E+02  0.55993919581E+02  0.11146302106E+03  0.00000000000E+00 0. -1.
         11    1    1    2    0    0  0.95661621715E+02  0.29406726217E+02  0.20873071766E+03  0.23148307478E+03  0.00000000000E+00 0.  1.
</event>
<event>
 7    1  0.2878477E-009  0.1031286E+03  0.7561462E-02  0.1273851E+00
         -2   -1    0    0    0  501 -0.00000000000E+00  0.00000000000E+00  0.39703627045E+02  0.39703627045E+02  0.00000000000E+00 0.  1.
          2   -1    0    0  501    0  0.00000000000E+00 -0.00000000000E+00 -0.46349576634E+03  0.46349576634E+03  0.00000000000E+00 0. -1.
         25    2    1    2    0    0 -0.83528274771E+01 -0.64627209649E+02 -0.32200634754E+03  0.35154284937E+03  0.12509133117E+03 0.  0.
          5    1    3    3  502    0 -0.30374359350E+02 -0.90628566445E+02 -0.16415091402E+03  0.18999772034E+03  0.41800000000E+01 0. -1.
         -5    1    3    3    0  502  0.22021531873E+02  0.26001356796E+02 -0.15785543353E+03  0.16154512903E+03  0.41800000000E+01 0. -1.
        -11    1    1    2    0    0  0.24087493315E+02  0.45531403676E+02 -0.11322919077E+03  0.12439519966E+03  0.00000000000E+00 0. -1.
         11    1    1    2    0    0 -0.15734665838E+02  0.19095805973E+02  0.11443399019E+02  0.27261344353E+02  0.00000000000E+00 0.  1.
</event>
<event>
 7    1  0.2878477E-009  0.1462153E+03  0.7561462E-02  0.1205202E+00
         -2   -1    0    0    0  501 -0.00000000000E+00  0.00000000000E+00  0.20258112521E+03  0.20258112521E+03  0.00000000000E+00 0. -1.
          2   -1    0    0  501    0  0.00000000000E+00 -0.00000000000E+00 -0.11831730931E+03  0.11831730931E+03  0.00000000000E+00 0.  1.
         25    2    1    2    0    0 -0.95089361710E+02  0.53121672820E+02  0.46546505774E+02  0.17227210505E+03  0.12508877705E+03 0.  0.
          5    1    3    3  502    0 -0.38171445760E+02  0.78581496789E+02 -0.99516518836E+01  0.88026238612E+02  0.41800000000E+01 0. -1.
         -5    1    3    3    0  502 -0.56917915950E+02 -0.25459823969E+02  0.56498157657E+02  0.84245866435E+02  0.41800000000E+01 0. -1.
        -11    1    1    2    0    0  0.75984495731E+02  0.98958488489E+01  0.30144942945E+02  0.82342510292E+02  0.00000000000E+00 0.  1.
         11    1    1    2    0    0  0.19104865979E+02 -0.63017521669E+02  0.75723671854E+01  0.66283819188E+02  0.00000000000E+00 0. -1.
</event>
<event>
 7    1  0.2878477E-009  0.1066020E+03  0.7561462E-02  0.1266995E+00
         -1   -1    0    0    0  501 -0.00000000000E+00  0.00000000000E+00  0.21256318161E+02  0.21256318161E+02  0.00000000000E+00 0.  1.
          1   -1    0    0  501    0  0.00000000000E+00 -0.00000000000E+00 -0.82921135495E+03  0.82921135495E+03  0.00000000000E+00 0. -1.
         25    2    1    2    0    0  0.95699544961E+01 -0.59256715030E+02 -0.29226592169E+03  0.32352563982E+03  0.12508608370E+03 0.  0.
          5    1    3    3  502    0 -0.12542402309E+02 -0.78759647269E+02 -0.28026175654E+03  0.29141811624E+03  0.41800000000E+01 0. -1.
         -5    1    3    3    0  502  0.22112356806E+02  0.19502932238E+02 -0.12004165146E+02  0.32107523577E+02  0.41800000000E+01 0. -1.
        -11    1    1    2    0    0 -0.16833468766E+02 -0.18762346367E+02 -0.69611825747E+02  0.74035110561E+02  0.00000000000E+00 0.  1.
         11    1    1    2    0    0  0.72635142697E+01  0.78019061398E+02 -0.44607728935E+03  0.45290692273E+03  0.00000000000E+00 0. -1.
</event>
<event>
 7    1  0.2878477E-009  0.1200841E+03  0.7561462E-02  0.1242958E+00
         -3   -1    0    0    0  501 -0.00000000000E+00  0.00000000000E+00  0.13802932618E+03  0.13802932618E+03  0.00000000000E+00 0.  1.
          3   -1    0    0  501    0  0.00000000000E+00 -0.00000000000E+00 -0.29153428560E+03  0.29153428560E+03  0.00000000000E+00 0. -1.
         25    2    1    2    0    0  0.97966940921E+02  0.16523575772E+02 -0.22675968549E+03  0.27737895148E+03  0.12509427522E+03 0.  0.
          5    1    3    3  502    0  0.14399568153E+02  0.48396367269E+02 -0.24691517828E+02  0.56362215894E+02  0.41800000000E+01 0. -1.
         -5    1    3    3    0  502  0.83567372768E+02 -0.31872791497E+02 -0.20206816766E+03  0.22101673559E+03  0.41800000000E+01 0. -1.
        -11    1    1    2    0    0 -0.36969762312E+02 -0.81765816586E+00  0.80690720093E+02  0.88760487828E+02  0.00000000000E+00 0.  1.
         11    1    1    2    0    0 -0.60997178609E+02 -0.15705917607E+02 -0.74359940200E+01  0.63424172467E+02  0.00000000000E+00 0. -1.
</event>
<event>
 7    1  0.2878477E-009  0.2096138E+03  0.7561462E-02  0.1141872E+00
         -1   -1    0    0    0  501 -0.00000000000E+00  0.00000000000E+00  0.47468972392E+02  0.47468972392E+02  0.00000000000E+00 0.  1.
          1   -1    0    0  501    0  0.00000000000E+00 -0.00000000000E+00 -0.93235384732E+03  0.93235384732E+03  0.00000000000E+00 0. -1.
         25    2    1    2    0    0  0.15654413874E+02 -0.17798291766E+03 -0.42883233576E+03  0.48110500674E+03  0.12506748445E+03 0.  0.
          5    1    3    3  502    0  0.41230149936E+02 -0.18578365272E+03 -0.36186112132E+03  0.40887214922E+03  0.41800000000E+01 0.  1.
         -5    1    3    3    0  502 -0.25575736062E+02  0.78007350615E+01 -0.66971214440E+02  0.72232857525E+02  0.41800000000E+01 0.  1.
        -11    1    1    2    0    0 -0.50791003820E+02  0.59495169918E+02 -0.17985458588E+03  0.19613024595E+03  0.00000000000E+00 0.  1.
         11    1    1    2    0    0  0.35136589946E+02  0.11848774774E+03 -0.27619795328E+03  0.30258756702E+03  0.00000000000E+00 0. -1.
</event>
<event>
 7    1  0.2878477E-009  0.1108984E+03  0.7561462E-02  0.1258915E+00
          2   -1    0    0  501    0  0.00000000000E+00  0.00000000000E+00  0.62885278696E+02  0.62885278696E+02  0.00000000000E+00 0. -1.
         -2   -1    0    0    0  501 -0.00000000000E+00 -0.00000000000E+00 -0.26419056040E+03  0.26419056040E+03  0.00000000000E+00 0.  1.
         25    2    1    2    0    0 -0.40748670919E+02 -0.54036527995E+02 -0.13553173729E+03  0.19646076731E+03  0.12509029034E+03 0.  0.
          5    1    3    3  502    0  0.58171092785E+01 -0.63333023333E+02 -0.13443608798E+03  0.14877985332E+03  0.41800000000E+01 0. -1.
         -5    1    3    3    0  502 -0.46565780197E+02  0.92964953385E+01 -0.10956493176E+01  0.47680913984E+02  0.41800000000E+01 0. -1.
        -11    1    1    2    0    0  0.39555591445E+02 -0.14287831664E+02 -0.38568132944E+02  0.57063892498E+02  0.00000000000E+00 0.  1.
         11    1    1    2    0    0  0.11930794742E+01  0.68324359659E+02 -0.27205411463E+02  0.73551179286E+02  0.00000000000E+00 0. -1.
</event>
<event>
 7    1  0.2878477E-009  0.3417837E+03  0.7561462E-02  0.1066039E+00
         -2   -1    0    0    0  501 -0.00000000000E+00  0.00000000000E+00  0.11936547665E+03  0.11936547665E+03  0.00000000000E+00 0.  1.
          2   -1    0    0  501    0  0.00000000000E+00 -0.00000000000E+00 -0.10502500690E+04  0.10502500690E+04  0.00000000000E+00 0. -1.
         25    2    1    2    0    0 -0.21319616723E+03  0.25708003840E+03 -0.40306491371E+03  0.53819306562E+03  0.12509076446E+03 0.  0.
          5    1    3    3  502    0 -0.12450381864E+03  0.85287464475E+02 -0.10887276405E+03  0.18613410114E+03  0.41800000000E+01 0. -1.
         -5    1    3    3    0  502 -0.88692348585E+02  0.17179257392E+03 -0.29419214965E+03  0.35205896448E+03  0.41800000000E+01 0. -1.
        -11    1    1    2    0    0  0.14968933471E+03 -0.21866142257E+03 -0.46007241945E+03  0.53092969948E+03  0.00000000000E+00 0. -1.
         11    1    1    2    0    0  0.63506832517E+02 -0.38418615824E+02 -0.67747259210E+02  0.10049278058E+03  0.00000000000E+00 0.  1.
</event>
<event>
 7    1  0.2878477E-009  0.1045264E+03  0.7561462E-02  0.1271056E+00
          2   -1    0    0  501    0  0.00000000000E+00  0.00000000000E+00  0.58795045725E+03  0.58795045725E+03  0.00000000000E+00 0. -1.
         -2   -1    0    0    0  501 -0.00000000000E+00 -0.00000000000E+00 -0.32152166975E+02  0.32152166975E+02  0.00000000000E+00 0.  1.
         25    2    1    2    0    0  0.46205841754E+02  0.23602735251E+02  0.45327216983E+03  0.47307116568E+03  0.12509436008E+03 0.  0.
          5    1    3    3  502    0  0.73225716055E+02  0.35047130972E+01  0.14112498205E+03  0.15908495046E+03  0.41800000000E+01 0.  1.
         -5    1    3    3    0  502 -0.27019874301E+02  0.20098022154E+02  0.31214718779E+03  0.31398621521E+03  0.41800000000E+01 0.  1.
        -11    1    1    2    0    0 -0.64931263930E+02 -0.40451568059E+02  0.58486680036E+02  0.96296885389E+02  0.00000000000E+00 0. -1.
         11    1    1    2    0    0  0.18725422176E+02  0.16848832808E+02  0.44039440408E+02  0.50734573164E+02  0.00000000000E+00 0.  1.
</event>
<event>
 7    1  0.2878477E-009  0.1838459E+03  0.7561462E-02  0.1164132E+00
         -2   -1    0    0    0  501 -0.00000000000E+00  0.00000000000E+00  0.80723764904E+02  0.80723764904E+02  0.00000000000E+00 0.  1.
          2   -1    0    0  501    0  0.00000000000E+00 -0.00000000000E+00 -0.65736363309E+03  0.65736363309E+03  0.00000000000E+00 0. -1.
         25    2    1    2    0    0  0.13552945395E+03  0.81468647721E+02 -0.50292015185E+03  0.54183147643E+03  0.12508915327E+03 0.  0.
          5    1    3    3  502    0  0.60848129288E+02 -0.28714117531E+02 -0.14389653746E+03  0.15890462950E+03  0.41800000000E+01 0. -1.
         -5    1    3    3    0  502  0.74681324667E+02  0.11018276525E+03 -0.35902361440E+03  0.38292684694E+03  0.41800000000E+01 0. -1.
        -11    1    1    2    0    0 -0.25317525721E+02  0.64460037304E+01  0.14567333820E+02  0.29912126092E+02  0.00000000000E+00 0.  1.
         11    1    1    2    0    0 -0.11021192823E+03 -0.87914651451E+02 -0.88287050149E+02  0.16634379546E+03  0.00000000000E+00 0. -1.
</event>
<event>
 7    1  0.2878477E-009  0.9970083E+02  0.7561462E-02  0.1280926E+00
          1   -1    0    0  501    0  0.00000000000E+00  0.00000000000E+00  0.19537640055E+03  0.19537640055E+03  0.00000000000E+00 0. -1.
         -1   -1    0    0    0  501 -0.00000000000E+00 -0.00000000000E+00 -0.10214095667E+03  0.10214095667E+03  0.00000000000E+00 0.  1.
         25    2    1    2    0    0  0.16381315724E+02  0.78051160586E+02  0.70540036283E+01  0.14851421791E+03  0.12508550187E+03 0.  0.
          5    1    3    3  502    0 -0.12856913878E+01  0.24031661067E+02 -0.57458750793E+02  0.62435199837E+02  0.41800000000E+01 0. -1.
         -5    1    3    3    0  502  0.17667007112E+02  0.54019499519E+02  0.64512754422E+02  0.86079018069E+02  0.41800000000E+01 0. -1.
        -11    1    1    2    0    0  0.29259940148E+01 -0.93323467239E+02  0.51979368466E+02  0.10686292961E+03  0.00000000000E+00 0.  1.
         11    1    1    2    0    0 -0.19307309739E+02  0.15272306653E+02  0.34202071780E+02  0.42140209704E+02  0.00000000000E+00 0. -1.
</event>
<event>
 7    1  0.2878477E-009  0.1045108E+03  0.7561462E-02  0.1271087E+00
          2   -1    0    0  501    0  0.00000000000E+00  0.00000000000E+00  0.99275774732E+03  0.99275774732E+03  0.00000000000E+00 0. -1.
         -2   -1    0    0    0  501 -0.00000000000E+00 -0.00000000000E+00 -0.18217151492E+02  0.18217151492E+02  0.00000000000E+00 0.  1.
         25    2    1    2    0    0  0.52547271970E+02 -0.24568864229E+02  0.75557181143E+03  0.76805089717E+03  0.12509425857E+03 0.  0.
          5    1    3    3  502    0  0.26279930158E+02 -0.61588352296E+02  0.64459306746E+03  0.64807519231E+03  0.41800000000E+01 0.  1.
         -5    1    3    3    0  502  0.26267341811E+02  0.37019488067E+02  0.11097874397E+03  0.11997570486E+03  0.41800000000E+01 0.  1.
        -11    1    1    2    0    0 -0.14297771487E+02  0.48944533882E+02  0.66179629859E+02  0.83544820753E+02  0.00000000000E+00 0.  1.
         11    1    1    2    0    0 -0.38249500483E+02 -0.24375669653E+02  0.15278915454E+03  0.15937918090E+03  0.00000000000E+00 0. -1.
</event>
<event>
 7    1  0.2878477E-009  0.1090431E+03  0.7561462E-02  0.1262352E+00
         -2   -1    0    0    0  501 -0.00000000000E+00  0.00000000000E+00  0.64857754256E+02  0.64857754256E+02  0.00000000000E+00 0.  1.
          2   -1    0    0  501    0  0.00000000000E+00 -0.00000000000E+00 -0.28272730132E+03  0.28272730132E+03  0.00000000000E+00 0. -1.
         25    2    1    2    0    0  0.37702820366E+02 -0.71748921329E+02 -0.15468904157E+03  0.21481464478E+03  0.12508885504E+03 0.  0.
          5    1    3    3  502    0  0.16863054500E+00 -0.67404645042E+02 -0.13856072104E+02  0.68941117946E+02  0.41800000000E+01 0. -1.
         -5    1    3    3    0  502  0.37534189821E+02 -0.43442762869E+01 -0.14083296946E+03  0.14587352683E+03  0.41800000000E+01 0. -1.
        -11    1    1    2    0    0 -0.52110405610E+02  0.80341403547E+02 -0.65234828605E+02  0.11586983369E+03  0.00000000000E+00 0. -1.
         11    1    1    2    0    0  0.14407585244E+02 -0.85924822175E+01  0.20543231066E+01  0.16900577110E+02  0.00000000000E+00 0.  1.
</event>
<event>
 7    1  0.2878477E-009  0.1044942E+03  0.7561462E-02  0.1271119E+00
          2   -1    0    0  501    0  0.00000000000E+00  0.00000000000E+00  0.29551931589E+02  0.29551931589E+02  0.00000000000E+00 0. -1.
         -2   -1    0    0    0  501 -0.00000000000E+00 -0.00000000000E+00 -0.38901484528E+03  0.38901484528E+03  0.00000000000E+00 0.  1.
         25    2    1    2    0    0 -0.19232657640E+01 -0.12700299635E+02 -0.19299340967E+03  0.23034557625E+03  0.12509049429E+03 0.  0.
          5    1    3    3  502    0 -0.18699059014E+02 -0.66501799010E+02 -0.10874600791E+03  0.12890039067E+03  0.41800000000E+01 0. -1.
         -5    1    3    3    0  502  0.16775793250E+02  0.53801499375E+02 -0.84247401757E+02  0.10144518558E+03  0.41800000000E+01 0. -1.
        -11    1    1    2    0    0  0.12159207825E+02  0.46443432507E+02 -0.65056931846E+02  0.80853219721E+02  0.00000000000E+00 0. -1.
         11    1    1    2    0    0 -0.10235942061E+02 -0.33743132873E+02 -0.10141257218E+03  0.10736798090E+03  0.00000000000E+00 0.  1.
</event>
<event>
 7    1  0.2878477E-009  0.1280573E+03  0.7561462E-02  0.1230367E+00
          2   -1    0    0  501    0  0.00000000000E+00  0.00000000000E+00  0.54893816647E+02  0.54893816647E+02  0.00000000000E+00 0. -1.
         -2   -1    0    0    0  501 -0.00000000000E+00 -0.00000000000E+00 -0.30711439120E+03  0.30711439120E+03  0.00000000000E+00 0.  1.
         25    2    1    2    0    0  0.68540616239E+02 -0.23078091674E+02 -0.13412842745E+03  0.19715780532E+03  0.12510136194E+03 0.  0.
          5    1    3    3  502    0  0.72637055512E+02 -0.66039751868E+02 -0.11016307573E+03  0.14761695809E+03  0.41800000000E+01 0.  1.
         -5    1    3    3    0  502 -0.40964392733E+01  0.42961660194E+02 -0.23965351715E+02  0.49540847229E+02  0.41800000000E+01 0.  1.
        -11    1    1    2    0    0 -0.49053547164E+01 -0.30756150759E+02 -0.25362889110E+02  0.40165650230E+02  0.00000000000E+00 0.  1.
         11    1    1    2    0    0 -0.63635261522E+02  0.53834242434E+02 -0.92729257995E+02  0.12468475230E+03  0.00000000000E+00 0. -1.
</event>
<event>
 7    1  0.2878477E-009  0.1599492E+03  0.7561462E-02  0.1188754E+00
         -2   -1    0    0    0  501 -0.00000000000E+00  0.00000000000E+00  0.13697626912E+03  0.13697626912E+03  0.00000000000E+00 0.  1.
          2   -1    0    0  501    0  0.00000000000E+00 -0.00000000000E+00 -0.24023904334E+03  0.24023904334E+03  0.00000000000E+00 0. -1.
         25    2    1    2    0    0 -0.13690849977E+03 -0.26670450467E+02 -0.95819528593E+02  0.21044040703E+03  0.12509409504E+03 0.  0.
          5    1    3    3  502    0  0.80632802953E+01  0.12682179423E+02  0.16591378352E+02  0.22772799557E+02  0.41800000000E+01 0. -1.
         -5    1    3    3    0  502 -0.14497178007E+03 -0.39352629890E+02 -0.11241090695E+03  0.18766760748E+03  0.41800000000E+01 0. -1.
        -11    1    1    2    0    0  0.25403896292E+02 -0.20801561789E+02  0.25057599695E+02  0.41303101847E+02  0.00000000000E+00 0.  1.
         11    1    1    2    0    0  0.11150460348E+03  0.47472012256E+02 -0.32500845322E+02  0.12547180357E+03  0.00000000000E+00 0. -1.
</event>
<event>
 7    1  0.2878477E-009  0.7750525E+02  0.7561462E-02  0.1336284E+00
         -1   -1    0    0    0  501 -0.00000000000E+00  0.00000000000E+00  0.14141635226E+03  0.14141635226E+03  0.00000000000E+00 0.  1.
          1   -1    0    0  501    0  0.00000000000E+00 -0.00000000000E+00 -0.11423248301E+03  0.11423248301E+03  0.00000000000E+00 0. -1.
         25    2    1    2    0    0  0.33864852434E+02  0.40328963712E+02 -0.10431942915E+02  0.13612311438E+03  0.12508966101E+03 0.  0.
          5    1    3    3  502    0  0.60927765992E+01  0.13774327040E+02 -0.66339291416E+02  0.68155909485E+02  0.41800000000E+01 0. -1.
         -5    1    3    3    0  502  0.27772075835E+02  0.26554636672E+02  0.55907348501E+02  0.67967204896E+02  0.41800000000E+01 0. -1.
        -11    1    1    2    0    0 -0.12166676791E+02  0.27201062409E+02  0.38382047329E+02  0.48591227371E+02  0.00000000000E+00 0.  1.
         11    1    1    2    0    0 -0.21698175643E+02 -0.67530026121E+02 -0.76623516532E+00  0.70934493517E+02  0.00000000000E+00 0. -1.
</event>
<event>
 7    1  0.2878477E-009  0.7757951E+02  0.7561462E-02  0.1336064E+00
          3   -1    0    0  501    0  0.00000000000E+00  0.00000000000E+00  0.44515812785E+02  0.44515812785E+02  0.00000000000E+00 0. -1.
         -3   -1    0    0    0  501 -0.00000000000E+00 -0.00000000000E+00 -0.26793672469E+03  0.26793672469E+03  0.00000000000E+00 0.  1.
         25    2    1    2    0    0 -0.76035566749E+01  0.42573853253E+00 -0.14912543033E+03  0.19479142192E+03  0.12508920319E+03 0.  0.
          5    1    3    3  502    0  0.28671684684E+02  0.10861545977E+02  0.89548015017E+01  0.32213344340E+02  0.41800000000E+01 0.  1.
         -5    1    3    3    0  502 -0.36275241359E+02 -0.10435807445E+02 -0.15808023183E+03  0.16257807758E+03  0.41800000000E+01 0.  1.
        -11    1    1    2    0    0  0.41586516239E+01 -0.43162667646E+02 -0.56542196115E+02  0.71255387187E+02  0.00000000000E+00 0. -1.
         11    1    1    2    0    0  0.34449050509E+01  0.42736929113E+02 -0.17753285456E+02  0.46405728368E+02  0.00000000000E+00 0.  1.
</event>
<event>
 6    1  0.2878477E-009  0.7647078E+02  0.7561462E-02  0.1339376E+00
         -2   -1    0    0    0  501 -0.00000000000E+00  0.00000000000E+00  0.14274023292E+03  0.14274023292E+03  0.00000000000E+00 0.  1.
          2   -1    0    0  501    0  0.00000000000E+00 -0.00000000000E+00 -0.95488332894E+02  0.95488332894E+02  0.00000000000E+00 0. -1.
          5    1    1    2  502    0 -0.12071326194E+02 -0.38501092159E+02 -0.47640325540E+02  0.62570951975E+02  0.41800000000E+01 0. -1.
         -5    1    1    2    0  502  0.18412139344E+02 -0.66695749127E+01  0.69613231473E+02  0.72435933768E+02  0.41800000000E+01 0. -1.
        -11    1    1    2    0    0 -0.26525670500E+02  0.61119332961E+02 -0.74148746376E+00  0.66631327923E+02  0.00000000000E+00 0. -1.
         11    1    1    2    0    0  0.20184857350E+02 -0.15948665889E+02  0.26020481554E+02  0.36590352146E+02  0.00000000000E+00 0.  1.
</event>
<event>
 7    1  0.2878477E-009  0.2305387E+03  0.7561462E-02  0.1126261E+00
         -1   -1    0    0    0  501 -0.00000000000E+00  0.00000000000E+00  0.36913080335E+03  0.36913080335E+03  0.00000000000E+00 0.  1.
          1   -1    0    0  501    0  0.00000000000E+00 -0.00000000000E+00 -0.15024011026E+03  0.15024011026E+03  0.00000000000E+00 0. -1.
         25    2    1    2    0    0 -0.13211430502E+03  0.15835330939E+03  0.14612927506E+03  0.28201108388E+03  0.12508607524E+03 0.  0.
          5    1    3    3  502    0 -0.91514019756E+02  0.18244659033E+02  0.74320835333E+02  0.11936809607E+03  0.41800000000E+01 0.  1.
         -5    1    3    3    0  502 -0.40600285263E+02  0.14010865036E+03  0.71808439722E+02  0.16264298781E+03  0.41800000000E+01 0.  1.
        -11    1    1    2    0    0  0.72301976581E+02 -0.26596046890E+02  0.47409888946E+02  0.90457852603E+02  0.00000000000E+00 0.  1.
         11    1    1    2    0    0  0.59812328437E+02 -0.13175726250E+03  0.25351529087E+02  0.14690197712E+03  0.00000000000E+00 0. -1.
</event>
<event>
 7    1  0.3895364E-009  0.1111166E+03  0.7561462E-02  0.1258516E+00
          3   -1    0    0  501    0  0.00000000000E+00  0.00000000000E+00  0.22829529913E+03  0.22829529913E+03  0.00000000000E+00 0. -1.
         -3   -1    0    0    0  501 -0.00000000000E+00 -0.00000000000E+00 -0.10301050735E+03  0.10301050735E+03  0.00000000000E+00 0.  1.
         25    2    1    2    0    0 -0.81624165885E+02 -0.28871308866E+02 -0.19536135406E+01  0.15214092401E+03  0.12508791796E+03 0.  0.
          5    1    3    3  502    0 -0.98508466264E+01 -0.48508479469E+02 -0.44182009057E+02  0.66480328549E+02  0.41800000000E+01 0. -1.
         -5    1    3    3    0  502 -0.71773319258E+02  0.19637170604E+02  0.42228395516E+02  0.85660595460E+02  0.41800000000E+01 0. -1.
        -11    1    1    2    0    0  0.68907619519E+02  0.27324410498E+01  0.25777314757E+02  0.73621981894E+02  0.00000000000E+00 0.  1.
         11    1    1    2    0    0  0.12716546365E+02  0.26138867816E+02  0.10146109057E+03  0.10554290057E+03  0.00000000000E+00 0. -1.
</event>
<event>
 7    1  0.2878477E-009  0.2486516E+03  0.7561462E-02  0.1114160E+00
         -2   -1    0    0    0  501 -0.00000000000E+00  0.00000000000E+00  0.28173543590E+02  0.28173543590E+02  0.00000000000E+00 0.  1.
          2   -1    0    0  501    0  0.00000000000E+00 -0.00000000000E+00 -0.23836244018E+04  0.23836244018E+04  0.00000000000E+00 0. -1.
         25    2    1    2    0    0  0.22526861353E+03  0.39623998999E+02 -0.14541929749E+04  0.14773760315E+04  0.12508685245E+03 0.  0.
          5    1    3    3  502    0  0.14917695930E+03 -0.34570232029E+02 -0.78893101416E+03  0.80366565413E+03  0.41800000000E+01 0. -1.
         -5    1    3    3    0  502  0.76091654230E+02  0.74194231028E+02 -0.66526196070E+03  0.67371037732E+03  0.41800000000E+01 0. -1.
        -11    1    1    2    0    0 -0.55336309063E+02  0.18205766883E+02 -0.12847235560E+03  0.14106276334E+03  0.00000000000E+00 0.  1.
         11    1    1    2    0    0 -0.16993230447E+03 -0.57829765882E+02 -0.77278552780E+03  0.79335915063E+03  0.00000000000E+00 0. -1.
</event>
<event>
 7    1  0.2878477E-009  0.1271734E+03  0.7561462E-02  0.1231711E+00
         -1   -1    0    0    0  501 -0.00000000000E+00  0.00000000000E+00  0.14158544447E+03  0.14158544447E+03  0.00000000000E+00 0.  1.
          1   -1    0    0  501    0  0.00000000000E+00 -0.00000000000E+00 -0.16363850328E+03  0.16363850328E+03  0.00000000000E+00 0. -1.
         25    2    1    2    0    0 -0.29713824504E+00  0.90191449583E+02  0.44384287946E+02  0.16047253024E+03  0.12508749768E+03 0.  0.
          5    1    3    3  502    0 -0.41241873907E+02  0.22151743388E+02  0.63196375024E+02  0.78758149512E+02  0.41800000000E+01 0. -1.
         -5    1    3    3    0  502  0.40944735662E+02  0.68039706195E+02 -0.18812087077E+02  0.81714380728E+02  0.41800000000E+01 0. -1.
        -11    1    1    2    0    0  0.36982934661E+02 -0.80267581459E+01 -0.27097072049E+02  0.46544791503E+02  0.00000000000E+00 0.  1.
         11    1    1    2    0    0 -0.36685796416E+02 -0.82164691438E+02 -0.39340274707E+02  0.98206626007E+02  0.00000000000E+00 0. -1.
</event>
<event>
 7    1  0.2878477E-009  0.1196206E+03  0.7561462E-02  0.1243724E+00
          1   -1    0    0  501    0  0.00000000000E+00  0.00000000000E+00  0.39918309708E+02  0.39918309708E+02  0.00000000000E+00 0. -1.
         -1   -1    0    0    0  501 -0.00000000000E+00 -0.00000000000E+00 -0.46798637080E+03  0.46798637080E+03  0.00000000000E+00 0.  1.
         25    2    1    2    0    0 -0.75186631127E+02 -0.14626424848E+02 -0.28592099344E+03  0.32134923048E+03  0.12509017402E+03 0.  0.
          5    1    3    3  502    0 -0.10666221659E+03  0.54049831913E+01 -0.18477118122E+03  0.21345703104E+03  0.41800000000E+01 0. -1.
         -5    1    3    3    0  502  0.31475585460E+02 -0.20031408040E+02 -0.10114981222E+03  0.10789219944E+03  0.41800000000E+01 0. -1.
        -11    1    1    2    0    0  0.52946225430E+02 -0.17483167655E+02 -0.21527988129E+02  0.59769709815E+02  0.00000000000E+00 0. -1.
         11    1    1    2    0    0  0.22240405697E+02  0.32109592503E+02 -0.12061907953E+03  0.12678574021E+03  0.00000000000E+00 0.  1.
</event>
<event>
 7    1  0.2878477E-009  0.1497339E+03  0.7561462E-02  0.1200800E+00
          2   -1    0    0  501    0  0.00000000000E+00  0.00000000000E+00  0.17117058958E+04  0.17117058958E+04  0.00000000000E+00 0.  1.
         -2   -1    0    0    0  501 -0.00000000000E+00 -0.00000000000E+00 -0.18281291764E+02  0.18281291764E+02  0.00000000000E+00 0. -1.
         25    2    1    2    0    0  0.99239087750E+02 -0.74511182047E+02  0.12113413947E+04  0.12240895282E+04  0.12508751212E+03 0.  0.
          5    1    3    3  502    0  0.22338719659E+02 -0.90774603518E+02  0.52780829279E+03  0.53603928343E+03  0.41800000000E+01 0.  1.
         -5    1    3    3    0  502  0.76900368091E+02  0.16263421471E+02  0.68353310191E+03  0.68805024475E+03  0.41800000000E+01 0.  1.
        -11    1    1    2    0    0 -0.28720938921E+02  0.38400114919E+02  0.61851216409E+02  0.78262597258E+02  0.00000000000E+00 0. -1.
         11    1    1    2    0    0 -0.70518148829E+02  0.36111067129E+02  0.42023199291E+03  0.42763506212E+03  0.00000000000E+00 0.  1.
</event>
<event>
 7    1  0.2878477E-009  0.1148933E+03  0.7561462E-02  0.1251767E+00
         -1   -1    0    0    0  501 -0.00000000000E+00  0.00000000000E+00  0.18865119703E+03  0.18865119703E+03  0.00000000000E+00 0.  1.
          1   -1    0    0  501    0  0.00000000000E+00 -0.00000000000E+00 -0.11308070085E+03  0.11308070085E+03  0.00000000000E+00 0. -1.
         25    2    1    2    0    0 -0.44814744107E+02  0.48930969241E+02  0.11405496547E+03  0.18183179224E+03  0.12510661246E+03 0.  0.
          5    1    3    3  502    0  0.27257417238E+02 -0.25346808729E+01  0.83631766447E+02  0.88097310746E+02  0.41800000000E+01 0.  1.
         -5    1    3    3    0  502 -0.72072161346E+02  0.51465650114E+02  0.30423199026E+02  0.93734481498E+02  0.41800000000E+01 0.  1.
        -11    1    1    2    0    0  0.71818788123E+02 -0.48060967976E+02 -0.31660622522E+02  0.92033635094E+02  0.00000000000E+00 0.  1.
         11    1    1    2    0    0 -0.27004044016E+02 -0.87000126522E+00 -0.68238467711E+01  0.27866470536E+02  0.00000000000E+00 0. -1.
</event>
<event>
 7    1  0.2878477E-009  0.1511417E+03  0.7561462E-02  0.1199077E+00
          2   -1    0    0  501    0  0.00000000000E+00  0.00000000000E+00  0.27050022887E+03  0.27050022887E+03  0.00000000000E+00 0.  1.
         -2   -1    0    0    0  501 -0.00000000000E+00 -0.00000000000E+00 -0.16509481373E+03  0.16509481373E+03  0.00000000000E+00 0. -1.
         25    2    1    2    0    0  0.13143129769E+03  0.12584454793E+01  0.18268814048E+03  0.25746394928E+03  0.12504782610E+03 0.  0.
          5    1    3    3  502    0  0.10699505283E+03 -0.38323948660E+02  0.65337765825E+02  0.13116082652E+03  0.41800000000E+01 0.  1.
         -5    1    3    3    0  502  0.24436244859E+02  0.39582394139E+02  0.11735037465E+03  0.12630312276E+03  0.41800000000E+01 0.  1.
        -11    1    1    2    0    0 -0.13085771442E+03 -0.11711803854E+02 -0.91769252988E+02  0.16025761625E+03  0.00000000000E+00 0. -1.
         11    1    1    2    0    0 -0.57358326239E+00  0.10453358375E+02  0.14486527647E+02  0.17873477064E+02  0.00000000000E+00 0.  1.
</event>
<event>
 7    1  0.2878477E-009  0.7602342E+02  0.7561462E-02  0.1340731E+00
          1   -1    0    0  501    0  0.00000000000E+00  0.00000000000E+00  0.53998129220E+03  0.53998129220E+03  0.00000000000E+00 0. -1.
         -1   -1    0    0    0  501 -0.00000000000E+00 -0.00000000000E+00 -0.31828173147E+02  0.31828173147E+02  0.00000000000E+00 0.  1.
         25    2    1    2    0    0 -0.52591865647E+02 -0.11802307664E+02  0.36912779965E+03  0.39345705698E+03  0.12509166404E+03 0.  0.
          5    1    3    3  502    0 -0.30685585623E+01  0.41221468651E+01 -0.93164049666E+01  0.11431358096E+02  0.41800000000E+01 0. -1.
         -5    1    3    3    0  502 -0.49523307085E+02 -0.15924454529E+02  0.37844420462E+03  0.38202569888E+03  0.41800000000E+01 0. -1.
        -11    1    1    2    0    0  0.59134535612E+02  0.35281988977E+02  0.47541935560E+02  0.83677641488E+02  0.00000000000E+00 0.  1.
         11    1    1    2    0    0 -0.65426699650E+01 -0.23479681313E+02  0.91483383847E+02  0.94674766886E+02  0.00000000000E+00 0. -1.
</event>
<event>
 6    1  0.2878477E-009  0.7814428E+02  0.7561462E-02  0.1334402E+00
          2   -1    0    0  501    0  0.00000000000E+00  0.00000000000E+00  0.55683408279E+03  0.55683408279E+03  0.00000000000E+00 0. -1.
         -2   -1    0    0    0  501 -0.00000000000E+00 -0.00000000000E+00 -0.34959521491E+02  0.34959521491E+02  0.00000000000E+00 0.  1.
          5    1    1    2  502    0  0.15548402215E+02 -0.41680168036E+02  0.44014240228E+03  0.44240456135E+03  0.41800000000E+01 0.  1.
         -5    1    1    2    0  502  0.84834329202E+00  0.29249477262E+02  0.22270291928E+02  0.37009321921E+02  0.41800000000E+01 0.  1.
        -11    1    1    2    0    0  0.15541510803E+02 -0.27092247151E+02 -0.35466078339E+01  0.31434166775E+02  0.00000000000E+00 0.  1.
         11    1    1    2    0    0 -0.31938256310E+02  0.39522937925E+02  0.63008474931E+02  0.80945554241E+02  0.00000000000E+00 0. -1.
</event>
<event>
 7    1  0.2878477E-009  0.9272047E+02  0.7561462E-02  0.1296394E+00
         -4   -1    0    0    0  501 -0.00000000000E+00  0.00000000000E+00  0.43146091385E+03  0.43146091385E+03  0.00000000000E+00 0.  1.
          4   -1    0    0  501    0  0.00000000000E+00 -0.00000000000E+00 -0.30513014206E+02  0.30513014206E+02  0.00000000000E+00 0. -1.
         25    2    1    2    0    0  0.84219872274E+01  0.30463937903E+02  0.26690007802E+03  0.29644963140E+03  0.12509097062E+03 0.  0.
          5    1    3    3  502    0 -0.24998066191E+02  0.71542658071E+02  0.15623395672E+03  0.17369449291E+03  0.41800000000E+01 0.  1.
         -5    1    3    3    0  502  0.33420053418E+02 -0.41078720168E+02  0.11066612130E+03  0.12275513849E+03  0.41800000000E+01 0.  1.
        -11    1    1    2    0    0  0.16552771963E+02 -0.26337475409E+02  0.13658644862E+03  0.14008395632E+03  0.00000000000E+00 0.  1.
         11    1    1    2    0    0 -0.24974759191E+02 -0.41264624945E+01 -0.25386269984E+01  0.25440340336E+02  0.00000000000E+00 0. -1.
</event>
<event>
 7    1  0.3677639E-009  0.1712799E+03  0.7561462E-02  0.1176520E+00
         -1   -1    0    0    0  501 -0.00000000000E+00  0.00000000000E+00  0.43563241059E+02  0.43563241059E+02  0.00000000000E+00 0.  1.
          1   -1    0    0  501    0  0.00000000000E+00 -0.00000000000E+00 -0.95435591586E+03  0.95435591586E+03  0.00000000000E+00 0. -1.
         25    2    1    2    0    0  0.15990931066E+03 -0.57159271593E+02 -0.54468408967E+03  0.58409432852E+03  0.12508899671E+03 0.  0.
          5    1    3    3  502    0  0.89544868858E+02 -0.46057309350E+02 -0.13624621490E+03  0.16946994647E+03  0.41800000000E+01 0.  1.
         -5    1    3    3    0  502  0.70364441804E+02 -0.11101962244E+02 -0.40843787477E+03  0.41462438204E+03  0.41800000000E+01 0.  1.
        -11    1    1    2    0    0 -0.10358410407E+03  0.29697491944E+02 -0.12657942283E+03  0.16623464720E+03  0.00000000000E+00 0.  1.
         11    1    1    2    0    0 -0.56325206591E+02  0.27461779650E+02 -0.23952916230E+03  0.24759018121E+03  0.00000000000E+00 0. -1.
</event>
<event>
 7    1  0.2878477E-009  0.1209544E+03  0.7561462E-02  0.1241531E+00
          1   -1    0    0  501    0  0.00000000000E+00  0.00000000000E+00  0.13844558481E+03  0.13844558481E+03  0.00000000000E+00 0. -1.
         -1   -1    0    0    0  501 -0.00000000000E+00 -0.00000000000E+00 -0.13970011067E+03  0.13970011067E+03  0.00000000000E+00 0.  1.
         25    2    1    2    0    0 -0.67199647682E+02 -0.54086167184E+02  0.13933673338E+02  0.15259008577E+03  0.12509388832E+03 0.  0.
          5    1    3    3  502    0  0.34214284481E+02 -0.15447581282E+02 -0.14277345425E+02  0.40380193441E+02  0.41800000000E+01 0.  1.
         -5    1    3    3    0  502 -0.10141393216E+03 -0.38638585902E+02  0.28211018763E+02  0.11220989233E+03  0.41800000000E+01 0.  1.
        -11    1    1    2    0    0  0.23932268895E+02  0.45514305404E+02 -0.48185219660E+02  0.70470709409E+02  0.00000000000E+00 0.  1.
         11    1    1    2    0    0  0.43267378786E+02  0.85718617799E+01  0.32997020466E+02  0.55084900300E+02  0.00000000000E+00 0. -1.
</event>
<event>
 6    1  0.2878477E-009  0.9103258E+02  0.7561462E-02  0.1300370E+00
         -2   -1    0    0    0  501 -0.00000000000E+00  0.00000000000E+00  0.61261187496E+02  0.61261187496E+02  0.00000000000E+00 0.  1.
          2   -1    0    0  501    0  0.00000000000E+00 -0.00000000000E+00 -0.31323724519E+03  0.31323724519E+03  0.00000000000E+00 0. -1.
          5    1    1    2  502    0  0.29177931500E+02  0.36374590546E+02 -0.29159657442E+02  0.55156328251E+02  0.41800000000E+01 0. -1.
         -5    1    1    2    0  502  0.54757968720E+01 -0.55567312666E+02 -0.21377405585E+03  0.22098536138E+03  0.41800000000E+01 0. -1.
        -11    1    1    2    0    0 -0.55430866139E+02  0.91631738055E+01  0.21433730851E+02  0.60132765555E+02  0.00000000000E+00 0.  1.
         11    1    1    2    0    0  0.20777137767E+02  0.10029548314E+02 -0.30476075249E+02  0.38223977498E+02  0.00000000000E+00 0. -1.
</event>
<event>
 7    1  0.2878477E-009  0.1186633E+03  0.7561462E-02  0.1245319E+00
         -1   -1    0    0    0  501 -0.00000000000E+00  0.00000000000E+00  0.10332792561E+03  0.10332792561E+03  0.00000000000E+00 0.  1.
          1   -1    0    0  501    0  0.00000000000E+00 -0.00000000000E+00 -0.20291577933E+03  0.20291577933E+03  0.00000000000E+00 0. -1.
         25    2    1    2    0    0 -0.43135735575E+01  0.95526557750E+02 -0.39397102936E+02  0.16230600962E+03  0.12508868409E+03 0.  0.
          5    1    3    3  502    0  0.21695025348E+02  0.27120430419E+02 -0.73544335081E+02  0.81439753766E+02  0.41800000000E+01 0.  1.
         -5    1    3    3    0  502 -0.26008598905E+02  0.68406127331E+02  0.34147232145E+02  0.80866255858E+02  0.41800000000E+01 0.  1.
        -11    1    1    2    0    0  0.41333089185E+02 -0.77577050589E+02 -0.29897723722E+02  0.92846631191E+02  0.00000000000E+00 0. -1.
         11    1    1    2    0    0 -0.37019515628E+02 -0.17949507161E+02 -0.30293027069E+02  0.51091064127E+02  0.00000000000E+00 0.  1.
</event>
<event>
 7    1  0.2878477E-009  0.1512281E+03  0.7561462E-02  0.1198972E+00
         -2   -1    0    0    0  501 -0.00000000000E+00  0.00000000000E+00  0.53373649375E+02  0.53373649375E+02  0.00000000000E+00 0.  1.
          2   -1    0    0  501    0  0.00000000000E+00 -0.00000000000E+00 -0.66030299045E+03  0.66030299045E+03  0.00000000000E+00 0. -1.
         25    2    1    2    0    0 -0.13181320952E+03  0.67688133840E+02 -0.24494167254E+03  0.31241082383E+03  0.12509074401E+03 0.  0.
          5    1    3    3  502    0 -0.57321097784E+02  0.40117841148E+02 -0.18623466058E+02  0.72522102269E+02  0.41800000000E+01 0.  1.
         -5    1    3    3    0  502 -0.74492111734E+02  0.27570292692E+02 -0.22631820648E+03  0.23988872156E+03  0.41800000000E+01 0.  1.
        -11    1    1    2    0    0  0.10811403501E+03 -0.37470836445E+02 -0.16640591669E+03  0.20194959089E+03  0.00000000000E+00 0.  1.
         11    1    1    2    0    0  0.23699174507E+02 -0.30217297395E+02 -0.19558175185E+03  0.19931622511E+03  0.00000000000E+00 0. -1.
</event>
<event>
 7    1  0.2878477E-009  0.1147347E+03  0.7561462E-02  0.1252045E+00
          1   -1    0    0  501    0  0.00000000000E+00  0.00000000000E+00  0.68679857565E+02  0.68679857565E+02  0.00000000000E+00 0. -1.
         -1   -1    0    0    0  501 -0.00000000000E+00 -0.00000000000E+00 -0.34737374156E+03  0.34737374156E+03  0.00000000000E+00 0.  1.
         25    2    1    2    0    0  0.84790078501E+01 -0.70567081364E+02 -0.26698578477E+03  0.30328229516E+03  0.12508850763E+03 0.  0.
          5    1    3    3  502    0  0.60178560195E+02 -0.66803059374E+02 -0.19172422071E+03  0.21180122062E+03  0.41800000000E+01 0. -1.
         -5    1    3    3    0  502 -0.51699552345E+02 -0.37640219899E+01 -0.75261564062E+02  0.91481074541E+02  0.41800000000E+01 0. -1.
        -11    1    1    2    0    0 -0.29780884385E+02  0.34575150732E+02 -0.41292656614E+02  0.61542063770E+02  0.00000000000E+00 0.  1.
         11    1    1    2    0    0  0.21301876535E+02  0.35991930632E+02  0.29584557393E+02  0.51229240192E+02  0.00000000000E+00 0. -1.
</event>
<event>
 7    1  0.2878477E-009  0.1403275E+03  0.7561462E-02  0.1212889E+00
          2   -1    0    0  501    0  0.00000000000E+00  0.00000000000E+00  0.25096008222E+03  0.25096008222E+03  0.00000000000E+00 0. -1.
         -2   -1    0    0    0  501 -0.00000000000E+00 -0.00000000000E+00 -0.14768856485E+03  0.14768856485E+03  0.00000000000E+00 0.  1.
         25    2    1    2    0    0  0.72352230463E+02 -0.75706494562E+02 -0.68778547714E+02  0.17704349378E+03  0.12509033333E+03 0.  0.
          5    1    3    3  502    0  0.13901647034E+02  0.22624755340E+02  0.18894744837E+02  0.32857558140E+02  0.41800000000E+01 0. -1.
         -5    1    3    3    0  502  0.58450583429E+02 -0.98331249902E+02 -0.87673292552E+02  0.14418593564E+03  0.41800000000E+01 0. -1.
        -11    1    1    2    0    0  0.20608528679E+02  0.28147125329E+02  0.36373125417E+02  0.50398178253E+02  0.00000000000E+00 0.  1.
         11    1    1    2    0    0 -0.92960759141E+02  0.47559369233E+02  0.13567693967E+03  0.17120697503E+03  0.00000000000E+00 0. -1.
</event>
<event>
 7    1  0.2878477E-009  0.9988482E+02  0.7561462E-02  0.1280538E+00
          3   -1    0    0  501    0  0.00000000000E+00  0.00000000000E+00  0.23600622338E+03  0.23600622338E+03  0.00000000000E+00 0. -1.
         -3   -1    0    0    0  501 -0.00000000000E+00 -0.00000000000E+00 -0.62078611812E+02  0.62078611812E+02  0.00000000000E+00 0.  1.
         25    2    1    2    0    0  0.23807997726E+02  0.47265621333E+02  0.10860671116E+03  0.17390229457E+03  0.12508289504E+03 0.  0.
          5    1    3    3  502    0  0.70883239133E+02  0.22551126185E+02  0.91283864801E+02  0.11782700563E+03  0.41800000000E+01 0.  1.
         -5    1    3    3    0  502 -0.47075241408E+02  0.24714495148E+02  0.17322846364E+02  0.56075288944E+02  0.41800000000E+01 0.  1.
        -11    1    1    2    0    0 -0.12117012565E+02 -0.56029414766E+02  0.79158366901E-01  0.57324720483E+02  0.00000000000E+00 0.  1.
         11    1    1    2    0    0 -0.11690985161E+02  0.87637934326E+01  0.65241742037E+02  0.66857820137E+02  0.00000000000E+00 0. -1.
</event>
<event>
 7    1  0.2878477E-009  0.1103376E+03  0.7561462E-02  0.1259946E+00
         -2   -1    0    0    0  501 -0.00000000000E+00  0.00000000000E+00  0.44049183181E+03  0.44049183181E+03  0.00000000000E+00 0.  1.
          2   -1    0    0  501    0  0.00000000000E+00 -0.00000000000E+00 -0.48615331888E+02  0.48615331888E+02  0.00000000000E+00 0. -1.
         25    2    1    2    0    0  0.79113273243E+02  0.91886200557E+01  0.31753437712E+03  0.35045498498E+03  0.12508906866E+03 0.  0.
          5    1    3    3  502    0  0.62384746409E+02 -0.46478709914E+02  0.10932949883E+03  0.13424804943E+03  0.41800000000E+01 0. -1.
         -5    1    3    3    0  502  0.16728526834E+02  0.55667329970E+02  0.20820487829E+03  0.21620693555E+03  0.41800000000E+01 0. -1.
        -11    1    1    2    0    0 -0.21397888067E+02  0.10067695414E+02 -0.16842249306E+02  0.29032558729E+02  0.00000000000E+00 0. -1.
         11    1    1    2    0    0 -0.57715385176E+02 -0.19256315469E+02  0.91184372107E+02  0.10961962000E+03  0.00000000000E+00 0.  1.
</event>
<event>
 7    1  0.2878477E-009  0.1054885E+03  0.7561462E-02  0.1269160E+00
          2   -1    0    0  501    0  0.00000000000E+00  0.00000000000E+00  0.38377344789E+03  0.38377344789E+03  0.00000000000E+00 0. -1.
         -2   -1    0    0    0  501 -0.00000000000E+00 -0.00000000000E+00 -0.57046600329E+02  0.57046600329E+02  0.00000000000E+00 0.  1.
         25    2    1    2    0    0 -0.65001708623E+02 -0.65101135752E+02  0.23379244168E+03  0.28065855724E+03  0.12508772907E+03 0.  0.
          5    1    3    3  502    0 -0.66218600303E+02 -0.18073659027E+02  0.36623741887E+02  0.77912329233E+02  0.41800000000E+01 0.  1.
         -5    1    3    3    0  502  0.12168916796E+01 -0.47027476726E+02  0.19716869979E+03  0.20274622801E+03  0.41800000000E+01 0.  1.
        -11    1    1    2    0    0  0.39460367221E+02  0.22820354441E+02 -0.93872681231E+01  0.46540412126E+02  0.00000000000E+00 0.  1.
         11    1    1    2    0    0  0.25541341402E+02  0.42280781311E+02  0.10232167400E+03  0.11362107885E+03  0.00000000000E+00 0. -1.
</event>
<event>
 7    1  0.2878477E-009  0.2145755E+03  0.7561462E-02  0.1137993E+00
         -4   -1    0    0    0  501 -0.00000000000E+00  0.00000000000E+00  0.29920435542E+02  0.29920435542E+02  0.00000000000E+00 0. -1.
          4   -1    0    0  501    0  0.00000000000E+00 -0.00000000000E+00 -0.16098393090E+04  0.16098393090E+04  0.00000000000E+00 0.  1.
         25    2    1    2    0    0  0.57818345546E+02  0.17890927402E+03 -0.95795917567E+03  0.98421741686E+03  0.12508657795E+03 0.  0.
          5    1    3    3  502    0  0.88962683172E+02  0.84857315362E+02 -0.44111928833E+03  0.45795067628E+03  0.41800000000E+01 0.  1.
         -5    1    3    3    0  502 -0.31144337626E+02  0.94051958653E+02 -0.51683988733E+03  0.52626674057E+03  0.41800000000E+01 0.  1.
        -11    1    1    2    0    0 -0.76796058188E+02 -0.10153779046E+03 -0.39475144456E+03  0.41477254059E+03  0.00000000000E+00 0. -1.
         11    1    1    2    0    0  0.18977712642E+02 -0.77371483555E+02 -0.22720825327E+03  0.24076978714E+03  0.00000000000E+00 0.  1.
</event>
<event>
 7    1  0.2878477E-009  0.7749956E+02  0.7561462E-02  0.1336301E+00
         -3   -1    0    0    0  501 -0.00000000000E+00  0.00000000000E+00  0.44307126755E+03  0.44307126755E+03  0.00000000000E+00 0.  1.
          3   -1    0    0  501    0  0.00000000000E+00 -0.00000000000E+00 -0.32063178211E+02  0.32063178211E+02  0.00000000000E+00 0. -1.
         25    2    1    2    0    0  0.14636912220E+02  0.71816925225E+01  0.14083806032E+03  0.18907414480E+03  0.12509139495E+03 0.  0.
          5    1    3    3  502    0 -0.15163660854E+02 -0.25760075763E+02  0.14126636275E+03  0.14445475332E+03  0.41800000000E+01 0. -1.
         -5    1    3    3    0  502  0.29800573074E+02  0.32941768286E+02 -0.42830242481E+00  0.44619391483E+02  0.41800000000E+01 0. -1.
        -11    1    1    2    0    0  0.12381733106E+02  0.31024911712E+02  0.19254744324E+03  0.19542356654E+03  0.00000000000E+00 0.  1.
         11    1    1    2    0    0 -0.27018645325E+02 -0.38206604235E+02  0.77622585772E+02  0.90636734409E+02  0.00000000000E+00 0. -1.
</event>
<event>
 7    1  0.2878477E-009  0.9726944E+02  0.7561462E-02  0.1286145E+00
         -1   -1    0    0    0  501 -0.00000000000E+00  0.00000000000E+00  0.14424245204E+02  0.14424245204E+02  0.00000000000E+00 0.  1.
          1   -1    0    0  501    0  0.00000000000E+00 -0.00000000000E+00 -0.13727272331E+04  0.13727272331E+04  0.00000000000E+00 0. -1.
         25    2    1    2    0    0  0.57312417507E+02  0.32778476646E+02 -0.10301285849E+04  0.10397947163E+04  0.12509599874E+03 0.  0.
          5    1    3    3  502    0  0.34692798959E+02  0.46556289978E+02 -0.98891361238E+03  0.99062540023E+03  0.41800000000E+01 0. -1.
         -5    1    3    3    0  502  0.22619618548E+02 -0.13777813332E+02 -0.41214972523E+02  0.49169316077E+02  0.41800000000E+01 0. -1.
        -11    1    1    2    0    0 -0.79461175693E+02 -0.14447493452E+02 -0.19406114397E+03  0.21019642268E+03  0.00000000000E+00 0.  1.
         11    1    1    2    0    0  0.22148758186E+02 -0.18330983193E+02 -0.13411325898E+03  0.13716033927E+03  0.00000000000E+00 0. -1.
</event>
<event>
 7    1  0.2878477E-009  0.2316811E+03  0.7561462E-02  0.1125462E+00
          2   -1    0    0  501    0  0.00000000000E+00  0.00000000000E+00  0.75253965744E+03  0.75253965744E+03  0.00000000000E+00 0. -1.
         -2   -1    0    0    0  501 -0.00000000000E+00 -0.00000000000E+00 -0.84249870179E+02  0.84249870179E+02  0.00000000000E+00 0.  1.
         25    2    1    2    0    0  0.28120757610E+02 -0.22478274337E+03  0.32656288471E+03  0.41666407085E+03  0.12509025358E+03 0.  0.
          5    1    3    3  502    0 -0.18233975196E+02 -0.10381823996E+03  0.23613383617E+03  0.25862591862E+03  0.41800000000E+01 0. -1.
         -5    1    3    3    0  502  0.46354732806E+02 -0.12096450341E+03  0.90429048539E+02  0.15803815223E+03  0.41800000000E+01 0. -1.
        -11    1    1    2    0    0 -0.43949978489E+01  0.14401660013E+03  0.13721830711E+03  0.19896974877E+03  0.00000000000E+00 0.  1.
         11    1    1    2    0    0 -0.23725759761E+02  0.80766143236E+02  0.20450859545E+03  0.22115570800E+03  0.00000000000E+00 0. -1.
</event>
<event>
 7    1  0.2878477E-009  0.9137809E+02  0.7561462E-02  0.1299548E+00
         -1   -1    0    0    0  501 -0.00000000000E+00  0.00000000000E+00  0.11289606727E+03  0.11289606727E+03  0.00000000000E+00 0.  1.
          1   -1    0    0  501    0  0.00000000000E+00 -0.00000000000E+00 -0.22787652881E+03  0.22787652881E+03  0.00000000000E+00 0. -1.
         25    2    1    2    0    0  0.18417796893E+01 -0.30990307395E+02 -0.18282619371E+03  0.22368812445E+03  0.12508864300E+03 0.  0.
          5    1    3    3  502    0  0.30971753194E+02  0.15040616423E+02 -0.19470873657E+01  0.34738065397E+02  0.41800000000E+01 0.  1.
         -5    1    3    3    0  502 -0.29129973505E+02 -0.46030923818E+02 -0.18087910634E+03  0.18895005905E+03  0.41800000000E+01 0.  1.
        -11    1    1    2    0    0 -0.29679030353E+01  0.62168946636E+02  0.55961389305E+02  0.83698646747E+02  0.00000000000E+00 0.  1.
         11    1    1    2    0    0  0.11261233460E+01 -0.31178639241E+02  0.11884342859E+02  0.33385824895E+02  0.00000000000E+00 0. -1.
</event>
<event>
 7    1  0.2878477E-009  0.1103387E+03  0.7561462E-02  0.1259944E+00
         -2   -1    0    0    0  501 -0.00000000000E+00  0.00000000000E+00  0.20518478293E+02  0.20518478293E+02  0.00000000000E+00 0.  1.
          2   -1    0    0  501    0  0.00000000000E+00 -0.00000000000E+00 -0.65371875120E+03  0.65371875120E+03  0.00000000000E+00 0. -1.
         25    2    1    2    0    0  0.29375207034E+02  0.25605875400E+02 -0.37802551879E+03  0.40008220011E+03  0.12507561851E+03 0.  0.
          5    1    3    3  502    0 -0.32660050563E+02 -0.24303730388E+02 -0.63011249844E+02  0.75134813638E+02  0.41800000000E+01 0.  1.
         -5    1    3    3    0  502  0.62035257596E+02  0.49909605788E+02 -0.31501426895E+03  0.32494738647E+03  0.41800000000E+01 0.  1.
        -11    1    1    2    0    0 -0.33700370207E+02 -0.58140988393E+02 -0.16291476224E+03  0.17623084077E+03  0.00000000000E+00 0. -1.
         11    1    1    2    0    0  0.43251631737E+01  0.32535112994E+02 -0.92259991880E+02  0.97924188614E+02  0.00000000000E+00 0.  1.
</event>
<event>
 7    1  0.2878477E-009  0.1568898E+03  0.7561462E-02  0.1192254E+00
         -2   -1    0    0    0  501 -0.00000000000E+00  0.00000000000E+00  0.17393131207E+02  0.17393131207E+02  0.00000000000E+00 0. -1.
          2   -1    0    0  501    0  0.00000000000E+00 -0.00000000000E+00 -0.14343691273E+04  0.14343691273E+04  0.00000000000E+00 0.  1.
         25    2    1    2    0    0  0.73167145425E+01  0.11401067414E+03 -0.74930375608E+03  0.76821690888E+03  0.12509649110E+03 0.  0.
          5    1    3    3  502    0 -0.33754183743E+02  0.12083605569E+03 -0.50583847989E+03  0.52118205784E+03  0.41800000000E+01 0.  1.
         -5    1    3    3    0  502  0.41070898285E+02 -0.68253815501E+01 -0.24346527619E+03  0.24703485104E+03  0.41800000000E+01 0.  1.
        -11    1    1    2    0    0 -0.48369680623E+02 -0.44771632554E+02 -0.30919770976E+03  0.31614450621E+03  0.00000000000E+00 0. -1.
         11    1    1    2    0    0  0.41052966080E+02 -0.69239041588E+02 -0.35847453030E+03  0.36740084346E+03  0.00000000000E+00 0.  1.
</event>
<event>
 7    1  0.2878477E-009  0.8639317E+02  0.7561462E-02  0.1311829E+00
          2   -1    0    0  501    0  0.00000000000E+00  0.00000000000E+00  0.11307925228E+03  0.11307925228E+03  0.00000000000E+00 0.  1.
         -2   -1    0    0    0  501 -0.00000000000E+00 -0.00000000000E+00 -0.12418250093E+03  0.12418250093E+03  0.00000000000E+00 0. -1.
         25    2    1    2    0    0  0.27287049788E+02  0.13098076891E+02 -0.45034524523E+02  0.13635126886E+03  0.12508963752E+03 0.  0.
          5    1    3    3  502    0  0.29298103481E+02  0.49645701457E+02 -0.70799104395E+02  0.91395077132E+02  0.41800000000E+01 0. -1.
         -5    1    3    3    0  502 -0.20110536930E+01 -0.36547624566E+02  0.25764579872E+02  0.44956191724E+02  0.41800000000E+01 0. -1.
        -11    1    1    2    0    0  0.36820551941E+01 -0.38142353204E+02 -0.11963205760E+02  0.40143678586E+02  0.00000000000E+00 0. -1.
         11    1    1    2    0    0 -0.30969104982E+02  0.25044276313E+02  0.45894481631E+02  0.60766805771E+02  0.00000000000E+00 0.  1.
</event>
<event>
 7    1  0.2878477E-009  0.1075972E+03  0.7561462E-02  0.1265085E+00
          1   -1    0    0  501    0  0.00000000000E+00  0.00000000000E+00  0.61056111237E+03  0.61056111237E+03  0.00000000000E+00 0. -1.
         -1   -1    0    0    0  501 -0.00000000000E+00 -0.00000000000E+00 -0.22326994977E+02  0.22326994977E+02  0.00000000000E+00 0.  1.
         25    2    1    2    0    0  0.12953119713E+02 -0.40151338815E+02  0.28262467128E+03  0.31193604345E+03  0.12508987597E+03 0.  0.
          5    1    3    3  502    0  0.63089452512E+02 -0.17550618760E+02  0.88779861309E+02  0.11039764224E+03  0.41800000000E+01 0. -1.
         -5    1    3    3    0  502 -0.50136332799E+02 -0.22600720054E+02  0.19384480997E+03  0.20153840122E+03  0.41800000000E+01 0. -1.
        -11    1    1    2    0    0  0.13203528360E+02 -0.22747470712E+02  0.50941642636E+02  0.57330895156E+02  0.00000000000E+00 0.  1.
         11    1    1    2    0    0 -0.26156648073E+02  0.62898809527E+02  0.25466780348E+03  0.26362116874E+03  0.00000000000E+00 0. -1.
</event>
<event>
 7    1  0.2878477E-009  0.7275881E+02  0.7561462E-02  0.1350955E+00
          2   -1    0    0  501    0  0.00000000000E+00  0.00000000000E+00  0.85572630622E+03  0.85572630622E+03  0.00000000000E+00 0. -1.
         -2   -1    0    0    0  501 -0.00000000000E+00 -0.00000000000E+00 -0.17608865415E+02  0.17608865415E+02  0.00000000000E+00 0.  1.
         25    2    1    2    0    0  0.48491803892E+02 -0.28299506568E+02  0.45199923442E+03  0.47233811719E+03  0.12509065481E+03 0.  0.
          5    1    3    3  502    0  0.37259075196E+02 -0.15398074726E+02  0.31145370213E+02  0.51116004103E+02  0.41800000000E+01 0. -1.
         -5    1    3    3    0  502  0.11232728696E+02 -0.12901431841E+02  0.42085386421E+03  0.42122211309E+03  0.41800000000E+01 0. -1.
        -11    1    1    2    0    0 -0.43806797635E+02  0.49247113000E+02  0.36493522350E+03  0.37083962978E+03  0.00000000000E+00 0. -1.
         11    1    1    2    0    0 -0.46850062577E+01 -0.20947606433E+02  0.21182982883E+02  0.30157424670E+02  0.00000000000E+00 0.  1.
</event>
<event>
 7    1  0.2878477E-009  0.1186111E+03  0.7561462E-02  0.1245406E+00
          2   -1    0    0  501    0  0.00000000000E+00  0.00000000000E+00  0.98623041743E+03  0.98623041743E+03  0.00000000000E+00 0. -1.
         -2   -1    0    0    0  501 -0.00000000000E+00 -0.00000000000E+00 -0.21180366596E+02  0.21180366596E+02  0.00000000000E+00 0.  1.
         25    2    1    2    0    0 -0.28542367684E+01  0.31999759234E+02  0.29505561667E+03  0.32208413155E+03  0.12509292390E+03 0.  0.
          5    1    3    3  502    0  0.29176118340E+02  0.49842658238E+02  0.57235988061E+02  0.81418469593E+02  0.41800000000E+01 0. -1.
         -5    1    3    3    0  502 -0.32030355108E+02 -0.17842899004E+02  0.23781962861E+03  0.24066566196E+03  0.41800000000E+01 0. -1.
        -11    1    1    2    0    0  0.62261323893E+02  0.17952102521E+02  0.35840931779E+03  0.36421969952E+03  0.00000000000E+00 0. -1.
         11    1    1    2    0    0 -0.59407087124E+02 -0.49951861755E+02  0.31158511637E+03  0.32110695296E+03  0.00000000000E+00 0.  1.
</event>
<event>
 7    1  0.2878477E-009  0.1751171E+03  0.7561462E-02  0.1172614E+00
          1   -1    0    0  501    0  0.00000000000E+00  0.00000000000E+00  0.95606013517E+03  0.95606013517E+03  0.00000000000E+00 0. -1.
         -1   -1    0    0    0  501 -0.00000000000E+00 -0.00000000000E+00 -0.40539332698E+02  0.40539332698E+02  0.00000000000E+00 0.  1.
         25    2    1    2    0    0 -0.13183807588E+03 -0.71121418334E+02  0.65015996596E+03  0.67881978586E+03  0.12509510757E+03 0.  0.
          5    1    3    3  502    0 -0.61700916400E+01 -0.52076246988E+02  0.33272941154E+03  0.33686249307E+03  0.41800000000E+01 0. -1.
         -5    1    3    3    0  502 -0.12566798424E+03 -0.19045171346E+02  0.31743055441E+03  0.34195729279E+03  0.41800000000E+01 0. -1.
        -11    1    1    2    0    0  0.10085822416E+03  0.92748691282E+01  0.19118087587E+03  0.21635279493E+03  0.00000000000E+00 0. -1.
         11    1    1    2    0    0  0.30979851724E+02  0.61846549206E+02  0.74179960647E+02  0.10142688708E+03  0.00000000000E+00 0.  1.
</event>
<event>
 7    1  0.2878477E-009  0.1154425E+03  0.7561462E-02  0.1250811E+00
          1   -1    0    0  501    0  0.00000000000E+00  0.00000000000E+00  0.33220204946E+02  0.33220204946E+02  0.00000000000E+00 0. -1.
         -1   -1    0    0    0  501 -0.00000000000E+00 -0.00000000000E+00 -0.54056015108E+03  0.54056015108E+03  0.00000000000E+00 0.  1.
         25    2    1    2    0    0 -0.70682370859E+02 -0.35972015928E+02 -0.29014027732E+03  0.32576330260E+03  0.12510142012E+03 0.  0.
          5    1    3    3  502    0 -0.35622782084E+02  0.23399335461E+02 -0.20618012079E+02  0.47529846682E+02  0.41800000000E+01 0.  1.
         -5    1    3    3    0  502 -0.35059588775E+02 -0.59371351389E+02 -0.26952226524E+03  0.27823345592E+03  0.41800000000E+01 0.  1.
        -11    1    1    2    0    0  0.43421871182E+02 -0.26467190719E+02 -0.79285925828E+02  0.94192510934E+02  0.00000000000E+00 0. -1.
         11    1    1    2    0    0  0.27260499677E+02  0.62439206646E+02 -0.13791374298E+03  0.15382454249E+03  0.00000000000E+00 0.  1.
</event>
<event>
 7    1  0.2878477E-009  0.8876707E+02  0.7561462E-02  0.1305865E+00
         -1   -1    0    0    0  501 -0.00000000000E+00  0.00000000000E+00  0.23977263867E+02  0.23977263867E+02  0.00000000000E+00 0.  1.
          1   -1    0    0  501    0  0.00000000000E+00 -0.00000000000E+00 -0.52412656391E+03  0.52412656391E+03  0.00000000000E+00 0. -1.
         25    2    1    2    0    0  0.63127679082E+01 -0.30013967704E+02 -0.32174532774E+03  0.34656727600E+03  0.12509249207E+03 0.  0.
          5    1    3    3  502    0  0.44221369163E+02 -0.89176560135E+01 -0.28774488102E+03  0.29128962054E+03  0.41800000000E+01 0. -1.
         -5    1    3    3    0  502 -0.37908601255E+02 -0.21096311690E+02 -0.34000446723E+02  0.55277655463E+02  0.41800000000E+01 0. -1.
        -11    1    1    2    0    0  0.22359606076E+02 -0.20646145001E+02 -0.32886155011E+02  0.44807527032E+02  0.00000000000E+00 0. -1.
         11    1    1    2    0    0 -0.28672373985E+02  0.50660112705E+02 -0.14551781729E+03  0.15672902475E+03  0.00000000000E+00 0.  1.
</event>
<event>
 7    1  0.2878477E-009  0.1773524E+03  0.7561462E-02  0.1170390E+00
         -1   -1    0    0    0  501 -0.00000000000E+00  0.00000000000E+00  0.36768001157E+02  0.36768001157E+02  0.00000000000E+00 0.  1.
          1   -1    0    0  501    0  0.00000000000E+00 -0.00000000000E+00 -0.11656844405E+04  0.11656844405E+04  0.00000000000E+00 0. -1.
         25    2    1    2    0    0 -0.84237446394E+02 -0.12644486542E+03 -0.33095009110E+03  0.38504519628E+03  0.12509032342E+03 0.  0.
          5    1    3    3  502    0 -0.65101135145E+02 -0.15841505947E+02 -0.20774923433E+03  0.21832619603E+03  0.41800000000E+01 0. -1.
         -5    1    3    3    0  502 -0.19136311249E+02 -0.11060335948E+03 -0.12320085677E+03  0.16671900025E+03  0.41800000000E+01 0. -1.
        -11    1    1    2    0    0  0.10246693104E+03  0.10037810277E+03 -0.69464912079E+03  0.70930433277E+03  0.00000000000E+00 0.  1.
         11    1    1    2    0    0 -0.18229484644E+02  0.26066762655E+02 -0.10331722746E+03  0.10810291261E+03  0.00000000000E+00 0. -1.
</event>
<event>
 7    1  0.2878477E-009  0.1831974E+03  0.7561462E-02  0.1164744E+00
         -3   -1    0    0    0  501 -0.00000000000E+00  0.00000000000E+00  0.12232453914E+03  0.12232453914E+03  0.00000000000E+00 0.  1.
          3   -1    0    0  501    0  0.00000000000E+00 -0.00000000000E+00 -0.28408529710E+03  0.28408529710E+03  0.00000000000E+00 0. -1.
         25    2    1    2    0    0 -0.76903013595E+01  0.15872229566E+03 -0.89300425625E+02  0.22106188599E+03  0.12506751595E+03 0.  0.
          5    1    3    3  502    0  0.43745921806E+02  0.10990445935E+02 -0.26223259322E+02  0.52341449215E+02  0.41800000000E+01 0.  1.
         -5    1    3    3    0  502 -0.51436223165E+02  0.14773184972E+03 -0.63077166302E+02  0.16872043677E+03  0.41800000000E+01 0.  1.
        -11    1    1    2    0    0 -0.17555423371E+02 -0.81376828291E+02 -0.12282900945E+02  0.84150167724E+02  0.00000000000E+00 0.  1.
         11    1    1    2    0    0  0.25245724730E+02 -0.77345467364E+02 -0.60177431398E+02  0.10119778253E+03  0.00000000000E+00 0. -1.
</event>
<event>
 7    1  0.2878477E-009  0.1121516E+03  0.7561462E-02  0.1256637E+00
         -1   -1    0    0    0  501 -0.00000000000E+00  0.00000000000E+00  0.37516248693E+03  0.37516248693E+03  0.00000000000E+00 0.  1.
          1   -1    0    0  501    0  0.00000000000E+00 -0.00000000000E+00 -0.40383413506E+02  0.40383413506E+02  0.00000000000E+00 0. -1.
         25    2    1    2    0    0 -0.50836362717E+02  0.23388611277E+02  0.16299953233E+03  0.21295211760E+03  0.12509354075E+03 0.  0.
          5    1    3    3  502    0 -0.32174602359E+01  0.68113981858E+02  0.60081504249E+02  0.90978712498E+02  0.41800000000E+01 0. -1.
         -5    1    3    3    0  502 -0.47618902481E+02 -0.44725370580E+02  0.10291802808E+03  0.12197340510E+03  0.41800000000E+01 0. -1.
        -11    1    1    2    0    0  0.17735282476E+02 -0.46754469817E+02  0.37977895902E+02  0.62792047821E+02  0.00000000000E+00 0. -1.
         11    1    1    2    0    0  0.33101080241E+02  0.23365858540E+02  0.13380164518E+03  0.13980173501E+03  0.00000000000E+00 0.  1.
</event>
<event>
 7    1  0.2878477E-009  0.9652788E+02  0.7561462E-02  0.1287772E+00
         -2   -1    0    0    0  501 -0.00000000000E+00  0.00000000000E+00  0.75792057802E+02  0.75792057802E+02  0.00000000000E+00 0.  1.
          2   -1    0    0  501    0  0.00000000000E+00 -0.00000000000E+00 -0.24876417762E+03  0.24876417762E+03  0.00000000000E+00 0. -1.
         25    2    1    2    0    0 -0.13766881369E+02  0.63492293882E+02 -0.31467626273E+02  0.14441924768E+03  0.12508360880E+03 0.  0.
          5    1    3    3  502    0 -0.23954669890E+02  0.76899991250E+01  0.43434648451E+02  0.50368674611E+02  0.41800000000E+01 0.  1.
         -5    1    3    3    0  502  0.10187788521E+02  0.55802294757E+02 -0.74902274724E+02  0.94050573065E+02  0.41800000000E+01 0.  1.
        -11    1    1    2    0    0 -0.36166265978E+02 -0.44278292227E+02 -0.83812797810E+02  0.10145516761E+03  0.00000000000E+00 0. -1.
         11    1    1    2    0    0  0.49933147347E+02 -0.19214001655E+02 -0.57691695736E+02  0.78681820140E+02  0.00000000000E+00 0.  1.
</event>
<event>
 7    1  0.2878477E-009  0.1007457E+03  0.7561462E-02  0.1278736E+00
         -2   -1    0    0    0  501 -0.00000000000E+00  0.00000000000E+00  0.22873661499E+03  0.22873661499E+03  0.00000000000E+00 0. -1.
          2   -1    0    0  501    0  0.00000000000E+00 -0.00000000000E+00 -0.60487834647E+02  0.60487834647E+02  0.00000000000E+00 0.  1.
         25    2    1    2    0    0 -0.18777707759E+02 -0.42701186759E+02  0.94450185855E+02  0.16353659361E+03  0.12508951268E+03 0.  0.
          5    1    3    3  502    0  0.42759161009E+02 -0.48467217629E+02  0.22435182813E+02  0.68543612852E+02  0.41800000000E+01 0. -1.
         -5    1    3    3    0  502 -0.61536868767E+02  0.57660308706E+01  0.72015003042E+02  0.94992980755E+02  0.41800000000E+01 0. -1.
        -11    1    1    2    0    0  0.39347965798E+02  0.19992687180E+02 -0.17416136444E+01  0.44170161549E+02  0.00000000000E+00 0.  1.
         11    1    1    2    0    0 -0.20570258040E+02  0.22708499579E+02  0.75540208134E+02  0.81517694483E+02  0.00000000000E+00 0. -1.
</event>
<event>
 7    1  0.2878477E-009  0.1017814E+03  0.7561462E-02  0.1276594E+00
         -2   -1    0    0    0  501 -0.00000000000E+00  0.00000000000E+00  0.21807996893E+02  0.21807996893E+02  0.00000000000E+00 0. -1.
          2   -1    0    0  501    0  0.00000000000E+00 -0.00000000000E+00 -0.68725131978E+03  0.68725131978E+03  0.00000000000E+00 0.  1.
         25    2    1    2    0    0 -0.79054936702E+01  0.36829867256E+02 -0.25221498268E+03  0.28403825850E+03  0.12508556610E+03 0.  0.
          5    1    3    3  502    0  0.16705959972E+02 -0.31283571605E+02 -0.17290744627E+03  0.17655653012E+03  0.41800000000E+01 0. -1.
         -5    1    3    3    0  502 -0.24611453642E+02  0.68113438861E+02 -0.79307536414E+02  0.10748172838E+03  0.41800000000E+01 0. -1.
        -11    1    1    2    0    0 -0.38163206527E+02 -0.30403954104E+02 -0.27165127692E+03  0.27599863588E+03  0.00000000000E+00 0.  1.
         11    1    1    2    0    0  0.46068700198E+02 -0.64259131517E+01 -0.14157706328E+03  0.14902242229E+03  0.00000000000E+00 0. -1.
</event>
<event>
 7    1  0.2878477E-009  0.1629165E+03  0.7561462E-02  0.1185443E+00
          1   -1    0    0  501    0  0.00000000000E+00  0.00000000000E+00  0.60292951276E+03  0.60292951276E+03  0.00000000000E+00 0. -1.
         -1   -1    0    0    0  501 -0.00000000000E+00 -0.00000000000E+00 -0.61119382852E+02  0.61119382852E+02  0.00000000000E+00 0.  1.
         25    2    1    2    0    0 -0.13715706264E+03 -0.38091511909E+02  0.16476881661E+03  0.25111720884E+03  0.12509223212E+03 0.  0.
          5    1    3    3  502    0 -0.12833241901E+03  0.75650297390E+01  0.72351834975E+02  0.14757608163E+03  0.41800000000E+01 0. -1.
         -5    1    3    3    0  502 -0.88246436288E+01 -0.45656541648E+02  0.92416981634E+02  0.10354112721E+03  0.41800000000E+01 0. -1.
        -11    1    1    2    0    0  0.42042190241E+02 -0.11037723686E+02  0.21056922441E+03  0.21500877976E+03  0.00000000000E+00 0. -1.
         11    1    1    2    0    0  0.95114872398E+02  0.49129235595E+02  0.16647208888E+03  0.19792290701E+03  0.00000000000E+00 0.  1.
</event>
<event>
 7    1  0.2878477E-009  0.1133864E+03  0.7561462E-02  0.1254424E+00
         -1   -1    0    0    0  501 -0.00000000000E+00  0.00000000000E+00  0.46385551811E+02  0.46385551811E+02  0.00000000000E+00 0.  1.
          1   -1    0    0  501    0  0.00000000000E+00 -0.00000000000E+00 -0.27849274616E+03  0.27849274616E+03  0.00000000000E+00 0. -1.
         25    2    1    2    0    0 -0.14076727199E+02 -0.16641794599E+02 -0.13265869860E+03  0.18363061561E+03  0.12508704608E+03 0.  0.
          5    1    3    3  502    0  0.44044716247E+02  0.29037385942E+02 -0.56422253853E+02  0.77356641225E+02  0.41800000000E+01 0.  1.
         -5    1    3    3    0  502 -0.58121443446E+02 -0.45679180541E+02 -0.76236444750E+02  0.10627397438E+03  0.41800000000E+01 0.  1.
        -11    1    1    2    0    0  0.92045907184E+01 -0.40971011146E+02 -0.35008718445E+02  0.54671369214E+02  0.00000000000E+00 0.  1.
         11    1    1    2    0    0  0.48721364803E+01  0.57612805744E+02 -0.64439777296E+02  0.86576313144E+02  0.00000000000E+00 0. -1.
</event>
<event>
 7    1  0.2878477E-009  0.1559375E+03  0.7561462E-02  0.1193361E+00
          4   -1    0    0  501    0  0.00000000000E+00  0.00000000000E+00  0.19540140979E+03  0.19540140979E+03  0.00000000000E+00 0.  1.
         -4   -1    0    0    0  501 -0.00000000000E+00 -0.00000000000E+00 -0.15430063561E+03  0.15430063561E+03  0.00000000000E+00 0. -1.
         25    2    1    2    0    0 -0.13154554069E+03 -0.11656127041E+01 -0.11371297895E+02  0.18188482459E+03  0.12508874878E+03 0.  0.
          5    1    3    3  502    0 -0.76546214641E+02 -0.59419895838E+02 -0.25818549868E+02  0.10036990044E+03  0.41800000000E+01 0.  1.
         -5    1    3    3    0  502 -0.54999326051E+02  0.58254283134E+02  0.14447251973E+02  0.81514924149E+02  0.41800000000E+01 0.  1.
        -11    1    1    2    0    0  0.12439497665E+03 -0.59939897236E+01  0.73408078009E+02  0.14456411742E+03  0.00000000000E+00 0.  1.
         11    1    1    2    0    0  0.71505640398E+01  0.71596024276E+01 -0.20936005934E+02  0.23253103394E+02  0.00000000000E+00 0. -1.
</event>
<event>
 7    1  0.2878477E-009  0.9817824E+02  0.7561462E-02  0.1284174E+00
          2   -1    0    0  501    0  0.00000000000E+00  0.00000000000E+00  0.29532773058E+03  0.29532773058E+03  0.00000000000E+00 0. -1.
         -2   -1    0    0    0  501 -0.00000000000E+00 -0.00000000000E+00 -0.49871454516E+02  0.49871454516E+02  0.00000000000E+00 0.  1.
         25    2    1    2    0    0 -0.98603152755E+01  0.20500733901E+02  0.65718694833E+02  0.14310487818E+03  0.12507019389E+03 0.  0.
          5    1    3    3  502    0 -0.52869799132E+02  0.30194274868E+02  0.76169807615E+02  0.97602366197E+02  0.41800000000E+01 0. -1.
         -5    1    3    3    0  502  0.43009483856E+02 -0.96935409669E+01 -0.10451112782E+02  0.45502511979E+02  0.41800000000E+01 0. -1.
        -11    1    1    2    0    0  0.25792102167E+02 -0.50708586283E+02  0.94979334065E+02  0.11071434937E+03  0.00000000000E+00 0. -1.
         11    1    1    2    0    0 -0.15931786892E+02  0.30207852382E+02  0.84758247168E+02  0.91379957551E+02  0.00000000000E+00 0.  1.
</event>
<event>
 7    1  0.2878477E-009  0.1962491E+03  0.7561462E-02  0.1152943E+00
          2   -1    0    0  501    0  0.00000000000E+00  0.00000000000E+00  0.18920052878E+04  0.18920052878E+04  0.00000000000E+00 0. -1.
         -2   -1    0    0    0  501 -0.00000000000E+00 -0.00000000000E+00 -0.25021804504E+02  0.25021804504E+02  0.00000000000E+00 0.  1.
         25    2    1    2    0    0 -0.13808122659E+03 -0.10248140430E+03  0.12992230535E+04  0.13165092932E+04  0.12508922018E+03 0.  0.
          5    1    3    3  502    0 -0.22660804643E+02  0.18652763549E+02  0.44847886605E+03  0.44945767693E+03  0.41800000000E+01 0. -1.
         -5    1    3    3    0  502 -0.11542042194E+03 -0.12113416785E+03  0.85074418743E+03  0.86705161626E+03  0.41800000000E+01 0. -1.
        -11    1    1    2    0    0  0.12707572393E+03  0.41746327882E+02  0.39908273221E+03  0.42090144055E+03  0.00000000000E+00 0.  1.
         11    1    1    2    0    0  0.11005502659E+02  0.60735076416E+02  0.16867769763E+03  0.17961635859E+03  0.00000000000E+00 0. -1.
</event>
<event>
 7    1  0.2878477E-009  0.1314265E+03  0.7561462E-02  0.1225354E+00
          1   -1    0    0  501    0  0.00000000000E+00  0.00000000000E+00  0.83788545996E+03  0.83788545996E+03  0.00000000000E+00 0. -1.
         -1   -1    0    0    0  501 -0.00000000000E+00 -0.00000000000E+00 -0.29405142909E+02  0.29405142909E+02  0.00000000000E+00 0.  1.
         25    2    1    2    0    0  0.10027168894E+03 -0.51271011739E+02  0.45462917796E+03  0.48478581079E+03  0.12508582911E+03 0.  0.
          5    1    3    3  502    0  0.90077750626E+02 -0.79244920905E+02  0.42835153702E+03  0.44485533639E+03  0.41800000000E+01 0. -1.
         -5    1    3    3    0  502  0.10193938317E+02  0.27973909167E+02  0.26277640936E+02  0.39930474398E+02  0.41800000000E+01 0. -1.
        -11    1    1    2    0    0 -0.90772114341E+02  0.48082255809E+02  0.35740452141E+03  0.37187292451E+03  0.00000000000E+00 0. -1.
         11    1    1    2    0    0 -0.94995746017E+01  0.31887559303E+01 -0.35533823150E+01  0.10631867563E+02  0.00000000000E+00 0.  1.
</event>
<event>
 7    1  0.2878477E-009  0.1615064E+03  0.7561462E-02  0.1187006E+00
         -2   -1    0    0    0  501 -0.00000000000E+00  0.00000000000E+00  0.13931090125E+03  0.13931090125E+03  0.00000000000E+00 0.  1.
          2   -1    0    0  501    0  0.00000000000E+00 -0.00000000000E+00 -0.19547703774E+03  0.19547703774E+03  0.00000000000E+00 0. -1.
         25    2    1    2    0    0 -0.61656055623E+02  0.10644631536E+03 -0.11815899704E+02  0.17584839354E+03  0.12510297669E+03 0.  0.
          5    1    3    3  502    0 -0.64908315616E+02 -0.28448941133E+01 -0.13155196275E+02  0.66420738084E+02  0.41800000000E+01 0.  1.
         -5    1    3    3    0  502  0.32522599935E+01  0.10929120948E+03  0.13392965716E+01  0.10942765546E+03  0.41800000000E+01 0.  1.
        -11    1    1    2    0    0  0.43436678052E+02 -0.30985694250E+01  0.33299508862E+01  0.43674188093E+02  0.00000000000E+00 0. -1.
         11    1    1    2    0    0  0.18219377570E+02 -0.10334774594E+03 -0.47680187677E+02  0.11526535736E+03  0.00000000000E+00 0.  1.
</event>
<event>
 7    1  0.2878477E-009  0.1559129E+03  0.7561462E-02  0.1193390E+00
          2   -1    0    0  501    0  0.00000000000E+00  0.00000000000E+00  0.40876064736E+03  0.40876064736E+03  0.00000000000E+00 0.  1.
         -2   -1    0    0    0  501 -0.00000000000E+00 -0.00000000000E+00 -0.89104942051E+02  0.89104942051E+02  0.00000000000E+00 0. -1.
         25    2    1    2    0    0  0.11832822167E+03  0.81992371773E+02  0.25035208330E+03  0.31472170351E+03  0.12509703424E+03 0.  0.
          5    1    3    3  502    0  0.22994542835E+02  0.12414112722E+02 -0.10429937868E+02  0.28444950322E+02  0.41800000000E+01 0. -1.
         -5    1    3    3    0  502  0.95333678839E+02  0.69578259051E+02  0.26078202117E+03  0.28627675319E+03  0.41800000000E+01 0. -1.
        -11    1    1    2    0    0 -0.94560770633E+02 -0.99861650827E+02  0.67895563308E+02  0.15337501806E+03  0.00000000000E+00 0. -1.
         11    1    1    2    0    0 -0.23767451041E+02  0.17869279053E+02  0.14080586995E+01  0.29768867835E+02  0.00000000000E+00 0.  1.
</event>
<event>
 7    1  0.2878477E-009  0.8483453E+02  0.7561462E-02  0.1315866E+00
         -2   -1    0    0    0  501 -0.00000000000E+00  0.00000000000E+00  0.18259685161E+03  0.18259685161E+03  0.00000000000E+00 0.  1.
          2   -1    0    0  501    0  0.00000000000E+00 -0.00000000000E+00 -0.91336372146E+02  0.91336372146E+02  0.00000000000E+00 0. -1.
         25    2    1    2    0    0  0.71847495445E+01 -0.29868204948E+02 -0.15777982203E+02  0.12976788297E+03  0.12508808271E+03 0.  0.
          5    1    3    3  502    0  0.36722799846E+02 -0.16804805764E+02  0.45126492340E+02  0.60702868435E+02  0.41800000000E+01 0. -1.
         -5    1    3    3    0  502 -0.29538050302E+02 -0.13063399184E+02 -0.60904474543E+02  0.69065014538E+02  0.41800000000E+01 0. -1.
        -11    1    1    2    0    0 -0.16394151799E+02 -0.30931597702E+02  0.41536571821E+02  0.54321439122E+02  0.00000000000E+00 0.  1.
         11    1    1    2    0    0  0.92094022546E+01  0.60799802651E+02  0.65501889844E+02  0.89843901659E+02  0.00000000000E+00 0. -1.
</event>
<event>
 7    1  0.2878477E-009  0.1025743E+03  0.7561462E-02  0.1274974E+00
          1   -1    0    0  501    0  0.00000000000E+00  0.00000000000E+00  0.40498614567E+03  0.40498614567E+03  0.00000000000E+00 0. -1.
         -1   -1    0    0    0  501 -0.00000000000E+00 -0.00000000000E+00 -0.30463744283E+02  0.30463744283E+02  0.00000000000E+00 0.  1.
         25    2    1    2    0    0  0.14289385551E+02 -0.14076844910E+01  0.17446336526E+03  0.21517330491E+03  0.12512360773E+03 0.  0.
          5    1    3    3  502    0 -0.16637296370E+01  0.61096124089E+02  0.82168000792E+02  0.10249174176E+03  0.41800000000E+01 0. -1.
         -5    1    3    3    0  502  0.15953115188E+02 -0.62503808579E+02  0.92295364468E+02  0.11268156315E+03  0.41800000000E+01 0. -1.
        -11    1    1    2    0    0  0.13677080602E+02 -0.32518103843E+02  0.14794769715E+03  0.15209540000E+03  0.00000000000E+00 0. -1.
         11    1    1    2    0    0 -0.27966466154E+02  0.33925788334E+02  0.52111338983E+02  0.68181185043E+02  0.00000000000E+00 0.  1.
</event>
<event>
 7    1  0.2878477E-009  0.8010023E+02  0.7561462E-02  0.1328767E+00
         -1   -1    0    0    0  501 -0.00000000000E+00  0.00000000000E+00  0.16286863038E+02  0.16286863038E+02  0.00000000000E+00 0.  1.
          1   -1    0    0  501    0  0.00000000000E+00 -0.00000000000E+00 -0.74163902712E+03  0.74163902712E+03  0.00000000000E+00 0. -1.
         25    2    1    2    0    0  0.34851732213E+01  0.19062625338E+02 -0.40137611889E+03  0.42086267763E+03  0.12508826678E+03 0.  0.
          5    1    3    3  502    0 -0.25246825182E+02  0.40796127183E+02 -0.57166353092E+02  0.74747511670E+02  0.41800000000E+01 0.  1.
         -5    1    3    3    0  502  0.28731998403E+02 -0.21733501845E+02 -0.34420976580E+03  0.34611516596E+03  0.41800000000E+01 0.  1.
        -11    1    1    2    0    0  0.24495763333E+01  0.28116887711E+02 -0.38965192387E+02  0.48112846689E+02  0.00000000000E+00 0.  1.
         11    1    1    2    0    0 -0.59347495546E+01 -0.47179513049E+02 -0.28501085281E+03  0.28895036585E+03  0.00000000000E+00 0. -1.
</event>
<event>
 7    1  0.2887368E-009  0.1027741E+03  0.7561462E-02  0.1274568E+00
         -1   -1    0    0    0  501 -0.00000000000E+00  0.00000000000E+00  0.13453558618E+03  0.13453558618E+03  0.00000000000E+00 0.  1.
          1   -1    0    0  501    0  0.00000000000E+00 -0.00000000000E+00 -0.13422808141E+03  0.13422808141E+03  0.00000000000E+00 0. -1.
         25    2    1    2    0    0  0.23104837355E+02  0.25127784327E+02 -0.71106469596E+02  0.14788157062E+03  0.12509032679E+03 0.  0.
          5    1    3    3  502    0 -0.17865325484E+02  0.65737949035E+02 -0.55519391796E+02  0.87980242460E+02  0.41800000000E+01 0. -1.
         -5    1    3    3    0  502  0.40970162839E+02 -0.40610164707E+02 -0.15587077800E+02  0.59901328157E+02  0.41800000000E+01 0. -1.
        -11    1    1    2    0    0  0.25995935867E+02 -0.54396926930E+01  0.61595885266E+02  0.67077805718E+02  0.00000000000E+00 0.  1.
         11    1    1    2    0    0 -0.49100773222E+02 -0.19688091634E+02  0.98180890966E+01  0.53804291248E+02  0.00000000000E+00 0. -1.
</event>
<event>
 7    1  0.2878477E-009  0.8232420E+02  0.7561462E-02  0.1322582E+00
          3   -1    0    0  501    0  0.00000000000E+00  0.00000000000E+00  0.15866197940E+03  0.15866197940E+03  0.00000000000E+00 0. -1.
         -3   -1    0    0    0  501 -0.00000000000E+00 -0.00000000000E+00 -0.15442228094E+03  0.15442228094E+03  0.00000000000E+00 0.  1.
         25    2    1    2    0    0  0.69068216542E+01 -0.70630788304E+02 -0.87142476735E+02  0.16815904589E+03  0.12508893245E+03 0.  0.
          5    1    3    3  502    0  0.64784175274E+01 -0.37888683120E+02 -0.11726221920E+03  0.12347235583E+03  0.41800000000E+01 0. -1.
         -5    1    3    3    0  502  0.42840412679E+00 -0.32742105184E+02  0.30119742469E+02  0.44686690058E+02  0.41800000000E+01 0. -1.
        -11    1    1    2    0    0 -0.30468204657E+02  0.59644062188E+02  0.21464842461E+02  0.70331110550E+02  0.00000000000E+00 0.  1.
         11    1    1    2    0    0  0.23561383003E+02  0.10986726116E+02  0.69917332737E+02  0.74594103901E+02  0.00000000000E+00 0. -1.
</event>
<event>
 7    1  0.2878477E-009  0.1680115E+03  0.7561462E-02  0.1179938E+00
         -2   -1    0    0    0  501 -0.00000000000E+00  0.00000000000E+00  0.10660033427E+04  0.10660033427E+04  0.00000000000E+00 0.  1.
          2   -1    0    0  501    0  0.00000000000E+00 -0.00000000000E+00 -0.29705828778E+02  0.29705828778E+02  0.00000000000E+00 0. -1.
         25    2    1    2    0    0 -0.80783543103E+02  0.11021989826E+03  0.64631385519E+03  0.67233845704E+03  0.12507195769E+03 0.  0.
          5    1    3    3  502    0  0.26639328133E+02 -0.51518864712E+01  0.88176907346E+02  0.92351692604E+02  0.41800000000E+01 0. -1.
         -5    1    3    3    0  502 -0.10742287124E+03  0.11537178474E+03  0.55813694784E+03  0.57998676444E+03  0.41800000000E+01 0. -1.
        -11    1    1    2    0    0  0.67213696606E+02 -0.37636304646E+02  0.28356950232E+03  0.29384661830E+03  0.00000000000E+00 0.  1.
         11    1    1    2    0    0  0.13569846496E+02 -0.72583593618E+02  0.10641415644E+03  0.12952409616E+03  0.00000000000E+00 0. -1.
</event>
<event>
 7    1  0.3404439E-009  0.5565654E+02  0.7561462E-02  0.1417019E+00
         -2   -1    0    0    0  501 -0.00000000000E+00  0.00000000000E+00  0.53806964990E+02  0.53806964990E+02  0.00000000000E+00 0.  1.
          2   -1    0    0  501    0  0.00000000000E+00 -0.00000000000E+00 -0.26517712661E+03  0.26517712661E+03  0.00000000000E+00 0. -1.
         25    2    1    2    0    0 -0.28210775518E+01 -0.13021611314E+01 -0.18499387449E+03  0.22333633840E+03  0.12508689919E+03 0.  0.
          5    1    3    3  502    0 -0.38906199160E+01  0.31533704825E+02 -0.18740999607E+03  0.19013019352E+03  0.41800000000E+01 0. -1.
         -5    1    3    3    0  502  0.10695423642E+01 -0.32835865956E+02  0.24161215778E+01  0.33206144875E+02  0.41800000000E+01 0. -1.
        -11    1    1    2    0    0 -0.21272180311E+02  0.47876530116E+01 -0.54352330766E+02  0.58562813596E+02  0.00000000000E+00 0. -1.
         11    1    1    2    0    0  0.24093257863E+02 -0.34854918802E+01  0.27976043635E+02  0.37084939606E+02  0.00000000000E+00 0.  1.
</event>
<event>
 7    1  0.2878477E-009  0.1352304E+03  0.7561462E-02  0.1219895E+00
         -1   -1    0    0    0  501 -0.00000000000E+00  0.00000000000E+00  0.60658061014E+02  0.60658061014E+02  0.00000000000E+00 0.  1.
          1   -1    0    0  501    0  0.00000000000E+00 -0.00000000000E+00 -0.34466582359E+03  0.34466582359E+03  0.00000000000E+00 0. -1.
         25    2    1    2    0    0 -0.76270341023E+02  0.40065788386E+02 -0.96600566701E+02  0.18000393272E+03  0.12508922411E+03 0.  0.
          5    1    3    3  502    0 -0.70891003621E+01 -0.39277034581E+02 -0.50771146691E+01  0.40449848984E+02  0.41800000000E+01 0.  1.
         -5    1    3    3    0  502 -0.69181240661E+02  0.79342822967E+02 -0.91523452032E+02  0.13955408374E+03  0.41800000000E+01 0.  1.
        -11    1    1    2    0    0  0.11775033143E+02 -0.57077107108E+02 -0.92121063529E+02  0.10900797176E+03  0.00000000000E+00 0.  1.
         11    1    1    2    0    0  0.64495307880E+02  0.17011318722E+02 -0.95286132343E+02  0.11631198012E+03  0.00000000000E+00 0. -1.
</event>
<event>
 7    1  0.2878477E-009  0.1088345E+03  0.7561462E-02  0.1262743E+00
          1   -1    0    0  501    0  0.00000000000E+00  0.00000000000E+00  0.26911100842E+03  0.26911100842E+03  0.00000000000E+00 0. -1.
         -1   -1    0    0    0  501 -0.00000000000E+00 -0.00000000000E+00 -0.74743569256E+02  0.74743569256E+02  0.00000000000E+00 0.  1.
         25    2    1    2    0    0 -0.24322460333E+02  0.29078891500E+02  0.65910216942E+01  0.13087273072E+03  0.12508823315E+03 0.  0.
          5    1    3    3  502    0  0.36864316137E+02  0.51221708833E+02  0.15350658699E+02  0.65082688808E+02  0.41800000000E+01 0. -1.
         -5    1    3    3    0  502 -0.61186776470E+02 -0.22142817332E+02 -0.87596370046E+01  0.65790041911E+02  0.41800000000E+01 0. -1.
        -11    1    1    2    0    0  0.52841282467E+02 -0.29849084469E+02  0.16701007439E+03  0.17769505880E+03  0.00000000000E+00 0. -1.
         11    1    1    2    0    0 -0.28518822134E+02  0.77019296883E+00  0.20766343083E+02  0.35286788153E+02  0.00000000000E+00 0.  1.
</event>
<event>
 7    1  0.3103353E-009  0.1219773E+03  0.7561462E-02  0.1239870E+00
          2   -1    0    0  501    0  0.00000000000E+00  0.00000000000E+00  0.90206668021E+02  0.90206668021E+02  0.00000000000E+00 0. -1.
         -2   -1    0    0    0  501 -0.00000000000E+00 -0.00000000000E+00 -0.20005709221E+03  0.20005709221E+03  0.00000000000E+00 0.  1.
         25    2    1    2    0    0 -0.29704275326E+02 -0.72735444581E+02 -0.66947269988E+02  0.16217833426E+03  0.12508831389E+03 0.  0.
          5    1    3    3  502    0 -0.22265098776E+02  0.30758532515E+02 -0.39101427632E+02  0.54664577094E+02  0.41800000000E+01 0. -1.
         -5    1    3    3    0  502 -0.74391765502E+01 -0.10349397710E+03 -0.27845842356E+02  0.10751375716E+03  0.41800000000E+01 0. -1.
        -11    1    1    2    0    0 -0.89223793148E+01  0.60841765077E+02 -0.58395191628E+02  0.84801695947E+02  0.00000000000E+00 0.  1.
         11    1    1    2    0    0  0.38626654641E+02  0.11893679504E+02  0.15492037430E+02  0.43283730022E+02  0.00000000000E+00 0. -1.
</event>
<event>
 7    1  0.2878477E-009  0.1259162E+03  0.7561462E-02  0.1233644E+00
         -3   -1    0    0    0  501 -0.00000000000E+00  0.00000000000E+00  0.28083526078E+03  0.28083526078E+03  0.00000000000E+00 0.  1.
          3   -1    0    0  501    0  0.00000000000E+00 -0.00000000000E+00 -0.95233624214E+02  0.95233624214E+02  0.00000000000E+00 0. -1.
         25    2    1    2    0    0 -0.18860498684E+02 -0.11320269781E+03  0.50491720542E+02  0.17710906597E+03  0.12509052004E+03 0.  0.
          5    1    3    3  502    0 -0.87495788918E+00 -0.92017115874E+02 -0.25919860744E+02  0.95693399700E+02  0.41800000000E+01 0. -1.
         -5    1    3    3    0  502 -0.17985540795E+02 -0.21185581937E+02  0.76411581286E+02  0.81415666271E+02  0.41800000000E+01 0. -1.
        -11    1    1    2    0    0  0.40513726963E+02  0.95169671394E+02  0.13588183009E+03  0.17077031409E+03  0.00000000000E+00 0.  1.
         11    1    1    2    0    0 -0.21653228278E+02  0.18033026417E+02 -0.77191407482E+00  0.28189504926E+02  0.00000000000E+00 0. -1.
</event>
<event>
 7    1  0.2878477E-009  0.1444498E+03  0.7561462E-02  0.1207464E+00
         -1   -1    0    0    0  501 -0.00000000000E+00  0.00000000000E+00  0.22884440236E+04  0.22884440236E+04  0.00000000000E+00 0.  1.
          1   -1    0    0  501    0  0.00000000000E+00 -0.00000000000E+00 -0.19949391913E+02  0.19949391913E+02  0.00000000000E+00 0. -1.
         25    2    1    2    0    0 -0.27624454952E+02 -0.12017934114E+03  0.19279700886E+04  0.19359552506E+04  0.12509150675E+03 0.  0.
          5    1    3    3  502    0 -0.69961462444E+00  0.19899052081E+02  0.59899733336E+03  0.59934275628E+03  0.41800000000E+01 0.  1.
         -5    1    3    3    0  502 -0.26924840328E+02 -0.14007839322E+03  0.13289727553E+04  0.13366124943E+04  0.41800000000E+01 0.  1.
        -11    1    1    2    0    0  0.80744079634E+01  0.86744041223E+02  0.31306404385E+03  0.32495972104E+03  0.00000000000E+00 0. -1.
         11    1    1    2    0    0  0.19550046989E+02  0.33435299916E+02  0.27460499233E+02  0.47478443907E+02  0.00000000000E+00 0.  1.
</event>
<event>
 7    1  0.2878477E-009  0.1299564E+03  0.7561462E-02  0.1227521E+00
          1   -1    0    0  501    0  0.00000000000E+00  0.00000000000E+00  0.63345133286E+03  0.63345133286E+03  0.00000000000E+00 0. -1.
         -1   -1    0    0    0  501 -0.00000000000E+00 -0.00000000000E+00 -0.60377445587E+02  0.60377445587E+02  0.00000000000E+00 0.  1.
         25    2    1    2    0    0 -0.81858323773E+02  0.58911328154E+02  0.50505558597E+03  0.52999951189E+03  0.12508800072E+03 0.  0.
          5    1    3    3  502    0  0.25511828292E+02  0.24798182789E+02  0.52114278914E+02  0.63239020543E+02  0.41800000000E+01 0.  1.
         -5    1    3    3    0  502 -0.10737015207E+03  0.34113145365E+02  0.45294130706E+03  0.46676049135E+03  0.41800000000E+01 0.  1.
        -11    1    1    2    0    0  0.38051208922E+02 -0.13973946676E+00 -0.24902830936E+02  0.45475982850E+02  0.00000000000E+00 0.  1.
         11    1    1    2    0    0  0.43807114851E+02 -0.58771588687E+02  0.92921132232E+02  0.11835328371E+03  0.00000000000E+00 0. -1.
</event>
<event>
 7    1  0.2878477E-009  0.1095960E+03  0.7561462E-02  0.1261320E+00
         -2   -1    0    0    0  501 -0.00000000000E+00  0.00000000000E+00  0.15753647589E+03  0.15753647589E+03  0.00000000000E+00 0.  1.
          2   -1    0    0  501    0  0.00000000000E+00 -0.00000000000E+00 -0.14027134785E+03  0.14027134785E+03  0.00000000000E+00 0. -1.
         25    2    1    2    0    0  0.56456657688E+02 -0.29768942294E+02  0.87287644883E+02  0.16534821617E+03  0.12508939012E+03 0.  0.
          5    1    3    3  502    0  0.78042852892E+02 -0.32644619639E+02  0.10409188839E+02  0.85335699981E+02  0.41800000000E+01 0. -1.
         -5    1    3    3    0  502 -0.21586195204E+02  0.28756773449E+01  0.76878456044E+02  0.80012516192E+02  0.41800000000E+01 0. -1.
        -11    1    1    2    0    0 -0.63907021949E+02 -0.16055441212E+02 -0.38061985793E+02  0.76095988130E+02  0.00000000000E+00 0.  1.
         11    1    1    2    0    0  0.74503642612E+01  0.45824383506E+02 -0.31960531046E+02  0.56363619438E+02  0.00000000000E+00 0. -1.
</event>
<event>
 7    1  0.2878477E-009  0.1084644E+03  0.7561462E-02  0.1263440E+00
         -2   -1    0    0    0  501 -0.00000000000E+00  0.00000000000E+00  0.24857084736E+02  0.24857084736E+02  0.00000000000E+00 0.  1.
          2   -1    0    0  501    0  0.00000000000E+00 -0.00000000000E+00 -0.82297324555E+03  0.82297324555E+03  0.00000000000E+00 0. -1.
         25    2    1    2    0    0  0.22161189897E+02  0.76899530235E+02 -0.29533941137E+03  0.33057158505E+03  0.12509016286E+03 0.  0.
          5    1    3    3  502    0 -0.69449703974E+01 -0.57740376895E+01 -0.20280245179E+03  0.20304649462E+03  0.41800000000E+01 0. -1.
         -5    1    3    3    0  502  0.29106160295E+02  0.82673567924E+02 -0.92536959580E+02  0.12752509043E+03  0.41800000000E+01 0. -1.
        -11    1    1    2    0    0 -0.55493260739E+02 -0.60451286101E+02 -0.38911897598E+03  0.39767755462E+03  0.00000000000E+00 0.  1.
         11    1    1    2    0    0  0.33332070841E+02 -0.16448244133E+02 -0.11365777346E+03  0.11958119062E+03  0.00000000000E+00 0. -1.
</event>
<event>
 7    1  0.2878477E-009  0.1387729E+03  0.7561462E-02  0.1214990E+00
          2   -1    0    0  501    0  0.00000000000E+00  0.00000000000E+00  0.15310808317E+04  0.15310808317E+04  0.00000000000E+00 0. -1.
         -2   -1    0    0    0  501 -0.00000000000E+00 -0.00000000000E+00 -0.14188973863E+02  0.14188973863E+02  0.00000000000E+00 0.  1.
         25    2    1    2    0    0  0.93897731585E+02 -0.16824650341E+02  0.97055828346E+03  0.98322506184E+03  0.12509311639E+03 0.  0.
          5    1    3    3  502    0  0.10344788675E+03 -0.48304380838E+02  0.86679809134E+03  0.87429467688E+03  0.41800000000E+01 0.  1.
         -5    1    3    3    0  502 -0.95501551675E+01  0.31479730497E+02  0.10376019212E+03  0.10893038495E+03  0.41800000000E+01 0.  1.
        -11    1    1    2    0    0 -0.32997587433E+02 -0.36490924580E+02  0.16317797047E+03  0.17043320803E+03  0.00000000000E+00 0.  1.
         11    1    1    2    0    0 -0.60900144152E+02  0.53315574920E+02  0.38315560389E+03  0.39161153568E+03  0.00000000000E+00 0. -1.
</event>
<event>
 7    1  0.2878477E-009  0.3775325E+03  0.7561462E-02  0.1051850E+00
         -2   -1    0    0    0  501 -0.00000000000E+00  0.00000000000E+00  0.14472636873E+03  0.14472636873E+03  0.00000000000E+00 0.  1.
          2   -1    0    0  501    0  0.00000000000E+00 -0.00000000000E+00 -0.10286904074E+04  0.10286904074E+04  0.00000000000E+00 0. -1.
         25    2    1    2    0    0  0.36688685959E+03 -0.12346855259E+02 -0.52140253665E+03  0.64982044689E+03  0.12509034895E+03 0.  0.
          5    1    3    3  502    0  0.95189999206E+02 -0.59000656846E+02 -0.14612270727E+03  0.18415083881E+03  0.41800000000E+01 0.  1.
         -5    1    3    3    0  502  0.27169686039E+03  0.46653801587E+02 -0.37527982938E+03  0.46566960808E+03  0.41800000000E+01 0.  1.
        -11    1    1    2    0    0 -0.10672263797E+03  0.90386090143E+01 -0.16581302761E+03  0.19739649955E+03  0.00000000000E+00 0.  1.
         11    1    1    2    0    0 -0.26016422162E+03  0.33082462444E+01 -0.19674847440E+03  0.32619982968E+03  0.00000000000E+00 0. -1.
</event>
<event>
 7    1  0.2904599E-009  0.9365046E+02  0.7561462E-02  0.1294245E+00
         -2   -1    0    0    0  501 -0.00000000000E+00  0.00000000000E+00  0.17119581704E+03  0.17119581704E+03  0.00000000000E+00 0.  1.
          2   -1    0    0  501    0  0.00000000000E+00 -0.00000000000E+00 -0.80903614137E+02  0.80903614137E+02  0.00000000000E+00 0. -1.
         25    2    1    2    0    0  0.19964806898E+02 -0.34544013413E+02  0.27753838080E+02  0.13419963126E+03  0.12508950046E+03 0.  0.
          5    1    3    3  502    0  0.48150913629E+02  0.10677955567E+02  0.55176905014E+02  0.74124843780E+02  0.41800000000E+01 0.  1.
         -5    1    3    3    0  502 -0.28186106731E+02 -0.45221968980E+02 -0.27423066934E+02  0.60074787483E+02  0.41800000000E+01 0.  1.
        -11    1    1    2    0    0 -0.25667398125E+02 -0.18095890825E+02 -0.52951083595E+01  0.31848308649E+02  0.00000000000E+00 0. -1.
         11    1    1    2    0    0  0.57025912271E+01  0.52639904239E+02  0.67833473181E+02  0.86051491264E+02  0.00000000000E+00 0.  1.
</event>
<event>
 7    1  0.2878477E-009  0.1090363E+03  0.7561462E-02  0.1262365E+00
         -1   -1    0    0    0  501 -0.00000000000E+00  0.00000000000E+00  0.18711463575E+04  0.18711463575E+04  0.00000000000E+00 0.  1.
          1   -1    0    0  501    0  0.00000000000E+00 -0.00000000000E+00 -0.10182702963E+02  0.10182702963E+02  0.00000000000E+00 0. -1.
         25    2    1    2    0    0  0.10300139925E+02 -0.36272573266E+02  0.15465393083E+04  0.15520482815E+04  0.12509293975E+03 0.  0.
          5    1    3    3  502    0 -0.18313768838E+02 -0.75778656257E+02  0.76392231433E+03  0.76790140878E+03  0.41800000000E+01 0.  1.
         -5    1    3    3    0  502  0.28613908763E+02  0.39506082991E+02  0.78261699395E+03  0.78414687272E+03  0.41800000000E+01 0.  1.
        -11    1    1    2    0    0 -0.25300004414E+02 -0.20348346239E+02  0.60214901890E+02  0.68410378069E+02  0.00000000000E+00 0. -1.
         11    1    1    2    0    0  0.14999864488E+02  0.56620919505E+02  0.25420944433E+03  0.26087040087E+03  0.00000000000E+00 0.  1.
</event>
<event>
 7    1  0.2878477E-009  0.1107068E+03  0.7561462E-02  0.1259267E+00
          1   -1    0    0  501    0  0.00000000000E+00  0.00000000000E+00  0.47955167576E+03  0.47955167576E+03  0.00000000000E+00 0. -1.
         -1   -1    0    0    0  501 -0.00000000000E+00 -0.00000000000E+00 -0.34046220296E+02  0.34046220296E+02  0.00000000000E+00 0.  1.
         25    2    1    2    0    0 -0.38045515368E+01 -0.12799288744E+02  0.12698324522E+03  0.17875747058E+03  0.12510472540E+03 0.  0.
          5    1    3    3  502    0 -0.61211758454E+02  0.11756571772E+01  0.39053607353E+02  0.72738698023E+02  0.41800000000E+01 0. -1.
         -5    1    3    3    0  502  0.57407206917E+02 -0.13974945922E+02  0.87929637863E+02  0.10601877256E+03  0.41800000000E+01 0. -1.
        -11    1    1    2    0    0 -0.18945871963E+02 -0.39486119122E+02  0.10347066430E+03  0.11235781254E+03  0.00000000000E+00 0.  1.
         11    1    1    2    0    0  0.22750423500E+02  0.52285407866E+02  0.21505154595E+03  0.22248261294E+03  0.00000000000E+00 0. -1.
</event>
<event>
 7    1  0.2878477E-009  0.1371639E+03  0.7561462E-02  0.1217197E+00
         -1   -1    0    0    0  501 -0.00000000000E+00  0.00000000000E+00  0.74301442415E+02  0.74301442415E+02  0.00000000000E+00 0.  1.
          1   -1    0    0  501    0  0.00000000000E+00 -0.00000000000E+00 -0.53900801427E+03  0.53900801427E+03  0.00000000000E+00 0. -1.
         25    2    1    2    0    0 -0.11949452414E+03 -0.64544922407E+02 -0.91932358126E+02  0.20626423442E+03  0.12509351552E+03 0.  0.
          5    1    3    3  502    0 -0.71062194939E+02 -0.48840081416E+02 -0.12011502532E+03  0.14791984590E+03  0.41800000000E+01 0.  1.
         -5    1    3    3    0  502 -0.48432329201E+02 -0.15704840990E+02  0.28182667195E+02  0.58344388527E+02  0.41800000000E+01 0.  1.
        -11    1    1    2    0    0  0.61698765260E+02  0.43121684491E+02 -0.88581761196E+02  0.11624519657E+03  0.00000000000E+00 0.  1.
         11    1    1    2    0    0  0.57795758880E+02  0.21423237915E+02 -0.28419245254E+03  0.29080002570E+03  0.00000000000E+00 0. -1.
</event>
<event>
 7    1  0.2878477E-009  0.1082214E+03  0.7561462E-02  0.1263899E+00
          1   -1    0    0  501    0  0.00000000000E+00  0.00000000000E+00  0.16037448492E+03  0.16037448492E+03  0.00000000000E+00 0. -1.
         -1   -1    0    0    0  501 -0.00000000000E+00 -0.00000000000E+00 -0.85603846454E+02  0.85603846454E+02  0.00000000000E+00 0.  1.
         25    2    1    2    0    0 -0.17066971477E+02 -0.38272488388E+02  0.79822182719E+01  0.13215678076E+03  0.12508250881E+03 0.  0.
          5    1    3    3  502    0 -0.69939058534E+02 -0.75281507014E+01  0.73542643997E+01  0.70849859326E+02  0.41800000000E+01 0. -1.
         -5    1    3    3    0  502  0.52872087058E+02 -0.30744337687E+02  0.62795387220E+00  0.61306921434E+02  0.41800000000E+01 0. -1.
        -11    1    1    2    0    0 -0.77720135025E+00 -0.21897788548E+02 -0.35353671520E+00  0.21914428431E+02  0.00000000000E+00 0.  1.
         11    1    1    2    0    0  0.17844172827E+02  0.60170276936E+02  0.67141956907E+02  0.91907122182E+02  0.00000000000E+00 0. -1.
</event>
<event>
 7    1  0.2878477E-009  0.1023744E+03  0.7561462E-02  0.1275381E+00
         -1   -1    0    0    0  501 -0.00000000000E+00  0.00000000000E+00  0.24561963851E+02  0.24561963851E+02  0.00000000000E+00 0.  1.
          1   -1    0    0  501    0  0.00000000000E+00 -0.00000000000E+00 -0.80567176679E+03  0.80567176679E+03  0.00000000000E+00 0. -1.
         25    2    1    2    0    0 -0.88961716978E+02 -0.11767169427E+02 -0.44712874050E+03  0.47288952521E+03  0.12509092336E+03 0.  0.
          5    1    3    3  502    0 -0.39170932795E+02  0.11371114209E+02 -0.26831464279E+02  0.49000653973E+02  0.41800000000E+01 0. -1.
         -5    1    3    3    0  502 -0.49790784183E+02 -0.23138283636E+02 -0.42029727622E+03  0.42388887124E+03  0.41800000000E+01 0. -1.
        -11    1    1    2    0    0  0.28966964936E+02 -0.25047314600E+02 -0.22053508961E+03  0.22383515983E+03  0.00000000000E+00 0. -1.
         11    1    1    2    0    0  0.59994752042E+02  0.36814484027E+02 -0.11344597283E+03  0.13350904560E+03  0.00000000000E+00 0.  1.
</event>
<event>
 7    1  0.2878477E-009  0.2048285E+03  0.7561462E-02  0.1145728E+00
         -1   -1    0    0    0  501 -0.00000000000E+00  0.00000000000E+00  0.38345115389E+02  0.38345115389E+02  0.00000000000E+00 0.  1.
          1   -1    0    0  501    0  0.00000000000E+00 -0.00000000000E+00 -0.15023000925E+04  0.15023000925E+04  0.00000000000E+00 0. -1.
         25    2    1    2    0    0 -0.19473150633E+03  0.60915477991E+02 -0.53360288046E+03  0.58481672280E+03  0.12509000845E+03 0.  0.
          5    1    3    3  502    0 -0.37174963628E+02  0.18659150483E+02 -0.20831132145E+02  0.46707068886E+02  0.41800000000E+01 0.  1.
         -5    1    3    3    0  502 -0.15755654270E+03  0.42256327508E+02 -0.51277174832E+03  0.53810965391E+03  0.41800000000E+01 0.  1.
        -11    1    1    2    0    0  0.53622550307E+02 -0.24425503579E+02 -0.13600549382E+03  0.14822104262E+03  0.00000000000E+00 0.  1.
         11    1    1    2    0    0  0.14110895602E+03 -0.36489974412E+02 -0.79434660278E+03  0.80760744242E+03  0.00000000000E+00 0. -1.
</event>
<event>
 7    1  0.2878477E-009  0.1229100E+03  0.7561462E-02  0.1238372E+00
         -2   -1    0    0    0  501 -0.00000000000E+00  0.00000000000E+00  0.60243293624E+02  0.60243293624E+02  0.00000000000E+00 0.  1.
          2   -1    0    0  501    0  0.00000000000E+00 -0.00000000000E+00 -0.29233607957E+03  0.29233607957E+03  0.00000000000E+00 0. -1.
         25    2    1    2    0    0  0.46172514885E+02 -0.40389513449E+02 -0.71649984253E+02  0.15667462181E+03  0.12509997182E+03 0.  0.
          5    1    3    3  502    0  0.86369506541E+02 -0.37906630881E+02 -0.31186130137E+02  0.99431642035E+02  0.41800000000E+01 0.  1.
         -5    1    3    3    0  502 -0.40196991656E+02 -0.24828825680E+01 -0.40463854116E+02  0.57242979779E+02  0.41800000000E+01 0.  1.
        -11    1    1    2    0    0 -0.30198123973E+02 -0.27699517247E+02 -0.44431960198E+02  0.60443271208E+02  0.00000000000E+00 0.  1.
         11    1    1    2    0    0 -0.15974390911E+02  0.68089030696E+02 -0.11601084150E+03  0.13546148017E+03  0.00000000000E+00 0. -1.
</event>
<event>
 7    1  0.2878477E-009  0.1061439E+03  0.7561462E-02  0.1267882E+00
          2   -1    0    0  501    0  0.00000000000E+00  0.00000000000E+00  0.26243979526E+03  0.26243979526E+03  0.00000000000E+00 0. -1.
         -2   -1    0    0    0  501 -0.00000000000E+00 -0.00000000000E+00 -0.59730734860E+02  0.59730734860E+02  0.00000000000E+00 0.  1.
         25    2    1    2    0    0 -0.41576194274E+02  0.18284551533E+02  0.58573179744E+02  0.14536098137E+03  0.12504436318E+03 0.  0.
          5    1    3    3  502    0  0.34841253014E+02  0.34704015969E+02  0.43205960303E+02  0.65593513717E+02  0.41800000000E+01 0.  1.
         -5    1    3    3    0  502 -0.76417447288E+02 -0.16419464436E+02  0.15367219440E+02  0.79767467653E+02  0.41800000000E+01 0.  1.
        -11    1    1    2    0    0 -0.24741338182E+01  0.23687513952E+02  0.41539544484E+01  0.24175917623E+02  0.00000000000E+00 0.  1.
         11    1    1    2    0    0  0.44050328092E+02 -0.41972065485E+02  0.13998192621E+03  0.15263363113E+03  0.00000000000E+00 0. -1.
</event>
<event>
 7    1  0.2878477E-009  0.1481428E+03  0.7561462E-02  0.1202774E+00
          2   -1    0    0  501    0  0.00000000000E+00  0.00000000000E+00  0.12238241623E+04  0.12238241623E+04  0.00000000000E+00 0. -1.
         -2   -1    0    0    0  501 -0.00000000000E+00 -0.00000000000E+00 -0.19628816215E+02  0.19628816215E+02  0.00000000000E+00 0.  1.
         25    2    1    2    0    0  0.20194616895E+02  0.98606748148E+02  0.47148043156E+03  0.49806736116E+03  0.12508471359E+03 0.  0.
          5    1    3    3  502    0  0.72917487951E+02  0.54691433059E+02  0.28932115344E+03  0.30336828300E+03  0.41800000000E+01 0. -1.
         -5    1    3    3    0  502 -0.52722871056E+02  0.43915315090E+02  0.18215927812E+03  0.19469907816E+03  0.41800000000E+01 0. -1.
        -11    1    1    2    0    0 -0.53167771692E+02 -0.85771719099E+02  0.57052048802E+03  0.57937658478E+03  0.00000000000E+00 0. -1.
         11    1    1    2    0    0  0.32973154797E+02 -0.12835029049E+02  0.16219442652E+03  0.16600903260E+03  0.00000000000E+00 0.  1.
</event>
<event>
 6    1  0.2878477E-009  0.1635923E+03  0.7561462E-02  0.1184700E+00
         -1   -1    0    0    0  501 -0.00000000000E+00  0.00000000000E+00  0.44719065169E+03  0.44719065169E+03  0.00000000000E+00 0.  1.
          1   -1    0    0  501    0  0.00000000000E+00 -0.00000000000E+00 -0.74830816787E+02  0.74830816787E+02  0.00000000000E+00 0. -1.
          5    1    1    2  502    0  0.10668374183E+03 -0.68659501153E+02  0.43446050662E+02  0.13416623863E+03  0.41800000000E+01 0.  1.
         -5    1    1    2    0  502  0.26634016084E+02  0.29154095417E+02  0.81910003330E+02  0.91027760259E+02  0.41800000000E+01 0.  1.
        -11    1    1    2    0    0 -0.10490185211E+03 -0.79750147199E+01  0.19124775709E+03  0.21827437785E+03  0.00000000000E+00 0. -1.
         11    1    1    2    0    0 -0.28415905804E+02  0.47480420456E+02  0.55756023822E+02  0.78553091739E+02  0.00000000000E+00 0.  1.
</event>
<event>
 7    1  0.2878477E-009  0.1180388E+03  0.7561462E-02  0.1246368E+00
         -1   -1    0    0    0  501 -0.00000000000E+00  0.00000000000E+00  0.22400619577E+03  0.22400619577E+03  0.00000000000E+00 0.  1.
          1   -1    0    0  501    0  0.00000000000E+00 -0.00000000000E+00 -0.10886540149E+03  0.10886540149E+03  0.00000000000E+00 0. -1.
         25    2    1    2    0    0 -0.15481910973E+02  0.61808599106E+02  0.15878756112E+03  0.21194677278E+03  0.12509177605E+03 0.  0.
          5    1    3    3  502    0  0.16472037128E+02  0.84151536069E+02  0.57484269868E+02  0.10331854970E+03  0.41800000000E+01 0. -1.
         -5    1    3    3    0  502 -0.31953948101E+02 -0.22342936963E+02  0.10130329125E+03  0.10862822308E+03  0.41800000000E+01 0. -1.
        -11    1    1    2    0    0 -0.37477481582E+02 -0.36510521634E+02 -0.31232499897E+02  0.60934791914E+02  0.00000000000E+00 0.  1.
         11    1    1    2    0    0  0.52959392556E+02 -0.25298077472E+02 -0.12414266938E+02  0.59990032566E+02  0.00000000000E+00 0. -1.
</event>
<event>
 7    1  0.2878477E-009  0.1645557E+03  0.7561462E-02  0.1183647E+00
          2   -1    0    0  501    0  0.00000000000E+00  0.00000000000E+00  0.71302615576E+03  0.71302615576E+03  0.00000000000E+00 0. -1.
         -2   -1    0    0    0  501 -0.00000000000E+00 -0.00000000000E+00 -0.44831760853E+02  0.44831760853E+02  0.00000000000E+00 0.  1.
         25    2    1    2    0    0 -0.27979455473E+02 -0.11709871285E+03  0.22824165477E+03  0.28677118368E+03  0.12509396602E+03 0.  0.
          5    1    3    3  502    0  0.34008420190E+02 -0.83517751502E+02  0.72560345091E+02  0.11581996175E+03  0.41800000000E+01 0.  1.
         -5    1    3    3    0  502 -0.61987875663E+02 -0.33580961349E+02  0.15568130968E+03  0.17095122193E+03  0.41800000000E+01 0.  1.
        -11    1    1    2    0    0 -0.38014257160E+02  0.88446158988E+02  0.24029143571E+03  0.25885861172E+03  0.00000000000E+00 0.  1.
         11    1    1    2    0    0  0.65993712632E+02  0.28652553862E+02  0.19966130442E+03  0.21222812121E+03  0.00000000000E+00 0. -1.
</event>
<event>
 7    1  0.2878477E-009  0.9602043E+02  0.7561462E-02  0.1288894E+00
          2   -1    0    0  501    0  0.00000000000E+00  0.00000000000E+00  0.64214848781E+03  0.64214848781E+03  0.00000000000E+00 0.  1.
         -2   -1    0    0    0  501 -0.00000000000E+00 -0.00000000000E+00 -0.30699965817E+02  0.30699965817E+02  0.00000000000E+00 0. -1.
         25    2    1    2    0    0  0.64877755157E+02 -0.52698520501E+02  0.39720842055E+03  0.42474534392E+03  0.12509124929E+03 0.  0.
          5    1    3    3  502    0  0.76920836450E+02 -0.32629098452E+02  0.39143944556E+03  0.40027963362E+03  0.41800000000E+01 0.  1.
         -5    1    3    3    0  502 -0.12043081292E+02 -0.20069422049E+02  0.57689749917E+01  0.24465710308E+02  0.41800000000E+01 0.  1.
        -11    1    1    2    0    0 -0.58889275916E+02  0.41956831625E+02  0.22205562018E+03  0.23353162739E+03  0.00000000000E+00 0.  1.
         11    1    1    2    0    0 -0.59884792415E+01  0.10741688876E+02 -0.78155187421E+01  0.14571482311E+02  0.00000000000E+00 0. -1.
</event>
<event>
 7    1  0.2878477E-009  0.1078863E+03  0.7561462E-02  0.1264535E+00
         -2   -1    0    0    0  501 -0.00000000000E+00  0.00000000000E+00  0.11097806127E+03  0.11097806127E+03  0.00000000000E+00 0.  1.
          2   -1    0    0  501    0  0.00000000000E+00 -0.00000000000E+00 -0.23035704682E+03  0.23035704682E+03  0.00000000000E+00 0. -1.
         25    2    1    2    0    0  0.28092768960E+01  0.62550108715E+02  0.44559320464E+02  0.14681175813E+03  0.12509097149E+03 0.  0.
          5    1    3    3  502    0 -0.40478410024E+02  0.55972429666E+02 -0.16899748643E+02  0.71235443881E+02  0.41800000000E+01 0. -1.
         -5    1    3    3    0  502  0.43287686920E+02  0.65776790489E+01  0.61459069106E+02  0.75576314252E+02  0.41800000000E+01 0. -1.
        -11    1    1    2    0    0 -0.36874637797E+02 -0.71649662915E+01 -0.42117556461E+02  0.56435487212E+02  0.00000000000E+00 0.  1.
         11    1    1    2    0    0  0.34065360900E+02 -0.55385142423E+02 -0.12182074956E+03  0.13808786274E+03  0.00000000000E+00 0. -1.
</event>
<event>
 7    1  0.2878477E-009  0.8547951E+02  0.7561462E-02  0.1314183E+00
         -2   -1    0    0    0  501 -0.00000000000E+00  0.00000000000E+00  0.26748559706E+03  0.26748559706E+03  0.00000000000E+00 0.  1.
          2   -1    0    0  501    0  0.00000000000E+00 -0.00000000000E+00 -0.71457458320E+02  0.71457458320E+02  0.00000000000E+00 0. -1.
         25    2    1    2    0    0 -0.74229131980E+02 -0.10510269395E+02  0.15689922243E+03  0.21421109465E+03  0.12509435349E+03 0.  0.
          5    1    3    3  502    0 -0.38148503827E+02  0.13570821381E+01  0.16963958919E+03  0.17393163208E+03  0.41800000000E+01 0.  1.
         -5    1    3    3    0  502 -0.36080628153E+02 -0.11867351534E+02 -0.12740366757E+02  0.40279462576E+02  0.41800000000E+01 0.  1.
        -11    1    1    2    0    0  0.37723852284E+02  0.34125609527E+02 -0.17089461947E+02  0.53662798719E+02  0.00000000000E+00 0. -1.
         11    1    1    2    0    0  0.36505279696E+02 -0.23615340131E+02  0.56218378255E+02  0.71069162010E+02  0.00000000000E+00 0.  1.
</event>
<event>
 7    1  0.2878477E-009  0.1071202E+03  0.7561462E-02  0.1265998E+00
          1   -1    0    0  501    0  0.00000000000E+00  0.00000000000E+00  0.92463571843E+03  0.92463571843E+03  0.00000000000E+00 0. -1.
         -1   -1    0    0    0  501 -0.00000000000E+00 -0.00000000000E+00 -0.23495263610E+02  0.23495263610E+02  0.00000000000E+00 0.  1.
         25    2    1    2    0    0  0.26333089533E+02 -0.45059275315E+02  0.77474841548E+03  0.78651472128E+03  0.12508608877E+03 0.  0.
          5    1    3    3  502    0  0.14464476776E+01  0.36756650366E+02  0.10540749895E+03  0.11171999280E+03  0.41800000000E+01 0.  1.
         -5    1    3    3    0  502  0.24886641856E+02 -0.81815925680E+02  0.66934091653E+03  0.67479472847E+03  0.41800000000E+01 0.  1.
        -11    1    1    2    0    0 -0.32198963930E+02 -0.11908328987E+02  0.17385584657E+02  0.38481685660E+02  0.00000000000E+00 0.  1.
         11    1    1    2    0    0  0.58658743966E+01  0.56967604302E+02  0.10900645468E+03  0.12313457510E+03  0.00000000000E+00 0. -1.
</event>
<event>
 7    1  0.2878477E-009  0.1117651E+03  0.7561462E-02  0.1257336E+00
         -2   -1    0    0    0  501 -0.00000000000E+00  0.00000000000E+00  0.44732155705E+02  0.44732155705E+02  0.00000000000E+00 0.  1.
          2   -1    0    0  501    0  0.00000000000E+00 -0.00000000000E+00 -0.47551787654E+03  0.47551787654E+03  0.00000000000E+00 0. -1.
         25    2    1    2    0    0 -0.34645163307E+02 -0.12362974094E+02 -0.39923072328E+03  0.41998313727E+03  0.12509010638E+03 0.  0.
          5    1    3    3  502    0 -0.53712899279E+02 -0.58282745579E+02 -0.27111395188E+03  0.28249283404E+03  0.41800000000E+01 0. -1.
         -5    1    3    3    0  502  0.19067735972E+02  0.45919771485E+02 -0.12811677141E+03  0.13749030324E+03  0.41800000000E+01 0. -1.
        -11    1    1    2    0    0 -0.26889442077E+02 -0.10149616025E+02 -0.16107827964E+02  0.32947214183E+02  0.00000000000E+00 0.  1.
         11    1    1    2    0    0  0.61534605384E+02  0.22512590119E+02 -0.15447169593E+02  0.67319680793E+02  0.00000000000E+00 0. -1.
</event>
<event>
 7    1  0.2878477E-009  0.1134109E+03  0.7561462E-02  0.1254381E+00
         -3   -1    0    0    0  501 -0.00000000000E+00  0.00000000000E+00  0.15230090628E+02  0.15230090628E+02  0.00000000000E+00 0.  1.
          3   -1    0    0  501    0  0.00000000000E+00 -0.00000000000E+00 -0.96379328915E+03  0.96379328915E+03  0.00000000000E+00 0. -1.
         25    2    1    2    0    0  0.31509842496E+02  0.44912358969E+02 -0.57937226667E+03  0.59525456720E+03  0.12508311727E+03 0.  0.
          5    1    3    3  502    0  0.17647461366E+02  0.85124635110E+02 -0.46674749759E+03  0.47479293940E+03  0.41800000000E+01 0.  1.
         -5    1    3    3    0  502  0.13862381130E+02 -0.40212276140E+02 -0.11262476907E+03  0.12046162780E+03  0.41800000000E+01 0.  1.
        -11    1    1    2    0    0  0.13289264916E+02 -0.50207295462E+02 -0.12358727729E+03  0.13405667528E+03  0.00000000000E+00 0.  1.
         11    1    1    2    0    0 -0.44799107412E+02  0.52949364928E+01 -0.24560365457E+03  0.24971213730E+03  0.00000000000E+00 0. -1.
</event>
<event>
 7    1  0.2878477E-009  0.9867914E+02  0.7561462E-02  0.1283098E+00
          2   -1    0    0  501    0  0.00000000000E+00  0.00000000000E+00  0.24918370207E+03  0.24918370207E+03  0.00000000000E+00 0.  1.
         -2   -1    0    0    0  501 -0.00000000000E+00 -0.00000000000E+00 -0.48965528789E+02  0.48965528789E+02  0.00000000000E+00 0. -1.
         25    2    1    2    0    0 -0.19963401224E+02  0.26482352451E+01  0.14065725635E+03  0.18930863890E+03  0.12509095274E+03 0.  0.
          5    1    3    3  502    0 -0.13584972519E+02  0.54572244083E+02  0.23803499162E+02  0.61210785610E+02  0.41800000000E+01 0.  1.
         -5    1    3    3    0  502 -0.63784287050E+01 -0.51924008838E+02  0.11685375719E+03  0.12809785329E+03  0.41800000000E+01 0.  1.
        -11    1    1    2    0    0  0.19944393888E+02 -0.43383893979E+02  0.44910029573E+02  0.65550376510E+02  0.00000000000E+00 0.  1.
         11    1    1    2    0    0  0.19007336028E-01  0.40735658734E+02  0.14650887354E+02  0.43290215454E+02  0.00000000000E+00 0. -1.
</event>
<event>
 7    1  0.2878477E-009  0.9880466E+02  0.7561462E-02  0.1282830E+00
          1   -1    0    0  501    0  0.00000000000E+00  0.00000000000E+00  0.22036101706E+03  0.22036101706E+03  0.00000000000E+00 0.  1.
         -1   -1    0    0    0  501 -0.00000000000E+00 -0.00000000000E+00 -0.80118742625E+02  0.80118742625E+02  0.00000000000E+00 0. -1.
         25    2    1    2    0    0  0.28681807879E+02  0.35644706271E+02  0.83490196351E+01  0.13344974931E+03  0.12508372505E+03 0.  0.
          5    1    3    3  502    0 -0.18125913530E+02 -0.22167136172E+02  0.42561410168E+02  0.51467239122E+02  0.41800000000E+01 0.  1.
         -5    1    3    3    0  502  0.46807721409E+02  0.57811842444E+02 -0.34212390533E+02  0.81982510185E+02  0.41800000000E+01 0.  1.
        -11    1    1    2    0    0 -0.52926614933E+02 -0.23457549628E+01  0.40180376517E+02  0.66492043070E+02  0.00000000000E+00 0. -1.
         11    1    1    2    0    0  0.24244807054E+02 -0.33298951308E+02  0.91712878286E+02  0.10053796731E+03  0.00000000000E+00 0.  1.
</event>
<event>
 7    1  0.2878477E-009  0.1779984E+03  0.7561462E-02  0.1169754E+00
          2   -1    0    0  501    0  0.00000000000E+00  0.00000000000E+00  0.49003636627E+03  0.49003636627E+03  0.00000000000E+00 0. -1.
         -2   -1    0    0    0  501 -0.00000000000E+00 -0.00000000000E+00 -0.79510643261E+02  0.79510643261E+02  0.00000000000E+00 0.  1.
         25    2    1    2    0    0 -0.85902174495E+02  0.13847954634E+03  0.18936232121E+03  0.27939557224E+03  0.12509208110E+03 0.  0.
          5    1    3    3  502    0 -0.76572518118E+02  0.29923354066E+02  0.13360876245E+03  0.15693161393E+03  0.41800000000E+01 0. -1.
         -5    1    3    3    0  502 -0.93296563774E+01  0.10855619227E+03  0.55753558762E+02  0.12246395830E+03  0.41800000000E+01 0. -1.
        -11    1    1    2    0    0  0.65606643924E+01 -0.27162403174E+02  0.11136338544E+03  0.11481568743E+03  0.00000000000E+00 0. -1.
         11    1    1    2    0    0  0.79341510103E+02 -0.11131714316E+03  0.10980001636E+03  0.17533574986E+03  0.00000000000E+00 0.  1.
</event>
<event>
 7    1  0.2878477E-009  0.2116920E+03  0.7561462E-02  0.1140233E+00
         -1   -1    0    0    0  501 -0.00000000000E+00  0.00000000000E+00  0.26131012137E+03  0.26131012137E+03  0.00000000000E+00 0.  1.
          1   -1    0    0  501    0  0.00000000000E+00 -0.00000000000E+00 -0.22136976246E+03  0.22136976246E+03  0.00000000000E+00 0. -1.
         25    2    1    2    0    0  0.15293673259E+03  0.13421588261E+03  0.89610977499E+02  0.25511292853E+03  0.12509569016E+03 0.  0.
          5    1    3    3  502    0  0.19113983266E+02  0.82005699543E+00  0.60868804280E+02  0.63941383972E+02  0.41800000000E+01 0.  1.
         -5    1    3    3    0  502  0.13382274932E+03  0.13339582562E+03  0.28742173220E+02  0.19117154456E+03  0.41800000000E+01 0.  1.
        -11    1    1    2    0    0 -0.88464410657E+02 -0.11948385834E+03 -0.69423559872E+01  0.14883057705E+03  0.00000000000E+00 0.  1.
         11    1    1    2    0    0 -0.64472321931E+02 -0.14732024268E+02 -0.42728262602E+02  0.78736378246E+02  0.00000000000E+00 0. -1.
</event>
<event>
 7    1  0.2878477E-009  0.1092142E+03  0.7561462E-02  0.1262032E+00
         -1   -1    0    0    0  501 -0.00000000000E+00  0.00000000000E+00  0.24409527741E+02  0.24409527741E+02  0.00000000000E+00 0.  1.
          1   -1    0    0  501    0  0.00000000000E+00 -0.00000000000E+00 -0.55485482079E+03  0.55485482079E+03  0.00000000000E+00 0. -1.
         25    2    1    2    0    0  0.31841461839E+02  0.13529399264E+02 -0.24091085714E+03  0.27364559144E+03  0.12508775037E+03 0.  0.
          5    1    3    3  502    0 -0.14436057852E+02  0.60001827907E+02 -0.91794437027E+02  0.11069015398E+03  0.41800000000E+01 0. -1.
         -5    1    3    3    0  502  0.46277519691E+02 -0.46472428643E+02 -0.14911642011E+03  0.16295543747E+03  0.41800000000E+01 0. -1.
        -11    1    1    2    0    0  0.28089711189E+02  0.40953903116E+01 -0.44790461663E+02  0.53028195826E+02  0.00000000000E+00 0.  1.
         11    1    1    2    0    0 -0.59931173029E+02 -0.17624789575E+02 -0.24474397424E+03  0.25259056126E+03  0.00000000000E+00 0. -1.
</event>
<event>
 7    1  0.2878477E-009  0.1167609E+03  0.7561462E-02  0.1248538E+00
         -2   -1    0    0    0  501 -0.00000000000E+00  0.00000000000E+00  0.18711670565E+02  0.18711670565E+02  0.00000000000E+00 0.  1.
          2   -1    0    0  501    0  0.00000000000E+00 -0.00000000000E+00 -0.78749419836E+03  0.78749419836E+03  0.00000000000E+00 0. -1.
         25    2    1    2    0    0 -0.68678066786E+01 -0.50579521089E+02 -0.37451447978E+03  0.39813866443E+03  0.12509134995E+03 0.  0.
          5    1    3    3  502    0 -0.32752580910E+02  0.32788068432E+02 -0.15612724232E+03  0.16291401776E+03  0.41800000000E+01 0.  1.
         -5    1    3    3    0  502  0.25884774232E+02 -0.83367589522E+02 -0.21838723746E+03  0.23522464668E+03  0.41800000000E+01 0.  1.
        -11    1    1    2    0    0 -0.39085847039E+02  0.29862252966E+02 -0.12915378539E+03  0.13820332077E+03  0.00000000000E+00 0.  1.
         11    1    1    2    0    0  0.45953653718E+02  0.20717268123E+02 -0.26511426263E+03  0.26986388372E+03  0.00000000000E+00 0. -1.
</event>
<event>
 7    1  0.2878477E-009  0.1129022E+03  0.7561462E-02  0.1255288E+00
         -3   -1    0    0    0  501 -0.00000000000E+00  0.00000000000E+00  0.31678867375E+03  0.31678867375E+03  0.00000000000E+00 0.  1.
          3   -1    0    0  501    0  0.00000000000E+00 -0.00000000000E+00 -0.12945472431E+03  0.12945472431E+03  0.00000000000E+00 0. -1.
         25    2    1    2    0    0  0.39316852877E+02  0.57897604581E+02 -0.73719031531E+02  0.16116176567E+03  0.12506267057E+03 0.  0.
          5    1    3    3  502    0  0.60975232329E+02 -0.58787558736E+01 -0.70658861509E+02  0.93609218765E+02  0.41800000000E+01 0. -1.
         -5    1    3    3    0  502 -0.21658379452E+02  0.63776360455E+02 -0.30601700224E+01  0.67552546909E+02  0.41800000000E+01 0. -1.
        -11    1    1    2    0    0 -0.55160017468E+02 -0.25317347137E+02  0.22834396402E+03  0.23627221905E+03  0.00000000000E+00 0.  1.
         11    1    1    2    0    0  0.15843164591E+02 -0.32580257445E+02  0.32709016951E+02  0.48809413327E+02  0.00000000000E+00 0. -1.
</event>
<event>
 7    1  0.2878477E-009  0.8360354E+02  0.7561462E-02  0.1319125E+00
          1   -1    0    0  501    0  0.00000000000E+00  0.00000000000E+00  0.30281033921E+03  0.30281033921E+03  0.00000000000E+00 0. -1.
         -1   -1    0    0    0  501 -0.00000000000E+00 -0.00000000000E+00 -0.64698245694E+02  0.64698245694E+02  0.00000000000E+00 0.  1.
         25    2    1    2    0    0 -0.66105905504E+02  0.16255176016E+02  0.54887681214E+02  0.15262114607E+03  0.12508531164E+03 0.  0.
          5    1    3    3  502    0 -0.70776215210E+02  0.23764114138E+02  0.89515564159E+02  0.11663839157E+03  0.41800000000E+01 0. -1.
         -5    1    3    3    0  502  0.46703097054E+01 -0.75089381219E+01 -0.34627882945E+02  0.35982754504E+02  0.41800000000E+01 0. -1.
        -11    1    1    2    0    0  0.18030731351E+02  0.16528865729E+02  0.14071339176E+03  0.14282356001E+03  0.00000000000E+00 0. -1.
         11    1    1    2    0    0  0.48075174153E+02 -0.32784041746E+02  0.42511020549E+02  0.72063878824E+02  0.00000000000E+00 0.  1.
</event>
<event>
 7    1  0.2878477E-009  0.1270865E+03  0.7561462E-02  0.1231844E+00
         -1   -1    0    0    0  501 -0.00000000000E+00  0.00000000000E+00  0.13201800148E+02  0.13201800148E+02  0.00000000000E+00 0.  1.
          1   -1    0    0  501    0  0.00000000000E+00 -0.00000000000E+00 -0.13136961649E+04  0.13136961649E+04  0.00000000000E+00 0. -1.
         25    2    1    2    0    0  0.44219741168E+02  0.56172314492E+02 -0.81631657150E+03  0.82893398840E+03  0.12509235703E+03 0.  0.
          5    1    3    3  502    0  0.69637260855E+02 -0.74974884940E+01 -0.30153280814E+03  0.30958854504E+03  0.41800000000E+01 0. -1.
         -5    1    3    3    0  502 -0.25417519687E+02  0.63669802986E+02 -0.51478376336E+03  0.51934544336E+03  0.41800000000E+01 0. -1.
        -11    1    1    2    0    0 -0.22256215129E+02  0.23686130541E+02 -0.16821492247E+03  0.17132609852E+03  0.00000000000E+00 0.  1.
         11    1    1    2    0    0 -0.21963526039E+02 -0.79858445033E+02 -0.31596287080E+03  0.32663787816E+03  0.00000000000E+00 0. -1.
</event>
<event>
 7    1  0.2878477E-009  0.9912100E+02  0.7561462E-02  0.1282155E+00
          1   -1    0    0  501    0  0.00000000000E+00  0.00000000000E+00  0.23541683396E+03  0.23541683396E+03  0.00000000000E+00 0. -1.
         -1   -1    0    0    0  501 -0.00000000000E+00 -0.00000000000E+00 -0.61618238745E+02  0.61618238745E+02  0.00000000000E+00 0.  1.
         25    2    1    2    0    0 -0.35009801921E+02  0.27546246656E+00  0.51246043349E+02  0.13963850992E+03  0.12508794659E+03 0.  0.
          5    1    3    3  502    0  0.20256626175E+01 -0.43056304280E+02  0.67517188380E+02  0.80212167244E+02  0.41800000000E+01 0.  1.
         -5    1    3    3    0  502 -0.37035464538E+02  0.43331766746E+02 -0.16271145032E+02  0.59426342673E+02  0.41800000000E+01 0.  1.
        -11    1    1    2    0    0 -0.24426655214E+02 -0.23568110271E+02  0.32348700708E+02  0.46888759252E+02  0.00000000000E+00 0.  1.
         11    1    1    2    0    0  0.59436457135E+02  0.23292647804E+02  0.90203851154E+02  0.11050780353E+03  0.00000000000E+00 0. -1.
</event>
<event>
 7    1  0.2878477E-009  0.9453229E+02  0.7561462E-02  0.1292233E+00
         -2   -1    0    0    0  501 -0.00000000000E+00  0.00000000000E+00  0.16406540999E+03  0.16406540999E+03  0.00000000000E+00 0.  1.
          2   -1    0    0  501    0  0.00000000000E+00 -0.00000000000E+00 -0.78134954307E+02  0.78134954307E+02  0.00000000000E+00 0. -1.
         25    2    1    2    0    0  0.14736835971E+01  0.10490633867E+02  0.90622339483E+02  0.15482886506E+03  0.12508934367E+03 0.  0.
          5    1    3    3  502    0 -0.71651023195E+01 -0.50762431457E+02  0.88215599122E+01  0.52186736418E+02  0.41800000000E+01 0.  1.
         -5    1    3    3    0  502  0.86387859167E+01  0.61253065324E+02  0.81800779571E+02  0.10264212864E+03  0.41800000000E+01 0.  1.
        -11    1    1    2    0    0 -0.37664913523E+02 -0.11629338262E+02  0.19345005856E+02  0.43910323053E+02  0.00000000000E+00 0.  1.
         11    1    1    2    0    0  0.36191229925E+02  0.11387043953E+01 -0.24036889655E+02  0.43461176186E+02  0.00000000000E+00 0. -1.
</event>
<event>
 7    1  0.2878477E-009  0.8791011E+02  0.7561462E-02  0.1307993E+00
         -1   -1    0    0    0  501 -0.00000000000E+00  0.00000000000E+00  0.37763307319E+03  0.37763307319E+03  0.00000000000E+00 0.  1.
          1   -1    0    0  501    0  0.00000000000E+00 -0.00000000000E+00 -0.55164509517E+02  0.55164509517E+02  0.00000000000E+00 0. -1.
         25    2    1    2    0    0  0.16237965272E+02  0.46088955524E+00  0.35583968306E+02  0.13106372294E+03  0.12509035429E+03 0.  0.
          5    1    3    3  502    0 -0.21478852308E+02  0.32004672638E+02 -0.29976764417E+02  0.49007335900E+02  0.41800000000E+01 0.  1.
         -5    1    3    3    0  502  0.37716817580E+02 -0.31543783083E+02  0.65560732723E+02  0.82056387044E+02  0.41800000000E+01 0.  1.
        -11    1    1    2    0    0  0.98358411842E+01 -0.39528982971E+02  0.82329979889E+02  0.91855918998E+02  0.00000000000E+00 0.  1.
         11    1    1    2    0    0 -0.26073806457E+02  0.39068093416E+02  0.20455461548E+03  0.20987794077E+03  0.00000000000E+00 0. -1.
</event>
<event>
 7    1  0.2878477E-009  0.4244076E+02  0.7561462E-02  0.1490982E+00
          1   -1    0    0  501    0  0.00000000000E+00  0.00000000000E+00  0.60678696624E+02  0.60678696624E+02  0.00000000000E+00 0. -1.
         -1   -1    0    0    0  501 -0.00000000000E+00 -0.00000000000E+00 -0.17863578063E+03  0.17863578063E+03  0.00000000000E+00 0.  1.
         25    2    1    2    0    0 -0.41625754016E+01 -0.19087131077E+02 -0.87395550793E+02  0.15384049217E+03  0.12508904479E+03 0.  0.
          5    1    3    3  502    0 -0.41707379206E+01 -0.28617015808E+02 -0.11797456804E+03  0.12153929304E+03  0.41800000000E+01 0. -1.
         -5    1    3    3    0  502  0.81625189478E-02  0.95298847317E+01  0.30579017245E+02  0.32301199131E+02  0.41800000000E+01 0. -1.
        -11    1    1    2    0    0 -0.16962941707E+02  0.27090110125E+00 -0.48900427130E+02  0.51759700079E+02  0.00000000000E+00 0.  1.
         11    1    1    2    0    0  0.21125517108E+02  0.18816229975E+02  0.18338893914E+02  0.33714285008E+02  0.00000000000E+00 0. -1.
</event>
<event>
 7    1  0.2878477E-009  0.1244812E+03  0.7561462E-02  0.1235882E+00
         -1   -1    0    0    0  501 -0.00000000000E+00  0.00000000000E+00  0.10637886100E+03  0.10637886100E+03  0.00000000000E+00 0.  1.
          1   -1    0    0  501    0  0.00000000000E+00 -0.00000000000E+00 -0.20286762555E+03  0.20286762555E+03  0.00000000000E+00 0. -1.
         25    2    1    2    0    0  0.42910446981E+02  0.72288813246E+02 -0.10152177100E+03  0.18171478215E+03  0.12508642246E+03 0.  0.
          5    1    3    3  502    0 -0.43305690749E+02  0.11957365036E+02 -0.35584488170E+02  0.57463811466E+02  0.41800000000E+01 0.  1.
         -5    1    3    3    0  502  0.86216137730E+02  0.60331448210E+02 -0.65937282834E+02  0.12425097068E+03  0.41800000000E+01 0.  1.
        -11    1    1    2    0    0 -0.53522432843E+02 -0.47480218069E+02 -0.34687834084E+02  0.79512689294E+02  0.00000000000E+00 0. -1.
         11    1    1    2    0    0  0.10611985862E+02 -0.24808595176E+02  0.39720840542E+02  0.48019015108E+02  0.00000000000E+00 0.  1.
</event>
<event>
 7    1  0.2878477E-009  0.2164608E+03  0.7561462E-02  0.1136550E+00
          2   -1    0    0  501    0  0.00000000000E+00  0.00000000000E+00  0.45672507665E+03  0.45672507665E+03  0.00000000000E+00 0. -1.
         -2   -1    0    0    0  501 -0.00000000000E+00 -0.00000000000E+00 -0.11939008970E+03  0.11939008970E+03  0.00000000000E+00 0.  1.
         25    2    1    2    0    0 -0.96818393479E+02  0.18073076246E+03  0.14454860757E+03  0.28031969742E+03  0.12508965983E+03 0.  0.
          5    1    3    3  502    0  0.68207510909E+01 -0.54502867123E+01  0.43298513129E+02  0.44367351847E+02  0.41800000000E+01 0.  1.
         -5    1    3    3    0  502 -0.10363914457E+03  0.18618104917E+03  0.10125009444E+03  0.23595234557E+03  0.41800000000E+01 0.  1.
        -11    1    1    2    0    0  0.50505337745E+02 -0.48543449707E+02  0.18983415477E+02  0.72578410794E+02  0.00000000000E+00 0.  1.
         11    1    1    2    0    0  0.46313055734E+02 -0.13218731275E+03  0.17380296390E+03  0.22321705814E+03  0.00000000000E+00 0. -1.
</event>
<event>
 7    1  0.2878477E-009  0.1004638E+03  0.7561462E-02  0.1279324E+00
         -1   -1    0    0    0  501 -0.00000000000E+00  0.00000000000E+00  0.21733282182E+02  0.21733282182E+02  0.00000000000E+00 0.  1.
          1   -1    0    0  501    0  0.00000000000E+00 -0.00000000000E+00 -0.58284665420E+03  0.58284665420E+03  0.00000000000E+00 0. -1.
         25    2    1    2    0    0  0.53164351745E+00  0.17387158490E+02 -0.25323239349E+03  0.28297751655E+03  0.12508810429E+03 0.  0.
          5    1    3    3  502    0 -0.43213486806E+02  0.42050042763E+02 -0.67841957423E+02  0.90860415613E+02  0.41800000000E+01 0.  1.
         -5    1    3    3    0  502  0.43745130324E+02 -0.24662884273E+02 -0.18539043607E+03  0.19211710094E+03  0.41800000000E+01 0.  1.
        -11    1    1    2    0    0 -0.32939658209E+02  0.21605114248E+02 -0.96606736259E+02  0.10432959089E+03  0.00000000000E+00 0.  1.
         11    1    1    2    0    0  0.32408014692E+02 -0.38992272739E+02 -0.21127424227E+03  0.21727282894E+03  0.00000000000E+00 0. -1.
</event>
<event>
 7    1  0.2878477E-009  0.1223500E+03  0.7561462E-02  0.1239270E+00
         -2   -1    0    0    0  501 -0.00000000000E+00  0.00000000000E+00  0.85477458028E+02  0.85477458028E+02  0.00000000000E+00 0.  1.
          2   -1    0    0  501    0  0.00000000000E+00 -0.00000000000E+00 -0.25749112359E+03  0.25749112359E+03  0.00000000000E+00 0. -1.
         25    2    1    2    0    0 -0.31035777358E+02  0.99512096028E+02 -0.82848418167E+02  0.18269416755E+03  0.12508965477E+03 0.  0.
          5    1    3    3  502    0 -0.26620666837E+02 -0.95912801059E+01  0.18166076270E+02  0.33884085999E+02  0.41800000000E+01 0. -1.
         -5    1    3    3    0  502 -0.44151105211E+01  0.10910337613E+03 -0.10101449444E+03  0.14881008155E+03  0.41800000000E+01 0. -1.
        -11    1    1    2    0    0 -0.14752244878E+01 -0.30523544744E+02 -0.77261849166E+02  0.83085837587E+02  0.00000000000E+00 0. -1.
         11    1    1    2    0    0  0.32511001846E+02 -0.68988551284E+02 -0.11903398226E+02  0.77188576478E+02  0.00000000000E+00 0.  1.
</event>
<event>
 7    1  0.2878477E-009  0.9604209E+02  0.7561462E-02  0.1288846E+00
          1   -1    0    0  501    0  0.00000000000E+00  0.00000000000E+00  0.50531813811E+03  0.50531813811E+03  0.00000000000E+00 0. -1.
         -1   -1    0    0    0  501 -0.00000000000E+00 -0.00000000000E+00 -0.38631173384E+02  0.38631173384E+02  0.00000000000E+00 0.  1.
         25    2    1    2    0    0 -0.33147347732E+02 -0.78354640539E+02  0.21104235636E+03  0.25966246574E+03  0.12509006189E+03 0.  0.
          5    1    3    3  502    0 -0.93357445615E+01 -0.20304842866E+02 -0.13526762502E+02  0.26455405386E+02  0.41800000000E+01 0.  1.
         -5    1    3    3    0  502 -0.23811603170E+02 -0.58049797673E+02  0.22456911886E+03  0.23320706036E+03  0.41800000000E+01 0.  1.
        -11    1    1    2    0    0  0.34173037482E+02  0.67247809910E+01  0.25267440814E+02  0.43028626929E+02  0.00000000000E+00 0.  1.
         11    1    1    2    0    0 -0.10256897500E+01  0.71629859548E+02  0.23037716755E+03  0.24125821882E+03  0.00000000000E+00 0. -1.
</event>
<event>
 7    1  0.2878477E-009  0.7478059E+02  0.7561462E-02  0.1344552E+00
         -1   -1    0    0    0  501 -0.00000000000E+00  0.00000000000E+00  0.18860599873E+02  0.18860599873E+02  0.00000000000E+00 0.  1.
          1   -1    0    0  501    0  0.00000000000E+00 -0.00000000000E+00 -0.69691182788E+03  0.69691182788E+03  0.00000000000E+00 0. -1.
         25    2    1    2    0    0  0.31933497051E+02 -0.22177797424E+02 -0.36561423912E+03  0.38837205982E+03  0.12508989595E+03 0.  0.
          5    1    3    3  502    0 -0.51897855647E+01  0.19862889323E+02 -0.26980438860E+01  0.21123922157E+02  0.41800000000E+01 0.  1.
         -5    1    3    3    0  502  0.37123282616E+02 -0.42040686747E+02 -0.36291619523E+03  0.36724813766E+03  0.41800000000E+01 0.  1.
        -11    1    1    2    0    0 -0.50266772000E+02  0.19133581285E+02 -0.30058354231E+03  0.30535767259E+03  0.00000000000E+00 0.  1.
         11    1    1    2    0    0  0.18333274949E+02  0.30442161391E+01 -0.11853446574E+02  0.22042695342E+02  0.00000000000E+00 0. -1.
</event>
<event>
 7    1  0.2878477E-009  0.9053435E+02  0.7561462E-02  0.1301563E+00
          2   -1    0    0  501    0  0.00000000000E+00  0.00000000000E+00  0.12442082113E+04  0.12442082113E+04  0.00000000000E+00 0. -1.
         -2   -1    0    0    0  501 -0.00000000000E+00 -0.00000000000E+00 -0.12229965199E+02  0.12229965199E+02  0.00000000000E+00 0.  1.
         25    2    1    2    0    0 -0.18643452536E+02  0.63183024587E+01  0.98169166912E+03  0.98982506505E+03  0.12509047494E+03 0.  0.
          5    1    3    3  502    0 -0.51514737369E+02 -0.16452217674E+02  0.85906342606E+03  0.86077400403E+03  0.41800000000E+01 0.  1.
         -5    1    3    3    0  502  0.32871284832E+02  0.22770520133E+02  0.12262824306E+03  0.12905106102E+03  0.41800000000E+01 0.  1.
        -11    1    1    2    0    0 -0.12712778223E+02 -0.39186801241E+02  0.75373878326E+02  0.85897855943E+02  0.00000000000E+00 0.  1.
         11    1    1    2    0    0  0.31356230759E+02  0.32868498783E+02  0.17491269862E+03  0.18071525546E+03  0.00000000000E+00 0. -1.
</event>
<event>
 7    1  0.2878477E-009  0.8579808E+02  0.7561462E-02  0.1313359E+00
          1   -1    0    0  501    0  0.00000000000E+00  0.00000000000E+00  0.19676883782E+03  0.19676883782E+03  0.00000000000E+00 0. -1.
         -1   -1    0    0    0  501 -0.00000000000E+00 -0.00000000000E+00 -0.70806096854E+02  0.70806096854E+02  0.00000000000E+00 0.  1.
         25    2    1    2    0    0  0.13385069190E+02 -0.26734216096E+01  0.12563427689E+03  0.17781783735E+03  0.12509558141E+03 0.  0.
          5    1    3    3  502    0 -0.26454231637E+02  0.26960698786E+02 -0.46920163143E+01  0.38290900586E+02  0.41800000000E+01 0.  1.
         -5    1    3    3    0  502  0.39839300828E+02 -0.29634120396E+02  0.13032629321E+03  0.13952693677E+03  0.41800000000E+01 0.  1.
        -11    1    1    2    0    0  0.24706926800E+02  0.28519402158E+02 -0.15901664895E+02  0.40946934901E+02  0.00000000000E+00 0.  1.
         11    1    1    2    0    0 -0.38091995990E+02 -0.25845980549E+02  0.16230128964E+02  0.48810162418E+02  0.00000000000E+00 0. -1.
</event>
<event>
 7    1  0.2878477E-009  0.1211192E+03  0.7561462E-02  0.1241262E+00
         -2   -1    0    0    0  501 -0.00000000000E+00  0.00000000000E+00  0.16669723498E+02  0.16669723498E+02  0.00000000000E+00 0.  1.
          2   -1    0    0  501    0  0.00000000000E+00 -0.00000000000E+00 -0.93916719758E+03  0.93916719758E+03  0.00000000000E+00 0. -1.
         25    2    1    2    0    0 -0.28097322503E+02  0.86789923533E+01 -0.60227558948E+03  0.61583134855E+03  0.12509028632E+03 0.  0.
          5    1    3    3  502    0 -0.38907129722E+02  0.62233434374E+02 -0.32826166399E+03  0.33639256463E+03  0.41800000000E+01 0.  1.
         -5    1    3    3    0  502  0.10809807219E+02 -0.53554442021E+02 -0.27401392550E+03  0.27943878392E+03  0.41800000000E+01 0.  1.
        -11    1    1    2    0    0 -0.42737019792E+02 -0.20363910009E+01 -0.10749258605E+03  0.11569466628E+03  0.00000000000E+00 0.  1.
         11    1    1    2    0    0  0.70834342296E+02 -0.66426013524E+01 -0.21272929855E+03  0.22431090625E+03  0.00000000000E+00 0. -1.
</event>
<event>
 7    1  0.2878477E-009  0.1082545E+03  0.7561462E-02  0.1263837E+00
         -3   -1    0    0    0  501 -0.00000000000E+00  0.00000000000E+00  0.42202704101E+03  0.42202704101E+03  0.00000000000E+00 0.  1.
          3   -1    0    0  501    0  0.00000000000E+00 -0.00000000000E+00 -0.81135689402E+02  0.81135689402E+02  0.00000000000E+00 0. -1.
         25    2    1    2    0    0  0.38738992217E+02  0.10947119949E+02 -0.16061668754E+02  0.13238123072E+03  0.12508502745E+03 0.  0.
          5    1    3    3  502    0 -0.11789326391E+02  0.50976476633E+02 -0.37287730816E+02  0.64385065474E+02  0.41800000000E+01 0. -1.
         -5    1    3    3    0  502  0.50528318608E+02 -0.40029356684E+02  0.21226062062E+02  0.67996165248E+02  0.41800000000E+01 0. -1.
        -11    1    1    2    0    0  0.17064810456E+02  0.26998423072E+02  0.92702497494E+02  0.98050373003E+02  0.00000000000E+00 0. -1.
         11    1    1    2    0    0 -0.55803802672E+02 -0.37945543021E+02  0.26425052287E+03  0.27273112668E+03  0.00000000000E+00 0.  1.
</event>
<event>
 7    1  0.2878477E-009  0.1083880E+03  0.7561462E-02  0.1263584E+00
          2   -1    0    0  501    0  0.00000000000E+00  0.00000000000E+00  0.14739664883E+03  0.14739664883E+03  0.00000000000E+00 0.  1.
         -2   -1    0    0    0  501 -0.00000000000E+00 -0.00000000000E+00 -0.13673238596E+03  0.13673238596E+03  0.00000000000E+00 0. -1.
         25    2    1    2    0    0 -0.67407915128E+02 -0.30270163506E+02 -0.47677862016E+02  0.15290762421E+03  0.12508978053E+03 0.  0.
          5    1    3    3  502    0 -0.96428316944E+02 -0.13739157492E+02 -0.62841995589E+02  0.11599040291E+03  0.41800000000E+01 0.  1.
         -5    1    3    3    0  502  0.29020401815E+02 -0.16531006014E+02  0.15164133574E+02  0.36917221299E+02  0.41800000000E+01 0.  1.
        -11    1    1    2    0    0  0.17292930640E+02  0.31008743398E+02  0.71126936152E+02  0.79496092128E+02  0.00000000000E+00 0.  1.
         11    1    1    2    0    0  0.50114984488E+02 -0.73857989251E+00 -0.12784811262E+02  0.51725318457E+02  0.00000000000E+00 0. -1.
</event>
<event>
 7    1  0.2878477E-009  0.1103472E+03  0.7561462E-02  0.1259928E+00
         -1   -1    0    0    0  501 -0.00000000000E+00  0.00000000000E+00  0.70615303052E+02  0.70615303052E+02  0.00000000000E+00 0.  1.
          1   -1    0    0  501    0  0.00000000000E+00 -0.00000000000E+00 -0.50298107062E+03  0.50298107062E+03  0.00000000000E+00 0. -1.
         25    2    1    2    0    0  0.59167505061E+02  0.22883131117E+02 -0.44467062995E+03  0.46626614333E+03  0.12509083072E+03 0.  0.
          5    1    3    3  502    0 -0.34156161700E+02 -0.12450028180E+02 -0.76706415255E+02  0.84988194033E+02  0.41800000000E+01 0. -1.
         -5    1    3    3    0  502  0.93323666761E+02  0.35333159297E+02 -0.36796421469E+03  0.38127794929E+03  0.41800000000E+01 0. -1.
        -11    1    1    2    0    0 -0.70111833007E+02 -0.19833242844E+02  0.35836812008E+02  0.81199160983E+02  0.00000000000E+00 0.  1.
         11    1    1    2    0    0  0.10944327946E+02 -0.30498882726E+01 -0.23531949625E+02  0.26131069358E+02  0.00000000000E+00 0. -1.
</event>
<event>
 7    1  0.2878477E-009  0.9993454E+02  0.7561462E-02  0.1280434E+00
          2   -1    0    0  501    0  0.00000000000E+00  0.00000000000E+00  0.31323307058E+03  0.31323307058E+03  0.00000000000E+00 0. -1.
         -2   -1    0    0    0  501 -0.00000000000E+00 -0.00000000000E+00 -0.45035931032E+02  0.45035931032E+02  0.00000000000E+00 0.  1.
         25    2    1    2    0    0  0.30704428746E+02  0.29049872874E+02  0.14356025768E+03  0.19504840422E+03  0.12509066850E+03 0.  0.
          5    1    3    3  502    0  0.66259431989E+02 -0.24365364125E+01  0.12916025899E+03  0.14524494463E+03  0.41800000000E+01 0.  1.
         -5    1    3    3    0  502 -0.35555003243E+02  0.31486409286E+02  0.14399998690E+02  0.49803459595E+02  0.41800000000E+01 0.  1.
        -11    1    1    2    0    0  0.24990831918E+02 -0.91676326194E+01  0.15502089262E+01  0.26664401653E+02  0.00000000000E+00 0.  1.
         11    1    1    2    0    0 -0.55695260664E+02 -0.19882240255E+02  0.12308667293E+03  0.13655619573E+03  0.00000000000E+00 0. -1.
</event>
<event>
 7    1  0.2878477E-009  0.1115587E+03  0.7561462E-02  0.1257710E+00
          1   -1    0    0  501    0  0.00000000000E+00  0.00000000000E+00  0.22325532257E+03  0.22325532257E+03  0.00000000000E+00 0. -1.
         -1   -1    0    0    0  501 -0.00000000000E+00 -0.00000000000E+00 -0.10472029430E+03  0.10472029430E+03  0.00000000000E+00 0.  1.
         25    2    1    2    0    0  0.46379725945E+02 -0.95585578843E+02  0.46340806777E+02  0.17053967948E+03  0.12509448446E+03 0.  0.
          5    1    3    3  502    0 -0.69940962706E+01 -0.35320397552E+02 -0.38933124897E+02  0.53195004278E+02  0.41800000000E+01 0.  1.
         -5    1    3    3    0  502  0.53373822216E+02 -0.60265181291E+02  0.85273931675E+02  0.11734467520E+03  0.41800000000E+01 0.  1.
        -11    1    1    2    0    0 -0.15305685583E+02  0.29658229102E+02 -0.20768085694E+02  0.39308878742E+02  0.00000000000E+00 0.  1.
         11    1    1    2    0    0 -0.31074040363E+02  0.65927349741E+02  0.92962307183E+02  0.11812705865E+03  0.00000000000E+00 0. -1.
</event>
<event>
 7    1  0.2878477E-009  0.1132071E+03  0.7561462E-02  0.1254744E+00
          1   -1    0    0  501    0  0.00000000000E+00  0.00000000000E+00  0.68332233985E+03  0.68332233985E+03  0.00000000000E+00 0. -1.
         -1   -1    0    0    0  501 -0.00000000000E+00 -0.00000000000E+00 -0.29050756829E+02  0.29050756829E+02  0.00000000000E+00 0.  1.
         25    2    1    2    0    0 -0.47965269077E+02  0.85144217260E+02  0.36432270851E+03  0.39740384350E+03  0.12509426096E+03 0.  0.
          5    1    3    3  502    0 -0.23885345247E+02  0.12593957953E+02  0.23507666301E+01  0.27424733330E+02  0.41800000000E+01 0. -1.
         -5    1    3    3    0  502 -0.24079923830E+02  0.72550259306E+02  0.36197194188E+03  0.36997911017E+03  0.41800000000E+01 0. -1.
        -11    1    1    2    0    0  0.67480509676E+02 -0.57267193171E+02  0.19630464318E+03  0.21533384206E+03  0.00000000000E+00 0.  1.
         11    1    1    2    0    0 -0.19515240598E+02 -0.27877024088E+02  0.93644231326E+02  0.99635411116E+02  0.00000000000E+00 0. -1.
</event>
<event>
 7    1  0.2878477E-009  0.1309602E+03  0.7561462E-02  0.1226038E+00
          2   -1    0    0  501    0  0.00000000000E+00  0.00000000000E+00  0.23190348090E+03  0.23190348090E+03  0.00000000000E+00 0. -1.
         -2   -1    0    0    0  501 -0.00000000000E+00 -0.00000000000E+00 -0.94418771877E+02  0.94418771877E+02  0.00000000000E+00 0.  1.
         25    2    1    2    0    0 -0.76292525304E+02 -0.36628875893E+02  0.13133472506E+03  0.20014593383E+03  0.12508941145E+03 0.  0.
          5    1    3    3  502    0  0.25926241974E+02 -0.27895000206E+02  0.70844040189E+01  0.38961034890E+02  0.41800000000E+01 0. -1.
         -5    1    3    3    0  502 -0.10221876728E+03 -0.87338756864E+01  0.12425032104E+03  0.16118489894E+03  0.41800000000E+01 0. -1.
        -11    1    1    2    0    0  0.73441422658E+02  0.61565841429E+02 -0.99635303646E+01  0.96349713701E+02  0.00000000000E+00 0.  1.
         11    1    1    2    0    0  0.28511026464E+01 -0.24936965536E+02  0.16113514331E+02  0.29826605247E+02  0.00000000000E+00 0. -1.
</event>
<event>
 7    1  0.2878477E-009  0.3668613E+02  0.7561462E-02  0.1534118E+00
          1   -1    0    0  501    0  0.00000000000E+00  0.00000000000E+00  0.59494055852E+02  0.59494055852E+02  0.00000000000E+00 0. -1.
         -1   -1    0    0    0  501 -0.00000000000E+00 -0.00000000000E+00 -0.20943065206E+03  0.20943065206E+03  0.00000000000E+00 0.  1.
         25    2    1    2    0    0 -0.25047291030E+01 -0.17942875139E+02 -0.64926500842E+02  0.14210026254E+03  0.12509521839E+03 0.  0.
          5    1    3    3  502    0 -0.53013652565E+01 -0.22452579011E+02 -0.10187564400E+03  0.10453871062E+03  0.41800000000E+01 0.  1.
         -5    1    3    3    0  502  0.27966361534E+01  0.45097038720E+01  0.36949143154E+02  0.37561551919E+02  0.41800000000E+01 0.  1.
        -11    1    1    2    0    0 -0.15085670098E+02  0.20440736364E+02 -0.10024874224E+03  0.10341765548E+03  0.00000000000E+00 0.  1.
         11    1    1    2    0    0  0.17590399202E+02 -0.24978612254E+01  0.15238646869E+02  0.23406789895E+02  0.00000000000E+00 0. -1.
</event>
<event>
 7    1  0.2878477E-009  0.8200147E+02  0.7561462E-02  0.1323466E+00
          1   -1    0    0  501    0  0.00000000000E+00  0.00000000000E+00  0.70472142393E+02  0.70472142393E+02  0.00000000000E+00 0. -1.
         -1   -1    0    0    0  501 -0.00000000000E+00 -0.00000000000E+00 -0.28157798243E+03  0.28157798243E+03  0.00000000000E+00 0.  1.
         25    2    1    2    0    0  0.30614157330E+02 -0.41586114871E+02 -0.24019210681E+03  0.27569164887E+03  0.12508799103E+03 0.  0.
          5    1    3    3  502    0  0.48951735474E+02 -0.62711419716E+02 -0.79562038179E+02  0.11259034101E+03  0.41800000000E+01 0. -1.
         -5    1    3    3    0  502 -0.18337578143E+02  0.21125304844E+02 -0.16063006863E+03  0.16310130786E+03  0.41800000000E+01 0. -1.
        -11    1    1    2    0    0 -0.14862747546E+02  0.41385258139E+01  0.32106385356E+02  0.35620901746E+02  0.00000000000E+00 0. -1.
         11    1    1    2    0    0 -0.15751409784E+02  0.37447589057E+02 -0.30201185831E+01  0.40737574212E+02  0.00000000000E+00 0.  1.
</event>
<event>
 7    1  0.2878477E-009  0.1099690E+03  0.7561462E-02  0.1260627E+00
         -1   -1    0    0    0  501 -0.00000000000E+00  0.00000000000E+00  0.14169342141E+03  0.14169342141E+03  0.00000000000E+00 0.  1.
          1   -1    0    0  501    0  0.00000000000E+00 -0.00000000000E+00 -0.10121601471E+03  0.10121601471E+03  0.00000000000E+00 0. -1.
         25    2    1    2    0    0  0.45529833149E+02 -0.13783181409E+02  0.30799537368E+02  0.13730696000E+03  0.12506657414E+03 0.  0.
          5    1    3    3  502    0  0.43446802163E+02 -0.59143618732E+02 -0.12340230485E+02  0.74534193115E+02  0.41800000000E+01 0.  1.
         -5    1    3    3    0  502  0.20830309857E+01  0.45360437323E+02  0.43139767853E+02  0.62772766887E+02  0.41800000000E+01 0.  1.
        -11    1    1    2    0    0 -0.40952097203E+02  0.49828271777E+02  0.20522763353E+02  0.67683932727E+02  0.00000000000E+00 0.  1.
         11    1    1    2    0    0 -0.45777359455E+01 -0.36045090368E+02 -0.10844894026E+02  0.37918543386E+02  0.00000000000E+00 0. -1.
</event>
<event>
 7    1  0.2878477E-009  0.1174625E+03  0.7561462E-02  0.1247343E+00
          1   -1    0    0  501    0  0.00000000000E+00  0.00000000000E+00  0.34499498459E+03  0.34499498459E+03  0.00000000000E+00 0. -1.
         -1   -1    0    0    0  501 -0.00000000000E+00 -0.00000000000E+00 -0.41869001590E+02  0.41869001590E+02  0.00000000000E+00 0.  1.
         25    2    1    2    0    0  0.50757877945E+02 -0.90521932250E+01  0.13725559499E+03  0.19272449463E+03  0.12508128596E+03 0.  0.
          5    1    3    3  502    0 -0.23460864986E+02 -0.45684197168E+02  0.42081089658E+02  0.66526299789E+02  0.41800000000E+01 0. -1.
         -5    1    3    3    0  502  0.74218742932E+02  0.36632003943E+02  0.95174505332E+02  0.12619819484E+03  0.41800000000E+01 0. -1.
        -11    1    1    2    0    0  0.23059146203E+02 -0.86306101454E+01  0.33915423596E+02  0.41910232793E+02  0.00000000000E+00 0.  1.
         11    1    1    2    0    0 -0.73817024148E+02  0.17682803370E+02  0.13195496441E+03  0.15222925876E+03  0.00000000000E+00 0. -1.
</event>
<event>
 6    1  0.2878477E-009  0.8658486E+02  0.7561462E-02  0.1311339E+00
          1   -1    0    0  501    0  0.00000000000E+00  0.00000000000E+00  0.43038394312E+03  0.43038394312E+03  0.00000000000E+00 0. -1.
         -1   -1    0    0    0  501 -0.00000000000E+00 -0.00000000000E+00 -0.28429045869E+02  0.28429045869E+02  0.00000000000E+00 0.  1.
          5    1    1    2  502    0  0.36973024501E+02 -0.94674822687E+01  0.16076673067E+03  0.16528778494E+03  0.41800000000E+01 0. -1.
         -5    1    1    2    0  502 -0.47651534775E+02  0.14079665536E+02  0.17732331641E+02  0.52922714721E+02  0.41800000000E+01 0. -1.
        -11    1    1    2    0    0  0.36711904490E+02 -0.30848080597E+02  0.16141198816E+03  0.16838407861E+03  0.00000000000E+00 0. -1.
         11    1    1    2    0    0 -0.26033394217E+02  0.26235897330E+02  0.62043846791E+02  0.72218410726E+02  0.00000000000E+00 0.  1.
</event>
<event>
 7    1  0.2878477E-009  0.9151267E+02  0.7561462E-02  0.1299229E+00
          2   -1    0    0  501    0  0.00000000000E+00  0.00000000000E+00  0.35979938412E+03  0.35979938412E+03  0.00000000000E+00 0. -1.
         -2   -1    0    0    0  501 -0.00000000000E+00 -0.00000000000E+00 -0.39131722143E+02  0.39131722143E+02  0.00000000000E+00 0.  1.
         25    2    1    2    0    0  0.23356639659E+02 -0.25876138937E+02  0.23963372178E+03  0.27255966733E+03  0.12509733994E+03 0.  0.
          5    1    3    3  502    0  0.47528956281E+02 -0.37889861882E+02  0.23746753887E+03  0.24515902540E+03  0.41800000000E+01 0. -1.
         -5    1    3    3    0  502 -0.24172316622E+02  0.12013722945E+02  0.21661829079E+01  0.27400641932E+02  0.41800000000E+01 0. -1.
        -11    1    1    2    0    0  0.33871933253E+02  0.11572861151E+02  0.44000528300E+02  0.56721120125E+02  0.00000000000E+00 0.  1.
         11    1    1    2    0    0 -0.57228572912E+02  0.14303277786E+02  0.37033411902E+02  0.69650318808E+02  0.00000000000E+00 0. -1.
</event>
<event>
 7    1  0.2878477E-009  0.9461508E+02  0.7561462E-02  0.1292045E+00
         -2   -1    0    0    0  501 -0.00000000000E+00  0.00000000000E+00  0.21978126764E+03  0.21978126764E+03  0.00000000000E+00 0. -1.
          2   -1    0    0  501    0  0.00000000000E+00 -0.00000000000E+00 -0.66974794788E+02  0.66974794788E+02  0.00000000000E+00 0.  1.
         25    2    1    2    0    0  0.50854314982E+02 -0.13902304575E+02  0.10206123053E+03  0.16983809874E+03  0.12509616134E+03 0.  0.
          5    1    3    3  502    0  0.33807813339E+02 -0.40036318821E+02  0.12181461142E+03  0.13267308326E+03  0.41800000000E+01 0. -1.
         -5    1    3    3    0  502  0.17046501643E+02  0.26134014246E+02 -0.19753380891E+02  0.37165015478E+02  0.41800000000E+01 0. -1.
        -11    1    1    2    0    0 -0.77531470578E+02  0.11766755431E+02  0.35082639267E+02  0.85909120828E+02  0.00000000000E+00 0.  1.
         11    1    1    2    0    0  0.26677155596E+02  0.21355491441E+01  0.15662603054E+02  0.31008842856E+02  0.00000000000E+00 0. -1.
</event>
<event>
 7    1  0.2878477E-009  0.8515170E+02  0.7561462E-02  0.1315036E+00
         -1   -1    0    0    0  501 -0.00000000000E+00  0.00000000000E+00  0.67324399228E+02  0.67324399228E+02  0.00000000000E+00 0.  1.
          1   -1    0    0  501    0  0.00000000000E+00 -0.00000000000E+00 -0.19078809135E+03  0.19078809135E+03  0.00000000000E+00 0. -1.
         25    2    1    2    0    0 -0.19488928168E+02  0.19221945034E+02 -0.46348998371E+02  0.13620103839E+03  0.12511271604E+03 0.  0.
          5    1    3    3  502    0  0.28139385285E+02 -0.17741069245E+02 -0.64845991439E+02  0.73000311971E+02  0.41800000000E+01 0.  1.
         -5    1    3    3    0  502 -0.47628313452E+02  0.36963014279E+02  0.18496993068E+02  0.63200726416E+02  0.41800000000E+01 0.  1.
        -11    1    1    2    0    0 -0.14983030469E+02  0.19440689202E+02  0.47844221791E+01  0.25006445054E+02  0.00000000000E+00 0.  1.
         11    1    1    2    0    0  0.34471958637E+02 -0.38662634236E+02 -0.81899115931E+02  0.96905007139E+02  0.00000000000E+00 0. -1.
</event>
<event>
 7    1  0.2878477E-009  0.1338227E+03  0.7561462E-02  0.1221891E+00
         -2   -1    0    0    0  501 -0.00000000000E+00  0.00000000000E+00  0.11877290630E+02  0.11877290630E+02  0.00000000000E+00 0.  1.
          2   -1    0    0  501    0  0.00000000000E+00 -0.00000000000E+00 -0.16351722532E+04  0.16351722532E+04  0.00000000000E+00 0. -1.
         25    2    1    2    0    0 -0.78630585320E+02 -0.10111359383E+02 -0.11131509876E+04  0.11229590309E+04  0.12508739154E+03 0.  0.
          5    1    3    3  502    0  0.12717820278E+02 -0.47271487025E+02 -0.40177231689E+03  0.40476512135E+03  0.41800000000E+01 0. -1.
         -5    1    3    3    0  502 -0.91348405598E+02  0.37160127642E+02 -0.71137867066E+03  0.71819390958E+03  0.41800000000E+01 0. -1.
        -11    1    1    2    0    0  0.66371483439E+02  0.46743715607E+02 -0.36227097033E+03  0.37125517465E+03  0.00000000000E+00 0. -1.
         11    1    1    2    0    0  0.12259101881E+02 -0.36632356224E+02 -0.14787300465E+03  0.15283533821E+03  0.00000000000E+00 0.  1.
</event>
<event>
 7    1  0.2878477E-009  0.8521710E+02  0.7561462E-02  0.1314866E+00
         -1   -1    0    0    0  501 -0.00000000000E+00  0.00000000000E+00  0.20389571716E+02  0.20389571716E+02  0.00000000000E+00 0.  1.
          1   -1    0    0  501    0  0.00000000000E+00 -0.00000000000E+00 -0.69788854613E+03  0.69788854613E+03  0.00000000000E+00 0. -1.
         25    2    1    2    0    0  0.12903966313E+02  0.36721148615E+02 -0.47429830061E+03  0.49205866258E+03  0.12509154390E+03 0.  0.
          5    1    3    3  502    0 -0.34595251424E+02 -0.17784850557E+02 -0.31063212695E+03  0.31308612716E+03  0.41800000000E+01 0.  1.
         -5    1    3    3    0  502  0.47499217738E+02  0.54505999172E+02 -0.16366617367E+03  0.17897253542E+03  0.41800000000E+01 0.  1.
        -11    1    1    2    0    0 -0.50580797133E+01  0.10164994625E+02  0.51838639099E+01  0.12481335311E+02  0.00000000000E+00 0.  1.
         11    1    1    2    0    0 -0.78458865999E+01 -0.46886143240E+02 -0.20838453771E+03  0.21373811995E+03  0.00000000000E+00 0. -1.
</event>
<event>
 7    1  0.2878477E-009  0.8720149E+02  0.7561462E-02  0.1309774E+00
          1   -1    0    0  501    0  0.00000000000E+00  0.00000000000E+00  0.56181188352E+03  0.56181188352E+03  0.00000000000E+00 0. -1.
         -1   -1    0    0    0  501 -0.00000000000E+00 -0.00000000000E+00 -0.22999885558E+02  0.22999885558E+02  0.00000000000E+00 0.  1.
         25    2    1    2    0    0 -0.19275000978E+02 -0.25113643548E+02  0.33179297186E+03  0.35600016055E+03  0.12508923768E+03 0.  0.
          5    1    3    3  502    0  0.20070815400E+02  0.11645148315E+02  0.28059016796E+03  0.28157905082E+03  0.41800000000E+01 0.  1.
         -5    1    3    3    0  502 -0.39345816378E+02 -0.36758791863E+02  0.51202803902E+02  0.74421109728E+02  0.41800000000E+01 0.  1.
        -11    1    1    2    0    0 -0.37103313742E+02  0.11005652991E+02  0.95842692646E+02  0.10336151132E+03  0.00000000000E+00 0. -1.
         11    1    1    2    0    0  0.56378314720E+02  0.14107990557E+02  0.11117633346E+03  0.12545009721E+03  0.00000000000E+00 0.  1.
</event>
<event>
 7    1  0.2878477E-009  0.9174189E+02  0.7561462E-02  0.1298687E+00
          1   -1    0    0  501    0  0.00000000000E+00  0.00000000000E+00  0.57488789659E+02  0.57488789659E+02  0.00000000000E+00 0. -1.
         -1   -1    0    0    0  501 -0.00000000000E+00 -0.00000000000E+00 -0.29828587174E+03  0.29828587174E+03  0.00000000000E+00 0.  1.
         25    2    1    2    0    0 -0.18451367491E+01 -0.35012144790E+01 -0.23191730213E+03  0.26353145104E+03  0.12509007806E+03 0.  0.
          5    1    3    3  502    0 -0.29956288220E+02  0.53216947658E+02 -0.10213081423E+03  0.11906972049E+03  0.41800000000E+01 0. -1.
         -5    1    3    3    0  502  0.28111151471E+02 -0.56718162137E+02 -0.12978648790E+03  0.14446173055E+03  0.41800000000E+01 0. -1.
        -11    1    1    2    0    0 -0.26998828273E+02  0.10799657866E+02 -0.39827319992E+02  0.49313129650E+02  0.00000000000E+00 0.  1.
         11    1    1    2    0    0  0.28843965022E+02 -0.72984433867E+01  0.30947540046E+02  0.42930080701E+02  0.00000000000E+00 0. -1.
</event>
<event>
 7    1  0.2878477E-009  0.1664888E+03  0.7561462E-02  0.1181560E+00
          1   -1    0    0  501    0  0.00000000000E+00  0.00000000000E+00  0.74123270334E+03  0.74123270334E+03  0.00000000000E+00 0. -1.
         -1   -1    0    0    0  501 -0.00000000000E+00 -0.00000000000E+00 -0.40333121264E+02  0.40333121264E+02  0.00000000000E+00 0.  1.
         25    2    1    2    0    0  0.12309337165E+03 -0.37266971064E+02  0.28629040342E+03  0.33786510039E+03  0.12509926335E+03 0.  0.
          5    1    3    3  502    0  0.10823396994E+03 -0.78432240835E+02  0.19385079043E+03  0.23550331208E+03  0.41800000000E+01 0.  1.
         -5    1    3    3    0  502  0.14859401710E+02  0.41165269770E+02  0.92439612999E+02  0.10236178831E+03  0.41800000000E+01 0.  1.
        -11    1    1    2    0    0 -0.12858285419E+03  0.11677790756E+02  0.30884101504E+03  0.33474272772E+03  0.00000000000E+00 0.  1.
         11    1    1    2    0    0  0.54894825432E+01  0.25589180308E+02  0.10576816361E+03  0.10895799650E+03  0.00000000000E+00 0. -1.
</event>
<event>
 7    1  0.2878477E-009  0.9566368E+02  0.7561462E-02  0.1289688E+00
         -1   -1    0    0    0  501 -0.00000000000E+00  0.00000000000E+00  0.27642091461E+02  0.27642091461E+02  0.00000000000E+00 0.  1.
          1   -1    0    0  501    0  0.00000000000E+00 -0.00000000000E+00 -0.50579688119E+03  0.50579688119E+03  0.00000000000E+00 0. -1.
         25    2    1    2    0    0 -0.33193958347E+02  0.32266161271E+02 -0.29127475863E+03  0.32036281518E+03  0.12509358217E+03 0.  0.
          5    1    3    3  502    0 -0.25959128068E+02  0.58745881476E+02 -0.61846390372E+02  0.89260312136E+02  0.41800000000E+01 0.  1.
         -5    1    3    3    0  502 -0.72348302787E+01 -0.26479720205E+02 -0.22942836826E+03  0.23110250305E+03  0.41800000000E+01 0.  1.
        -11    1    1    2    0    0  0.25557842349E+02  0.28311954352E+02 -0.98766438075E+02  0.10587530097E+03  0.00000000000E+00 0.  1.
         11    1    1    2    0    0  0.76361159982E+01 -0.60578115623E+02 -0.88113593019E+02  0.10720085650E+03  0.00000000000E+00 0. -1.
</event>
<event>
 7    1  0.2878477E-009  0.1722792E+03  0.7561462E-02  0.1175492E+00
          1   -1    0    0  501    0  0.00000000000E+00  0.00000000000E+00  0.10907152401E+04  0.10907152401E+04  0.00000000000E+00 0. -1.
         -1   -1    0    0    0  501 -0.00000000000E+00 -0.00000000000E+00 -0.34518640423E+02  0.34518640423E+02  0.00000000000E+00 0.  1.
         25    2    1    2    0    0 -0.98480225812E+02  0.12312193135E+03  0.62943913016E+03  0.66083247947E+03  0.12509429439E+03 0.  0.
          5    1    3    3  502    0 -0.36897569510E+02  0.11015949478E+03  0.53349996313E+03  0.54601852348E+03  0.41800000000E+01 0. -1.
         -5    1    3    3    0  502 -0.61582656302E+02  0.12962436574E+02  0.95939167033E+02  0.11481395599E+03  0.41800000000E+01 0. -1.
        -11    1    1    2    0    0  0.80849718654E+02 -0.62748598312E+02  0.15701924322E+03  0.18742760292E+03  0.00000000000E+00 0.  1.
         11    1    1    2    0    0  0.17630507158E+02 -0.60373333038E+02  0.26973822631E+03  0.27697379814E+03  0.00000000000E+00 0. -1.
</event>
<event>
 7    1  0.2878477E-009  0.1264451E+03  0.7561462E-02  0.1232828E+00
         -1   -1    0    0    0  501 -0.00000000000E+00  0.00000000000E+00  0.31408569775E+02  0.31408569775E+02  0.00000000000E+00 0.  1.
          1   -1    0    0  501    0  0.00000000000E+00 -0.00000000000E+00 -0.67922168301E+03  0.67922168301E+03  0.00000000000E+00 0. -1.
         25    2    1    2    0    0  0.23781117695E+02 -0.61462847480E+02 -0.52872013241E+03  0.54731238165E+03  0.12515047551E+03 0.  0.
          5    1    3    3  502    0 -0.32071406786E+02 -0.76826683653E+02 -0.31435229021E+03  0.32521646517E+03  0.41800000000E+01 0.  1.
         -5    1    3    3    0  502  0.55852524481E+02  0.15363836173E+02 -0.21436784219E+03  0.22209591648E+03  0.41800000000E+01 0.  1.
        -11    1    1    2    0    0  0.12297973042E+02  0.72648603207E+02 -0.72952687950E+02  0.10368777347E+03  0.00000000000E+00 0.  1.
         11    1    1    2    0    0 -0.36079090737E+02 -0.11185755727E+02 -0.46140292878E+02  0.59630097656E+02  0.00000000000E+00 0. -1.
</event>
<event>
 7    1  0.2878477E-009  0.1025665E+03  0.7561462E-02  0.1274990E+00
         -3   -1    0    0    0  501 -0.00000000000E+00  0.00000000000E+00  0.44206642900E+03  0.44206642900E+03  0.00000000000E+00 0.  1.
          3   -1    0    0  501    0  0.00000000000E+00 -0.00000000000E+00 -0.45157742124E+02  0.45157742124E+02  0.00000000000E+00 0. -1.
         25    2    1    2    0    0  0.32886365879E+02 -0.78894359736E+02  0.16651507710E+03  0.22512294376E+03  0.12508891176E+03 0.  0.
          5    1    3    3  502    0  0.58583220381E+02 -0.42772033026E+02  0.25109512648E+02  0.76872625458E+02  0.41800000000E+01 0. -1.
         -5    1    3    3    0  502 -0.25696854501E+02 -0.36122326710E+02  0.14140556445E+03  0.14825031830E+03  0.41800000000E+01 0. -1.
        -11    1    1    2    0    0 -0.27800321027E+02  0.39925901596E+02  0.28428445066E+02  0.56348131791E+02  0.00000000000E+00 0. -1.
         11    1    1    2    0    0 -0.50860448528E+01  0.38968458140E+02  0.20196516471E+03  0.20575309557E+03  0.00000000000E+00 0.  1.
</event>
<event>
 7    1  0.2878477E-009  0.3191834E+03  0.7561462E-02  0.1076026E+00
          1   -1    0    0  501    0  0.00000000000E+00  0.00000000000E+00  0.18165492705E+04  0.18165492705E+04  0.00000000000E+00 0. -1.
         -1   -1    0    0    0  501 -0.00000000000E+00 -0.00000000000E+00 -0.96592118547E+02  0.96592118547E+02  0.00000000000E+00 0.  1.
         25    2    1    2    0    0 -0.25752768231E+03  0.17881637651E+03  0.14539283960E+04  0.14925996495E+04  0.12510047617E+03 0.  0.
          5    1    3    3  502    0 -0.89039634140E+02  0.10424828043E+03  0.85578158119E+03  0.86670372534E+03  0.41800000000E+01 0.  1.
         -5    1    3    3    0  502 -0.16848804817E+03  0.74568096079E+02  0.59814681485E+03  0.62589592413E+03  0.41800000000E+01 0.  1.
        -11    1    1    2    0    0  0.16130941646E+03 -0.84205447150E+02  0.10366302891E+03  0.20942136646E+03  0.00000000000E+00 0.  1.
         11    1    1    2    0    0  0.96218265852E+02 -0.94610929364E+02  0.16236572704E+03  0.21112037314E+03  0.00000000000E+00 0. -1.
</event>
<event>
 7    1  0.2878477E-009  0.1014094E+03  0.7561462E-02  0.1277360E+00
         -2   -1    0    0    0  501 -0.00000000000E+00  0.00000000000E+00  0.86172067548E+02  0.86172067548E+02  0.00000000000E+00 0.  1.
          2   -1    0    0  501    0  0.00000000000E+00 -0.00000000000E+00 -0.14771478742E+03  0.14771478742E+03  0.00000000000E+00 0. -1.
         25    2    1    2    0    0 -0.11365821877E+02 -0.15955111381E+02 -0.29520383955E+02  0.13002323673E+03  0.12510332344E+03 0.  0.
          5    1    3    3  502    0 -0.58314907148E+02  0.13870648663E+02 -0.41431745923E+02  0.72986884166E+02  0.41800000000E+01 0.  1.
         -5    1    3    3    0  502  0.46949085271E+02 -0.29825760044E+02  0.11911361968E+02  0.57036352565E+02  0.41800000000E+01 0.  1.
        -11    1    1    2    0    0  0.47604612148E+02  0.17400334836E+02 -0.42464550337E+02  0.66122679812E+02  0.00000000000E+00 0. -1.
         11    1    1    2    0    0 -0.36238790272E+02 -0.14452234549E+01  0.10442214420E+02  0.37740938425E+02  0.00000000000E+00 0.  1.
</event>
<event>
 7    1  0.2878477E-009  0.1534273E+03  0.7561462E-02  0.1196324E+00
         -2   -1    0    0    0  501 -0.00000000000E+00  0.00000000000E+00  0.53862067587E+02  0.53862067587E+02  0.00000000000E+00 0. -1.
          2   -1    0    0  501    0  0.00000000000E+00 -0.00000000000E+00 -0.47859492180E+03  0.47859492180E+03  0.00000000000E+00 0.  1.
         25    2    1    2    0    0  0.19890925409E+02  0.10858608551E+03 -0.24452269124E+03  0.29601526374E+03  0.12508838057E+03 0.  0.
          5    1    3    3  502    0  0.28717910126E+02  0.13185340138E+03 -0.23054765123E+03  0.26716985179E+03  0.41800000000E+01 0. -1.
         -5    1    3    3    0  502 -0.88269847172E+01 -0.23267315870E+02 -0.13975040007E+02  0.28845411944E+02  0.41800000000E+01 0. -1.
        -11    1    1    2    0    0  0.38629870503E+02 -0.31602269062E+02 -0.96062806801E+02  0.10825448330E+03  0.00000000000E+00 0. -1.
         11    1    1    2    0    0 -0.58520795912E+02 -0.76983816453E+02 -0.84147356174E+02  0.12818724235E+03  0.00000000000E+00 0.  1.
</event>
<event>
 7    1  0.2878477E-009  0.1958809E+03  0.7561462E-02  0.1153262E+00
         -1   -1    0    0    0  501 -0.00000000000E+00  0.00000000000E+00  0.51049355172E+03  0.51049355172E+03  0.00000000000E+00 0.  1.
          1   -1    0    0  501    0  0.00000000000E+00 -0.00000000000E+00 -0.76918851939E+02  0.76918851939E+02  0.00000000000E+00 0. -1.
         25    2    1    2    0    0  0.12928478480E+03  0.10361233616E+03  0.20551190627E+03  0.29211712450E+03  0.12508876456E+03 0.  0.
          5    1    3    3  502    0  0.90488602266E+02 -0.48633612460E+01  0.10867801820E+03  0.14156349622E+03  0.41800000000E+01 0.  1.
         -5    1    3    3    0  502  0.38796182539E+02  0.10847569741E+03  0.96833888064E+02  0.15055362827E+03  0.41800000000E+01 0.  1.
        -11    1    1    2    0    0  0.59254395017E+01 -0.32422290551E+02  0.57644237074E+02  0.66401610114E+02  0.00000000000E+00 0. -1.
         11    1    1    2    0    0 -0.13521022431E+03 -0.71190045614E+02  0.17041855644E+03  0.22889366905E+03  0.00000000000E+00 0.  1.
</event>
<event>
 7    1  0.2878477E-009  0.2146175E+03  0.7561462E-02  0.1137961E+00
         -2   -1    0    0    0  501 -0.00000000000E+00  0.00000000000E+00  0.35981506345E+03  0.35981506345E+03  0.00000000000E+00 0.  1.
          2   -1    0    0  501    0  0.00000000000E+00 -0.00000000000E+00 -0.18696415073E+03  0.18696415073E+03  0.00000000000E+00 0. -1.
         25    2    1    2    0    0 -0.71945100446E+02 -0.19612997439E+03 -0.29196195043E+02  0.24524172776E+03  0.12509205768E+03 0.  0.
          5    1    3    3  502    0 -0.29121534631E+02 -0.16188701731E+03 -0.67898443919E+02  0.17799758774E+03  0.41800000000E+01 0.  1.
         -5    1    3    3    0  502 -0.42823565815E+02 -0.34242957079E+02  0.38702248876E+02  0.67244140017E+02  0.41800000000E+01 0.  1.
        -11    1    1    2    0    0  0.20203855445E+02  0.81040347764E+02  0.31233819435E+02  0.89169979348E+02  0.00000000000E+00 0.  1.
         11    1    1    2    0    0  0.51741245001E+02  0.11508962663E+03  0.17081328833E+03  0.21236750708E+03  0.00000000000E+00 0. -1.
</event>
<event>
 7    1  0.2878477E-009  0.1144151E+03  0.7561462E-02  0.1252605E+00
          1   -1    0    0  501    0  0.00000000000E+00  0.00000000000E+00  0.27667381788E+03  0.27667381788E+03  0.00000000000E+00 0. -1.
         -1   -1    0    0    0  501 -0.00000000000E+00 -0.00000000000E+00 -0.71318550022E+02  0.71318550022E+02  0.00000000000E+00 0.  1.
         25    2    1    2    0    0 -0.32985589527E+02 -0.84358361595E+02  0.11357441002E+03  0.19170693993E+03  0.12509205378E+03 0.  0.
          5    1    3    3  502    0  0.12698403593E+02 -0.68938641588E+02  0.12371814968E+03  0.14225835201E+03  0.41800000000E+01 0. -1.
         -5    1    3    3    0  502 -0.45683993120E+02 -0.15419720007E+02 -0.10143739659E+02  0.49448587914E+02  0.41800000000E+01 0. -1.
        -11    1    1    2    0    0  0.22847069437E+02  0.93687317357E+02  0.42980643532E+02  0.10557763842E+03  0.00000000000E+00 0.  1.
         11    1    1    2    0    0  0.10138520090E+02 -0.93289557623E+01  0.48800214312E+02  0.50707789560E+02  0.00000000000E+00 0. -1.
</event>
<event>
 7    1  0.2878477E-009  0.1879552E+03  0.7561462E-02  0.1160319E+00
          2   -1    0    0  501    0  0.00000000000E+00  0.00000000000E+00  0.29686058748E+04  0.29686058748E+04  0.00000000000E+00 0. -1.
         -2   -1    0    0    0  501 -0.00000000000E+00 -0.00000000000E+00 -0.29416095537E+02  0.29416095537E+02  0.00000000000E+00 0.  1.
         25    2    1    2    0    0  0.80302255268E+02 -0.16159397592E+03  0.25570870918E+04  0.25664963426E+04  0.12509203043E+03 0.  0.
          5    1    3    3  502    0  0.11601263907E+02 -0.83396655161E+02  0.18347853972E+04  0.18367211322E+04  0.41800000000E+01 0. -1.
         -5    1    3    3    0  502  0.68700991361E+02 -0.78197320759E+02  0.72230169466E+03  0.72977521039E+03  0.41800000000E+01 0. -1.
        -11    1    1    2    0    0 -0.25710799353E+02  0.12359109098E+02  0.13321606349E+03  0.13623623730E+03  0.00000000000E+00 0. -1.
         11    1    1    2    0    0 -0.54591455916E+02  0.14923486682E+03  0.24888662395E+03  0.29528939046E+03  0.00000000000E+00 0.  1.
</event>
<event>
 7    1  0.2878477E-009  0.1242173E+03  0.7561462E-02  0.1236298E+00
          1   -1    0    0  501    0  0.00000000000E+00  0.00000000000E+00  0.16289452520E+03  0.16289452520E+03  0.00000000000E+00 0. -1.
         -1   -1    0    0    0  501 -0.00000000000E+00 -0.00000000000E+00 -0.24188792972E+03  0.24188792972E+03  0.00000000000E+00 0.  1.
         25    2    1    2    0    0  0.89829765936E+02  0.35515244144E+02 -0.17918776960E+03  0.23892951421E+03  0.12509331146E+03 0.  0.
          5    1    3    3  502    0  0.87651960549E+02  0.72911056834E+02 -0.10202787107E+03  0.15305569990E+03  0.41800000000E+01 0.  1.
         -5    1    3    3    0  502  0.21778053874E+01 -0.37395812690E+02 -0.77159898529E+02  0.85873814309E+02  0.41800000000E+01 0.  1.
        -11    1    1    2    0    0 -0.75833830295E+02 -0.28657319818E+02  0.11737919634E+03  0.14265303196E+03  0.00000000000E+00 0. -1.
         11    1    1    2    0    0 -0.13995935641E+02 -0.68579243266E+01 -0.17184831253E+02  0.23199908744E+02  0.00000000000E+00 0.  1.
</event>
<event>
 7    1  0.2878477E-009  0.1530108E+03  0.7561462E-02  0.1196821E+00
         -2   -1    0    0    0  501 -0.00000000000E+00  0.00000000000E+00  0.73478251294E+02  0.73478251294E+02  0.00000000000E+00 0. -1.
          2   -1    0    0  501    0  0.00000000000E+00 -0.00000000000E+00 -0.36104234912E+03  0.36104234912E+03  0.00000000000E+00 0.  1.
         25    2    1    2    0    0 -0.69330764683E+02 -0.98929721483E+02 -0.16990014400E+03  0.24311841300E+03  0.12508660633E+03 0.  0.
          5    1    3    3  502    0 -0.30854712634E+02 -0.11555337523E+03 -0.16007676086E+03  0.19986654944E+03  0.41800000000E+01 0.  1.
         -5    1    3    3    0  502 -0.38476052049E+02  0.16623653743E+02 -0.98233831446E+01  0.43251863561E+02  0.41800000000E+01 0.  1.
        -11    1    1    2    0    0  0.32602336849E+02 -0.59138586276E+01 -0.55959000478E+01  0.33603574054E+02  0.00000000000E+00 0. -1.
         11    1    1    2    0    0  0.36728427834E+02  0.10484358011E+03 -0.11206805377E+03  0.15779861336E+03  0.00000000000E+00 0.  1.
</event>
<event>
 7    1  0.2878477E-009  0.9458839E+02  0.7561462E-02  0.1292106E+00
          1   -1    0    0  501    0  0.00000000000E+00  0.00000000000E+00  0.40031688498E+03  0.40031688498E+03  0.00000000000E+00 0. -1.
         -1   -1    0    0    0  501 -0.00000000000E+00 -0.00000000000E+00 -0.33944708211E+02  0.33944708211E+02  0.00000000000E+00 0.  1.
         25    2    1    2    0    0 -0.34648800124E+02 -0.19155761334E+01  0.16643724620E+03  0.21107958630E+03  0.12509606728E+03 0.  0.
          5    1    3    3  502    0  0.16206586980E+02 -0.28994843454E+02  0.14602279385E+03  0.14981149199E+03  0.41800000000E+01 0.  1.
         -5    1    3    3    0  502 -0.50855387104E+02  0.27079267321E+02  0.20414452350E+02  0.61268094314E+02  0.41800000000E+01 0.  1.
        -11    1    1    2    0    0  0.47530158406E+02  0.37207632367E+02  0.13981884595E+03  0.15229193527E+03  0.00000000000E+00 0.  1.
         11    1    1    2    0    0 -0.12881358282E+02 -0.35292056233E+02  0.60116084615E+02  0.70890071617E+02  0.00000000000E+00 0. -1.
</event>
<event>
 7    1  0.2878477E-009  0.2169050E+03  0.7561462E-02  0.1136212E+00
         -2   -1    0    0    0  501 -0.00000000000E+00  0.00000000000E+00  0.17543510496E+02  0.17543510496E+02  0.00000000000E+00 0.  1.
          2   -1    0    0  501    0  0.00000000000E+00 -0.00000000000E+00 -0.33781832073E+04  0.33781832073E+04  0.00000000000E+00 0. -1.
         25    2    1    2    0    0 -0.18855375421E+03  0.64185430449E+02 -0.23491488105E+04  0.23608938141E+04  0.12508868722E+03 0.  0.
          5    1    3    3  502    0 -0.15480441361E+02  0.43132570248E+02 -0.22859734999E+03  0.23318293999E+03  0.41800000000E+01 0.  1.
         -5    1    3    3    0  502 -0.17307331285E+03  0.21052860202E+02 -0.21205514606E+04  0.21277108741E+04  0.41800000000E+01 0.  1.
        -11    1    1    2    0    0  0.93487099202E+02  0.82871417697E+01 -0.33672781214E+03  0.34956277534E+03  0.00000000000E+00 0.  1.
         11    1    1    2    0    0  0.95066655007E+02 -0.72472572219E+02 -0.67476307415E+03  0.68527012839E+03  0.00000000000E+00 0. -1.
</event>
<event>
 7    1  0.2878477E-009  0.1137597E+03  0.7561462E-02  0.1253762E+00
          3   -1    0    0  501    0  0.00000000000E+00  0.00000000000E+00  0.32512212030E+02  0.32512212030E+02  0.00000000000E+00 0.  1.
         -3   -1    0    0    0  501 -0.00000000000E+00 -0.00000000000E+00 -0.56007377252E+03  0.56007377252E+03  0.00000000000E+00 0. -1.
         25    2    1    2    0    0 -0.31523671421E+02 -0.19627222982E+02 -0.44577481557E+03  0.46447995952E+03  0.12508987513E+03 0.  0.
          5    1    3    3  502    0  0.30788706581E+02 -0.50958526113E+02 -0.23320987228E+03  0.24072605336E+03  0.41800000000E+01 0. -1.
         -5    1    3    3    0  502 -0.62312378001E+02  0.31331303131E+02 -0.21256494329E+03  0.22375390616E+03  0.41800000000E+01 0. -1.
        -11    1    1    2    0    0  0.59424412976E+00  0.52688008765E+02 -0.36705905988E+02  0.64216064408E+02  0.00000000000E+00 0.  1.
         11    1    1    2    0    0  0.30929427291E+02 -0.33060785783E+02 -0.45080838938E+02  0.63889960623E+02  0.00000000000E+00 0. -1.
</event>
<event>
 7    1  0.2878477E-009  0.1242383E+03  0.7561462E-02  0.1236265E+00
          1   -1    0    0  501    0  0.00000000000E+00  0.00000000000E+00  0.18637908087E+04  0.18637908087E+04  0.00000000000E+00 0. -1.
         -1   -1    0    0    0  501 -0.00000000000E+00 -0.00000000000E+00 -0.16772650902E+02  0.16772650902E+02  0.00000000000E+00 0.  1.
         25    2    1    2    0    0  0.31819258022E+02  0.96488371800E+02  0.14870255601E+04  0.14957321922E+04  0.12508918148E+03 0.  0.
          5    1    3    3  502    0 -0.47661784773E+01  0.75923524877E+02  0.13548509188E+04  0.13569913716E+04  0.41800000000E+01 0.  1.
         -5    1    3    3    0  502  0.36585436500E+02  0.20564846922E+02  0.13217464137E+03  0.13874082065E+03  0.41800000000E+01 0.  1.
        -11    1    1    2    0    0 -0.48593189737E+02 -0.21267061816E+02  0.20477627378E+03  0.21153465038E+03  0.00000000000E+00 0.  1.
         11    1    1    2    0    0  0.16773931714E+02 -0.75221309984E+02  0.15521632392E+03  0.17329661703E+03  0.00000000000E+00 0. -1.
</event>
<event>
 7    1  0.2878477E-009  0.1171343E+03  0.7561462E-02  0.1247901E+00
          1   -1    0    0  501    0  0.00000000000E+00  0.00000000000E+00  0.18649339951E+04  0.18649339951E+04  0.00000000000E+00 0. -1.
         -1   -1    0    0    0  501 -0.00000000000E+00 -0.00000000000E+00 -0.17160332234E+02  0.17160332234E+02  0.00000000000E+00 0.  1.
         25    2    1    2    0    0  0.28036112769E+02 -0.74528051797E+02  0.16342717820E+04  0.16409850076E+04  0.12508830249E+03 0.  0.
          5    1    3    3  502    0 -0.26543202578E+02  0.84564190672E+01  0.84606163497E+03  0.84653045733E+03  0.41800000000E+01 0. -1.
         -5    1    3    3    0  502  0.54579315347E+02 -0.82984470864E+02  0.78821014705E+03  0.79445455022E+03  0.41800000000E+01 0. -1.
        -11    1    1    2    0    0  0.15021472354E+02  0.59051564796E+02  0.84076838477E+02  0.10383470857E+03  0.00000000000E+00 0.  1.
         11    1    1    2    0    0 -0.43057585124E+02  0.15476487002E+02  0.12942504237E+03  0.13727461120E+03  0.00000000000E+00 0. -1.
</event>
<event>
 7    1  0.2878477E-009  0.1329430E+03  0.7561462E-02  0.1223153E+00
         -3   -1    0    0    0  501 -0.00000000000E+00  0.00000000000E+00  0.66752027105E+03  0.66752027105E+03  0.00000000000E+00 0.  1.
          3   -1    0    0  501    0  0.00000000000E+00 -0.00000000000E+00 -0.30865663897E+02  0.30865663897E+02  0.00000000000E+00 0. -1.
         25    2    1    2    0    0 -0.19416391710E+02  0.80629245825E+02  0.45184113785E+03  0.47610794252E+03  0.12506113515E+03 0.  0.
          5    1    3    3  502    0  0.46196324007E+02  0.67969716759E+02  0.27358789142E+03  0.28569527382E+03  0.41800000000E+01 0.  1.
         -5    1    3    3    0  502 -0.65612715717E+02  0.12659529066E+02  0.17825324643E+03  0.19041266870E+03  0.41800000000E+01 0.  1.
        -11    1    1    2    0    0 -0.92248777657E+01 -0.86846795917E+02  0.16564319122E+03  0.18725685869E+03  0.00000000000E+00 0.  1.
         11    1    1    2    0    0  0.28641269476E+02  0.62175500920E+01  0.19170278087E+02  0.35021133737E+02  0.00000000000E+00 0. -1.
</event>
<event>
 7    1  0.2878477E-009  0.1339470E+03  0.7561462E-02  0.1221714E+00
         -4   -1    0    0    0  501 -0.00000000000E+00  0.00000000000E+00  0.10362369824E+04  0.10362369824E+04  0.00000000000E+00 0.  1.
          4   -1    0    0  501    0  0.00000000000E+00 -0.00000000000E+00 -0.18589762293E+02  0.18589762293E+02  0.00000000000E+00 0. -1.
         25    2    1    2    0    0 -0.71067606921E+02 -0.46836886001E+02  0.60398143263E+03  0.62264384871E+03  0.12508993856E+03 0.  0.
          5    1    3    3  502    0 -0.78195249526E+02  0.15854919731E+02  0.43375929652E+03  0.44105609082E+03  0.41800000000E+01 0.  1.
         -5    1    3    3    0  502  0.71276426045E+01 -0.62691805732E+02  0.17022213611E+03  0.18158775789E+03  0.41800000000E+01 0.  1.
        -11    1    1    2    0    0  0.80886875620E+02  0.65231588883E+02  0.35637473297E+03  0.37121529755E+03  0.00000000000E+00 0.  1.
         11    1    1    2    0    0 -0.98192686985E+01 -0.18394702882E+02  0.57291054462E+02  0.60967598389E+02  0.00000000000E+00 0. -1.
</event>
<event>
 7    1  0.2878477E-009  0.1043348E+03  0.7561462E-02  0.1271436E+00
          1   -1    0    0  501    0  0.00000000000E+00  0.00000000000E+00  0.64913151296E+02  0.64913151296E+02  0.00000000000E+00 0. -1.
         -1   -1    0    0    0  501 -0.00000000000E+00 -0.00000000000E+00 -0.24431043730E+03  0.24431043730E+03  0.00000000000E+00 0.  1.
         25    2    1    2    0    0  0.38458943714E+02  0.43903733764E+02 -0.12731239382E+03  0.18778353219E+03  0.12509029200E+03 0.  0.
          5    1    3    3  502    0 -0.66074643162E+01 -0.19637837298E+02  0.14705541941E+02  0.25749341782E+02  0.41800000000E+01 0. -1.
         -5    1    3    3    0  502  0.45066408031E+02  0.63541571062E+02 -0.14201793576E+03  0.16203419041E+03  0.41800000000E+01 0. -1.
        -11    1    1    2    0    0  0.26257823909E+02  0.70086136920E+01 -0.99330579261E+01  0.28935438861E+02  0.00000000000E+00 0. -1.
         11    1    1    2    0    0 -0.64716767624E+02 -0.50912347456E+02 -0.42151834266E+02  0.92504617545E+02  0.00000000000E+00 0.  1.
</event>
<event>
 7    1  0.2878477E-009  0.8596162E+02  0.7561462E-02  0.1312937E+00
          1   -1    0    0  501    0  0.00000000000E+00  0.00000000000E+00  0.16411307862E+03  0.16411307862E+03  0.00000000000E+00 0. -1.
         -1   -1    0    0    0  501 -0.00000000000E+00 -0.00000000000E+00 -0.13689858424E+03  0.13689858424E+03  0.00000000000E+00 0.  1.
         25    2    1    2    0    0  0.36759339281E+02  0.47646355998E+02  0.96905563060E+02  0.16929262611E+03  0.12509148987E+03 0.  0.
          5    1    3    3  502    0  0.46631641352E+02  0.46967695819E+02 -0.52959238754E+01  0.66528141680E+02  0.41800000000E+01 0. -1.
         -5    1    3    3    0  502 -0.98723020709E+01  0.67866017989E+00  0.10220148694E+03  0.10276448443E+03  0.41800000000E+01 0. -1.
        -11    1    1    2    0    0 -0.34994926360E+02  0.10620046058E+02  0.50667418684E+01  0.36920212924E+02  0.00000000000E+00 0. -1.
         11    1    1    2    0    0 -0.17644129210E+01 -0.58266402057E+02 -0.74757810544E+02  0.94798823827E+02  0.00000000000E+00 0.  1.
</event>
<event>
 7    1  0.2878477E-009  0.6079512E+02  0.7561462E-02  0.1394525E+00
          4   -1    0    0  501    0  0.00000000000E+00  0.00000000000E+00  0.29152695297E+03  0.29152695297E+03  0.00000000000E+00 0.  1.
         -4   -1    0    0    0  501 -0.00000000000E+00 -0.00000000000E+00 -0.59302005152E+02  0.59302005152E+02  0.00000000000E+00 0. -1.
         25    2    1    2    0    0 -0.44577608100E+02 -0.27391930656E+02  0.20035231315E+03  0.24192243649E+03  0.12509170589E+03 0.  0.
          5    1    3    3  502    0 -0.23895072613E+02 -0.15649949389E+02 -0.97247397897E+01  0.30462080938E+02  0.41800000000E+01 0.  1.
         -5    1    3    3    0  502 -0.20682535486E+02 -0.11741981266E+02  0.21007705294E+03  0.21146035555E+03  0.41800000000E+01 0.  1.
        -11    1    1    2    0    0 -0.87976649617E+01  0.76712417038E+01 -0.25535191029E+02  0.28076553189E+02  0.00000000000E+00 0. -1.
         11    1    1    2    0    0  0.53375273061E+02  0.19720688952E+02  0.57407825693E+02  0.80829968439E+02  0.00000000000E+00 0.  1.
</event>
<event>
 7    1  0.2878477E-009  0.7304572E+02  0.7561462E-02  0.1350032E+00
          1   -1    0    0  501    0  0.00000000000E+00  0.00000000000E+00  0.36904282515E+02  0.36904282515E+02  0.00000000000E+00 0. -1.
         -1   -1    0    0    0  501 -0.00000000000E+00 -0.00000000000E+00 -0.40613338367E+03  0.40613338367E+03  0.00000000000E+00 0.  1.
         25    2    1    2    0    0  0.18857563614E+02  0.30672807058E+02 -0.12935921757E+03  0.18349161412E+03  0.12505573352E+03 0.  0.
          5    1    3    3  502    0  0.23811309294E+02 -0.57938424796E+01 -0.14214966510E+03  0.14430712647E+03  0.41800000000E+01 0.  1.
         -5    1    3    3    0  502 -0.49537456794E+01  0.36466649537E+02  0.12790447536E+02  0.39184487656E+02  0.41800000000E+01 0.  1.
        -11    1    1    2    0    0 -0.48284173109E+02 -0.24425873686E+02 -0.21108603327E+03  0.21791121614E+03  0.00000000000E+00 0.  1.
         11    1    1    2    0    0  0.29426609495E+02 -0.62469333719E+01 -0.28783850319E+02  0.41634835920E+02  0.00000000000E+00 0. -1.
</event>
<event>
 7    1  0.2878477E-009  0.7394630E+02  0.7561462E-02  0.1347165E+00
          2   -1    0    0  501    0  0.00000000000E+00  0.00000000000E+00  0.11130664660E+03  0.11130664660E+03  0.00000000000E+00 0. -1.
         -2   -1    0    0    0  501 -0.00000000000E+00 -0.00000000000E+00 -0.15350220768E+03  0.15350220768E+03  0.00000000000E+00 0.  1.
         25    2    1    2    0    0 -0.35906671981E+02  0.28882859498E+02  0.41334192933E+02  0.13957349959E+03  0.12509491443E+03 0.  0.
          5    1    3    3  502    0 -0.61077302321E+02  0.38538770792E+02 -0.17757588901E+02  0.74488106947E+02  0.41800000000E+01 0. -1.
         -5    1    3    3    0  502  0.25170630340E+02 -0.96559112941E+01  0.59091781834E+02  0.65085392638E+02  0.41800000000E+01 0. -1.
        -11    1    1    2    0    0  0.28179001401E+02 -0.13918619831E+02  0.77863184568E+01  0.32379173137E+02  0.00000000000E+00 0. -1.
         11    1    1    2    0    0  0.77276705801E+01 -0.14964239667E+02 -0.91316072474E+02  0.92856181558E+02  0.00000000000E+00 0.  1.
</event>
<event>
 7    1  0.2878477E-009  0.1297604E+03  0.7561462E-02  0.1227812E+00
          2   -1    0    0  501    0  0.00000000000E+00  0.00000000000E+00  0.95504643684E+03  0.95504643684E+03  0.00000000000E+00 0. -1.
         -2   -1    0    0    0  501 -0.00000000000E+00 -0.00000000000E+00 -0.24608822302E+02  0.24608822302E+02  0.00000000000E+00 0.  1.
         25    2    1    2    0    0  0.97109134367E+01 -0.10687553135E+03  0.42114235036E+03  0.45224462554E+03  0.12509053129E+03 0.  0.
          5    1    3    3  502    0  0.41761411523E+02 -0.14927764577E+02  0.26101065647E+03  0.26478460839E+03  0.41800000000E+01 0.  1.
         -5    1    3    3    0  502 -0.32050498086E+02 -0.91947766772E+02  0.16013169389E+03  0.18746001715E+03  0.41800000000E+01 0.  1.
        -11    1    1    2    0    0 -0.26974023916E+02  0.38622160865E+02  0.83830871632E+02  0.96160721268E+02  0.00000000000E+00 0.  1.
         11    1    1    2    0    0  0.17263110480E+02  0.68253370485E+02  0.42546439254E+03  0.43124991233E+03  0.00000000000E+00 0. -1.
</event>
<event>
 7    1  0.2878477E-009  0.1502495E+03  0.7561462E-02  0.1200167E+00
         -1   -1    0    0    0  501 -0.00000000000E+00  0.00000000000E+00  0.10772951073E+03  0.10772951073E+03  0.00000000000E+00 0.  1.
          1   -1    0    0  501    0  0.00000000000E+00 -0.00000000000E+00 -0.48888860292E+03  0.48888860292E+03  0.00000000000E+00 0. -1.
         25    2    1    2    0    0 -0.10913435993E+03  0.27621319973E+02 -0.40905261532E+03  0.44231758519E+03  0.12509020038E+03 0.  0.
          5    1    3    3  502    0  0.16318460162E+02 -0.16427386605E+02 -0.14233286059E+03  0.14426457215E+03  0.41800000000E+01 0.  1.
         -5    1    3    3    0  502 -0.12545282009E+03  0.44048706578E+02 -0.26671975473E+03  0.29805301304E+03  0.41800000000E+01 0.  1.
        -11    1    1    2    0    0  0.51639347921E+02 -0.59028962863E+02  0.39423270503E+02  0.87779467802E+02  0.00000000000E+00 0. -1.
         11    1    1    2    0    0  0.57495012007E+02  0.31407642890E+02 -0.11529747368E+02  0.66521060665E+02  0.00000000000E+00 0.  1.
</event>
<event>
 7    1  0.2878477E-009  0.1896358E+03  0.7561462E-02  0.1158790E+00
          1   -1    0    0  501    0  0.00000000000E+00  0.00000000000E+00  0.39031010758E+03  0.39031010758E+03  0.00000000000E+00 0. -1.
         -1   -1    0    0    0  501 -0.00000000000E+00 -0.00000000000E+00 -0.10448705339E+03  0.10448705339E+03  0.00000000000E+00 0.  1.
         25    2    1    2    0    0  0.16857192324E+03 -0.15639640427E+02  0.13694168644E+03  0.25112209076E+03  0.12509271491E+03 0.  0.
          5    1    3    3  502    0  0.75013177822E+02  0.53729128571E+02  0.75956082040E+02  0.11958509482E+03  0.41800000000E+01 0.  1.
         -5    1    3    3    0  502  0.93558745420E+02 -0.69368768998E+02  0.60985604404E+02  0.13153699594E+03  0.41800000000E+01 0.  1.
        -11    1    1    2    0    0 -0.14048746043E+03  0.58130834716E+01  0.15899456984E+03  0.21224936211E+03  0.00000000000E+00 0.  1.
         11    1    1    2    0    0 -0.28084462814E+02  0.98265569552E+01 -0.10113202096E+02  0.31425708103E+02  0.00000000000E+00 0. -1.
</event>
<event>
 7    1  0.2878477E-009  0.1120093E+03  0.7561462E-02  0.1256893E+00
          1   -1    0    0  501    0  0.00000000000E+00  0.00000000000E+00  0.20232944941E+03  0.20232944941E+03  0.00000000000E+00 0. -1.
         -1   -1    0    0    0  501 -0.00000000000E+00 -0.00000000000E+00 -0.75451707110E+02  0.75451707110E+02  0.00000000000E+00 0.  1.
         25    2    1    2    0    0 -0.13020286245E+02  0.41284638241E+02  0.12353405012E+03  0.18105745749E+03  0.12508873716E+03 0.  0.
          5    1    3    3  502    0 -0.27060997845E+02 -0.40351045087E+02  0.54643701240E+02  0.73238725611E+02  0.41800000000E+01 0. -1.
         -5    1    3    3    0  502  0.14040711600E+02  0.81635683328E+02  0.68890348879E+02  0.10781873188E+03  0.41800000000E+01 0. -1.
        -11    1    1    2    0    0 -0.11331370243E+02  0.21868010180E+02 -0.11884353924E+02  0.27346804000E+02  0.00000000000E+00 0.  1.
         11    1    1    2    0    0  0.24351656488E+02 -0.63152648421E+02  0.15228046104E+02  0.69376895033E+02  0.00000000000E+00 0. -1.
</event>
<event>
 7    1  0.3723531E-009  0.8784813E+02  0.7561462E-02  0.1308148E+00
          1   -1    0    0  501    0  0.00000000000E+00  0.00000000000E+00  0.77275256807E+02  0.77275256807E+02  0.00000000000E+00 0. -1.
         -1   -1    0    0    0  501 -0.00000000000E+00 -0.00000000000E+00 -0.19157717496E+03  0.19157717496E+03  0.00000000000E+00 0.  1.
         25    2    1    2    0    0  0.41414328303E+02 -0.36193401161E+02 -0.57000674930E+02  0.14805845269E+03  0.12508844709E+03 0.  0.
          5    1    3    3  502    0  0.52686633900E+01  0.11264420027E+02  0.35535841750E+02  0.37880264273E+02  0.41800000000E+01 0. -1.
         -5    1    3    3    0  502  0.36145664913E+02 -0.47457821188E+02 -0.92536516680E+02  0.11017818842E+03  0.41800000000E+01 0. -1.
        -11    1    1    2    0    0 -0.94878184849E+01  0.61380656278E+02 -0.49418690714E+02  0.79371346571E+02  0.00000000000E+00 0.  1.
         11    1    1    2    0    0 -0.31926509818E+02 -0.25187255117E+02 -0.78825525072E+01  0.41422632503E+02  0.00000000000E+00 0. -1.
</event>
<event>
 7    1  0.2878477E-009  0.2074756E+03  0.7561462E-02  0.1143581E+00
         -2   -1    0    0    0  501 -0.00000000000E+00  0.00000000000E+00  0.47028041945E+03  0.47028041945E+03  0.00000000000E+00 0.  1.
          2   -1    0    0  501    0  0.00000000000E+00 -0.00000000000E+00 -0.10873450479E+03  0.10873450479E+03  0.00000000000E+00 0. -1.
         25    2    1    2    0    0 -0.52762210753E+02  0.19011735384E+03  0.16790008930E+03  0.28769109321E+03  0.12508903234E+03 0.  0.
          5    1    3    3  502    0 -0.37462624971E+02  0.14133330159E+03  0.18294527394E+03  0.23423278179E+03  0.41800000000E+01 0.  1.
         -5    1    3    3    0  502 -0.15299585782E+02  0.48784052249E+02 -0.15045184643E+02  0.53458311420E+02  0.41800000000E+01 0.  1.
        -11    1    1    2    0    0  0.76363222669E+02 -0.11036007597E+03  0.11246124546E+03  0.17509488821E+03  0.00000000000E+00 0. -1.
         11    1    1    2    0    0 -0.23601011916E+02 -0.79757277871E+02  0.81184579900E+02  0.11622894283E+03  0.00000000000E+00 0.  1.
</event>
<event>
 7    1  0.2878477E-009  0.1561730E+03  0.7561462E-02  0.1193086E+00
         -2   -1    0    0    0  501 -0.00000000000E+00  0.00000000000E+00  0.42144306185E+02  0.42144306185E+02  0.00000000000E+00 0.  1.
          2   -1    0    0  501    0  0.00000000000E+00 -0.00000000000E+00 -0.69708868990E+03  0.69708868990E+03  0.00000000000E+00 0. -1.
         25    2    1    2    0    0  0.11647979512E+03  0.58104188657E+02 -0.40493872908E+03  0.44335870007E+03  0.12509165920E+03 0.  0.
          5    1    3    3  502    0  0.96551023897E+02 -0.14749278630E+01 -0.13412279521E+03  0.16531990873E+03  0.41800000000E+01 0.  1.
         -5    1    3    3    0  502  0.19928771225E+02  0.59579116520E+02 -0.27081593388E+03  0.27803879134E+03  0.41800000000E+01 0.  1.
        -11    1    1    2    0    0 -0.12256371684E+03 -0.33040510015E+02 -0.17237718008E+03  0.21407342712E+03  0.00000000000E+00 0.  1.
         11    1    1    2    0    0  0.60839217186E+01 -0.25063678643E+02 -0.77628474553E+02  0.81800868896E+02  0.00000000000E+00 0. -1.
</event>
<event>
 7    1  0.2878477E-009  0.1306953E+03  0.7561462E-02  0.1226428E+00
          1   -1    0    0  501    0  0.00000000000E+00  0.00000000000E+00  0.37589572099E+03  0.37589572099E+03  0.00000000000E+00 0. -1.
         -1   -1    0    0    0  501 -0.00000000000E+00 -0.00000000000E+00 -0.84618668011E+02  0.84618668011E+02  0.00000000000E+00 0.  1.
         25    2    1    2    0    0 -0.83480204379E+02  0.41806855961E+02  0.29075336644E+03  0.33000238545E+03  0.12508915453E+03 0.  0.
          5    1    3    3  502    0 -0.69182417011E+02  0.78104299693E+02  0.25988816016E+03  0.28008180349E+03  0.41800000000E+01 0. -1.
         -5    1    3    3    0  502 -0.14297787368E+02 -0.36297443731E+02  0.30865206280E+02  0.49920581965E+02  0.41800000000E+01 0. -1.
        -11    1    1    2    0    0  0.31563632224E+02 -0.55672055337E+02 -0.27792755703E+02  0.69771612381E+02  0.00000000000E+00 0.  1.
         11    1    1    2    0    0  0.51916572155E+02  0.13865199376E+02  0.28316442246E+02  0.60740391171E+02  0.00000000000E+00 0. -1.
</event>
<event>
 7    1  0.2878477E-009  0.1598399E+03  0.7561462E-02  0.1188878E+00
          1   -1    0    0  501    0  0.00000000000E+00  0.00000000000E+00  0.49087559635E+03  0.49087559635E+03  0.00000000000E+00 0. -1.
         -1   -1    0    0    0  501 -0.00000000000E+00 -0.00000000000E+00 -0.10327759299E+03  0.10327759299E+03  0.00000000000E+00 0.  1.
         25    2    1    2    0    0  0.53209965617E+02  0.12827905424E+03  0.38503495226E+03  0.42800089370E+03  0.12508410910E+03 0.  0.
          5    1    3    3  502    0 -0.14309496565E+02  0.48818195279E+02  0.26081777924E+03  0.26576561901E+03  0.41800000000E+01 0. -1.
         -5    1    3    3    0  502  0.67519462182E+02  0.79460858963E+02  0.12421717303E+03  0.16223527469E+03  0.41800000000E+01 0. -1.
        -11    1    1    2    0    0  0.15815953400E+02  0.28702462059E+01 -0.72272495451E+01  0.17624296617E+02  0.00000000000E+00 0.  1.
         11    1    1    2    0    0 -0.69025919018E+02 -0.13114930045E+03  0.97903006465E+01  0.14852799901E+03  0.00000000000E+00 0. -1.
</event>
<event>
 7    1  0.2878477E-009  0.1083339E+03  0.7561462E-02  0.1263687E+00
         -3   -1    0    0    0  501 -0.00000000000E+00  0.00000000000E+00  0.77404683410E+02  0.77404683410E+02  0.00000000000E+00 0.  1.
          3   -1    0    0  501    0  0.00000000000E+00 -0.00000000000E+00 -0.20274684493E+03  0.20274684493E+03  0.00000000000E+00 0. -1.
         25    2    1    2    0    0  0.93842349328E+01 -0.23913564048E+02 -0.79111015639E+01  0.12794731150E+03  0.12509199247E+03 0.  0.
          5    1    3    3  502    0  0.36871096435E+02  0.38028601296E+02  0.16751290702E+02  0.55711133618E+02  0.41800000000E+01 0. -1.
         -5    1    3    3    0  502 -0.27486861503E+02 -0.61942165343E+02 -0.24662392265E+02  0.72236177882E+02  0.41800000000E+01 0. -1.
        -11    1    1    2    0    0  0.90955770655E+01  0.57011010979E+02 -0.82236560646E+02  0.10047804139E+03  0.00000000000E+00 0. -1.
         11    1    1    2    0    0 -0.18479811998E+02 -0.33097446932E+02 -0.35194499309E+02  0.51726175449E+02  0.00000000000E+00 0.  1.
</event>
<event>
 7    1  0.2878477E-009  0.6661209E+02  0.7561462E-02  0.1372008E+00
          2   -1    0    0  501    0  0.00000000000E+00  0.00000000000E+00  0.87600294542E+03  0.87600294542E+03  0.00000000000E+00 0. -1.
         -2   -1    0    0    0  501 -0.00000000000E+00 -0.00000000000E+00 -0.15484451691E+02  0.15484451691E+02  0.00000000000E+00 0.  1.
         25    2    1    2    0    0  0.37745080725E+02  0.47335396654E+01  0.55937722822E+03  0.57445420724E+03  0.12509058819E+03 0.  0.
          5    1    3    3  502    0  0.26599932431E+02  0.38549671428E+01  0.56164650157E+03  0.56230479484E+03  0.41800000000E+01 0. -1.
         -5    1    3    3    0  502  0.11145148294E+02  0.87857252259E+00 -0.22692733507E+01  0.12149412402E+02  0.41800000000E+01 0. -1.
        -11    1    1    2    0    0 -0.59725697454E+02  0.18085605475E+02  0.14747758642E+03  0.16013708676E+03  0.00000000000E+00 0.  1.
         11    1    1    2    0    0  0.21980616729E+02 -0.22819145140E+02  0.15366367910E+03  0.15689610311E+03  0.00000000000E+00 0. -1.
</event>
<event>
 7    1  0.2878477E-009  0.1240714E+03  0.7561462E-02  0.1236528E+00
          2   -1    0    0  501    0  0.00000000000E+00  0.00000000000E+00  0.10875839495E+03  0.10875839495E+03  0.00000000000E+00 0. -1.
         -2   -1    0    0    0  501 -0.00000000000E+00 -0.00000000000E+00 -0.20395470692E+03  0.20395470692E+03  0.00000000000E+00 0.  1.
         25    2    1    2    0    0 -0.64544754079E+02 -0.56076159407E+02 -0.11042874829E+03  0.18748086477E+03  0.12507599798E+03 0.  0.
          5    1    3    3  502    0 -0.15410048343E+02 -0.82187436541E+02 -0.10050111559E+03  0.13080592857E+03  0.41800000000E+01 0. -1.
         -5    1    3    3    0  502 -0.49134705736E+02  0.26111277134E+02 -0.99276327043E+01  0.56674936192E+02  0.41800000000E+01 0. -1.
        -11    1    1    2    0    0 -0.10387406115E+02  0.25781940812E+02  0.32312624086E+02  0.42622908783E+02  0.00000000000E+00 0. -1.
         11    1    1    2    0    0  0.74932160194E+02  0.30294218595E+02 -0.17080187753E+02  0.82609328319E+02  0.00000000000E+00 0.  1.
</event>
<event>
 7    1  0.2878477E-009  0.7111855E+02  0.7561462E-02  0.1356330E+00
          1   -1    0    0  501    0  0.00000000000E+00  0.00000000000E+00  0.53420040729E+03  0.53420040729E+03  0.00000000000E+00 0. -1.
         -1   -1    0    0    0  501 -0.00000000000E+00 -0.00000000000E+00 -0.30501659974E+02  0.30501659974E+02  0.00000000000E+00 0.  1.
         25    2    1    2    0    0 -0.23194873304E+02 -0.31792790064E+02  0.39316794145E+03  0.41446097660E+03  0.12509231510E+03 0.  0.
          5    1    3    3  502    0 -0.18282365837E+02 -0.31800803923E+02  0.40190709496E+03  0.40359920888E+03  0.41800000000E+01 0.  1.
         -5    1    3    3    0  502 -0.49125074666E+01  0.80138586762E-02 -0.87391535146E+01  0.10861767719E+02  0.41800000000E+01 0.  1.
        -11    1    1    2    0    0  0.18488555119E+02  0.63847017671E+02  0.90002304637E+02  0.11188692138E+03  0.00000000000E+00 0. -1.
         11    1    1    2    0    0  0.47063181848E+01 -0.32054227608E+02  0.20528501231E+02  0.38354169280E+02  0.00000000000E+00 0.  1.
</event>
<event>
 7    1  0.2878477E-009  0.1032740E+03  0.7561462E-02  0.1273558E+00
         -3   -1    0    0    0  501 -0.00000000000E+00  0.00000000000E+00  0.52980522880E+02  0.52980522880E+02  0.00000000000E+00 0.  1.
          3   -1    0    0  501    0  0.00000000000E+00 -0.00000000000E+00 -0.34492120744E+03  0.34492120744E+03  0.00000000000E+00 0. -1.
         25    2    1    2    0    0  0.36586694799E+02 -0.69933214216E+02 -0.14937482968E+03  0.21020977199E+03  0.12508424287E+03 0.  0.
          5    1    3    3  502    0  0.36133494813E+02 -0.72140409864E+02 -0.17043839467E+03  0.18861756800E+03  0.41800000000E+01 0. -1.
         -5    1    3    3    0  502  0.45319998642E+00  0.22071956472E+01  0.21063564993E+02  0.21592203988E+02  0.41800000000E+01 0. -1.
        -11    1    1    2    0    0  0.28721179116E+02  0.39804979935E+02 -0.45877923182E+02  0.67187248738E+02  0.00000000000E+00 0.  1.
         11    1    1    2    0    0 -0.65307873915E+02  0.30128234282E+02 -0.96687931699E+02  0.12050470959E+03  0.00000000000E+00 0. -1.
</event>
<event>
 7    1  0.2878477E-009  0.1457280E+03  0.7561462E-02  0.1205823E+00
          2   -1    0    0  501    0  0.00000000000E+00  0.00000000000E+00  0.18826652272E+03  0.18826652272E+03  0.00000000000E+00 0. -1.
         -2   -1    0    0    0  501 -0.00000000000E+00 -0.00000000000E+00 -0.16781033396E+03  0.16781033396E+03  0.00000000000E+00 0.  1.
         25    2    1    2    0    0 -0.12465573396E+03 -0.48278084693E+02  0.57543640808E+02  0.19190800692E+03  0.12509031557E+03 0.  0.
          5    1    3    3  502    0 -0.59660937488E+01  0.19199900391E+02  0.51202122406E+02  0.55166658305E+02  0.41800000000E+01 0. -1.
         -5    1    3    3    0  502 -0.11868964021E+03 -0.67477985084E+02  0.63415184021E+01  0.13674134861E+03  0.41800000000E+01 0. -1.
        -11    1    1    2    0    0  0.77958509493E+02  0.36964897639E+02 -0.65521763811E+02  0.10833759455E+03  0.00000000000E+00 0.  1.
         11    1    1    2    0    0  0.46697224466E+02  0.11313187054E+02  0.28434311756E+02  0.55831255218E+02  0.00000000000E+00 0. -1.
</event>
<event>
 7    1  0.2878477E-009  0.1530583E+03  0.7561462E-02  0.1196765E+00
         -3   -1    0    0    0  501 -0.00000000000E+00  0.00000000000E+00  0.72906015511E+02  0.72906015511E+02  0.00000000000E+00 0.  1.
          3   -1    0    0  501    0  0.00000000000E+00 -0.00000000000E+00 -0.37744001439E+03  0.37744001439E+03  0.00000000000E+00 0. -1.
         25    2    1    2    0    0 -0.88280790118E+02 -0.82662581782E+02 -0.20397572064E+03  0.26809780087E+03  0.12507492110E+03 0.  0.
          5    1    3    3  502    0 -0.10953663071E+03 -0.41010485350E+02 -0.18170438107E+03  0.21613442085E+03  0.41800000000E+01 0. -1.
         -5    1    3    3    0  502  0.21255840595E+02 -0.41652096433E+02 -0.22271339576E+02  0.51963380020E+02  0.41800000000E+01 0. -1.
        -11    1    1    2    0    0  0.88872608043E+02  0.36679656658E+02 -0.96277254220E+02  0.13606265966E+03  0.00000000000E+00 0. -1.
         11    1    1    2    0    0 -0.59181792563E+00  0.45982925124E+02 -0.42810240103E+01  0.46185569369E+02  0.00000000000E+00 0.  1.
</event>
<event>
 7    1  0.2878477E-009  0.9387424E+02  0.7561462E-02  0.1293732E+00
          1   -1    0    0  501    0  0.00000000000E+00  0.00000000000E+00  0.22490385248E+02  0.22490385248E+02  0.00000000000E+00 0.  1.
         -1   -1    0    0    0  501 -0.00000000000E+00 -0.00000000000E+00 -0.58581617719E+03  0.58581617719E+03  0.00000000000E+00 0. -1.
         25    2    1    2    0    0  0.18803514048E+02  0.41009803988E+02 -0.36749081426E+03  0.39081018413E+03  0.12509086815E+03 0.  0.
          5    1    3    3  502    0 -0.40350759971E+02 -0.18038177422E+02 -0.81267943763E+02  0.92604053683E+02  0.41800000000E+01 0.  1.
         -5    1    3    3    0  502  0.59154274020E+02  0.59047981410E+02 -0.28622287050E+03  0.29820613045E+03  0.41800000000E+01 0.  1.
        -11    1    1    2    0    0 -0.30153094889E+02 -0.36765032847E+02 -0.19929980406E+03  0.20489335926E+03  0.00000000000E+00 0. -1.
         11    1    1    2    0    0  0.11349580841E+02 -0.42447711405E+01  0.34648263727E+01  0.12603019046E+02  0.00000000000E+00 0.  1.
</event>
<event>
 7    1  0.2878477E-009  0.1125346E+03  0.7561462E-02  0.1255947E+00
         -2   -1    0    0    0  501 -0.00000000000E+00  0.00000000000E+00  0.11213192137E+03  0.11213192137E+03  0.00000000000E+00 0. -1.
          2   -1    0    0  501    0  0.00000000000E+00 -0.00000000000E+00 -0.22937792647E+03  0.22937792647E+03  0.00000000000E+00 0.  1.
         25    2    1    2    0    0 -0.36106773535E+02  0.81178559092E+01 -0.18243418775E+03  0.22427888241E+03  0.12509670481E+03 0.  0.
          5    1    3    3  502    0 -0.21519831159E+02  0.66525166206E+02 -0.94444014045E+02  0.11758335367E+03  0.41800000000E+01 0. -1.
         -5    1    3    3    0  502 -0.14586942376E+02 -0.58407310296E+02 -0.87990173707E+02  0.10669552874E+03  0.41800000000E+01 0. -1.
        -11    1    1    2    0    0  0.89187738148E+01  0.39148192830E+02  0.41612351326E+02  0.57824850290E+02  0.00000000000E+00 0.  1.
         11    1    1    2    0    0  0.27187999720E+02 -0.47266048739E+02  0.23575831330E+02  0.59406115132E+02  0.00000000000E+00 0. -1.
</event>
<event>
 7    1  0.2878477E-009  0.1147434E+03  0.7561462E-02  0.1252030E+00
         -2   -1    0    0    0  501 -0.00000000000E+00  0.00000000000E+00  0.49205491570E+02  0.49205491570E+02  0.00000000000E+00 0.  1.
          2   -1    0    0  501    0  0.00000000000E+00 -0.00000000000E+00 -0.30840190934E+03  0.30840190934E+03  0.00000000000E+00 0. -1.
         25    2    1    2    0    0 -0.76905149385E+01  0.42009666089E+02 -0.19820414615E+03  0.23823628727E+03  0.12509072289E+03 0.  0.
          5    1    3    3  502    0  0.56336568469E+02  0.33645742342E+02 -0.11904125977E+03  0.13599315737E+03  0.41800000000E+01 0. -1.
         -5    1    3    3    0  502 -0.64027083408E+02  0.83639237465E+01 -0.79162886384E+02  0.10224312990E+03  0.41800000000E+01 0. -1.
        -11    1    1    2    0    0 -0.29702263295E+02 -0.52388002709E+02 -0.21345778930E+02  0.63893423377E+02  0.00000000000E+00 0.  1.
         11    1    1    2    0    0  0.37392778233E+02  0.10378336620E+02 -0.39646492688E+02  0.55477690268E+02  0.00000000000E+00 0. -1.
</event>
<event>
 7    1  0.2878477E-009  0.1612843E+03  0.7561462E-02  0.1187254E+00
          1   -1    0    0  501    0  0.00000000000E+00  0.00000000000E+00  0.82684794626E+02  0.82684794626E+02  0.00000000000E+00 0. -1.
         -1   -1    0    0    0  501 -0.00000000000E+00 -0.00000000000E+00 -0.34144551608E+03  0.34144551608E+03  0.00000000000E+00 0.  1.
         25    2    1    2    0    0  0.11884327534E+03 -0.28717719786E+02 -0.18542182847E+03  0.25491295958E+03  0.12510368087E+03 0.  0.
          5    1    3    3  502    0  0.11416645678E+03  0.25985256835E+02 -0.14598585102E+03  0.18718588228E+03  0.41800000000E+01 0. -1.
         -5    1    3    3    0  502  0.46768185623E+01 -0.54702976621E+02 -0.39435977445E+02  0.67727077304E+02  0.41800000000E+01 0. -1.
        -11    1    1    2    0    0 -0.19493992125E+02 -0.29378237136E+02 -0.29814119111E+02  0.46173349939E+02  0.00000000000E+00 0.  1.
         11    1    1    2    0    0 -0.99349283215E+02  0.58095956923E+02 -0.43524773872E+02  0.12304400118E+03  0.00000000000E+00 0. -1.
</event>
<event>
 7    1  0.2878477E-009  0.1527802E+03  0.7561462E-02  0.1197098E+00
         -2   -1    0    0    0  501 -0.00000000000E+00  0.00000000000E+00  0.20877477603E+03  0.20877477603E+03  0.00000000000E+00 0.  1.
          2   -1    0    0  501    0  0.00000000000E+00 -0.00000000000E+00 -0.14894576230E+03  0.14894576230E+03  0.00000000000E+00 0. -1.
         25    2    1    2    0    0 -0.19000847657E+02  0.11390521526E+03  0.11027594082E+03  0.20284000058E+03  0.12509137634E+03 0.  0.
          5    1    3    3  502    0  0.37278941617E+02  0.65647496148E+01 -0.12214626907E+01  0.38102228238E+02  0.41800000000E+01 0.  1.
         -5    1    3    3    0  502 -0.56279789274E+02  0.10734046565E+03  0.11149740351E+03  0.16473777234E+03  0.41800000000E+01 0.  1.
        -11    1    1    2    0    0 -0.27908418164E+02 -0.88631119498E+02 -0.27875740001E+02  0.97012432340E+02  0.00000000000E+00 0.  1.
         11    1    1    2    0    0  0.46909265821E+02 -0.25274095766E+02 -0.22571187085E+02  0.57868105404E+02  0.00000000000E+00 0. -1.
</event>
<event>
 7    1  0.2878477E-009  0.1097720E+03  0.7561462E-02  0.1260993E+00
          1   -1    0    0  501    0  0.00000000000E+00  0.00000000000E+00  0.20681067472E+03  0.20681067472E+03  0.00000000000E+00 0. -1.
         -1   -1    0    0    0  501 -0.00000000000E+00 -0.00000000000E+00 -0.94919156938E+02  0.94919156938E+02  0.00000000000E+00 0.  1.
         25    2    1    2    0    0 -0.13621323994E+02 -0.21757855499E+02  0.15167994405E+03  0.19827752379E+03  0.12509287057E+03 0.  0.
          5    1    3    3  502    0 -0.65982911856E+02  0.27663012339E+01  0.10375846045E+03  0.12306375419E+03  0.41800000000E+01 0. -1.
         -5    1    3    3    0  502  0.52361587861E+02 -0.24524156733E+02  0.47921483602E+02  0.75213769600E+02  0.41800000000E+01 0. -1.
        -11    1    1    2    0    0  0.83706642918E+01 -0.36225118401E+02 -0.17764475984E+02  0.41205628630E+02  0.00000000000E+00 0.  1.
         11    1    1    2    0    0  0.52506597022E+01  0.57982973900E+02 -0.22023950291E+02  0.62246679237E+02  0.00000000000E+00 0. -1.
</event>
<event>
 7    1  0.2878477E-009  0.9653385E+02  0.7561462E-02  0.1287758E+00
          2   -1    0    0  501    0  0.00000000000E+00  0.00000000000E+00  0.49346220700E+03  0.49346220700E+03  0.00000000000E+00 0. -1.
         -2   -1    0    0    0  501 -0.00000000000E+00 -0.00000000000E+00 -0.30576680055E+02  0.30576680055E+02  0.00000000000E+00 0.  1.
         25    2    1    2    0    0 -0.39491798811E+02  0.18909276553E+02  0.17730185941E+03  0.22136122358E+03  0.12509068327E+03 0.  0.
          5    1    3    3  502    0 -0.65077376970E+02  0.22704118319E+02  0.36426157710E+02  0.78069708258E+02  0.41800000000E+01 0.  1.
         -5    1    3    3    0  502  0.25585578159E+02 -0.37948417662E+01  0.14087570170E+03  0.14329151532E+03  0.41800000000E+01 0.  1.
        -11    1    1    2    0    0 -0.26139269338E+02 -0.18777377513E+02  0.64911513782E+02  0.72452439084E+02  0.00000000000E+00 0.  1.
         11    1    1    2    0    0  0.65631068148E+02 -0.13189903979E+00  0.22067215376E+03  0.23022522439E+03  0.00000000000E+00 0. -1.
</event>
<event>
 7    1  0.2878477E-009  0.1116420E+03  0.7561462E-02  0.1257559E+00
          2   -1    0    0  501    0  0.00000000000E+00  0.00000000000E+00  0.29241709752E+03  0.29241709752E+03  0.00000000000E+00 0. -1.
         -2   -1    0    0    0  501 -0.00000000000E+00 -0.00000000000E+00 -0.74152628716E+02  0.74152628716E+02  0.00000000000E+00 0.  1.
         25    2    1    2    0    0  0.76450737707E+02  0.37376425580E+02  0.60924890937E+02  0.16310190775E+03  0.12509467411E+03 0.  0.
          5    1    3    3  502    0 -0.50267576810E+00  0.12694770161E+02  0.79050612598E+02  0.80174070774E+02  0.41800000000E+01 0. -1.
         -5    1    3    3    0  502  0.76953413475E+02  0.24681655419E+02 -0.18125721661E+02  0.82927836975E+02  0.41800000000E+01 0. -1.
        -11    1    1    2    0    0 -0.27650092025E+02  0.33184429767E+02  0.50893035969E+02  0.66752041752E+02  0.00000000000E+00 0.  1.
         11    1    1    2    0    0 -0.48800645681E+02 -0.70560855347E+02  0.10644654190E+03  0.13671577673E+03  0.00000000000E+00 0. -1.
</event>
<event>
 7    1  0.2878477E-009  0.8400264E+02  0.7561462E-02  0.1318062E+00
          1   -1    0    0  501    0  0.00000000000E+00  0.00000000000E+00  0.25466802344E+03  0.25466802344E+03  0.00000000000E+00 0. -1.
         -1   -1    0    0    0  501 -0.00000000000E+00 -0.00000000000E+00 -0.55652274121E+02  0.55652274121E+02  0.00000000000E+00 0.  1.
         25    2    1    2    0    0  0.37008529211E+01  0.41897097616E+02  0.17670060716E+03  0.22054263612E+03  0.12508751607E+03 0.  0.
          5    1    3    3  502    0 -0.33670008013E+02  0.56939135350E+02  0.38767163407E+02  0.76786066005E+02  0.41800000000E+01 0.  1.
         -5    1    3    3    0  502  0.37370860934E+02 -0.15042037734E+02  0.13793344375E+03  0.14375657011E+03  0.41800000000E+01 0.  1.
        -11    1    1    2    0    0  0.10021936646E+02 -0.45857895759E+02  0.43652627313E+02  0.64100996006E+02  0.00000000000E+00 0. -1.
         11    1    1    2    0    0 -0.13722789567E+02  0.39607981432E+01 -0.21337485150E+02  0.25676665437E+02  0.00000000000E+00 0.  1.
</event>
<event>
 7    1  0.2878477E-009  0.1132560E+03  0.7561462E-02  0.1254656E+00
          2   -1    0    0  501    0  0.00000000000E+00  0.00000000000E+00  0.13168176996E+03  0.13168176996E+03  0.00000000000E+00 0.  1.
         -2   -1    0    0    0  501 -0.00000000000E+00 -0.00000000000E+00 -0.13245010007E+03  0.13245010007E+03  0.00000000000E+00 0. -1.
         25    2    1    2    0    0 -0.56101969761E+02 -0.50637140472E+02 -0.29048269967E+01  0.14617894065E+03  0.12509313996E+03 0.  0.
          5    1    3    3  502    0 -0.40952873756E+02 -0.82157702561E+02  0.31303931075E+02  0.97079526470E+02  0.41800000000E+01 0. -1.
         -5    1    3    3    0  502 -0.15149096006E+02  0.31520562088E+02 -0.34208758072E+02  0.49099414182E+02  0.41800000000E+01 0. -1.
        -11    1    1    2    0    0  0.62770266771E+02  0.16897429703E+02  0.31954532183E+02  0.72434257421E+02  0.00000000000E+00 0.  1.
         11    1    1    2    0    0 -0.66682970094E+01  0.33739710769E+02 -0.29818035294E+02  0.45518671955E+02  0.00000000000E+00 0. -1.
</event>
<event>
 7    1  0.2878477E-009  0.1616622E+03  0.7561462E-02  0.1186833E+00
         -2   -1    0    0    0  501 -0.00000000000E+00  0.00000000000E+00  0.10616267105E+03  0.10616267105E+03  0.00000000000E+00 0.  1.
          2   -1    0    0  501    0  0.00000000000E+00 -0.00000000000E+00 -0.33151860680E+03  0.33151860680E+03  0.00000000000E+00 0. -1.
         25    2    1    2    0    0  0.71644635869E+02 -0.12837295679E+03 -0.17025288553E+03  0.25738342931E+03  0.12509042636E+03 0.  0.
          5    1    3    3  502    0  0.11246385935E+02 -0.61960888650E+02  0.19497998085E+01  0.63141959411E+02  0.41800000000E+01 0. -1.
         -5    1    3    3    0  502  0.60398249934E+02 -0.66412068139E+02 -0.17220268534E+03  0.19424146990E+03  0.41800000000E+01 0. -1.
        -11    1    1    2    0    0 -0.61845624578E+02  0.14123154932E+03 -0.42881656087E+02  0.16003146013E+03  0.00000000000E+00 0.  1.
         11    1    1    2    0    0 -0.97990112913E+01 -0.12858592534E+02 -0.12221394133E+02  0.20266388401E+02  0.00000000000E+00 0. -1.
</event>
<event>
 7    1  0.2878477E-009  0.8603591E+02  0.7561462E-02  0.1312746E+00
          2   -1    0    0  501    0  0.00000000000E+00  0.00000000000E+00  0.44595204589E+03  0.44595204589E+03  0.00000000000E+00 0. -1.
         -2   -1    0    0    0  501 -0.00000000000E+00 -0.00000000000E+00 -0.33463915252E+02  0.33463915252E+02  0.00000000000E+00 0.  1.
         25    2    1    2    0    0  0.72514143555E+01 -0.26421056366E+02  0.32324073939E+03  0.34768239945E+03  0.12509124691E+03 0.  0.
          5    1    3    3  502    0  0.25332727375E+02  0.26821020770E+02  0.26459606587E+02  0.45592734203E+02  0.41800000000E+01 0.  1.
         -5    1    3    3    0  502 -0.18081313019E+02 -0.53242077136E+02  0.29678113281E+03  0.30208966524E+03  0.41800000000E+01 0.  1.
        -11    1    1    2    0    0  0.31204724847E+02  0.25155872743E+02  0.83774459932E+02  0.92869332522E+02  0.00000000000E+00 0. -1.
         11    1    1    2    0    0 -0.38456139203E+02  0.12651836226E+01  0.54729313137E+01  0.38864229172E+02  0.00000000000E+00 0.  1.
</event>
<event>
 7    1  0.2878477E-009  0.2306739E+03  0.7561462E-02  0.1126166E+00
         -2   -1    0    0    0  501 -0.00000000000E+00  0.00000000000E+00  0.56256979512E+02  0.56256979512E+02  0.00000000000E+00 0.  1.
          2   -1    0    0  501    0  0.00000000000E+00 -0.00000000000E+00 -0.13957084198E+04  0.13957084198E+04  0.00000000000E+00 0. -1.
         25    2    1    2    0    0  0.17030945888E+03  0.12790541811E+03 -0.10583702113E+04  0.10868103286E+04  0.12507629068E+03 0.  0.
          5    1    3    3  502    0  0.70026354494E+02 -0.99297790270E+01 -0.42622590495E+03  0.43207439786E+03  0.41800000000E+01 0.  1.
         -5    1    3    3    0  502  0.10028310439E+03  0.13783519714E+03 -0.63214430630E+03  0.65473593073E+03  0.41800000000E+01 0.  1.
        -11    1    1    2    0    0 -0.15108978016E+03 -0.85911632246E+02 -0.16266703276E+03  0.23805355231E+03  0.00000000000E+00 0. -1.
         11    1    1    2    0    0 -0.19219678729E+02 -0.41993785863E+02 -0.11841419625E+03  0.12710151838E+03  0.00000000000E+00 0.  1.
</event>
<event>
 7    1  0.2960065E-009  0.1052823E+03  0.7561462E-02  0.1269564E+00
          1   -1    0    0  501    0  0.00000000000E+00  0.00000000000E+00  0.12158248984E+04  0.12158248984E+04  0.00000000000E+00 0. -1.
         -1   -1    0    0    0  501 -0.00000000000E+00 -0.00000000000E+00 -0.16966106751E+02  0.16966106751E+02  0.00000000000E+00 0.  1.
         25    2    1    2    0    0  0.63549388367E+02 -0.21484799330E+02  0.93560836473E+03  0.94631421935E+03  0.12508984067E+03 0.  0.
          5    1    3    3  502    0  0.54410499468E+02 -0.51980901071E+02  0.28137740774E+03  0.29129578527E+03  0.41800000000E+01 0. -1.
         -5    1    3    3    0  502  0.91388888984E+01  0.30496101741E+02  0.65423095698E+03  0.65501843408E+03  0.41800000000E+01 0. -1.
        -11    1    1    2    0    0  0.16209218786E+02  0.16569923248E+02  0.20612895108E+02  0.31019229114E+02  0.00000000000E+00 0.  1.
         11    1    1    2    0    0 -0.79758607153E+02  0.49148760820E+01  0.24263753181E+03  0.25545755668E+03  0.00000000000E+00 0. -1.
</event>
<event>
 7    1  0.2878477E-009  0.1578325E+03  0.7561462E-02  0.1191166E+00
          2   -1    0    0  501    0  0.00000000000E+00  0.00000000000E+00  0.26550124712E+03  0.26550124712E+03  0.00000000000E+00 0. -1.
         -2   -1    0    0    0  501 -0.00000000000E+00 -0.00000000000E+00 -0.11138932808E+03  0.11138932808E+03  0.00000000000E+00 0.  1.
         25    2    1    2    0    0 -0.15679370965E+02 -0.12178632639E+03  0.23710144151E+02  0.17688473387E+03  0.12509311000E+03 0.  0.
          5    1    3    3  502    0  0.50931024553E+01  0.20141039169E+02  0.25776952108E+02  0.33369519197E+02  0.41800000000E+01 0. -1.
         -5    1    3    3    0  502 -0.20772473420E+02 -0.14192736556E+03 -0.20668079573E+01  0.14351521467E+03  0.41800000000E+01 0. -1.
        -11    1    1    2    0    0  0.43268422084E+02  0.24229942824E+02  0.51902187505E+02  0.71784981345E+02  0.00000000000E+00 0. -1.
         11    1    1    2    0    0 -0.27589051119E+02  0.97556383566E+02  0.78499587391E+02  0.12822085999E+03  0.00000000000E+00 0.  1.
</event>
<event>
 7    1  0.2878477E-009  0.1093305E+03  0.7561462E-02  0.1261815E+00
          2   -1    0    0  501    0  0.00000000000E+00  0.00000000000E+00  0.11008215890E+03  0.11008215890E+03  0.00000000000E+00 0. -1.
         -2   -1    0    0    0  501 -0.00000000000E+00 -0.00000000000E+00 -0.15905341175E+03  0.15905341175E+03  0.00000000000E+00 0.  1.
         25    2    1    2    0    0 -0.73776796265E+01  0.37221049545E+02 -0.93441355953E+02  0.16068214361E+03  0.12509047760E+03 0.  0.
          5    1    3    3  502    0 -0.98580598463E+01  0.81017162546E+02 -0.38737369491E+02  0.90437924379E+02  0.41800000000E+01 0.  1.
         -5    1    3    3    0  502  0.24803802198E+01 -0.43796113001E+02 -0.54703986462E+02  0.70244219227E+02  0.41800000000E+01 0.  1.
        -11    1    1    2    0    0 -0.30431961509E+02  0.10317301176E+02  0.34062295358E+02  0.46827245807E+02  0.00000000000E+00 0. -1.
         11    1    1    2    0    0  0.37809641135E+02 -0.47538350721E+02  0.10407807750E+02  0.61626181239E+02  0.00000000000E+00 0.  1.
</event>
<event>
 7    1  0.2878477E-009  0.1276364E+03  0.7561462E-02  0.1231006E+00
          1   -1    0    0  501    0  0.00000000000E+00  0.00000000000E+00  0.25277438917E+03  0.25277438917E+03  0.00000000000E+00 0. -1.
         -1   -1    0    0    0  501 -0.00000000000E+00 -0.00000000000E+00 -0.90378900576E+02  0.90378900576E+02  0.00000000000E+00 0.  1.
         25    2    1    2    0    0 -0.81292123889E+02  0.64738052965E+02  0.67225605779E+02  0.17597320039E+03  0.12509140769E+03 0.  0.
          5    1    3    3  502    0 -0.84300770363E+02  0.63731742009E+01 -0.27718431793E+01  0.84689980209E+02  0.41800000000E+01 0.  1.
         -5    1    3    3    0  502  0.30086464743E+01  0.58364878764E+02  0.69997448958E+02  0.91283220185E+02  0.41800000000E+01 0.  1.
        -11    1    1    2    0    0  0.33491353997E+02 -0.25334836793E+01  0.80695797221E+02  0.87406527338E+02  0.00000000000E+00 0. -1.
         11    1    1    2    0    0  0.47800769892E+02 -0.62204569286E+02  0.14474085592E+02  0.79773562012E+02  0.00000000000E+00 0.  1.
</event>
<event>
 7    1  0.2878477E-009  0.9506866E+02  0.7561462E-02  0.1291022E+00
         -2   -1    0    0    0  501 -0.00000000000E+00  0.00000000000E+00  0.39741542058E+02  0.39741542058E+02  0.00000000000E+00 0.  1.
          2   -1    0    0  501    0  0.00000000000E+00 -0.00000000000E+00 -0.59733865975E+03  0.59733865975E+03  0.00000000000E+00 0. -1.
         25    2    1    2    0    0  0.35975913058E+02  0.36545659576E+02 -0.50196229021E+03  0.51985041767E+03  0.12509382244E+03 0.  0.
          5    1    3    3  502    0  0.64017346377E+02  0.88068548750E+01 -0.44919293622E+03  0.45383647681E+03  0.41800000000E+01 0. -1.
         -5    1    3    3    0  502 -0.28041433318E+02  0.27738804701E+02 -0.52769353987E+02  0.66013940868E+02  0.41800000000E+01 0. -1.
        -11    1    1    2    0    0 -0.48445158026E+02 -0.48423776757E+02 -0.67617983373E+02  0.96249608659E+02  0.00000000000E+00 0. -1.
         11    1    1    2    0    0  0.12469244967E+02  0.11878117181E+02  0.11983155890E+02  0.20980175473E+02  0.00000000000E+00 0.  1.
</event>
<event>
 7    1  0.2878477E-009  0.2241551E+03  0.7561462E-02  0.1130823E+00
         -2   -1    0    0    0  501 -0.00000000000E+00  0.00000000000E+00  0.36494391779E+02  0.36494391779E+02  0.00000000000E+00 0.  1.
          2   -1    0    0  501    0  0.00000000000E+00 -0.00000000000E+00 -0.14960934060E+04  0.14960934060E+04  0.00000000000E+00 0. -1.
         25    2    1    2    0    0 -0.88410013732E+02 -0.17924788331E+03 -0.58890382765E+03  0.63435160045E+03  0.12509236814E+03 0.  0.
          5    1    3    3  502    0  0.12345093883E+02  0.77373314288E+01 -0.10198848761E+03  0.10310864001E+03  0.41800000000E+01 0.  1.
         -5    1    3    3    0  502 -0.10075510761E+03 -0.18698521474E+03 -0.48691534004E+03  0.53124296044E+03  0.41800000000E+01 0.  1.
        -11    1    1    2    0    0  0.45652005700E+02  0.10790913170E+02 -0.18910251509E+03  0.19483405925E+03  0.00000000000E+00 0. -1.
         11    1    1    2    0    0  0.42758008032E+02  0.16845697014E+03 -0.68159267143E+03  0.70340213803E+03  0.00000000000E+00 0.  1.
</event>
<event>
 7    1  0.2878477E-009  0.1179740E+03  0.7561462E-02  0.1246477E+00
          2   -1    0    0  501    0  0.00000000000E+00  0.00000000000E+00  0.85743826359E+02  0.85743826359E+02  0.00000000000E+00 0.  1.
         -2   -1    0    0    0  501 -0.00000000000E+00 -0.00000000000E+00 -0.28860037700E+03  0.28860037700E+03  0.00000000000E+00 0. -1.
         25    2    1    2    0    0 -0.98227397488E+02  0.50627242935E+02 -0.12948207278E+03  0.21124611115E+03  0.12509025926E+03 0.  0.
          5    1    3    3  502    0 -0.43787767515E+02 -0.24188890114E+01  0.16148105533E+02  0.46919647487E+02  0.41800000000E+01 0.  1.
         -5    1    3    3    0  502 -0.54439629973E+02  0.53046131947E+02 -0.14563017831E+03  0.16432646366E+03  0.41800000000E+01 0.  1.
        -11    1    1    2    0    0  0.66656349729E+02 -0.51425740609E+02 -0.10674014413E+01  0.84195101415E+02  0.00000000000E+00 0.  1.
         11    1    1    2    0    0  0.31571047759E+02  0.79849767416E+00 -0.72307076428E+02  0.78902990797E+02  0.00000000000E+00 0. -1.
</event>
<event>
 7    1  0.2878477E-009  0.1114775E+03  0.7561462E-02  0.1257858E+00
          2   -1    0    0  501    0  0.00000000000E+00  0.00000000000E+00  0.20931617450E+03  0.20931617450E+03  0.00000000000E+00 0.  1.
         -2   -1    0    0    0  501 -0.00000000000E+00 -0.00000000000E+00 -0.11615569467E+03  0.11615569467E+03  0.00000000000E+00 0. -1.
         25    2    1    2    0    0 -0.72368844441E+02 -0.50649556077E+01  0.13442428325E+03  0.19743339665E+03  0.12508858767E+03 0.  0.
          5    1    3    3  502    0 -0.49450144239E+02  0.57473941206E+02  0.55381897284E+02  0.93985092593E+02  0.41800000000E+01 0.  1.
         -5    1    3    3    0  502 -0.22918700202E+02 -0.62538896813E+02  0.79042385966E+02  0.10344830406E+03  0.41800000000E+01 0.  1.
        -11    1    1    2    0    0  0.55716874304E+02 -0.11394079425E+02 -0.70502692817E+02  0.90580488090E+02  0.00000000000E+00 0. -1.
         11    1    1    2    0    0  0.16651970137E+02  0.16459035033E+02  0.29238889400E+02  0.37457984423E+02  0.00000000000E+00 0.  1.
</event>
<event>
 7    1  0.2878477E-009  0.1135482E+03  0.7561462E-02  0.1254137E+00
         -1   -1    0    0    0  501 -0.00000000000E+00  0.00000000000E+00  0.33366615822E+02  0.33366615822E+02  0.00000000000E+00 0.  1.
          1   -1    0    0  501    0  0.00000000000E+00 -0.00000000000E+00 -0.62186273256E+03  0.62186273256E+03  0.00000000000E+00 0. -1.
         25    2    1    2    0    0 -0.70781176601E+02  0.62948900546E+02 -0.33162468325E+03  0.36687365348E+03  0.12509519590E+03 0.  0.
          5    1    3    3  502    0  0.41543665835E+01  0.19714452492E+02  0.33808528635E+01  0.20852361133E+02  0.41800000000E+01 0.  1.
         -5    1    3    3    0  502 -0.74935543185E+02  0.43234448054E+02 -0.33500553612E+03  0.34602129235E+03  0.41800000000E+01 0.  1.
        -11    1    1    2    0    0  0.49720885435E+02  0.38458470710E+01 -0.52924128539E+02  0.72718088325E+02  0.00000000000E+00 0.  1.
         11    1    1    2    0    0  0.21060291167E+02 -0.66794747617E+02 -0.20394730494E+03  0.21563760657E+03  0.00000000000E+00 0. -1.
</event>
<event>
 7    1  0.2878477E-009  0.1269945E+03  0.7561462E-02  0.1231985E+00
         -3   -1    0    0    0  501 -0.00000000000E+00  0.00000000000E+00  0.18184997441E+03  0.18184997441E+03  0.00000000000E+00 0.  1.
          3   -1    0    0  501    0  0.00000000000E+00 -0.00000000000E+00 -0.16969107545E+03  0.16969107545E+03  0.00000000000E+00 0. -1.
         25    2    1    2    0    0  0.46597041045E+02  0.10584658372E+03  0.80195234607E+02  0.18829075439E+03  0.12508936412E+03 0.  0.
          5    1    3    3  502    0  0.29733857852E+02  0.86152544724E+02  0.11366236330E+03  0.14574967751E+03  0.41800000000E+01 0.  1.
         -5    1    3    3    0  502  0.16863183193E+02  0.19694038995E+02 -0.33467128688E+02  0.42541076878E+02  0.41800000000E+01 0.  1.
        -11    1    1    2    0    0  0.10544404642E+02 -0.65981253177E+02 -0.65443827692E+02  0.93528631033E+02  0.00000000000E+00 0. -1.
         11    1    1    2    0    0 -0.57141445687E+02 -0.39865330542E+02 -0.25925079513E+01  0.69721664437E+02  0.00000000000E+00 0.  1.
</event>
<event>
 7    1  0.2878477E-009  0.1073272E+03  0.7561462E-02  0.1265601E+00
         -2   -1    0    0    0  501 -0.00000000000E+00  0.00000000000E+00  0.16608300262E+02  0.16608300262E+02  0.00000000000E+00 0.  1.
          2   -1    0    0  501    0  0.00000000000E+00 -0.00000000000E+00 -0.81583326390E+03  0.81583326390E+03  0.00000000000E+00 0. -1.
         25    2    1    2    0    0 -0.23095115515E+01  0.36906725679E+02 -0.53579449520E+03  0.55144370528E+03  0.12508788416E+03 0.  0.
          5    1    3    3  502    0  0.37742546686E+02 -0.26142949688E+02 -0.31412699626E+03  0.31749204057E+03  0.41800000000E+01 0.  1.
         -5    1    3    3    0  502 -0.40052058238E+02  0.63049675368E+02 -0.22166749894E+03  0.23395166471E+03  0.41800000000E+01 0.  1.
        -11    1    1    2    0    0 -0.20995126681E+02  0.21988001217E+02 -0.51488163312E+02  0.59793799871E+02  0.00000000000E+00 0.  1.
         11    1    1    2    0    0  0.23304638232E+02 -0.58894726896E+02 -0.21194230513E+03  0.22120405901E+03  0.00000000000E+00 0. -1.
</event>
<event>
 7    1  0.2878477E-009  0.1593090E+03  0.7561462E-02  0.1189479E+00
         -1   -1    0    0    0  501 -0.00000000000E+00  0.00000000000E+00  0.92189679355E+02  0.92189679355E+02  0.00000000000E+00 0.  1.
          1   -1    0    0  501    0  0.00000000000E+00 -0.00000000000E+00 -0.36526607358E+03  0.36526607358E+03  0.00000000000E+00 0. -1.
         25    2    1    2    0    0  0.10363551512E+03 -0.85431877851E+02 -0.69531894652E+02  0.19626550315E+03  0.12508612076E+03 0.  0.
          5    1    3    3  502    0 -0.27754813819E+02 -0.26381873498E+02 -0.69002805661E+01  0.39133351649E+02  0.41800000000E+01 0. -1.
         -5    1    3    3    0  502  0.13139032894E+03 -0.59050004353E+02 -0.62631614086E+02  0.15713215150E+03  0.41800000000E+01 0. -1.
        -11    1    1    2    0    0 -0.81456340334E+02  0.54820060645E+02 -0.65413677417E+02  0.11798018318E+03  0.00000000000E+00 0.  1.
         11    1    1    2    0    0 -0.22179174788E+02  0.30611817206E+02 -0.13813082216E+03  0.14321006660E+03  0.00000000000E+00 0. -1.
</event>
<event>
 7    1  0.2878477E-009  0.1040068E+03  0.7561462E-02  0.1272089E+00
          1   -1    0    0  501    0  0.00000000000E+00  0.00000000000E+00  0.16206634348E+03  0.16206634348E+03  0.00000000000E+00 0. -1.
         -1   -1    0    0    0  501 -0.00000000000E+00 -0.00000000000E+00 -0.27692998332E+03  0.27692998332E+03  0.00000000000E+00 0.  1.
         25    2    1    2    0    0 -0.83913517727E+02 -0.10332923709E+02  0.10667395977E+03  0.18486628290E+03  0.12509181065E+03 0.  0.
          5    1    3    3  502    0 -0.54125948786E+02 -0.30447504100E+00  0.13300103226E+03  0.14365395232E+03  0.41800000000E+01 0.  1.
         -5    1    3    3    0  502 -0.29787568941E+02 -0.10028448668E+02 -0.26327072488E+02  0.41212330581E+02  0.41800000000E+01 0.  1.
        -11    1    1    2    0    0  0.99604779586E+02 -0.54619519635E+01 -0.15852238876E+03  0.18729733787E+03  0.00000000000E+00 0.  1.
         11    1    1    2    0    0 -0.15691261859E+02  0.15794875673E+02 -0.63015210841E+02  0.66832706017E+02  0.00000000000E+00 0. -1.
</event>
<event>
 7    1  0.2878477E-009  0.1073788E+03  0.7561462E-02  0.1265502E+00
          2   -1    0    0  501    0  0.00000000000E+00  0.00000000000E+00  0.10865246339E+04  0.10865246339E+04  0.00000000000E+00 0. -1.
         -2   -1    0    0    0  501 -0.00000000000E+00 -0.00000000000E+00 -0.20614386026E+02  0.20614386026E+02  0.00000000000E+00 0.  1.
         25    2    1    2    0    0  0.64812416768E+02 -0.39116037180E+02  0.82874000611E+03  0.84153912216E+03  0.12508949866E+03 0.  0.
          5    1    3    3  502    0  0.35130070986E+02 -0.65007251723E+02  0.74752800593E+03  0.75118283840E+03  0.41800000000E+01 0. -1.
         -5    1    3    3    0  502  0.29682345782E+02  0.25891214544E+02  0.81212000183E+02  0.90356283763E+02  0.41800000000E+01 0. -1.
        -11    1    1    2    0    0 -0.75228137343E+02  0.46437714855E+02  0.23690770799E+03  0.25286556925E+03  0.00000000000E+00 0. -1.
         11    1    1    2    0    0  0.10415720575E+02 -0.73216776754E+01  0.26253379526E+00  0.12734328529E+02  0.00000000000E+00 0.  1.
</event>
<event>
 7    1  0.2878477E-009  0.1483363E+03  0.7561462E-02  0.1202532E+00
          2   -1    0    0  501    0  0.00000000000E+00  0.00000000000E+00  0.12199511186E+04  0.12199511186E+04  0.00000000000E+00 0. -1.
         -2   -1    0    0    0  501 -0.00000000000E+00 -0.00000000000E+00 -0.19884469426E+02  0.19884469426E+02  0.00000000000E+00 0.  1.
         25    2    1    2    0    0  0.40417180766E+02  0.97216684774E+02  0.50661266773E+03  0.53234543508E+03  0.12510249735E+03 0.  0.
          5    1    3    3  502    0  0.38412341330E+02 -0.16948821896E+02  0.77046504907E+02  0.87843080823E+02  0.41800000000E+01 0. -1.
         -5    1    3    3    0  502  0.20048394357E+01  0.11416550667E+03  0.42956616283E+03  0.44450235426E+03  0.41800000000E+01 0. -1.
        -11    1    1    2    0    0 -0.14104716146E+02  0.17527309349E+02  0.11405809466E+03  0.11625574630E+03  0.00000000000E+00 0. -1.
         11    1    1    2    0    0 -0.26312464620E+02 -0.11474399412E+03  0.57939588673E+03  0.59123440659E+03  0.00000000000E+00 0.  1.
</event>
<event>
 7    1  0.2878477E-009  0.9150339E+02  0.7561462E-02  0.1299251E+00
          1   -1    0    0  501    0  0.00000000000E+00  0.00000000000E+00  0.45477114518E+02  0.45477114518E+02  0.00000000000E+00 0. -1.
         -1   -1    0    0    0  501 -0.00000000000E+00 -0.00000000000E+00 -0.30025299870E+03  0.30025299870E+03  0.00000000000E+00 0.  1.
         25    2    1    2    0    0 -0.23372616265E+01 -0.28910838297E+02 -0.94236333526E+02  0.15927736292E+03  0.12508993733E+03 0.  0.
          5    1    3    3  502    0  0.21735496946E+02  0.26368619521E+02 -0.92626754633E+02  0.98817629990E+02  0.41800000000E+01 0.  1.
         -5    1    3    3    0  502 -0.24072758573E+02 -0.55279457818E+02 -0.16095788927E+01  0.60459732932E+02  0.41800000000E+01 0.  1.
        -11    1    1    2    0    0  0.30343521533E+02  0.46166957289E+02 -0.13126583683E+03  0.14241782600E+03  0.00000000000E+00 0.  1.
         11    1    1    2    0    0 -0.28006259907E+02 -0.17256118992E+02 -0.29273713829E+02  0.44034924299E+02  0.00000000000E+00 0. -1.
</event>
<event>
 7    1  0.2878477E-009  0.1365461E+03  0.7561462E-02  0.1218053E+00
          2   -1    0    0  501    0  0.00000000000E+00  0.00000000000E+00  0.14490644190E+03  0.14490644190E+03  0.00000000000E+00 0. -1.
         -2   -1    0    0    0  501 -0.00000000000E+00 -0.00000000000E+00 -0.15164805800E+03  0.15164805800E+03  0.00000000000E+00 0.  1.
         25    2    1    2    0    0  0.13513730401E+02 -0.98588772590E+02 -0.61694798372E+01  0.15996277844E+03  0.12509061122E+03 0.  0.
          5    1    3    3  502    0 -0.41510795246E+02 -0.39286219685E+02 -0.42337267579E+02  0.71249349506E+02  0.41800000000E+01 0. -1.
         -5    1    3    3    0  502  0.55024525647E+02 -0.59302552905E+02  0.36167787741E+02  0.88713428937E+02  0.41800000000E+01 0. -1.
        -11    1    1    2    0    0  0.26611309781E+02 -0.17969614473E+01 -0.90160595543E+01  0.28154577045E+02  0.00000000000E+00 0.  1.
         11    1    1    2    0    0 -0.40125040181E+02  0.10038573404E+03  0.84439232959E+01  0.10843714441E+03  0.00000000000E+00 0. -1.
</event>
<event>
 7    1  0.2878477E-009  0.2490832E+03  0.7561462E-02  0.1113886E+00
         -1   -1    0    0    0  501 -0.00000000000E+00  0.00000000000E+00  0.52689653907E+03  0.52689653907E+03  0.00000000000E+00 0.  1.
          1   -1    0    0  501    0  0.00000000000E+00 -0.00000000000E+00 -0.12394779435E+03  0.12394779435E+03  0.00000000000E+00 0. -1.
         25    2    1    2    0    0  0.22017597485E+03 -0.63989282188E+02  0.23956170829E+03  0.35441125729E+03  0.12508172959E+03 0.  0.
          5    1    3    3  502    0 -0.14630419505E+02 -0.32276849569E+01  0.35249978370E+01  0.15948828635E+02  0.41800000000E+01 0.  1.
         -5    1    3    3    0  502  0.23480639436E+03 -0.60761597231E+02  0.23603671046E+03  0.33846242866E+03  0.41800000000E+01 0.  1.
        -11    1    1    2    0    0 -0.36283076998E+02 -0.15805656176E+02  0.29671272010E+01  0.39687331574E+02  0.00000000000E+00 0.  1.
         11    1    1    2    0    0 -0.18389289785E+03  0.79794938364E+02  0.16041990923E+03  0.25674574455E+03  0.00000000000E+00 0. -1.
</event>
<event>
 7    1  0.2878477E-009  0.1968395E+03  0.7561462E-02  0.1152433E+00
          2   -1    0    0  501    0  0.00000000000E+00  0.00000000000E+00  0.58202387034E+03  0.58202387034E+03  0.00000000000E+00 0. -1.
         -2   -1    0    0    0  501 -0.00000000000E+00 -0.00000000000E+00 -0.74603840749E+02  0.74603840749E+02  0.00000000000E+00 0.  1.
         25    2    1    2    0    0  0.15688495802E+03 -0.81885786881E+02  0.24688393513E+03  0.32850895173E+03  0.12509309252E+03 0.  0.
          5    1    3    3  502    0  0.12752389821E+03 -0.13151171655E+02  0.96472722619E+02  0.16049846274E+03  0.41800000000E+01 0.  1.
         -5    1    3    3    0  502  0.29361059805E+02 -0.68734615226E+02  0.15041121251E+03  0.16801048899E+03  0.41800000000E+01 0.  1.
        -11    1    1    2    0    0 -0.38906714366E+01 -0.10931391740E+02 -0.52400658574E+00  0.11614957276E+02  0.00000000000E+00 0. -1.
         11    1    1    2    0    0 -0.15299428658E+03  0.92817178622E+02  0.26106010105E+03  0.31650380208E+03  0.00000000000E+00 0.  1.
</event>
<event>
 7    1  0.2878477E-009  0.9826393E+02  0.7561462E-02  0.1283990E+00
          2   -1    0    0  501    0  0.00000000000E+00  0.00000000000E+00  0.74793840802E+03  0.74793840802E+03  0.00000000000E+00 0. -1.
         -2   -1    0    0    0  501 -0.00000000000E+00 -0.00000000000E+00 -0.56871532342E+02  0.56871532342E+02  0.00000000000E+00 0.  1.
         25    2    1    2    0    0  0.28763035610E+02 -0.77570267477E+02  0.66101612212E+03  0.67781620468E+03  0.12509210608E+03 0.  0.
          5    1    3    3  502    0 -0.85773268041E+01 -0.26171687489E+01 -0.15076131433E+01  0.10008266821E+02  0.41800000000E+01 0. -1.
         -5    1    3    3    0  502  0.37340362414E+02 -0.74953098728E+02  0.66252373527E+03  0.66780793786E+03  0.41800000000E+01 0. -1.
        -11    1    1    2    0    0 -0.37871212563E+02  0.83660814490E+02  0.49756632296E+02  0.10444655609E+03  0.00000000000E+00 0. -1.
         11    1    1    2    0    0  0.91081769532E+01 -0.60905470126E+01 -0.19705878744E+02  0.22547179589E+02  0.00000000000E+00 0.  1.
</event>
<event>
 7    1  0.2878477E-009  0.9212250E+02  0.7561462E-02  0.1297792E+00
         -1   -1    0    0    0  501 -0.00000000000E+00  0.00000000000E+00  0.39917513074E+02  0.39917513074E+02  0.00000000000E+00 0.  1.
          1   -1    0    0  501    0  0.00000000000E+00 -0.00000000000E+00 -0.37144659541E+03  0.37144659541E+03  0.00000000000E+00 0. -1.
         25    2    1    2    0    0 -0.13608399719E+02  0.52991727889E+02 -0.20049084894E+03  0.24256443925E+03  0.12509042694E+03 0.  0.
          5    1    3    3  502    0 -0.22923169720E+02  0.61308386346E+02 -0.21392461780E+03  0.22375299875E+03  0.41800000000E+01 0.  1.
         -5    1    3    3    0  502  0.93147700006E+01 -0.83166584567E+01  0.13433768860E+02  0.18811440504E+02  0.41800000000E+01 0.  1.
        -11    1    1    2    0    0  0.32898735429E+02 -0.71531624040E+02 -0.87603202026E+02  0.11778548737E+03  0.00000000000E+00 0.  1.
         11    1    1    2    0    0 -0.19290335709E+02  0.18539896150E+02 -0.43435031369E+02  0.51014181862E+02  0.00000000000E+00 0. -1.
</event>
<event>
 7    1  0.2878477E-009  0.1046264E+03  0.7561462E-02  0.1270857E+00
          1   -1    0    0  501    0  0.00000000000E+00  0.00000000000E+00  0.12391190268E+03  0.12391190268E+03  0.00000000000E+00 0. -1.
         -1   -1    0    0    0  501 -0.00000000000E+00 -0.00000000000E+00 -0.11643294863E+03  0.11643294863E+03  0.00000000000E+00 0.  1.
         25    2    1    2    0    0  0.95312632855E+01 -0.54553052460E+02 -0.11404016533E+02  0.13727788881E+03  0.12509311192E+03 0.  0.
          5    1    3    3  502    0  0.43264336919E+02 -0.71547156899E+02  0.22134671488E+02  0.86592231702E+02  0.41800000000E+01 0.  1.
         -5    1    3    3    0  502 -0.33733073633E+02  0.16994104439E+02 -0.33538688021E+02  0.50685657109E+02  0.41800000000E+01 0.  1.
        -11    1    1    2    0    0  0.20119851931E+02  0.54273105577E+02 -0.13211623073E+02  0.59371082312E+02  0.00000000000E+00 0.  1.
         11    1    1    2    0    0 -0.29651115216E+02  0.27994688246E+00  0.32094593657E+02  0.43695880193E+02  0.00000000000E+00 0. -1.
</event>
<event>
 7    1  0.2878477E-009  0.1287966E+03  0.7561462E-02  0.1229252E+00
         -1   -1    0    0    0  501 -0.00000000000E+00  0.00000000000E+00  0.66366440373E+02  0.66366440373E+02  0.00000000000E+00 0.  1.
          1   -1    0    0  501    0  0.00000000000E+00 -0.00000000000E+00 -0.36546669680E+03  0.36546669680E+03  0.00000000000E+00 0. -1.
         25    2    1    2    0    0  0.70503382284E+02 -0.38597783771E+02 -0.53282993617E+02  0.15794140826E+03  0.12508355291E+03 0.  0.
          5    1    3    3  502    0  0.33764781668E+02  0.38870622167E+02 -0.50222030240E+02  0.72046585417E+02  0.41800000000E+01 0. -1.
         -5    1    3    3    0  502  0.36738600616E+02 -0.77468405938E+02 -0.30609633769E+01  0.85894822840E+02  0.41800000000E+01 0. -1.
        -11    1    1    2    0    0 -0.59858309059E+02 -0.17999671587E+02 -0.11321992106E+03  0.12932809388E+03  0.00000000000E+00 0.  1.
         11    1    1    2    0    0 -0.10645073225E+02  0.56597455357E+02 -0.13259734175E+03  0.14456363504E+03  0.00000000000E+00 0. -1.
</event>
<event>
 7    1  0.2878477E-009  0.7216865E+02  0.7561462E-02  0.1352870E+00
         -2   -1    0    0    0  501 -0.00000000000E+00  0.00000000000E+00  0.15873524499E+02  0.15873524499E+02  0.00000000000E+00 0.  1.
          2   -1    0    0  501    0  0.00000000000E+00 -0.00000000000E+00 -0.92795574374E+03  0.92795574374E+03  0.00000000000E+00 0. -1.
         25    2    1    2    0    0  0.18521174047E+02  0.33814442947E+02 -0.64332703985E+03  0.65650863085E+03  0.12508977471E+03 0.  0.
          5    1    3    3  502    0 -0.19358946755E+01 -0.63831882039E+01  0.31265729415E+01  0.84699845454E+01  0.41800000000E+01 0.  1.
         -5    1    3    3    0  502  0.20457068723E+02  0.40197631151E+02 -0.64645361279E+03  0.64803864630E+03  0.41800000000E+01 0.  1.
        -11    1    1    2    0    0 -0.47716877737E+02 -0.38861830832E+02 -0.23245872353E+03  0.24046663067E+03  0.00000000000E+00 0. -1.
         11    1    1    2    0    0  0.29195703690E+02  0.50473878850E+01 -0.36296455861E+02  0.46854006728E+02  0.00000000000E+00 0.  1.
</event>
<event>
 7    1  0.2878477E-009  0.1364093E+03  0.7561462E-02  0.1218244E+00
          2   -1    0    0  501    0  0.00000000000E+00  0.00000000000E+00  0.65479099347E+03  0.65479099347E+03  0.00000000000E+00 0. -1.
         -2   -1    0    0    0  501 -0.00000000000E+00 -0.00000000000E+00 -0.36495798399E+02  0.36495798399E+02  0.00000000000E+00 0.  1.
         25    2    1    2    0    0 -0.10804368706E+02 -0.10622968274E+03  0.27916247172E+03  0.32400768144E+03  0.12509121525E+03 0.  0.
          5    1    3    3  502    0  0.23492168693E+02 -0.10339380415E+03  0.11603719807E+03  0.15723951304E+03  0.41800000000E+01 0.  1.
         -5    1    3    3    0  502 -0.34296537399E+02 -0.28358785914E+01  0.16312527366E+03  0.16676816840E+03  0.41800000000E+01 0.  1.
        -11    1    1    2    0    0 -0.22975365180E+02  0.92944820816E+02  0.29493830041E+03  0.31008903265E+03  0.00000000000E+00 0. -1.
         11    1    1    2    0    0  0.33779733886E+02  0.13284861923E+02  0.44194422936E+02  0.57190077779E+02  0.00000000000E+00 0.  1.
</event>
<event>
 7    1  0.3664095E-009  0.1380816E+03  0.7561462E-02  0.1215934E+00
          2   -1    0    0  501    0  0.00000000000E+00  0.00000000000E+00  0.74759573809E+03  0.74759573809E+03  0.00000000000E+00 0. -1.
         -2   -1    0    0    0  501 -0.00000000000E+00 -0.00000000000E+00 -0.33494772337E+02  0.33494772337E+02  0.00000000000E+00 0.  1.
         25    2    1    2    0    0 -0.36938397126E+02  0.10478583015E+03  0.45378093702E+03  0.48364170962E+03  0.12509056360E+03 0.  0.
          5    1    3    3  502    0 -0.65076452403E+02  0.92029680412E+02  0.21458235737E+03  0.24242002233E+03  0.41800000000E+01 0. -1.
         -5    1    3    3    0  502  0.28138055278E+02  0.12756149735E+02  0.23919857965E+03  0.24122168728E+03  0.41800000000E+01 0. -1.
        -11    1    1    2    0    0  0.50311027959E+02 -0.35360382706E+02  0.18115690830E+03  0.19130964854E+03  0.00000000000E+00 0.  1.
         11    1    1    2    0    0 -0.13372630833E+02 -0.69425447441E+02  0.79163120442E+02  0.10613915228E+03  0.00000000000E+00 0. -1.
</event>
<event>
 7    1  0.2878477E-009  0.9671829E+02  0.7561462E-02  0.1287352E+00
          1   -1    0    0  501    0  0.00000000000E+00  0.00000000000E+00  0.33791636527E+03  0.33791636527E+03  0.00000000000E+00 0. -1.
         -1   -1    0    0    0  501 -0.00000000000E+00 -0.00000000000E+00 -0.51090153938E+02  0.51090153938E+02  0.00000000000E+00 0.  1.
         25    2    1    2    0    0 -0.49141174249E+02  0.27875342839E+02  0.22822317833E+03  0.26630942758E+03  0.12507198867E+03 0.  0.
          5    1    3    3  502    0 -0.61919490778E+02  0.68698218651E+01  0.23273464040E+03  0.24096494150E+03  0.41800000000E+01 0.  1.
         -5    1    3    3    0  502  0.12778316529E+02  0.21005520974E+02 -0.45114620740E+01  0.25344486081E+02  0.41800000000E+01 0.  1.
        -11    1    1    2    0    0  0.60087817828E+02 -0.52064650842E+02  0.53025627246E+02  0.95566682811E+02  0.00000000000E+00 0.  1.
         11    1    1    2    0    0 -0.10946643579E+02  0.24189308003E+02  0.55774057591E+01  0.27130408812E+02  0.00000000000E+00 0. -1.
</event>
<event>
 6    1  0.2878477E-009  0.8181832E+02  0.7561462E-02  0.1323969E+00
          1   -1    0    0  501    0  0.00000000000E+00  0.00000000000E+00  0.97192517011E+03  0.97192517011E+03  0.00000000000E+00 0. -1.
         -1   -1    0    0    0  501 -0.00000000000E+00 -0.00000000000E+00 -0.18301610137E+02  0.18301610137E+02  0.00000000000E+00 0.  1.
          5    1    1    2  502    0 -0.52084845702E+02  0.34980481987E+02  0.12233314002E+03  0.13754757293E+03  0.41800000000E+01 0. -1.
         -5    1    1    2    0  502 -0.14778628969E+01  0.58964889037E+01  0.53063091422E+03  0.53068219509E+03  0.41800000000E+01 0. -1.
        -11    1    1    2    0    0  0.15024608495E+02 -0.51301067495E+02  0.70894995966E+02  0.88789857752E+02  0.00000000000E+00 0.  1.
         11    1    1    2    0    0  0.38538100104E+02  0.10424096604E+02  0.22976450976E+03  0.23320715447E+03  0.00000000000E+00 0. -1.
</event>
<event>
 6    1  0.2878477E-009  0.8200257E+02  0.7561462E-02  0.1323463E+00
          1   -1    0    0  501    0  0.00000000000E+00  0.00000000000E+00  0.29392734546E+03  0.29392734546E+03  0.00000000000E+00 0. -1.
         -1   -1    0    0    0  501 -0.00000000000E+00 -0.00000000000E+00 -0.49712961441E+02  0.49712961441E+02  0.00000000000E+00 0.  1.
          5    1    1    2  502    0  0.28887728720E+02 -0.61535710393E+02  0.12852247702E+02  0.69309430781E+02  0.41800000000E+01 0. -1.
         -5    1    1    2    0  502 -0.25029985805E+02  0.19518414661E+02  0.12906264980E+03  0.13297409024E+03  0.41800000000E+01 0. -1.
        -11    1    1    2    0    0  0.14928576771E+02 -0.28889760903E+01 -0.10515946894E+02  0.18487664167E+02  0.00000000000E+00 0.  1.
         11    1    1    2    0    0 -0.18786319686E+02  0.44906271822E+02  0.11281543341E+03  0.12286912172E+03  0.00000000000E+00 0. -1.
</event>
<event>
 7    1  0.2878477E-009  0.1063405E+03  0.7561462E-02  0.1267501E+00
          2   -1    0    0  501    0  0.00000000000E+00  0.00000000000E+00  0.49714477815E+03  0.49714477815E+03  0.00000000000E+00 0. -1.
         -2   -1    0    0    0  501 -0.00000000000E+00 -0.00000000000E+00 -0.34763238557E+02  0.34763238557E+02  0.00000000000E+00 0.  1.
         25    2    1    2    0    0  0.61673069527E+02 -0.29396540396E+02  0.19546905456E+03  0.24191611121E+03  0.12509008547E+03 0.  0.
          5    1    3    3  502    0  0.31757853411E+02  0.23322780117E+02  0.26060560839E+01  0.39708654648E+02  0.41800000000E+01 0.  1.
         -5    1    3    3    0  502  0.29915216116E+02 -0.52719320512E+02  0.19286299847E+03  0.20220745657E+03  0.41800000000E+01 0.  1.
        -11    1    1    2    0    0 -0.83540343401E+02  0.33576123482E+02  0.22843309451E+03  0.24553619634E+03  0.00000000000E+00 0. -1.
         11    1    1    2    0    0  0.21867273874E+02 -0.41795830860E+01  0.38479390523E+02  0.44455709155E+02  0.00000000000E+00 0.  1.
</event>
<event>
 7    1  0.2878477E-009  0.6602966E+02  0.7561462E-02  0.1374140E+00
         -2   -1    0    0    0  501 -0.00000000000E+00  0.00000000000E+00  0.19758977224E+02  0.19758977224E+02  0.00000000000E+00 0.  1.
          2   -1    0    0  501    0  0.00000000000E+00 -0.00000000000E+00 -0.57271428839E+03  0.57271428839E+03  0.00000000000E+00 0. -1.
         25    2    1    2    0    0 -0.16640865304E+02  0.11153503475E+01 -0.33840269526E+03  0.36117287701E+03  0.12510515788E+03 0.  0.
          5    1    3    3  502    0  0.20168862962E+02  0.22451968038E+02 -0.13255726112E+02  0.33227407011E+02  0.41800000000E+01 0.  1.
         -5    1    3    3    0  502 -0.36809728266E+02 -0.21336617690E+02 -0.32514696915E+03  0.32794547000E+03  0.41800000000E+01 0.  1.
        -11    1    1    2    0    0 -0.19981966275E+02  0.72792513111E+01 -0.10316110488E+02  0.23636594752E+02  0.00000000000E+00 0.  1.
         11    1    1    2    0    0  0.36622831579E+02 -0.83946016586E+01 -0.20423650542E+03  0.20766379385E+03  0.00000000000E+00 0. -1.
</event>
<event>
 7    1  0.2878477E-009  0.8839305E+02  0.7561462E-02  0.1306790E+00
          2   -1    0    0  501    0  0.00000000000E+00  0.00000000000E+00  0.21127059956E+03  0.21127059956E+03  0.00000000000E+00 0. -1.
         -2   -1    0    0    0  501 -0.00000000000E+00 -0.00000000000E+00 -0.54456013911E+02  0.54456013911E+02  0.00000000000E+00 0.  1.
         25    2    1    2    0    0 -0.94707768334E+01 -0.49708053906E+01  0.92189866894E+02  0.15575877498E+03  0.12508964747E+03 0.  0.
          5    1    3    3  502    0 -0.33157336309E+02 -0.47230067453E+02  0.78258492661E+01  0.58384968438E+02  0.41800000000E+01 0. -1.
         -5    1    3    3    0  502  0.23686559476E+02  0.42259262063E+02  0.84364017628E+02  0.97373806541E+02  0.41800000000E+01 0. -1.
        -11    1    1    2    0    0  0.59966324929E+01  0.37304496018E+02  0.18099210224E+00  0.37783829644E+02  0.00000000000E+00 0.  1.
         11    1    1    2    0    0  0.34741443405E+01 -0.32333690628E+02  0.64443726649E+02  0.72184008845E+02  0.00000000000E+00 0. -1.
</event>
<event>
 7    1  0.2878477E-009  0.1910179E+03  0.7561462E-02  0.1157546E+00
         -2   -1    0    0    0  501 -0.00000000000E+00  0.00000000000E+00  0.62546380004E+02  0.62546380004E+02  0.00000000000E+00 0.  1.
          2   -1    0    0  501    0  0.00000000000E+00 -0.00000000000E+00 -0.61275568886E+03  0.61275568886E+03  0.00000000000E+00 0. -1.
         25    2    1    2    0    0  0.12415743603E+02 -0.16199098456E+03 -0.29323903315E+03  0.35781376313E+03  0.12508528591E+03 0.  0.
          5    1    3    3  502    0 -0.44562346276E+02 -0.10998092815E+03 -0.22642770183E+03  0.25567280617E+03  0.41800000000E+01 0.  1.
         -5    1    3    3    0  502  0.56978089878E+02 -0.52010056414E+02 -0.66811331323E+02  0.10214095695E+03  0.41800000000E+01 0.  1.
        -11    1    1    2    0    0  0.37731060217E+02  0.96042880549E+02 -0.13192088602E+03  0.16748429173E+03  0.00000000000E+00 0.  1.
         11    1    1    2    0    0 -0.50146803819E+02  0.65948104012E+02 -0.12504938968E+03  0.15000401400E+03  0.00000000000E+00 0. -1.
</event>
<event>
 7    1  0.2878477E-009  0.1042656E+03  0.7561462E-02  0.1271573E+00
         -2   -1    0    0    0  501 -0.00000000000E+00  0.00000000000E+00  0.89530673791E+02  0.89530673791E+02  0.00000000000E+00 0.  1.
          2   -1    0    0  501    0  0.00000000000E+00 -0.00000000000E+00 -0.16046018322E+03  0.16046018322E+03  0.00000000000E+00 0. -1.
         25    2    1    2    0    0 -0.23873439542E+02  0.15530698338E+02 -0.86592181642E+02  0.15477953089E+03  0.12508938226E+03 0.  0.
          5    1    3    3  502    0 -0.16429959397E+02 -0.51932581912E+02 -0.16373511017E+02  0.57030701318E+02  0.41800000000E+01 0. -1.
         -5    1    3    3    0  502 -0.74434801458E+01  0.67463280250E+02 -0.70218670625E+02  0.97748829574E+02  0.41800000000E+01 0. -1.
        -11    1    1    2    0    0 -0.29776227630E+02  0.90347282755E+00  0.24295210310E+02  0.38440827762E+02  0.00000000000E+00 0.  1.
         11    1    1    2    0    0  0.53649667173E+02 -0.16434171165E+02 -0.86325380977E+01  0.56770498356E+02  0.00000000000E+00 0. -1.
</event>
<event>
 7    1  0.2878477E-009  0.9304239E+02  0.7561462E-02  0.1295647E+00
          2   -1    0    0  501    0  0.00000000000E+00  0.00000000000E+00  0.58212812159E+03  0.58212812159E+03  0.00000000000E+00 0. -1.
         -2   -1    0    0    0  501 -0.00000000000E+00 -0.00000000000E+00 -0.29564254814E+02  0.29564254814E+02  0.00000000000E+00 0.  1.
         25    2    1    2    0    0  0.70288133648E+02 -0.12224911012E+02  0.30678016016E+03  0.33889610125E+03  0.12508649247E+03 0.  0.
          5    1    3    3  502    0  0.12971390910E+02 -0.32209060670E+02  0.25948684250E+03  0.26183310410E+03  0.41800000000E+01 0. -1.
         -5    1    3    3    0  502  0.57316742738E+02  0.19984149658E+02  0.47293317656E+02  0.77062997156E+02  0.41800000000E+01 0. -1.
        -11    1    1    2    0    0 -0.37632297551E+02 -0.21484672720E+02  0.20822081153E+03  0.21268212745E+03  0.00000000000E+00 0. -1.
         11    1    1    2    0    0 -0.32655836097E+02  0.33709583732E+02  0.37562895089E+02  0.60114147703E+02  0.00000000000E+00 0.  1.
</event>
<event>
 7    1  0.2878477E-009  0.1223064E+03  0.7561462E-02  0.1239340E+00
         -1   -1    0    0    0  501 -0.00000000000E+00  0.00000000000E+00  0.81470649551E+01  0.81470649551E+01  0.00000000000E+00 0.  1.
          1   -1    0    0  501    0  0.00000000000E+00 -0.00000000000E+00 -0.24313111480E+04  0.24313111480E+04  0.00000000000E+00 0. -1.
         25    2    1    2    0    0  0.15799810053E+02 -0.55198844507E+02 -0.19195713224E+04  0.19244992709E+04  0.12508731181E+03 0.  0.
          5    1    3    3  502    0  0.54398056756E+02  0.15491784729E+02 -0.73393425462E+03  0.73612234477E+03  0.41800000000E+01 0. -1.
         -5    1    3    3    0  502 -0.38598246703E+02 -0.70690629236E+02 -0.11856370678E+04  0.11883769262E+04  0.41800000000E+01 0. -1.
        -11    1    1    2    0    0  0.24904298813E+02 -0.12796550798E+02 -0.11402520642E+03  0.11741262075E+03  0.00000000000E+00 0.  1.
         11    1    1    2    0    0 -0.40704108866E+02  0.67995395304E+02 -0.38956755426E+03  0.39754632131E+03  0.00000000000E+00 0. -1.
</event>
<event>
 7    1  0.2878477E-009  0.2042341E+03  0.7561462E-02  0.1146215E+00
         -2   -1    0    0    0  501 -0.00000000000E+00  0.00000000000E+00  0.52506386501E+02  0.52506386501E+02  0.00000000000E+00 0.  1.
          2   -1    0    0  501    0  0.00000000000E+00 -0.00000000000E+00 -0.82287313178E+03  0.82287313178E+03  0.00000000000E+00 0. -1.
         25    2    1    2    0    0 -0.11667584073E+03 -0.13057284722E+03 -0.45635794456E+03  0.50454920535E+03  0.12507920214E+03 0.  0.
          5    1    3    3  502    0 -0.64918373390E+02  0.58091367644E+01 -0.18885321207E+03  0.19982779933E+03  0.41800000000E+01 0. -1.
         -5    1    3    3    0  502 -0.51757467344E+02 -0.13638198399E+03 -0.26750473249E+03  0.30472140602E+03  0.41800000000E+01 0. -1.
        -11    1    1    2    0    0  0.35900826496E+02 -0.80425543467E+01 -0.61576062832E+02  0.71729795325E+02  0.00000000000E+00 0. -1.
         11    1    1    2    0    0  0.80775014239E+02  0.13861540157E+03 -0.25243273788E+03  0.29910051760E+03  0.00000000000E+00 0.  1.
</event>
<event>
 7    1  0.2878477E-009  0.1506571E+03  0.7561462E-02  0.1199668E+00
         -1   -1    0    0    0  501 -0.00000000000E+00  0.00000000000E+00  0.20845075455E+03  0.20845075455E+03  0.00000000000E+00 0.  1.
          1   -1    0    0  501    0  0.00000000000E+00 -0.00000000000E+00 -0.15111074503E+03  0.15111074503E+03  0.00000000000E+00 0. -1.
         25    2    1    2    0    0  0.11883988627E+03  0.24275808992E+02 -0.39450344551E+02  0.17865115231E+03  0.12509065140E+03 0.  0.
          5    1    3    3  502    0  0.13344881361E+03 -0.39120702482E+01 -0.53232954659E+02  0.14378842099E+03  0.41800000000E+01 0. -1.
         -5    1    3    3    0  502 -0.14608927345E+02  0.28187879240E+02  0.13782610108E+02  0.34862731328E+02  0.41800000000E+01 0. -1.
        -11    1    1    2    0    0 -0.53484399986E+02  0.19644366956E+02  0.11018636101E+01  0.56988562873E+02  0.00000000000E+00 0. -1.
         11    1    1    2    0    0 -0.65355486280E+02 -0.43920175948E+02  0.95688490455E+02  0.12392178440E+03  0.00000000000E+00 0.  1.
</event>
<event>
 7    1  0.2878477E-009  0.2192798E+03  0.7561462E-02  0.1134421E+00
         -2   -1    0    0    0  501 -0.00000000000E+00  0.00000000000E+00  0.56187751225E+02  0.56187751225E+02  0.00000000000E+00 0.  1.
          2   -1    0    0  501    0  0.00000000000E+00 -0.00000000000E+00 -0.94977180897E+03  0.94977180897E+03  0.00000000000E+00 0. -1.
         25    2    1    2    0    0  0.68689406513E+02 -0.19202704277E+03 -0.46789344936E+03  0.52551373158E+03  0.12509109644E+03 0.  0.
          5    1    3    3  502    0  0.91366719838E+02 -0.18357327292E+03 -0.45173759893E+03  0.49611627136E+03  0.41800000000E+01 0. -1.
         -5    1    3    3    0  502 -0.22677313325E+02 -0.84537698544E+01 -0.16155850426E+02  0.29397460220E+02  0.41800000000E+01 0. -1.
        -11    1    1    2    0    0 -0.21600776019E+02  0.16533423617E+02 -0.14336621240E+02  0.30748761433E+02  0.00000000000E+00 0.  1.
         11    1    1    2    0    0 -0.47088630494E+02  0.17549361916E+03 -0.41135398715E+03  0.44969706718E+03  0.00000000000E+00 0. -1.
</event>
<event>
 7    1  0.2878477E-009  0.1076976E+03  0.7561462E-02  0.1264894E+00
          2   -1    0    0  501    0  0.00000000000E+00  0.00000000000E+00  0.22798743894E+02  0.22798743894E+02  0.00000000000E+00 0. -1.
         -2   -1    0    0    0  501 -0.00000000000E+00 -0.00000000000E+00 -0.57068887742E+03  0.57068887742E+03  0.00000000000E+00 0.  1.
         25    2    1    2    0    0 -0.19624318796E+02  0.12406927041E+02 -0.24650820220E+03  0.27740336587E+03  0.12508911989E+03 0.  0.
          5    1    3    3  502    0  0.88997680017E+01  0.62511350312E+02 -0.85773662114E+02  0.10659018858E+03  0.41800000000E+01 0.  1.
         -5    1    3    3    0  502 -0.28524086797E+02 -0.50104423271E+02 -0.16073454009E+03  0.17081317729E+03  0.41800000000E+01 0.  1.
        -11    1    1    2    0    0 -0.32563419326E+02  0.14439376931E+02 -0.92752907764E+02  0.99357806855E+02  0.00000000000E+00 0.  1.
         11    1    1    2    0    0  0.52187738122E+02 -0.26846303972E+02 -0.20862902357E+03  0.21672644860E+03  0.00000000000E+00 0. -1.
</event>
<event>
 7    1  0.2878477E-009  0.2036821E+03  0.7561462E-02  0.1146669E+00
         -1   -1    0    0    0  501 -0.00000000000E+00  0.00000000000E+00  0.88161162614E+02  0.88161162614E+02  0.00000000000E+00 0.  1.
          1   -1    0    0  501    0  0.00000000000E+00 -0.00000000000E+00 -0.76684843834E+03  0.76684843834E+03  0.00000000000E+00 0. -1.
         25    2    1    2    0    0  0.14672436026E+03  0.10137389992E+03 -0.60196152743E+03  0.64016233994E+03  0.12508171523E+03 0.  0.
          5    1    3    3  502    0  0.10841240209E+03 -0.84980120536E+00 -0.30898847142E+03  0.32748331096E+03  0.41800000000E+01 0.  1.
         -5    1    3    3    0  502  0.38311958174E+02  0.10222370113E+03 -0.29297305601E+03  0.31267902898E+03  0.41800000000E+01 0.  1.
        -11    1    1    2    0    0 -0.64571288397E+02 -0.77048586392E+01  0.59800610810E+01  0.65303730846E+02  0.00000000000E+00 0.  1.
         11    1    1    2    0    0 -0.82153071864E+02 -0.93669041284E+02 -0.82705809379E+02  0.14954353017E+03  0.00000000000E+00 0. -1.
</event>
<event>
 7    1  0.2878477E-009  0.2912541E+03  0.7561462E-02  0.1089696E+00
         -1   -1    0    0    0  501 -0.00000000000E+00  0.00000000000E+00  0.22222139278E+03  0.22222139278E+03  0.00000000000E+00 0.  1.
          1   -1    0    0  501    0  0.00000000000E+00 -0.00000000000E+00 -0.48459617946E+03  0.48459617946E+03  0.00000000000E+00 0. -1.
         25    2    1    2    0    0 -0.15461074368E+03  0.22833564342E+03  0.18196275650E+02  0.30336048217E+03  0.12511926141E+03 0.  0.
          5    1    3    3  502    0 -0.17847264830E+02  0.13706602231E+03  0.11151412139E+02  0.13873516398E+03  0.41800000000E+01 0.  1.
         -5    1    3    3    0  502 -0.13676347885E+03  0.91269621114E+02  0.70448635114E+01  0.16462531818E+03  0.41800000000E+01 0.  1.
        -11    1    1    2    0    0  0.14847575483E+03 -0.19105296036E+03 -0.27322903930E+03  0.36496628797E+03  0.00000000000E+00 0.  1.
         11    1    1    2    0    0  0.61349888458E+01 -0.37282683055E+02 -0.73420230334E+01  0.38490802098E+02  0.00000000000E+00 0. -1.
</event>
<event>
 7    1  0.2878477E-009  0.1143698E+03  0.7561462E-02  0.1252685E+00
         -2   -1    0    0    0  501 -0.00000000000E+00  0.00000000000E+00  0.19244953390E+03  0.19244953390E+03  0.00000000000E+00 0.  1.
          2   -1    0    0  501    0  0.00000000000E+00 -0.00000000000E+00 -0.91120151819E+02  0.91120151819E+02  0.00000000000E+00 0. -1.
         25    2    1    2    0    0  0.62556848253E+02  0.42556112314E+02  0.49793644503E+02  0.15444223618E+03  0.12509442563E+03 0.  0.
          5    1    3    3  502    0 -0.60502914681E+01 -0.18678825554E+02  0.58622969168E+02  0.61964743726E+02  0.41800000000E+01 0.  1.
         -5    1    3    3    0  502  0.68607139721E+02  0.61234937868E+02 -0.88293246655E+01  0.92477492453E+02  0.41800000000E+01 0.  1.
        -11    1    1    2    0    0  0.18012523577E+02  0.98175938241E+01  0.96431060716E+00  0.20536943518E+02  0.00000000000E+00 0. -1.
         11    1    1    2    0    0 -0.80569371830E+02 -0.52373706138E+02  0.50571426967E+02  0.10859050602E+03  0.00000000000E+00 0.  1.
</event>
<event>
 7    1  0.2878477E-009  0.1658200E+03  0.7561462E-02  0.1182278E+00
          2   -1    0    0  501    0  0.00000000000E+00  0.00000000000E+00  0.25842088531E+03  0.25842088531E+03  0.00000000000E+00 0. -1.
         -2   -1    0    0    0  501 -0.00000000000E+00 -0.00000000000E+00 -0.11767103173E+03  0.11767103173E+03  0.00000000000E+00 0.  1.
         25    2    1    2    0    0  0.93373043945E+02  0.92253637805E+02  0.35013442216E+02  0.18467042330E+03  0.12509182660E+03 0.  0.
          5    1    3    3  502    0 -0.27276128993E+02  0.23462886869E+01  0.18364862787E+02  0.33229999528E+02  0.41800000000E+01 0. -1.
         -5    1    3    3    0  502  0.12064917294E+03  0.89907349118E+02  0.16648579429E+02  0.15144042377E+03  0.41800000000E+01 0. -1.
        -11    1    1    2    0    0 -0.69133381349E+02 -0.12740377353E+02  0.22562108634E+02  0.73829468221E+02  0.00000000000E+00 0.  1.
         11    1    1    2    0    0 -0.24239662596E+02 -0.79513260452E+02  0.83174302727E+02  0.11759202551E+03  0.00000000000E+00 0. -1.
</event>
<event>
 7    1  0.2878477E-009  0.1443847E+03  0.7561462E-02  0.1207548E+00
          1   -1    0    0  501    0  0.00000000000E+00  0.00000000000E+00  0.76263165615E+03  0.76263165615E+03  0.00000000000E+00 0. -1.
         -1   -1    0    0    0  501 -0.00000000000E+00 -0.00000000000E+00 -0.34630586154E+02  0.34630586154E+02  0.00000000000E+00 0.  1.
         25    2    1    2    0    0  0.12723727476E+00  0.11227053050E+03  0.50099933119E+03  0.52844388643E+03  0.12509165854E+03 0.  0.
          5    1    3    3  502    0 -0.43474857403E+02  0.11572327365E+03  0.35190431412E+03  0.37300946099E+03  0.41800000000E+01 0. -1.
         -5    1    3    3    0  502  0.43602094677E+02 -0.34527431434E+01  0.14909501707E+03  0.15543442544E+03  0.41800000000E+01 0. -1.
        -11    1    1    2    0    0  0.21891711880E+02 -0.71862096837E+02  0.61645241193E+02  0.97177897551E+02  0.00000000000E+00 0.  1.
         11    1    1    2    0    0 -0.22018949154E+02 -0.40408433665E+02  0.16535649761E+03  0.17164045833E+03  0.00000000000E+00 0. -1.
</event>
<event>
 7    1  0.2878477E-009  0.1145990E+03  0.7561462E-02  0.1252283E+00
          1   -1    0    0  501    0  0.00000000000E+00  0.00000000000E+00  0.28137574106E+02  0.28137574106E+02  0.00000000000E+00 0. -1.
         -1   -1    0    0    0  501 -0.00000000000E+00 -0.00000000000E+00 -0.53004309063E+03  0.53004309063E+03  0.00000000000E+00 0.  1.
         25    2    1    2    0    0 -0.24140896352E+02  0.36358842767E+02 -0.36282445304E+03  0.38625712309E+03  0.12509289783E+03 0.  0.
          5    1    3    3  502    0 -0.61171988357E+02  0.61122552661E+02 -0.26246142577E+03  0.27637194326E+03  0.41800000000E+01 0. -1.
         -5    1    3    3    0  502  0.37031092005E+02 -0.24763709894E+02 -0.10036302727E+03  0.10988517983E+03  0.41800000000E+01 0. -1.
        -11    1    1    2    0    0  0.26471951867E+02 -0.64458045779E+02 -0.11671631419E+03  0.13593491788E+03  0.00000000000E+00 0.  1.
         11    1    1    2    0    0 -0.23310555146E+01  0.28099203012E+02 -0.22364749287E+02  0.35988623764E+02  0.00000000000E+00 0. -1.
</event>
<event>
 7    1  0.2878477E-009  0.8280136E+02  0.7561462E-02  0.1321284E+00
          1   -1    0    0  501    0  0.00000000000E+00  0.00000000000E+00  0.96077010979E+02  0.96077010979E+02  0.00000000000E+00 0. -1.
         -1   -1    0    0    0  501 -0.00000000000E+00 -0.00000000000E+00 -0.17347052003E+03  0.17347052003E+03  0.00000000000E+00 0.  1.
         25    2    1    2    0    0 -0.98789892965E+01  0.58689854840E+02 -0.75417031208E+02  0.15772596276E+03  0.12509059613E+03 0.  0.
          5    1    3    3  502    0 -0.71446844497E+01  0.52431868542E+02  0.23809743018E+02  0.58176658698E+02  0.41800000000E+01 0.  1.
         -5    1    3    3    0  502 -0.27343048469E+01  0.62579862971E+01 -0.99226774226E+02  0.99549304060E+02  0.41800000000E+01 0.  1.
        -11    1    1    2    0    0 -0.26215895765E+02  0.90700184958E+01  0.17263306549E+02  0.32673539436E+02  0.00000000000E+00 0. -1.
         11    1    1    2    0    0  0.36094885062E+02 -0.67759873335E+02 -0.19239784395E+02  0.79148028817E+02  0.00000000000E+00 0.  1.
</event>
<event>
 7    1  0.2878477E-009  0.1129793E+03  0.7561462E-02  0.1255150E+00
          2   -1    0    0  501    0  0.00000000000E+00  0.00000000000E+00  0.67431317288E+03  0.67431317288E+03  0.00000000000E+00 0. -1.
         -2   -1    0    0    0  501 -0.00000000000E+00 -0.00000000000E+00 -0.29839335990E+02  0.29839335990E+02  0.00000000000E+00 0.  1.
         25    2    1    2    0    0 -0.56653604795E+02 -0.65757015128E+02  0.28513512570E+03  0.32324149041E+03  0.12509758286E+03 0.  0.
          5    1    3    3  502    0 -0.51406968721E+01 -0.43024476606E+02  0.13174037299E+02  0.45481424893E+02  0.41800000000E+01 0. -1.
         -5    1    3    3    0  502 -0.51512907923E+02 -0.22732538522E+02  0.27196108840E+03  0.27776006551E+03  0.41800000000E+01 0. -1.
        -11    1    1    2    0    0  0.69812510947E+02  0.12267866611E+02  0.21711818534E+03  0.22839569532E+03  0.00000000000E+00 0.  1.
         11    1    1    2    0    0 -0.13158906152E+02  0.53489148517E+02  0.14222052585E+03  0.15251532314E+03  0.00000000000E+00 0. -1.
</event>
<event>
 7    1  0.2878477E-009  0.2579465E+03  0.7561462E-02  0.1108383E+00
         -1   -1    0    0    0  501 -0.00000000000E+00  0.00000000000E+00  0.19068626887E+03  0.19068626887E+03  0.00000000000E+00 0.  1.
          1   -1    0    0  501    0  0.00000000000E+00 -0.00000000000E+00 -0.38667526914E+03  0.38667526914E+03  0.00000000000E+00 0. -1.
         25    2    1    2    0    0  0.19265313485E+03  0.13515812977E+03 -0.18493449072E+03  0.32439588790E+03  0.12509586651E+03 0.  0.
          5    1    3    3  502    0  0.16462779492E+03  0.45068440702E+02 -0.13437472038E+03  0.21727290002E+03  0.41800000000E+01 0. -1.
         -5    1    3    3    0  502  0.28025339926E+02  0.90089689069E+02 -0.50559770341E+02  0.10712298788E+03  0.41800000000E+01 0. -1.
        -11    1    1    2    0    0 -0.14648747878E+03 -0.51705600386E+02  0.86304339247E+01  0.15558449454E+03  0.00000000000E+00 0.  1.
         11    1    1    2    0    0 -0.46165656063E+02 -0.83452529385E+02 -0.19684943468E+02  0.97381155569E+02  0.00000000000E+00 0. -1.
</event>
<event>
 7    1  0.2878477E-009  0.1032323E+03  0.7561462E-02  0.1273642E+00
         -1   -1    0    0    0  501 -0.00000000000E+00  0.00000000000E+00  0.17421895987E+03  0.17421895987E+03  0.00000000000E+00 0.  1.
          1   -1    0    0  501    0  0.00000000000E+00 -0.00000000000E+00 -0.70085058698E+02  0.70085058698E+02  0.00000000000E+00 0. -1.
         25    2    1    2    0    0 -0.15646525682E+02 -0.84917015087E+01  0.56910362867E+02  0.13857317388E+03  0.12508721900E+03 0.  0.
          5    1    3    3  502    0 -0.11932719546E+02 -0.66311334804E+02  0.38092189792E+02  0.77511742610E+02  0.41800000000E+01 0. -1.
         -5    1    3    3    0  502 -0.37138061361E+01  0.57819633296E+02  0.18818173074E+02  0.61061431267E+02  0.41800000000E+01 0. -1.
        -11    1    1    2    0    0 -0.21832385166E+02 -0.23149082757E+02 -0.70348163570E+01  0.32588674654E+02  0.00000000000E+00 0.  1.
         11    1    1    2    0    0  0.37478910848E+02  0.31640784266E+02  0.54258354664E+02  0.73142170040E+02  0.00000000000E+00 0. -1.
</event>
<event>
 7    1  0.2878477E-009  0.1291510E+03  0.7561462E-02  0.1228721E+00
          1   -1    0    0  501    0  0.00000000000E+00  0.00000000000E+00  0.83133891949E+02  0.83133891949E+02  0.00000000000E+00 0. -1.
         -1   -1    0    0    0  501 -0.00000000000E+00 -0.00000000000E+00 -0.39472742910E+03  0.39472742910E+03  0.00000000000E+00 0.  1.
         25    2    1    2    0    0  0.99879141238E+02 -0.24844716403E+02 -0.30554385725E+03  0.34582970004E+03  0.12509208583E+03 0.  0.
          5    1    3    3  502    0  0.52293561313E+02 -0.67973430306E+02 -0.23571449553E+03  0.25086609892E+03  0.41800000000E+01 0.  1.
         -5    1    3    3    0  502  0.47585579926E+02  0.43128713903E+02 -0.69829361716E+02  0.94963601119E+02  0.41800000000E+01 0.  1.
        -11    1    1    2    0    0 -0.61779416460E+02  0.31591824873E+02 -0.40398927992E+02  0.80292048672E+02  0.00000000000E+00 0.  1.
         11    1    1    2    0    0 -0.38099724778E+02 -0.67471084699E+01  0.34349248094E+02  0.51739572336E+02  0.00000000000E+00 0. -1.
</event>
<event>
 7    1  0.2878477E-009  0.9996341E+02  0.7561462E-02  0.1280373E+00
         -2   -1    0    0    0  501 -0.00000000000E+00  0.00000000000E+00  0.34012304287E+03  0.34012304287E+03  0.00000000000E+00 0.  1.
          2   -1    0    0  501    0  0.00000000000E+00 -0.00000000000E+00 -0.61085424224E+02  0.61085424224E+02  0.00000000000E+00 0. -1.
         25    2    1    2    0    0  0.25658322093E+02  0.22780330053E+02  0.29007251959E+02  0.13291449677E+03  0.12509016691E+03 0.  0.
          5    1    3    3  502    0 -0.31715038861E+02 -0.13899056659E+02 -0.27429988055E+02  0.44372334970E+02  0.41800000000E+01 0. -1.
         -5    1    3    3    0  502  0.57373360955E+02  0.36679386712E+02  0.56437240014E+02  0.88542161805E+02  0.41800000000E+01 0. -1.
        -11    1    1    2    0    0  0.16748879284E+02 -0.45662573367E+02  0.11239956046E+03  0.12247145281E+03  0.00000000000E+00 0.  1.
         11    1    1    2    0    0 -0.42407201377E+02  0.22882243314E+02  0.13763080623E+03  0.14582251751E+03  0.00000000000E+00 0. -1.
</event>
<event>
 7    1  0.2878477E-009  0.1211059E+03  0.7561462E-02  0.1241284E+00
          2   -1    0    0  501    0  0.00000000000E+00  0.00000000000E+00  0.81855492082E+02  0.81855492082E+02  0.00000000000E+00 0. -1.
         -2   -1    0    0    0  501 -0.00000000000E+00 -0.00000000000E+00 -0.30623399495E+03  0.30623399495E+03  0.00000000000E+00 0.  1.
         25    2    1    2    0    0  0.21757706894E+01  0.10908834923E+03 -0.16512929752E+03  0.23413798930E+03  0.12509161129E+03 0.  0.
          5    1    3    3  502    0  0.38338594170E+02  0.56357360253E+02 -0.15485382646E+03  0.16924296094E+03  0.41800000000E+01 0.  1.
         -5    1    3    3    0  502 -0.36162823481E+02  0.52730988972E+02 -0.10275471065E+02  0.64895028359E+02  0.41800000000E+01 0.  1.
        -11    1    1    2    0    0 -0.69576834735E+01 -0.40700692118E+02 -0.73152292487E+02  0.84001271385E+02  0.00000000000E+00 0. -1.
         11    1    1    2    0    0  0.47819127841E+01 -0.68387657107E+02  0.13903087143E+02  0.69950226351E+02  0.00000000000E+00 0.  1.
</event>
<event>
 7    1  0.2878477E-009  0.9757511E+02  0.7561462E-02  0.1285479E+00
         -1   -1    0    0    0  501 -0.00000000000E+00  0.00000000000E+00  0.43565720373E+03  0.43565720373E+03  0.00000000000E+00 0.  1.
          1   -1    0    0  501    0  0.00000000000E+00 -0.00000000000E+00 -0.61900882497E+02  0.61900882497E+02  0.00000000000E+00 0. -1.
         25    2    1    2    0    0  0.59994059735E+02  0.65827527427E+01  0.35705275673E+03  0.38311488846E+03  0.12509087429E+03 0.  0.
          5    1    3    3  502    0 -0.12220747433E+02  0.49180167939E+02  0.18208111158E+03  0.18904771667E+03  0.41800000000E+01 0. -1.
         -5    1    3    3    0  502  0.72214807168E+02 -0.42597415196E+02  0.17497164516E+03  0.19406717179E+03  0.41800000000E+01 0. -1.
        -11    1    1    2    0    0 -0.10969441236E+02 -0.13875213970E+01  0.52415086105E+02  0.53568601886E+02  0.00000000000E+00 0.  1.
         11    1    1    2    0    0 -0.49024618500E+02 -0.51952313458E+01 -0.35711521609E+02  0.60874595879E+02  0.00000000000E+00 0. -1.
</event>
<event>
 7    1  0.2878477E-009  0.3072363E+03  0.7561462E-02  0.1081678E+00
          1   -1    0    0  501    0  0.00000000000E+00  0.00000000000E+00  0.81240617653E+03  0.81240617653E+03  0.00000000000E+00 0. -1.
         -1   -1    0    0    0  501 -0.00000000000E+00 -0.00000000000E+00 -0.12841673605E+03  0.12841673605E+03  0.00000000000E+00 0.  1.
         25    2    1    2    0    0  0.14817114600E+03 -0.25784718540E+03  0.43770766753E+03  0.54376033647E+03  0.12508973490E+03 0.  0.
          5    1    3    3  502    0  0.18272361059E+02  0.12557245317E+01  0.85829929508E+02  0.87861853054E+02  0.41800000000E+01 0.  1.
         -5    1    3    3    0  502  0.12989878494E+03 -0.25910290993E+03  0.35187773802E+03  0.45589848342E+03  0.41800000000E+01 0.  1.
        -11    1    1    2    0    0 -0.15627522422E+03  0.24340708562E+03  0.21083559479E+03  0.35793938462E+03  0.00000000000E+00 0. -1.
         11    1    1    2    0    0  0.81040782200E+01  0.14440099783E+02  0.35446178165E+02  0.39123191486E+02  0.00000000000E+00 0.  1.
</event>
<event>
 7    1  0.2878477E-009  0.1643245E+03  0.7561462E-02  0.1183899E+00
         -1   -1    0    0    0  501 -0.00000000000E+00  0.00000000000E+00  0.29074286851E+03  0.29074286851E+03  0.00000000000E+00 0.  1.
          1   -1    0    0  501    0  0.00000000000E+00 -0.00000000000E+00 -0.12159551586E+03  0.12159551586E+03  0.00000000000E+00 0. -1.
         25    2    1    2    0    0 -0.13333930600E+03 -0.15988481087E+02  0.16887765472E+03  0.24940430741E+03  0.12509134357E+03 0.  0.
          5    1    3    3  502    0 -0.10640473285E+03 -0.65758714719E+02  0.13101749981E+03  0.18118839199E+03  0.41800000000E+01 0.  1.
         -5    1    3    3    0  502 -0.26934573157E+02  0.49770233632E+02  0.37860154909E+02  0.68215915420E+02  0.41800000000E+01 0.  1.
        -11    1    1    2    0    0  0.30160357551E+02  0.30099189865E+02 -0.32688021623E+02  0.53703958474E+02  0.00000000000E+00 0. -1.
         11    1    1    2    0    0  0.10317894845E+03 -0.14110708778E+02  0.32957719558E+02  0.10923011849E+03  0.00000000000E+00 0.  1.
</event>
<event>
 7    1  0.2878477E-009  0.1232387E+03  0.7561462E-02  0.1237848E+00
         -4   -1    0    0    0  501 -0.00000000000E+00  0.00000000000E+00  0.15525553200E+04  0.15525553200E+04  0.00000000000E+00 0. -1.
          4   -1    0    0  501    0  0.00000000000E+00 -0.00000000000E+00 -0.11479210343E+02  0.11479210343E+02  0.00000000000E+00 0.  1.
         25    2    1    2    0    0 -0.59578873050E+02  0.21119443410E+02  0.11223848039E+04  0.11311066410E+04  0.12513557550E+03 0.  0.
          5    1    3    3  502    0 -0.43352954069E+01  0.65562274689E+02  0.66340920986E+03  0.66666817742E+03  0.41800000000E+01 0. -1.
         -5    1    3    3    0  502 -0.55243577644E+02 -0.44442831279E+02  0.45897559408E+03  0.46443846361E+03  0.41800000000E+01 0. -1.
        -11    1    1    2    0    0  0.41126386072E+02 -0.56398683864E+02  0.28583168447E+03  0.29423110478E+03  0.00000000000E+00 0. -1.
         11    1    1    2    0    0  0.18452486979E+02  0.35279240453E+02  0.13285962123E+03  0.13869678452E+03  0.00000000000E+00 0.  1.
</event>
<event>
 7    1  0.2878477E-009  0.1211067E+03  0.7561462E-02  0.1241282E+00
          2   -1    0    0  501    0  0.00000000000E+00  0.00000000000E+00  0.10979791761E+04  0.10979791761E+04  0.00000000000E+00 0.  1.
         -2   -1    0    0    0  501 -0.00000000000E+00 -0.00000000000E+00 -0.14531798181E+02  0.14531798181E+02  0.00000000000E+00 0. -1.
         25    2    1    2    0    0  0.21730562873E+02 -0.56049319570E+02  0.71942760940E+03  0.73269160391E+03  0.12508859934E+03 0.  0.
          5    1    3    3  502    0 -0.30103036516E+02 -0.76556756132E+02  0.45903172282E+03  0.46636329688E+03  0.41800000000E+01 0. -1.
         -5    1    3    3    0  502  0.51833599389E+02  0.20507436563E+02  0.26039588658E+03  0.26632830704E+03  0.41800000000E+01 0. -1.
        -11    1    1    2    0    0  0.28059022829E+02 -0.11862451155E+01  0.56687656740E+02  0.63262993655E+02  0.00000000000E+00 0.  1.
         11    1    1    2    0    0 -0.49789585702E+02  0.57235564685E+02  0.30733211178E+03  0.31655637672E+03  0.00000000000E+00 0. -1.
</event>
<event>
 7    1  0.2878477E-009  0.1335777E+03  0.7561462E-02  0.1222242E+00
         -1   -1    0    0    0  501 -0.00000000000E+00  0.00000000000E+00  0.25579164993E+02  0.25579164993E+02  0.00000000000E+00 0.  1.
          1   -1    0    0  501    0  0.00000000000E+00 -0.00000000000E+00 -0.74205708987E+03  0.74205708987E+03  0.00000000000E+00 0. -1.
         25    2    1    2    0    0  0.57434390373E+02 -0.56945782483E+02 -0.36042179253E+03  0.38998873048E+03  0.12508321241E+03 0.  0.
          5    1    3    3  502    0  0.93587067550E+02 -0.52979720362E+02 -0.22059003156E+03  0.24544413704E+03  0.41800000000E+01 0. -1.
         -5    1    3    3    0  502 -0.36152677177E+02 -0.39660621216E+01 -0.13983176097E+03  0.14454459344E+03  0.41800000000E+01 0. -1.
        -11    1    1    2    0    0  0.24476111041E+02  0.25046327101E+02 -0.68151204096E+02  0.76622354001E+02  0.00000000000E+00 0.  1.
         11    1    1    2    0    0 -0.81910501414E+02  0.31899455382E+02 -0.28790492825E+03  0.30102517038E+03  0.00000000000E+00 0. -1.
</event>
<event>
 7    1  0.2878477E-009  0.8997241E+02  0.7561462E-02  0.1302919E+00
          2   -1    0    0  501    0  0.00000000000E+00  0.00000000000E+00  0.10553193720E+03  0.10553193720E+03  0.00000000000E+00 0.  1.
         -2   -1    0    0    0  501 -0.00000000000E+00 -0.00000000000E+00 -0.10655628821E+03  0.10655628821E+03  0.00000000000E+00 0. -1.
         25    2    1    2    0    0 -0.38647362822E+01 -0.88057093014E+01  0.13670124024E+02  0.12620075888E+03  0.12508909844E+03 0.  0.
          5    1    3    3  502    0  0.43503048071E+02  0.88811815130E+01  0.47552169661E+02  0.65192574854E+02  0.41800000000E+01 0. -1.
         -5    1    3    3    0  502 -0.47367784353E+02 -0.17686890814E+02 -0.33882045637E+02  0.61008184023E+02  0.41800000000E+01 0. -1.
        -11    1    1    2    0    0  0.35114033502E+02  0.30549898391E+02 -0.86558665317E+01  0.47341479338E+02  0.00000000000E+00 0.  1.
         11    1    1    2    0    0 -0.31249297220E+02 -0.21744189090E+02 -0.60386085045E+01  0.38545987192E+02  0.00000000000E+00 0. -1.
</event>
<event>
 7    1  0.2878477E-009  0.1186064E+03  0.7561462E-02  0.1245414E+00
          2   -1    0    0  501    0  0.00000000000E+00  0.00000000000E+00  0.56028074257E+03  0.56028074257E+03  0.00000000000E+00 0. -1.
         -2   -1    0    0    0  501 -0.00000000000E+00 -0.00000000000E+00 -0.34551168918E+02  0.34551168918E+02  0.00000000000E+00 0.  1.
         25    2    1    2    0    0 -0.25467832251E+02 -0.41255432148E+02  0.43686549052E+03  0.45699988742E+03  0.12508724607E+03 0.  0.
          5    1    3    3  502    0 -0.40863759331E+02 -0.80053049661E+02  0.33405763915E+03  0.34596288278E+03  0.41800000000E+01 0. -1.
         -5    1    3    3    0  502  0.15395927080E+02  0.38797617512E+02  0.10280785137E+03  0.11103700464E+03  0.41800000000E+01 0. -1.
        -11    1    1    2    0    0 -0.33545004184E+02  0.46495595943E+00  0.25930475918E+02  0.42401333365E+02  0.00000000000E+00 0.  1.
         11    1    1    2    0    0  0.59012836436E+02  0.40790476189E+02  0.62933607213E+02  0.95430690707E+02  0.00000000000E+00 0. -1.
</event>
<event>
 7    1  0.2878477E-009  0.1044729E+03  0.7561462E-02  0.1271162E+00
          2   -1    0    0  501    0  0.00000000000E+00  0.00000000000E+00  0.53636115118E+03  0.53636115118E+03  0.00000000000E+00 0. -1.
         -2   -1    0    0    0  501 -0.00000000000E+00 -0.00000000000E+00 -0.24940626376E+02  0.24940626376E+02  0.00000000000E+00 0.  1.
         25    2    1    2    0    0  0.94269364966E+00 -0.17541838246E+02  0.20393610426E+03  0.23988764102E+03  0.12509013124E+03 0.  0.
          5    1    3    3  502    0  0.24539834795E+01 -0.68108976272E+02  0.15502349856E+03  0.16939484110E+03  0.41800000000E+01 0.  1.
         -5    1    3    3    0  502 -0.15112898298E+01  0.50567138026E+02  0.48912605698E+02  0.70492799925E+02  0.41800000000E+01 0.  1.
        -11    1    1    2    0    0 -0.15736784880E+02  0.50971545572E+02  0.22421136377E+03  0.23047012930E+03  0.00000000000E+00 0. -1.
         11    1    1    2    0    0  0.14794091230E+02 -0.33429707326E+02  0.83273056769E+02  0.90944007229E+02  0.00000000000E+00 0.  1.
</event>
<event>
 7    1  0.2878477E-009  0.1611185E+03  0.7561462E-02  0.1187440E+00
          2   -1    0    0  501    0  0.00000000000E+00  0.00000000000E+00  0.73677420375E+02  0.73677420375E+02  0.00000000000E+00 0. -1.
         -2   -1    0    0    0  501 -0.00000000000E+00 -0.00000000000E+00 -0.49686609334E+03  0.49686609334E+03  0.00000000000E+00 0.  1.
         25    2    1    2    0    0  0.79578886014E+02  0.13251244513E+03 -0.26504315297E+03  0.33134177226E+03  0.12508856820E+03 0.  0.
          5    1    3    3  502    0  0.62148034434E+02  0.47534771178E+02 -0.35696938238E+02  0.86102708752E+02  0.41800000000E+01 0. -1.
         -5    1    3    3    0  502  0.17430851581E+02  0.84977673952E+02 -0.22934621473E+03  0.24523906351E+03  0.41800000000E+01 0. -1.
        -11    1    1    2    0    0 -0.79776748792E+02 -0.11751070854E+03 -0.16894512525E+03  0.22071599764E+03  0.00000000000E+00 0.  1.
         11    1    1    2    0    0  0.19786277813E+00 -0.15001736587E+02  0.10799605262E+02  0.18485743808E+02  0.00000000000E+00 0. -1.
</event>
<event>
 7    1  0.2878477E-009  0.1167377E+03  0.7561462E-02  0.1248578E+00
          1   -1    0    0  501    0  0.00000000000E+00  0.00000000000E+00  0.64166936098E+02  0.64166936098E+02  0.00000000000E+00 0. -1.
         -1   -1    0    0    0  501 -0.00000000000E+00 -0.00000000000E+00 -0.26066135607E+03  0.26066135607E+03  0.00000000000E+00 0.  1.
         25    2    1    2    0    0 -0.29409256234E+02  0.38837705861E+02 -0.41320592645E+02  0.14045510964E+03  0.12508786792E+03 0.  0.
          5    1    3    3  502    0 -0.62765112556E+02 -0.20114401079E+02 -0.25333572546E+02  0.70734085015E+02  0.41800000000E+01 0. -1.
         -5    1    3    3    0  502  0.33355856322E+02  0.58952106941E+02 -0.15987020099E+02  0.69721024629E+02  0.41800000000E+01 0. -1.
        -11    1    1    2    0    0 -0.19675675901E+02  0.16443562888E+02 -0.39500147568E+02  0.47093360896E+02  0.00000000000E+00 0.  1.
         11    1    1    2    0    0  0.49084932136E+02 -0.55281268750E+02 -0.11567367976E+03  0.13727982163E+03  0.00000000000E+00 0. -1.
</event>
<event>
 7    1  0.2878477E-009  0.1087543E+03  0.7561462E-02  0.1262894E+00
          2   -1    0    0  501    0  0.00000000000E+00  0.00000000000E+00  0.25486603266E+03  0.25486603266E+03  0.00000000000E+00 0. -1.
         -2   -1    0    0    0  501 -0.00000000000E+00 -0.00000000000E+00 -0.73901241771E+02  0.73901241771E+02  0.00000000000E+00 0.  1.
         25    2    1    2    0    0  0.29496952232E+02 -0.47480188087E+02  0.16690107807E+03  0.21593455107E+03  0.12508925627E+03 0.  0.
          5    1    3    3  502    0  0.63160595104E+02 -0.56549832863E+02  0.15855096857E+03  0.17984167038E+03  0.41800000000E+01 0.  1.
         -5    1    3    3    0  502 -0.33663642872E+02  0.90696447758E+01  0.83501094998E+01  0.36092880689E+02  0.41800000000E+01 0.  1.
        -11    1    1    2    0    0  0.19532151815E+02  0.44262239422E+02 -0.20721651406E+02  0.52631146959E+02  0.00000000000E+00 0.  1.
         11    1    1    2    0    0 -0.49029104047E+02  0.32179486650E+01  0.34785364227E+02  0.60201576405E+02  0.00000000000E+00 0. -1.
</event>
<event>
 7    1  0.2878477E-009  0.9281680E+02  0.7561462E-02  0.1296170E+00
          4   -1    0    0  501    0  0.00000000000E+00  0.00000000000E+00  0.80567941351E+02  0.80567941351E+02  0.00000000000E+00 0. -1.
         -4   -1    0    0    0  501 -0.00000000000E+00 -0.00000000000E+00 -0.34090524687E+03  0.34090524687E+03  0.00000000000E+00 0.  1.
         25    2    1    2    0    0  0.45608646779E+02 -0.13109057750E+02 -0.28271919871E+03  0.31277623382E+03  0.12508729378E+03 0.  0.
          5    1    3    3  502    0 -0.24862769415E+02 -0.71465813084E+01 -0.56691403388E+01  0.26811237934E+02  0.41800000000E+01 0. -1.
         -5    1    3    3    0  502  0.70471416193E+02 -0.59624764412E+01 -0.27705005837E+03  0.28596499588E+03  0.41800000000E+01 0. -1.
        -11    1    1    2    0    0  0.20986878156E+02  0.22544936767E+01 -0.19949342181E+02  0.29043210048E+02  0.00000000000E+00 0.  1.
         11    1    1    2    0    0 -0.66595524934E+02  0.10854564073E+02  0.42331235371E+02  0.79653744360E+02  0.00000000000E+00 0. -1.
</event>
<event>
 7    1  0.2878477E-009  0.1086581E+03  0.7561462E-02  0.1263075E+00
          2   -1    0    0  501    0  0.00000000000E+00  0.00000000000E+00  0.33600353810E+03  0.33600353810E+03  0.00000000000E+00 0. -1.
         -2   -1    0    0    0  501 -0.00000000000E+00 -0.00000000000E+00 -0.40924411630E+02  0.40924411630E+02  0.00000000000E+00 0.  1.
         25    2    1    2    0    0  0.37080828868E+02 -0.13982699511E+02  0.20016731904E+03  0.23934322372E+03  0.12509084449E+03 0.  0.
          5    1    3    3  502    0  0.47779621274E+02  0.46136573096E+02  0.76769857096E+02  0.10159999481E+03  0.41800000000E+01 0.  1.
         -5    1    3    3    0  502 -0.10698792407E+02 -0.60119272606E+02  0.12339746194E+03  0.13774322891E+03  0.41800000000E+01 0.  1.
        -11    1    1    2    0    0 -0.13528913006E+01 -0.31607890218E+02  0.71546460823E+01  0.32435751871E+02  0.00000000000E+00 0.  1.
         11    1    1    2    0    0 -0.35727937567E+02  0.45590589728E+02  0.87757161351E+02  0.10514897414E+03  0.00000000000E+00 0. -1.
</event>
<event>
 7    1  0.2878477E-009  0.2117472E+03  0.7561462E-02  0.1140190E+00
         -2   -1    0    0    0  501 -0.00000000000E+00  0.00000000000E+00  0.65260577483E+02  0.65260577483E+02  0.00000000000E+00 0.  1.
          2   -1    0    0  501    0  0.00000000000E+00 -0.00000000000E+00 -0.81391019308E+03  0.81391019308E+03  0.00000000000E+00 0. -1.
         25    2    1    2    0    0 -0.19190093215E+03 -0.62504353037E+01 -0.26259750225E+03  0.34852730690E+03  0.12509516284E+03 0.  0.
          5    1    3    3  502    0 -0.64957509658E+02  0.46725749021E+02 -0.15257687045E+03  0.17233672701E+03  0.41800000000E+01 0.  1.
         -5    1    3    3    0  502 -0.12694342249E+03 -0.52976184324E+02 -0.11002063181E+03  0.17619057989E+03  0.41800000000E+01 0.  1.
        -11    1    1    2    0    0  0.13126155629E+03  0.38868060268E+02 -0.25336975484E+03  0.28798707425E+03  0.00000000000E+00 0.  1.
         11    1    1    2    0    0  0.60639375858E+02 -0.32617624964E+02 -0.23268235850E+03  0.24265638941E+03  0.00000000000E+00 0. -1.
</event>
<event>
 7    1  0.2878477E-009  0.9479831E+02  0.7561462E-02  0.1291631E+00
          1   -1    0    0  501    0  0.00000000000E+00  0.00000000000E+00  0.41915916725E+02  0.41915916725E+02  0.00000000000E+00 0. -1.
         -1   -1    0    0    0  501 -0.00000000000E+00 -0.00000000000E+00 -0.36787934487E+03  0.36787934487E+03  0.00000000000E+00 0.  1.
         25    2    1    2    0    0 -0.36939232956E+02 -0.39244833332E+02 -0.23495290585E+03  0.27157886740E+03  0.12509016499E+03 0.  0.
          5    1    3    3  502    0 -0.38737471188E+01  0.44819409483E+02 -0.66649824140E+02  0.80519915804E+02  0.41800000000E+01 0.  1.
         -5    1    3    3    0  502 -0.33065485837E+02 -0.84064242814E+02 -0.16830308171E+03  0.19105895160E+03  0.41800000000E+01 0.  1.
        -11    1    1    2    0    0  0.19194180490E+02  0.22670588584E+02 -0.10572881025E+03  0.10982237235E+03  0.00000000000E+00 0.  1.
         11    1    1    2    0    0  0.17745052466E+02  0.16574244748E+02  0.14718287956E+02  0.28394021842E+02  0.00000000000E+00 0. -1.
</event>
<event>
 7    1  0.2878477E-009  0.1054171E+03  0.7561462E-02  0.1269300E+00
          2   -1    0    0  501    0  0.00000000000E+00  0.00000000000E+00  0.61441163366E+03  0.61441163366E+03  0.00000000000E+00 0. -1.
         -2   -1    0    0    0  501 -0.00000000000E+00 -0.00000000000E+00 -0.21791157496E+02  0.21791157496E+02  0.00000000000E+00 0.  1.
         25    2    1    2    0    0  0.45010240884E+02  0.18515498129E+02  0.37741114647E+03  0.40057007231E+03  0.12509382036E+03 0.  0.
          5    1    3    3  502    0  0.29012880930E+02  0.71713718404E+02  0.24369689228E+03  0.25571517822E+03  0.41800000000E+01 0. -1.
         -5    1    3    3    0  502  0.15997359954E+02 -0.53198220275E+02  0.13371425419E+03  0.14485489409E+03  0.41800000000E+01 0. -1.
        -11    1    1    2    0    0 -0.20725125548E+02  0.22120709494E+02  0.24037415775E+02  0.38686612344E+02  0.00000000000E+00 0.  1.
         11    1    1    2    0    0 -0.24285115336E+02 -0.40636207623E+02  0.19117191392E+03  0.19694610651E+03  0.00000000000E+00 0. -1.
</event>
<event>
 7    1  0.2878477E-009  0.1732465E+03  0.7561462E-02  0.1174504E+00
         -2   -1    0    0    0  501 -0.00000000000E+00  0.00000000000E+00  0.15541940100E+03  0.15541940100E+03  0.00000000000E+00 0.  1.
          2   -1    0    0  501    0  0.00000000000E+00 -0.00000000000E+00 -0.21403816693E+03  0.21403816693E+03  0.00000000000E+00 0. -1.
         25    2    1    2    0    0 -0.12198806367E+02 -0.14390414736E+03 -0.83352050621E+01  0.19124417657E+03  0.12509054690E+03 0.  0.
          5    1    3    3  502    0 -0.59817196582E+01 -0.15886164475E+03  0.18000317550E+02  0.16004464057E+03  0.41800000000E+01 0. -1.
         -5    1    3    3    0  502 -0.62170867088E+01  0.14957497392E+02 -0.26335522612E+02  0.31199536000E+02  0.41800000000E+01 0. -1.
        -11    1    1    2    0    0  0.38389545492E+02  0.13885227160E+03 -0.45793071294E+02  0.15116453258E+03  0.00000000000E+00 0. -1.
         11    1    1    2    0    0 -0.26190739125E+02  0.50518757672E+01 -0.44904895695E+01  0.27048858779E+02  0.00000000000E+00 0.  1.
</event>
<event>
 7    1  0.2878477E-009  0.1027688E+03  0.7561462E-02  0.1274579E+00
          2   -1    0    0  501    0  0.00000000000E+00  0.00000000000E+00  0.41806620787E+03  0.41806620787E+03  0.00000000000E+00 0. -1.
         -2   -1    0    0    0  501 -0.00000000000E+00 -0.00000000000E+00 -0.36387173152E+02  0.36387173152E+02  0.00000000000E+00 0.  1.
         25    2    1    2    0    0  0.10160849450E+01 -0.60070376381E+02  0.20487664818E+03  0.24744971295E+03  0.12508971548E+03 0.  0.
          5    1    3    3  502    0  0.34776914755E+01 -0.90319788846E+02  0.86517245329E+02  0.12518971497E+03  0.41800000000E+01 0. -1.
         -5    1    3    3    0  502 -0.24616065305E+01  0.30249412465E+02  0.11835940285E+03  0.12225999798E+03  0.41800000000E+01 0. -1.
        -11    1    1    2    0    0  0.29142244149E+02  0.28663251181E+02  0.15090248063E+03  0.15634068896E+03  0.00000000000E+00 0. -1.
         11    1    1    2    0    0 -0.30158329094E+02  0.31407125201E+02  0.25899905898E+02  0.50662979113E+02  0.00000000000E+00 0.  1.
</event>
<event>
 7    1  0.2878477E-009  0.1487372E+03  0.7561462E-02  0.1202033E+00
          3   -1    0    0  501    0  0.00000000000E+00  0.00000000000E+00  0.48686250922E+03  0.48686250922E+03  0.00000000000E+00 0. -1.
         -3   -1    0    0    0  501 -0.00000000000E+00 -0.00000000000E+00 -0.59390773541E+02  0.59390773541E+02  0.00000000000E+00 0.  1.
         25    2    1    2    0    0  0.12751773063E+03 -0.30248169584E+02  0.22196323454E+03  0.28651473941E+03  0.12508914829E+03 0.  0.
          5    1    3    3  502    0  0.39438694110E+02  0.33852848742E+02  0.17850406528E+02  0.55113840134E+02  0.41800000000E+01 0. -1.
         -5    1    3    3    0  502  0.88079036516E+02 -0.64101018326E+02  0.20411282802E+03  0.23140089927E+03  0.41800000000E+01 0. -1.
        -11    1    1    2    0    0 -0.84288241841E+02  0.37895791288E+02  0.66208313883E+02  0.11368438564E+03  0.00000000000E+00 0.  1.
         11    1    1    2    0    0 -0.43229488785E+02 -0.76476217042E+01  0.13930018725E+03  0.14605415771E+03  0.00000000000E+00 0. -1.
</event>
<event>
 7    1  0.2878477E-009  0.7418822E+02  0.7561462E-02  0.1346403E+00
          2   -1    0    0  501    0  0.00000000000E+00  0.00000000000E+00  0.21759948705E+03  0.21759948705E+03  0.00000000000E+00 0. -1.
         -2   -1    0    0    0  501 -0.00000000000E+00 -0.00000000000E+00 -0.61589552669E+02  0.61589552669E+02  0.00000000000E+00 0.  1.
         25    2    1    2    0    0 -0.14727219924E+02 -0.40626690665E+02  0.92697422637E+02  0.16158055200E+03  0.12509214052E+03 0.  0.
          5    1    3    3  502    0 -0.22081679288E+02 -0.25004163554E+02 -0.25411518740E+02  0.42142928705E+02  0.41800000000E+01 0.  1.
         -5    1    3    3    0  502  0.73544593635E+01 -0.15622527111E+02  0.11810894138E+03  0.11943762330E+03  0.41800000000E+01 0.  1.
        -11    1    1    2    0    0 -0.36534474535E+02  0.13144383887E+02  0.13743256894E+02  0.41187616675E+02  0.00000000000E+00 0. -1.
         11    1    1    2    0    0  0.51261694459E+02  0.27482306778E+02  0.49569254855E+02  0.76420871046E+02  0.00000000000E+00 0.  1.
</event>
<event>
 7    1  0.2878477E-009  0.9680048E+02  0.7561462E-02  0.1287172E+00
          4   -1    0    0  501    0  0.00000000000E+00  0.00000000000E+00  0.83219768676E+02  0.83219768676E+02  0.00000000000E+00 0. -1.
         -4   -1    0    0    0  501 -0.00000000000E+00 -0.00000000000E+00 -0.21459115252E+03  0.21459115252E+03  0.00000000000E+00 0.  1.
         25    2    1    2    0    0 -0.61152837094E+02  0.39384398249E+02 -0.43187334985E+02  0.15099165113E+03  0.12507011033E+03 0.  0.
          5    1    3    3  502    0 -0.15650970198E+02 -0.64664853726E+01 -0.76309796195E+02  0.78277874885E+02  0.41800000000E+01 0. -1.
         -5    1    3    3    0  502 -0.45501866896E+02  0.45850883621E+02  0.33122461210E+02  0.72713776250E+02  0.41800000000E+01 0. -1.
        -11    1    1    2    0    0 -0.21540730194E+02 -0.81460314303E+01 -0.39966232976E+02  0.46126572208E+02  0.00000000000E+00 0.  1.
         11    1    1    2    0    0  0.82693567288E+02 -0.31238366818E+02 -0.48217815882E+02  0.10069269785E+03  0.00000000000E+00 0. -1.
</event>
<event>
 7    1  0.2878477E-009  0.1255414E+03  0.7561462E-02  0.1234226E+00
          4   -1    0    0  501    0  0.00000000000E+00  0.00000000000E+00  0.29650596153E+02  0.29650596153E+02  0.00000000000E+00 0. -1.
         -4   -1    0    0    0  501 -0.00000000000E+00 -0.00000000000E+00 -0.70925335529E+03  0.70925335529E+03  0.00000000000E+00 0.  1.
         25    2    1    2    0    0 -0.30821752759E+02 -0.70128718432E+02 -0.49187260985E+03  0.51327805029E+03  0.12509066711E+03 0.  0.
          5    1    3    3  502    0 -0.69024984216E+02 -0.38919784408E+02 -0.16984693057E+03  0.18746906488E+03  0.41800000000E+01 0. -1.
         -5    1    3    3    0  502  0.38203231457E+02 -0.31208934025E+02 -0.32202567928E+03  0.32580898541E+03  0.41800000000E+01 0. -1.
        -11    1    1    2    0    0 -0.33919039380E+02  0.14585062777E+02 -0.36037124683E+02  0.51593600806E+02  0.00000000000E+00 0. -1.
         11    1    1    2    0    0  0.64740792138E+02  0.55543655655E+02 -0.15169302461E+03  0.17403230035E+03  0.00000000000E+00 0.  1.
</event>
<event>
 7    1  0.2878477E-009  0.9958617E+02  0.7561462E-02  0.1281169E+00
          1   -1    0    0  501    0  0.00000000000E+00  0.00000000000E+00  0.40335532528E+03  0.40335532528E+03  0.00000000000E+00 0. -1.
         -1   -1    0    0    0  501 -0.00000000000E+00 -0.00000000000E+00 -0.31720827342E+02  0.31720827342E+02  0.00000000000E+00 0.  1.
         25    2    1    2    0    0 -0.90048364085E+01  0.27947145892E+02  0.17279006217E+03  0.21532676907E+03  0.12508829622E+03 0.  0.
          5    1    3    3  502    0  0.27265630327E+02  0.55044066860E+02  0.36323390523E+02  0.71485138264E+02  0.41800000000E+01 0. -1.
         -5    1    3    3    0  502 -0.36270466736E+02 -0.27096920968E+02  0.13646667165E+03  0.14384163081E+03  0.41800000000E+01 0. -1.
        -11    1    1    2    0    0 -0.34230201856E+02 -0.34275072491E+02  0.12336222969E+03  0.13253198492E+03  0.00000000000E+00 0. -1.
         11    1    1    2    0    0  0.43235038264E+02  0.63279265985E+01  0.75482206081E+02  0.87217398629E+02  0.00000000000E+00 0.  1.
</event>
<event>
 7    1  0.2878477E-009  0.1522861E+03  0.7561462E-02  0.1197692E+00
          2   -1    0    0  501    0  0.00000000000E+00  0.00000000000E+00  0.15169374700E+04  0.15169374700E+04  0.00000000000E+00 0.  1.
         -2   -1    0    0    0  501 -0.00000000000E+00 -0.00000000000E+00 -0.16773310506E+02  0.16773310506E+02  0.00000000000E+00 0. -1.
         25    2    1    2    0    0  0.91050626440E+02 -0.57309131524E+02  0.10248459166E+04  0.10380425169E+04  0.12509420840E+03 0.  0.
          5    1    3    3  502    0 -0.17670045208E+02 -0.52147230392E+02  0.39632527393E+03  0.40015341969E+03  0.41800000000E+01 0. -1.
         -5    1    3    3    0  502  0.10872067165E+03 -0.51619011317E+01  0.62852064263E+03  0.63788909717E+03  0.41800000000E+01 0. -1.
        -11    1    1    2    0    0 -0.84847503222E+02  0.80176891145E+02  0.38657903714E+03  0.40382023802E+03  0.00000000000E+00 0.  1.
         11    1    1    2    0    0 -0.62031232180E+01 -0.22867759622E+02  0.88739205781E+02  0.91848025620E+02  0.00000000000E+00 0. -1.
</event>
<event>
 7    1  0.2878477E-009  0.9602369E+02  0.7561462E-02  0.1288887E+00
         -2   -1    0    0    0  501 -0.00000000000E+00  0.00000000000E+00  0.82719983352E+02  0.82719983352E+02  0.00000000000E+00 0.  1.
          2   -1    0    0  501    0  0.00000000000E+00 -0.00000000000E+00 -0.17371920461E+03  0.17371920461E+03  0.00000000000E+00 0. -1.
         25    2    1    2    0    0 -0.48573636807E+01 -0.23421642599E+02 -0.80669903233E+02  0.15075398648E+03  0.12508782447E+03 0.  0.
          5    1    3    3  502    0 -0.18337431517E+02 -0.56457911894E+02 -0.94981538570E+02  0.11208355044E+03  0.41800000000E+01 0.  1.
         -5    1    3    3    0  502  0.13480067836E+02  0.33036269295E+02  0.14311635338E+02  0.38670436044E+02  0.41800000000E+01 0.  1.
        -11    1    1    2    0    0 -0.35941710465E+02 -0.16486401115E+02 -0.24968299147E+02  0.46765627711E+02  0.00000000000E+00 0. -1.
         11    1    1    2    0    0  0.40799074145E+02  0.39908043714E+02  0.14638981124E+02  0.58919573764E+02  0.00000000000E+00 0.  1.
</event>
<event>
 7    1  0.2878477E-009  0.1126750E+03  0.7561462E-02  0.1255695E+00
          1   -1    0    0  501    0  0.00000000000E+00  0.00000000000E+00  0.56967242703E+02  0.56967242703E+02  0.00000000000E+00 0. -1.
         -1   -1    0    0    0  501 -0.00000000000E+00 -0.00000000000E+00 -0.34135485051E+03  0.34135485051E+03  0.00000000000E+00 0.  1.
         25    2    1    2    0    0 -0.31390320490E+02 -0.75257329193E+02 -0.19621983762E+03  0.24657452566E+03  0.12509098373E+03 0.  0.
          5    1    3    3  502    0 -0.16728597196E+00 -0.10199352110E+03 -0.16785485294E+03  0.19645719734E+03  0.41800000000E+01 0.  1.
         -5    1    3    3    0  502 -0.31223034518E+02  0.26736191903E+02 -0.28364984679E+02  0.50117328319E+02  0.41800000000E+01 0.  1.
        -11    1    1    2    0    0  0.15994262948E+02  0.27944991005E+02 -0.96112883565E+02  0.10136284012E+03  0.00000000000E+00 0.  1.
         11    1    1    2    0    0  0.15396057542E+02  0.47312338187E+02  0.79451133768E+01  0.50384727440E+02  0.00000000000E+00 0. -1.
</event>
<event>
 7    1  0.3319518E-009  0.1706035E+03  0.7561462E-02  0.1177220E+00
          2   -1    0    0  501    0  0.00000000000E+00  0.00000000000E+00  0.11040381770E+04  0.11040381770E+04  0.00000000000E+00 0. -1.
         -2   -1    0    0    0  501 -0.00000000000E+00 -0.00000000000E+00 -0.28452252742E+02  0.28452252742E+02  0.00000000000E+00 0.  1.
         25    2    1    2    0    0  0.86259873708E+02 -0.10788489900E+03  0.63917359514E+03  0.66578720855E+03  0.12509918103E+03 0.  0.
          5    1    3    3  502    0 -0.22412500737E+02  0.10914448389E+02  0.83261480195E+02  0.87013745220E+02  0.41800000000E+01 0. -1.
         -5    1    3    3    0  502  0.10867237444E+03 -0.11879934739E+03  0.55591211495E+03  0.57877346333E+03  0.41800000000E+01 0. -1.
        -11    1    1    2    0    0 -0.49762417515E+02  0.10483154758E+02  0.74961818467E+02  0.90584043620E+02  0.00000000000E+00 0.  1.
         11    1    1    2    0    0 -0.36497456193E+02  0.97401744245E+02  0.36145051064E+03  0.37611917756E+03  0.00000000000E+00 0. -1.
</event>
<event>
 7    1  0.2878477E-009  0.7698385E+02  0.7561462E-02  0.1337835E+00
          1   -1    0    0  501    0  0.00000000000E+00  0.00000000000E+00  0.51041303657E+03  0.51041303657E+03  0.00000000000E+00 0. -1.
         -1   -1    0    0    0  501 -0.00000000000E+00 -0.00000000000E+00 -0.27254681767E+02  0.27254681767E+02  0.00000000000E+00 0.  1.
         25    2    1    2    0    0 -0.35804406211E+01 -0.33689360023E+02  0.34491428164E+03  0.36846636543E+03  0.12511517990E+03 0.  0.
          5    1    3    3  502    0 -0.36714717422E+02 -0.40887642759E+02  0.59837106909E+02  0.81349379647E+02  0.41800000000E+01 0.  1.
         -5    1    3    3    0  502  0.33134276801E+02  0.71982827366E+01  0.28507717473E+03  0.28711698579E+03  0.41800000000E+01 0.  1.
        -11    1    1    2    0    0 -0.71164245897E+01  0.47045675988E+02  0.14359468972E+03  0.15127251583E+03  0.00000000000E+00 0. -1.
         11    1    1    2    0    0  0.10696865211E+02 -0.13356315966E+02 -0.53506165568E+01  0.17928837080E+02  0.00000000000E+00 0.  1.
</event>
<event>
 7    1  0.2878477E-009  0.1073870E+03  0.7561462E-02  0.1265487E+00
          1   -1    0    0  501    0  0.00000000000E+00  0.00000000000E+00  0.14280597736E+03  0.14280597736E+03  0.00000000000E+00 0. -1.
         -1   -1    0    0    0  501 -0.00000000000E+00 -0.00000000000E+00 -0.11654653193E+03  0.11654653193E+03  0.00000000000E+00 0.  1.
         25    2    1    2    0    0  0.58738527741E+01  0.67583076635E+02  0.21728004955E+01  0.14231469711E+03  0.12508707990E+03 0.  0.
          5    1    3    3  502    0  0.35570961784E+02  0.48435592000E+01  0.47217150601E+02  0.59461627113E+02  0.41800000000E+01 0. -1.
         -5    1    3    3    0  502 -0.29697109010E+02  0.62739517435E+02 -0.45044350106E+02  0.82853069997E+02  0.41800000000E+01 0. -1.
        -11    1    1    2    0    0  0.33104478308E+02 -0.61222591512E+02 -0.21337869244E+01  0.69632357724E+02  0.00000000000E+00 0. -1.
         11    1    1    2    0    0 -0.38978331082E+02 -0.63604851225E+01  0.26220431862E+02  0.47405454454E+02  0.00000000000E+00 0.  1.
</event>
<event>
 7    1  0.2878477E-009  0.1169876E+03  0.7561462E-02  0.1248151E+00
          2   -1    0    0  501    0  0.00000000000E+00  0.00000000000E+00  0.63212797670E+03  0.63212797670E+03  0.00000000000E+00 0. -1.
         -2   -1    0    0    0  501 -0.00000000000E+00 -0.00000000000E+00 -0.35210070426E+02  0.35210070426E+02  0.00000000000E+00 0.  1.
         25    2    1    2    0    0  0.15535963516E+02  0.89768281242E+02  0.23534374531E+03  0.28166219874E+03  0.12508878952E+03 0.  0.
          5    1    3    3  502    0  0.15534067408E+02  0.97321567938E+02  0.24768298226E+03  0.26660293873E+03  0.41800000000E+01 0.  1.
         -5    1    3    3    0  502  0.18961085831E-02 -0.75532866964E+01 -0.12339236952E+02  0.15059260011E+02  0.41800000000E+01 0.  1.
        -11    1    1    2    0    0 -0.35414548519E+02 -0.98734126466E+02  0.23654040914E+03  0.25875467751E+03  0.00000000000E+00 0.  1.
         11    1    1    2    0    0  0.19878585003E+02  0.89658452236E+01  0.12503375182E+03  0.12692117088E+03  0.00000000000E+00 0. -1.
</event>
<event>
 7    1  0.2878477E-009  0.7768500E+02  0.7561462E-02  0.1335752E+00
          3   -1    0    0  501    0  0.00000000000E+00  0.00000000000E+00  0.61108793706E+02  0.61108793706E+02  0.00000000000E+00 0. -1.
         -3   -1    0    0    0  501 -0.00000000000E+00 -0.00000000000E+00 -0.25197181228E+03  0.25197181228E+03  0.00000000000E+00 0.  1.
         25    2    1    2    0    0 -0.82702202872E+01 -0.35001096435E+02 -0.16722936371E+03  0.21191926242E+03  0.12510251957E+03 0.  0.
          5    1    3    3  502    0  0.77317635266E+01  0.31955456039E+02 -0.23842423783E+01  0.33227824931E+02  0.41800000000E+01 0. -1.
         -5    1    3    3    0  502 -0.16001983814E+02 -0.66956552474E+02 -0.16484512134E+03  0.17869143749E+03  0.41800000000E+01 0. -1.
        -11    1    1    2    0    0 -0.13075697423E+02  0.10016593908E+01 -0.50945815910E+02  0.52606590304E+02  0.00000000000E+00 0.  1.
         11    1    1    2    0    0  0.21345917710E+02  0.33999437044E+02  0.27312161054E+02  0.48554753255E+02  0.00000000000E+00 0. -1.
</event>
<event>
 7    1  0.2878477E-009  0.1449057E+03  0.7561462E-02  0.1206876E+00
         -1   -1    0    0    0  501 -0.00000000000E+00  0.00000000000E+00  0.12270725305E+02  0.12270725305E+02  0.00000000000E+00 0.  1.
          1   -1    0    0  501    0  0.00000000000E+00 -0.00000000000E+00 -0.18896473187E+04  0.18896473187E+04  0.00000000000E+00 0. -1.
         25    2    1    2    0    0  0.10330871064E+03 -0.15414143025E+02 -0.11280762804E+04  0.11397868141E+04  0.12509037423E+03 0.  0.
          5    1    3    3  502    0  0.10792084211E+03  0.24032678837E+02 -0.98652194048E+03  0.99270715181E+03  0.41800000000E+01 0.  1.
         -5    1    3    3    0  502 -0.46121314707E+01 -0.39446821862E+02 -0.14155433989E+03  0.14707966227E+03  0.41800000000E+01 0.  1.
        -11    1    1    2    0    0 -0.81390937011E+01  0.40096984606E+02 -0.22693850381E+03  0.23059726263E+03  0.00000000000E+00 0. -1.
         11    1    1    2    0    0 -0.95169616941E+02 -0.24682841581E+02 -0.52236180917E+03  0.53153396725E+03  0.00000000000E+00 0.  1.
</event>
<event>
 7    1  0.2878477E-009  0.2864212E+03  0.7561462E-02  0.1092233E+00
          1   -1    0    0  501    0  0.00000000000E+00  0.00000000000E+00  0.11304547607E+03  0.11304547607E+03  0.00000000000E+00 0. -1.
         -1   -1    0    0    0  501 -0.00000000000E+00 -0.00000000000E+00 -0.10408165589E+04  0.10408165589E+04  0.00000000000E+00 0.  1.
         25    2    1    2    0    0  0.17109909651E+03  0.20361822147E+03 -0.78539025958E+03  0.83858190142E+03  0.12508582893E+03 0.  0.
          5    1    3    3  502    0  0.10683034809E+03  0.37262856769E+02 -0.35736097413E+03  0.37486741923E+03  0.41800000000E+01 0.  1.
         -5    1    3    3    0  502  0.64268748423E+02  0.16635536470E+03 -0.42802928545E+03  0.46371448219E+03  0.41800000000E+01 0.  1.
        -11    1    1    2    0    0 -0.44900318293E-01 -0.53940055513E+02 -0.24679987037E+02  0.59318069464E+02  0.00000000000E+00 0.  1.
         11    1    1    2    0    0 -0.17105419619E+03 -0.14967816596E+03 -0.11770083619E+03  0.25596206406E+03  0.00000000000E+00 0. -1.
</event>
<event>
 7    1  0.2878477E-009  0.1190816E+03  0.7561462E-02  0.1244620E+00
          2   -1    0    0  501    0  0.00000000000E+00  0.00000000000E+00  0.29067485561E+03  0.29067485561E+03  0.00000000000E+00 0. -1.
         -2   -1    0    0    0  501 -0.00000000000E+00 -0.00000000000E+00 -0.68156706014E+02  0.68156706014E+02  0.00000000000E+00 0.  1.
         25    2    1    2    0    0 -0.19342264572E+02  0.95916566767E+02  0.17834721743E+03  0.23880665999E+03  0.12508708930E+03 0.  0.
          5    1    3    3  502    0  0.15992382553E+01  0.10517675649E+03  0.18648697641E+03  0.21414848223E+03  0.41800000000E+01 0.  1.
         -5    1    3    3    0  502 -0.20941502827E+02 -0.92601897205E+01 -0.81397589784E+01  0.24658177762E+02  0.41800000000E+01 0.  1.
        -11    1    1    2    0    0 -0.12676879105E+02 -0.60738478827E+02  0.36076243882E+02  0.71772985494E+02  0.00000000000E+00 0. -1.
         11    1    1    2    0    0  0.32019143677E+02 -0.35178087940E+02  0.80946882793E+01  0.48251916141E+02  0.00000000000E+00 0.  1.
</event>
<event>
 7    1  0.2878477E-009  0.9269842E+02  0.7561462E-02  0.1296446E+00
          1   -1    0    0  501    0  0.00000000000E+00  0.00000000000E+00  0.40680945091E+03  0.40680945091E+03  0.00000000000E+00 0. -1.
         -1   -1    0    0    0  501 -0.00000000000E+00 -0.00000000000E+00 -0.36502333596E+02  0.36502333596E+02  0.00000000000E+00 0.  1.
         25    2    1    2    0    0 -0.44473751049E+02 -0.30351155307E+02  0.21807449905E+03  0.25710485162E+03  0.12508920990E+03 0.  0.
          5    1    3    3  502    0 -0.43715677535E+02  0.90017355717E+01  0.10834599412E+02  0.46118896887E+02  0.41800000000E+01 0.  1.
         -5    1    3    3    0  502 -0.75807351367E+00 -0.39352890878E+02  0.20723989963E+03  0.21098595474E+03  0.41800000000E+01 0.  1.
        -11    1    1    2    0    0  0.65931823278E+02  0.27005711030E+01  0.66863504231E+02  0.93941612734E+02  0.00000000000E+00 0.  1.
         11    1    1    2    0    0 -0.21458072230E+02  0.27650584204E+02  0.85369114037E+02  0.92265320148E+02  0.00000000000E+00 0. -1.
</event>
<event>
 7    1  0.2878477E-009  0.7355806E+02  0.7561462E-02  0.1348395E+00
          2   -1    0    0  501    0  0.00000000000E+00  0.00000000000E+00  0.96715294054E+03  0.96715294054E+03  0.00000000000E+00 0. -1.
         -2   -1    0    0    0  501 -0.00000000000E+00 -0.00000000000E+00 -0.14368331889E+02  0.14368331889E+02  0.00000000000E+00 0.  1.
         25    2    1    2    0    0 -0.40754643339E+02 -0.14034372454E+02  0.61944305857E+03  0.63341467075E+03  0.12508612133E+03 0.  0.
          5    1    3    3  502    0  0.27642656074E+01 -0.42774652798E+00  0.55126656102E+03  0.55128950455E+03  0.41800000000E+01 0.  1.
         -5    1    3    3    0  502 -0.43518908947E+02 -0.13606625926E+02  0.68176497554E+02  0.82125166202E+02  0.41800000000E+01 0.  1.
        -11    1    1    2    0    0 -0.20475044949E+02  0.26826299718E+02  0.74060439243E+02  0.81386893804E+02  0.00000000000E+00 0.  1.
         11    1    1    2    0    0  0.61229688288E+02 -0.12791927264E+02  0.25928111084E+03  0.26671970788E+03  0.00000000000E+00 0. -1.
</event>
<event>
 7    1  0.2878477E-009  0.1329716E+03  0.7561462E-02  0.1223112E+00
          1   -1    0    0  501    0  0.00000000000E+00  0.00000000000E+00  0.13578225451E+03  0.13578225451E+03  0.00000000000E+00 0. -1.
         -1   -1    0    0    0  501 -0.00000000000E+00 -0.00000000000E+00 -0.20000613896E+03  0.20000613896E+03  0.00000000000E+00 0.  1.
         25    2    1    2    0    0  0.10981082572E+03  0.48377296511E+02 -0.65862460680E+02  0.18543060469E+03  0.12509142723E+03 0.  0.
          5    1    3    3  502    0  0.69902904894E+02  0.58338270879E+02 -0.97427605440E+02  0.13341431956E+03  0.41800000000E+01 0. -1.
         -5    1    3    3    0  502  0.39907920825E+02 -0.99609743686E+01  0.31565144760E+02  0.52016285129E+02  0.41800000000E+01 0. -1.
        -11    1    1    2    0    0 -0.62631151485E+02 -0.57934172616E+02 -0.32548824742E+02  0.91315143789E+02  0.00000000000E+00 0.  1.
         11    1    1    2    0    0 -0.47179674234E+02  0.95568761049E+01  0.34187400979E+02  0.59042644990E+02  0.00000000000E+00 0. -1.
</event>
<event>
 7    1  0.2878477E-009  0.1145779E+03  0.7561462E-02  0.1252320E+00
          3   -1    0    0  501    0  0.00000000000E+00  0.00000000000E+00  0.29182482975E+02  0.29182482975E+02  0.00000000000E+00 0. -1.
         -3   -1    0    0    0  501 -0.00000000000E+00 -0.00000000000E+00 -0.55383832937E+03  0.55383832937E+03  0.00000000000E+00 0.  1.
         25    2    1    2    0    0  0.30684906561E+02  0.28486688499E+02 -0.40664124524E+03  0.42750285244E+03  0.12509409102E+03 0.  0.
          5    1    3    3  502    0  0.42112666634E+02 -0.42445472455E+02 -0.18722921858E+03  0.19658928636E+03  0.41800000000E+01 0. -1.
         -5    1    3    3    0  502 -0.11427760074E+02  0.70932160953E+02 -0.21941202666E+03  0.23091356608E+03  0.41800000000E+01 0. -1.
        -11    1    1    2    0    0  0.23787245761E+02  0.14500430674E+02 -0.15957811409E+02  0.32105253396E+02  0.00000000000E+00 0. -1.
         11    1    1    2    0    0 -0.54472152322E+02 -0.42987119173E+02 -0.10205678976E+03  0.12341270651E+03  0.00000000000E+00 0.  1.
</event>
<event>
 7    1  0.2878477E-009  0.1053203E+03  0.7561462E-02  0.1269490E+00
          4   -1    0    0  501    0  0.00000000000E+00  0.00000000000E+00  0.17741822611E+02  0.17741822611E+02  0.00000000000E+00 0. -1.
         -4   -1    0    0    0  501 -0.00000000000E+00 -0.00000000000E+00 -0.10813804135E+04  0.10813804135E+04  0.00000000000E+00 0.  1.
         25    2    1    2    0    0  0.77340277402E+02 -0.37338936153E+02 -0.63177234541E+03  0.64973825566E+03  0.12509112586E+03 0.  0.
          5    1    3    3  502    0  0.48137473943E+02 -0.17592226537E+02 -0.70061576191E+02  0.86906844900E+02  0.41800000000E+01 0. -1.
         -5    1    3    3    0  502  0.29202803459E+02 -0.19746709616E+02 -0.56171076922E+03  0.56283141076E+03  0.41800000000E+01 0. -1.
        -11    1    1    2    0    0  0.14514775033E+02 -0.12552585503E+02 -0.53208628257E+02  0.56563276231E+02  0.00000000000E+00 0. -1.
         11    1    1    2    0    0 -0.91855052435E+02  0.49891521656E+02 -0.37865761721E+03  0.39282070422E+03  0.00000000000E+00 0.  1.
</event>
<event>
 7    1  0.2878477E-009  0.7492282E+02  0.7561462E-02  0.1344110E+00
         -1   -1    0    0    0  501 -0.00000000000E+00  0.00000000000E+00  0.17680635586E+02  0.17680635586E+02  0.00000000000E+00 0.  1.
          1   -1    0    0  501    0  0.00000000000E+00 -0.00000000000E+00 -0.77461298886E+03  0.77461298886E+03  0.00000000000E+00 0. -1.
         25    2    1    2    0    0  0.71634654600E+01  0.43147916924E+02 -0.45491258078E+03  0.47382080049E+03  0.12509051463E+03 0.  0.
          5    1    3    3  502    0 -0.13782400894E+02  0.41987410949E+02 -0.44959287899E+03  0.45177884688E+03  0.41800000000E+01 0. -1.
         -5    1    3    3    0  502  0.20945866354E+02  0.11605059752E+01 -0.53197017853E+01  0.22041953601E+02  0.41800000000E+01 0. -1.
        -11    1    1    2    0    0  0.17733183469E+02  0.13435372015E+02 -0.20523483901E+02  0.30268604338E+02  0.00000000000E+00 0.  1.
         11    1    1    2    0    0 -0.24896648929E+02 -0.56583288939E+02 -0.28149628859E+03  0.28820421962E+03  0.00000000000E+00 0. -1.
</event>
<event>
 7    1  0.2878477E-009  0.9389123E+02  0.7561462E-02  0.1293693E+00
         -2   -1    0    0    0  501 -0.00000000000E+00  0.00000000000E+00  0.44872901672E+02  0.44872901672E+02  0.00000000000E+00 0.  1.
          2   -1    0    0  501    0  0.00000000000E+00 -0.00000000000E+00 -0.45930554688E+03  0.45930554688E+03  0.00000000000E+00 0. -1.
         25    2    1    2    0    0 -0.66788297351E+02  0.22905870501E+02 -0.33309435517E+03  0.36274820577E+03  0.12509618609E+03 0.  0.
          5    1    3    3  502    0 -0.56492803707E+02 -0.25501458140E+02 -0.64314349324E+02  0.89417946560E+02  0.41800000000E+01 0.  1.
         -5    1    3    3    0  502 -0.10295493644E+02  0.48407328641E+02 -0.26878000585E+03  0.27333025921E+03  0.41800000000E+01 0.  1.
        -11    1    1    2    0    0  0.15702446432E+02  0.65613737120E+01  0.18710970401E+02  0.25292664199E+02  0.00000000000E+00 0.  1.
         11    1    1    2    0    0  0.51085850919E+02 -0.29467244213E+02 -0.10004926044E+03  0.11613757859E+03  0.00000000000E+00 0. -1.
</event>
<event>
 7    1  0.2878477E-009  0.9532102E+02  0.7561462E-02  0.1290455E+00
         -2   -1    0    0    0  501 -0.00000000000E+00  0.00000000000E+00  0.47402636892E+03  0.47402636892E+03  0.00000000000E+00 0.  1.
          2   -1    0    0  501    0  0.00000000000E+00 -0.00000000000E+00 -0.28847616802E+02  0.28847616802E+02  0.00000000000E+00 0. -1.
         25    2    1    2    0    0  0.13820784650E+02  0.89842558774E+01  0.34583790813E+03  0.36812906399E+03  0.12507365075E+03 0.  0.
          5    1    3    3  502    0 -0.31582699656E+02 -0.38719563873E+02  0.81586365690E+02  0.95762618023E+02  0.41800000000E+01 0.  1.
         -5    1    3    3    0  502  0.45403484306E+02  0.47703819751E+02  0.26425154244E+03  0.27236644597E+03  0.41800000000E+01 0.  1.
        -11    1    1    2    0    0 -0.34338813918E+02  0.19436638252E+02  0.90299871081E+02  0.98544425337E+02  0.00000000000E+00 0.  1.
         11    1    1    2    0    0  0.20518029268E+02 -0.28420894129E+02  0.90409729053E+01  0.36200496395E+02  0.00000000000E+00 0. -1.
</event>
<event>
 7    1  0.2878477E-009  0.8802210E+02  0.7561462E-02  0.1307713E+00
         -1   -1    0    0    0  501 -0.00000000000E+00  0.00000000000E+00  0.74623125477E+02  0.74623125477E+02  0.00000000000E+00 0.  1.
          1   -1    0    0  501    0  0.00000000000E+00 -0.00000000000E+00 -0.15167107185E+03  0.15167107185E+03  0.00000000000E+00 0. -1.
         25    2    1    2    0    0  0.20834976688E+02  0.28987807536E+02 -0.74506805577E+02  0.14990966430E+03  0.12508898486E+03 0.  0.
          5    1    3    3  502    0  0.71259224788E+02  0.42288951938E+01 -0.55299093283E+02  0.90394816167E+02  0.41800000000E+01 0. -1.
         -5    1    3    3    0  502 -0.50424248100E+02  0.24758912342E+02 -0.19207712294E+02  0.59514848134E+02  0.41800000000E+01 0. -1.
        -11    1    1    2    0    0 -0.15617406700E+02  0.29093995273E+01  0.27822306769E+02  0.32038238896E+02  0.00000000000E+00 0.  1.
         11    1    1    2    0    0 -0.52175699883E+01 -0.31897207063E+02 -0.30363447564E+02  0.44346294129E+02  0.00000000000E+00 0. -1.
</event>
<event>
 7    1  0.2878477E-009  0.9841884E+02  0.7561462E-02  0.1283656E+00
         -2   -1    0    0    0  501 -0.00000000000E+00  0.00000000000E+00  0.54095615891E+03  0.54095615891E+03  0.00000000000E+00 0. -1.
          2   -1    0    0  501    0  0.00000000000E+00 -0.00000000000E+00 -0.31999230498E+02  0.31999230498E+02  0.00000000000E+00 0.  1.
         25    2    1    2    0    0 -0.98417780516E+01  0.56639776339E+02  0.38180412215E+03  0.40586500886E+03  0.12508834028E+03 0.  0.
          5    1    3    3  502    0 -0.37245311062E+02 -0.16139858721E+02  0.47556334230E+02  0.62664069139E+02  0.41800000000E+01 0.  1.
         -5    1    3    3    0  502  0.27403533011E+02  0.72779635060E+02  0.33424778792E+03  0.34320093973E+03  0.41800000000E+01 0.  1.
        -11    1    1    2    0    0 -0.18867133471E+02 -0.41739655906E+02  0.11817835058E+02  0.47305695493E+02  0.00000000000E+00 0.  1.
         11    1    1    2    0    0  0.28708911523E+02 -0.14900120433E+02  0.11533497121E+03  0.11978468505E+03  0.00000000000E+00 0. -1.
</event>
<event>
 7    1  0.2990763E-009  0.1141791E+03  0.7561462E-02  0.1253021E+00
          1   -1    0    0  501    0  0.00000000000E+00  0.00000000000E+00  0.18587604113E+03  0.18587604113E+03  0.00000000000E+00 0. -1.
         -1   -1    0    0    0  501 -0.00000000000E+00 -0.00000000000E+00 -0.77818839671E+02  0.77818839671E+02  0.00000000000E+00 0.  1.
         25    2    1    2    0    0  0.37114559769E+02 -0.21641497722E+02  0.92198833157E+02  0.16122897041E+03  0.12509320963E+03 0.  0.
          5    1    3    3  502    0  0.80353103323E+02 -0.30063704645E+02  0.74031228988E+02  0.11339551497E+03  0.41800000000E+01 0. -1.
         -5    1    3    3    0  502 -0.43238543554E+02  0.84222069232E+01  0.18167604169E+02  0.47833455441E+02  0.41800000000E+01 0. -1.
        -11    1    1    2    0    0 -0.46860920258E+02  0.49821240834E+02 -0.61692809535E+00  0.68399433375E+02  0.00000000000E+00 0.  1.
         11    1    1    2    0    0  0.97463604893E+01 -0.28179743112E+02  0.16475296398E+02  0.34066477013E+02  0.00000000000E+00 0. -1.
</event>
<event>
 7    1  0.2878477E-009  0.1058995E+03  0.7561462E-02  0.1268357E+00
          1   -1    0    0  501    0  0.00000000000E+00  0.00000000000E+00  0.88919137155E+02  0.88919137155E+02  0.00000000000E+00 0. -1.
         -1   -1    0    0    0  501 -0.00000000000E+00 -0.00000000000E+00 -0.16932835991E+03  0.16932835991E+03  0.00000000000E+00 0.  1.
         25    2    1    2    0    0  0.10664188254E+02  0.45345172206E+02 -0.13852386160E+02  0.13419838705E+03  0.12508960361E+03 0.  0.
          5    1    3    3  502    0  0.97649466304E+01  0.78791046186E+02 -0.42323838593E+02  0.90067546069E+02  0.41800000000E+01 0. -1.
         -5    1    3    3    0  502  0.89924162319E+00 -0.33445873980E+02  0.28471452433E+02  0.44130840978E+02  0.41800000000E+01 0. -1.
        -11    1    1    2    0    0 -0.39271786997E+02  0.60709862576E+01 -0.48081933420E+02  0.62377900329E+02  0.00000000000E+00 0.  1.
         11    1    1    2    0    0  0.28607598743E+02 -0.51416158463E+02 -0.18474903172E+02  0.61671209686E+02  0.00000000000E+00 0. -1.
</event>
<event>
 7    1  0.2878477E-009  0.1117077E+03  0.7561462E-02  0.1257440E+00
          2   -1    0    0  501    0  0.00000000000E+00  0.00000000000E+00  0.21973681454E+03  0.21973681454E+03  0.00000000000E+00 0. -1.
         -2   -1    0    0    0  501 -0.00000000000E+00 -0.00000000000E+00 -0.17245635353E+03  0.17245635353E+03  0.00000000000E+00 0.  1.
         25    2    1    2    0    0 -0.93849774541E+02  0.30798397404E+02  0.15356956634E+03  0.22133010559E+03  0.12508829871E+03 0.  0.
          5    1    3    3  502    0 -0.30455240482E+02  0.14190142687E+02  0.15191482767E+03  0.15564211862E+03  0.41800000000E+01 0.  1.
         -5    1    3    3    0  502 -0.63394534059E+02  0.16608254717E+02  0.16547386700E+01  0.65687986979E+02  0.41800000000E+01 0.  1.
        -11    1    1    2    0    0  0.10564921141E+03 -0.35106232251E+02 -0.11122241583E+03  0.15736781500E+03  0.00000000000E+00 0.  1.
         11    1    1    2    0    0 -0.11799436874E+02  0.43078348469E+01  0.49333105087E+01  0.13495247467E+02  0.00000000000E+00 0. -1.
</event>
<event>
 7    1  0.2878477E-009  0.1298480E+03  0.7561462E-02  0.1227681E+00
         -2   -1    0    0    0  501 -0.00000000000E+00  0.00000000000E+00  0.50787860148E+02  0.50787860148E+02  0.00000000000E+00 0. -1.
          2   -1    0    0  501    0  0.00000000000E+00 -0.00000000000E+00 -0.44111512180E+03  0.44111512180E+03  0.00000000000E+00 0.  1.
         25    2    1    2    0    0  0.27556152340E+02 -0.95513668764E+02 -0.16612608870E+03  0.23049024029E+03  0.12508265695E+03 0.  0.
          5    1    3    3  502    0 -0.49487409396E+02 -0.39527429188E+02 -0.79039142255E+02  0.10137100056E+03  0.41800000000E+01 0. -1.
         -5    1    3    3    0  502  0.77043561736E+02 -0.55986239576E+02 -0.87086946440E+02  0.12911923972E+03  0.41800000000E+01 0. -1.
        -11    1    1    2    0    0 -0.24401503330E+01  0.38685961096E+02 -0.18253282508E+03  0.18660329619E+03  0.00000000000E+00 0.  1.
         11    1    1    2    0    0 -0.25116002007E+02  0.56827707668E+02 -0.41668347877E+02  0.74809445462E+02  0.00000000000E+00 0. -1.
</event>
<event>
 7    1  0.2878477E-009  0.1127840E+03  0.7561462E-02  0.1255499E+00
         -1   -1    0    0    0  501 -0.00000000000E+00  0.00000000000E+00  0.94230104572E+02  0.94230104572E+02  0.00000000000E+00 0.  1.
          1   -1    0    0  501    0  0.00000000000E+00 -0.00000000000E+00 -0.14355957911E+03  0.14355957911E+03  0.00000000000E+00 0. -1.
         25    2    1    2    0    0 -0.38458648553E+02 -0.50637614559E+01 -0.28382786022E+02  0.13398309314E+03  0.12506469277E+03 0.  0.
          5    1    3    3  502    0 -0.23285209189E+02 -0.61385043687E+02 -0.36029717549E+02  0.75006249754E+02  0.41800000000E+01 0. -1.
         -5    1    3    3    0  502 -0.15173439364E+02  0.56321282231E+02  0.76469315276E+01  0.58976843389E+02  0.41800000000E+01 0. -1.
        -11    1    1    2    0    0 -0.77548919109E+01  0.41646603173E+02 -0.44176652802E+01  0.42592178518E+02  0.00000000000E+00 0.  1.
         11    1    1    2    0    0  0.46213540464E+02 -0.36582841717E+02 -0.16529023241E+02  0.61214412025E+02  0.00000000000E+00 0. -1.
</event>
<event>
 7    1  0.2878477E-009  0.1299503E+03  0.7561462E-02  0.1227530E+00
         -2   -1    0    0    0  501 -0.00000000000E+00  0.00000000000E+00  0.31442968757E+02  0.31442968757E+02  0.00000000000E+00 0.  1.
          2   -1    0    0  501    0  0.00000000000E+00 -0.00000000000E+00 -0.92130531271E+03  0.92130531271E+03  0.00000000000E+00 0. -1.
         25    2    1    2    0    0 -0.32095390933E+02  0.10917259916E+03 -0.65347198542E+03  0.67499665047E+03  0.12508425912E+03 0.  0.
          5    1    3    3  502    0 -0.11878723011E+02  0.63091635004E+02 -0.97979595447E+02  0.11721404349E+03  0.41800000000E+01 0. -1.
         -5    1    3    3    0  502 -0.20216667922E+02  0.46080964159E+02 -0.55549238998E+03  0.55778260697E+03  0.41800000000E+01 0. -1.
        -11    1    1    2    0    0  0.53703553096E+02 -0.11107740425E+03 -0.19005860650E+03  0.22659332571E+03  0.00000000000E+00 0. -1.
         11    1    1    2    0    0 -0.21608162163E+02  0.19048050879E+01 -0.46331752032E+02  0.51158305297E+02  0.00000000000E+00 0.  1.
</event>
<event>
 7    1  0.2878477E-009  0.1618548E+03  0.7561462E-02  0.1186619E+00
          1   -1    0    0  501    0  0.00000000000E+00  0.00000000000E+00  0.11661095936E+03  0.11661095936E+03  0.00000000000E+00 0. -1.
         -1   -1    0    0    0  501 -0.00000000000E+00 -0.00000000000E+00 -0.25948111103E+03  0.25948111103E+03  0.00000000000E+00 0.  1.
         25    2    1    2    0    0 -0.47445636022E+02  0.12399963686E+03 -0.10641711543E+03  0.21118458238E+03  0.12508927636E+03 0.  0.
          5    1    3    3  502    0 -0.24825547253E+02 -0.12727048578E+02 -0.57699895883E+02  0.64226442738E+02  0.41800000000E+01 0.  1.
         -5    1    3    3    0  502 -0.22620088769E+02  0.13672668544E+03 -0.48717219550E+02  0.14695813964E+03  0.41800000000E+01 0.  1.
        -11    1    1    2    0    0  0.60461630672E+02 -0.12934706475E+03 -0.43377690466E+02  0.14922431428E+03  0.00000000000E+00 0.  1.
         11    1    1    2    0    0 -0.13015994651E+02  0.53474278895E+01  0.69246542348E+01  0.15683173724E+02  0.00000000000E+00 0. -1.
</event>
<event>
 7    1  0.2878477E-009  0.1200589E+03  0.7561462E-02  0.1243000E+00
          2   -1    0    0  501    0  0.00000000000E+00  0.00000000000E+00  0.39283220136E+03  0.39283220136E+03  0.00000000000E+00 0. -1.
         -2   -1    0    0    0  501 -0.00000000000E+00 -0.00000000000E+00 -0.47488645452E+02  0.47488645452E+02  0.00000000000E+00 0.  1.
         25    2    1    2    0    0 -0.57805780503E+02  0.31519441026E+02  0.10661186103E+03  0.17705454928E+03  0.12508893270E+03 0.  0.
          5    1    3    3  502    0 -0.22677492417E+02 -0.48540858150E+02  0.43656045815E+02  0.69237318756E+02  0.41800000000E+01 0.  1.
         -5    1    3    3    0  502 -0.35128288086E+02  0.80060299176E+02  0.62955815212E+02  0.10781723052E+03  0.41800000000E+01 0.  1.
        -11    1    1    2    0    0  0.29862100264E+02 -0.54846891032E+02  0.86156269348E+02  0.10640878364E+03  0.00000000000E+00 0.  1.
         11    1    1    2    0    0  0.27943680239E+02  0.23327450005E+02  0.15257542553E+03  0.15685751390E+03  0.00000000000E+00 0. -1.
</event>
<event>
 7    1  0.2878477E-009  0.2028002E+03  0.7561462E-02  0.1147398E+00
         -1   -1    0    0    0  501 -0.00000000000E+00  0.00000000000E+00  0.41724063727E+02  0.41724063727E+02  0.00000000000E+00 0.  1.
          1   -1    0    0  501    0  0.00000000000E+00 -0.00000000000E+00 -0.12041481802E+04  0.12041481802E+04  0.00000000000E+00 0. -1.
         25    2    1    2    0    0  0.19917147243E+02 -0.18512452253E+03 -0.77198207981E+03  0.80391050861E+03  0.12509193702E+03 0.  0.
          5    1    3    3  502    0  0.38413574948E+02 -0.21711202209E+02 -0.31733835493E+03  0.32041860581E+03  0.41800000000E+01 0.  1.
         -5    1    3    3    0  502 -0.18496427705E+02 -0.16341332032E+03 -0.45464372488E+03  0.48349190280E+03  0.41800000000E+01 0.  1.
        -11    1    1    2    0    0  0.19096845020E+02  0.11452381909E+03 -0.29483749251E+03  0.31687464654E+03  0.00000000000E+00 0. -1.
         11    1    1    2    0    0 -0.39013992262E+02  0.70600703440E+02 -0.95604544179E+02  0.12508708881E+03  0.00000000000E+00 0.  1.
</event>
<event>
 7    1  0.2878477E-009  0.1840258E+03  0.7561462E-02  0.1163963E+00
          2   -1    0    0  501    0  0.00000000000E+00  0.00000000000E+00  0.76947789643E+03  0.76947789643E+03  0.00000000000E+00 0.  1.
         -2   -1    0    0    0  501 -0.00000000000E+00 -0.00000000000E+00 -0.47460269934E+02  0.47460269934E+02  0.00000000000E+00 0. -1.
         25    2    1    2    0    0 -0.90256268684E+02  0.11803292150E+03  0.48550093004E+03  0.52292531725E+03  0.12514699260E+03 0.  0.
          5    1    3    3  502    0 -0.12148927721E+03  0.87826143706E+02  0.39301097999E+03  0.42065208758E+03  0.41800000000E+01 0.  1.
         -5    1    3    3    0  502  0.31233008526E+02  0.30206777792E+02  0.92489950047E+02  0.10227322966E+03  0.41800000000E+01 0.  1.
        -11    1    1    2    0    0  0.51655523226E+02 -0.15053473313E+01  0.76932896451E+02  0.92678097233E+02  0.00000000000E+00 0. -1.
         11    1    1    2    0    0  0.38600745458E+02 -0.11652757417E+03  0.15958380001E+03  0.20133475188E+03  0.00000000000E+00 0.  1.
</event>
<event>
 7    1  0.2878477E-009  0.1719318E+03  0.7561462E-02  0.1175848E+00
          1   -1    0    0  501    0  0.00000000000E+00  0.00000000000E+00  0.39015314276E+03  0.39015314276E+03  0.00000000000E+00 0. -1.
         -1   -1    0    0    0  501 -0.00000000000E+00 -0.00000000000E+00 -0.94683181795E+02  0.94683181795E+02  0.00000000000E+00 0.  1.
         25    2    1    2    0    0 -0.63802080343E+02  0.14422789492E+03  0.14863383252E+03  0.25021830707E+03  0.12507915051E+03 0.  0.
          5    1    3    3  502    0 -0.56473600035E+02  0.25366469490E+02  0.10756527560E+03  0.12417925024E+03  0.41800000000E+01 0.  1.
         -5    1    3    3    0  502 -0.73284803082E+01  0.11886142543E+03  0.41068556925E+02  0.12603905683E+03  0.41800000000E+01 0.  1.
        -11    1    1    2    0    0  0.13432728962E+02 -0.45685074726E+01 -0.10982237248E+02  0.17942101406E+02  0.00000000000E+00 0.  1.
         11    1    1    2    0    0  0.50369351381E+02 -0.13965938745E+03  0.15781836569E+03  0.21667591608E+03  0.00000000000E+00 0. -1.
</event>
<event>
 7    1  0.3057737E-009  0.1123496E+03  0.7561462E-02  0.1256280E+00
          2   -1    0    0  501    0  0.00000000000E+00  0.00000000000E+00  0.39286355017E+03  0.39286355017E+03  0.00000000000E+00 0. -1.
         -2   -1    0    0    0  501 -0.00000000000E+00 -0.00000000000E+00 -0.43210539353E+02  0.43210539353E+02  0.00000000000E+00 0.  1.
         25    2    1    2    0    0  0.43203746429E+02 -0.52003893569E+02  0.23749889470E+03  0.27681173930E+03  0.12509214755E+03 0.  0.
          5    1    3    3  502    0 -0.33417230398E+02 -0.38676469769E+01  0.15957841933E+02  0.37467253700E+02  0.41800000000E+01 0. -1.
         -5    1    3    3    0  502  0.76620976828E+02 -0.48136246592E+02  0.22154105277E+03  0.23934448560E+03  0.41800000000E+01 0. -1.
        -11    1    1    2    0    0 -0.56470257956E+02  0.11544768017E+02  0.26144805191E+02  0.63290777690E+02  0.00000000000E+00 0.  1.
         11    1    1    2    0    0  0.13266511526E+02  0.40459125552E+02  0.86009310919E+02  0.95971572527E+02  0.00000000000E+00 0. -1.
</event>
<event>
 7    1  0.2878477E-009  0.1094758E+03  0.7561462E-02  0.1261544E+00
         -1   -1    0    0    0  501 -0.00000000000E+00  0.00000000000E+00  0.12649153959E+03  0.12649153959E+03  0.00000000000E+00 0.  1.
          1   -1    0    0  501    0  0.00000000000E+00 -0.00000000000E+00 -0.13894210854E+03  0.13894210854E+03  0.00000000000E+00 0. -1.
         25    2    1    2    0    0 -0.54915569530E+02 -0.47350356805E+02 -0.35666105068E+02  0.14892173403E+03  0.12509130965E+03 0.  0.
          5    1    3    3  502    0 -0.30041196300E+02 -0.87189576546E+02 -0.41863996292E+02  0.10136351572E+03  0.41800000000E+01 0.  1.
         -5    1    3    3    0  502 -0.24874373230E+02  0.39839219741E+02  0.61978912241E+01  0.47558218310E+02  0.41800000000E+01 0.  1.
        -11    1    1    2    0    0  0.26360000594E+02  0.27192053640E+01  0.50413805447E+02  0.56954328095E+02  0.00000000000E+00 0.  1.
         11    1    1    2    0    0  0.28555568937E+02  0.44631151441E+02 -0.27198269334E+02  0.59557586007E+02  0.00000000000E+00 0. -1.
</event>
<event>
 7    1  0.2878477E-009  0.2393885E+03  0.7561462E-02  0.1120201E+00
          1   -1    0    0  501    0  0.00000000000E+00  0.00000000000E+00  0.43684304238E+03  0.43684304238E+03  0.00000000000E+00 0. -1.
         -1   -1    0    0    0  501 -0.00000000000E+00 -0.00000000000E+00 -0.28567327052E+03  0.28567327052E+03  0.00000000000E+00 0.  1.
         25    2    1    2    0    0  0.14762704769E+03 -0.15420130350E+03  0.34128449044E+03  0.42153873791E+03  0.12509203384E+03 0.  0.
          5    1    3    3  502    0  0.60885040256E+02  0.97781130677E+01  0.81168057772E+02  0.10202120184E+03  0.41800000000E+01 0.  1.
         -5    1    3    3    0  502  0.86742007438E+02 -0.16397941656E+03  0.26011643267E+03  0.31951753607E+03  0.41800000000E+01 0.  1.
        -11    1    1    2    0    0 -0.12106935671E+03  0.63109868314E+02 -0.13082849109E+03  0.18909452317E+03  0.00000000000E+00 0. -1.
         11    1    1    2    0    0 -0.26557690989E+02  0.91091435184E+02 -0.59286227486E+02  0.11188305182E+03  0.00000000000E+00 0.  1.
</event>
<event>
 7    1  0.2878477E-009  0.1950261E+03  0.7561462E-02  0.1154005E+00
          3   -1    0    0  501    0  0.00000000000E+00  0.00000000000E+00  0.18071296201E+03  0.18071296201E+03  0.00000000000E+00 0.  1.
         -3   -1    0    0    0  501 -0.00000000000E+00 -0.00000000000E+00 -0.22891336312E+03  0.22891336312E+03  0.00000000000E+00 0. -1.
         25    2    1    2    0    0  0.16061808145E+03  0.55520822921E+02 -0.45407486485E+02  0.21584519921E+03  0.12508629151E+03 0.  0.
          5    1    3    3  502    0  0.14215596422E+03  0.90424116156E+02 -0.22554750615E+02  0.17003243256E+03  0.41800000000E+01 0. -1.
         -5    1    3    3    0  502  0.18462117230E+02 -0.34903293235E+02 -0.22852735870E+02  0.45812766649E+02  0.41800000000E+01 0. -1.
        -11    1    1    2    0    0 -0.11350360426E+03 -0.62963461066E+01  0.30850133870E+02  0.11778982517E+03  0.00000000000E+00 0.  1.
         11    1    1    2    0    0 -0.47114477193E+02 -0.49224476815E+02 -0.33643048495E+02  0.75991300758E+02  0.00000000000E+00 0. -1.
</event>
<event>
 7    1  0.2878477E-009  0.1086081E+03  0.7561462E-02  0.1263169E+00
          2   -1    0    0  501    0  0.00000000000E+00  0.00000000000E+00  0.42777254435E+03  0.42777254435E+03  0.00000000000E+00 0. -1.
         -2   -1    0    0    0  501 -0.00000000000E+00 -0.00000000000E+00 -0.50363466491E+02  0.50363466491E+02  0.00000000000E+00 0.  1.
         25    2    1    2    0    0 -0.47055018462E+02 -0.65886151233E+02  0.29289651780E+03  0.32861934104E+03  0.12508853457E+03 0.  0.
          5    1    3    3  502    0 -0.26126626533E+02 -0.84109762046E+02  0.28660163085E+03  0.29985833303E+03  0.41800000000E+01 0.  1.
         -5    1    3    3    0  502 -0.20928391930E+02  0.18223610813E+02  0.62948869520E+01  0.28761008007E+02  0.41800000000E+01 0.  1.
        -11    1    1    2    0    0 -0.10737136139E+02 -0.29155912830E+01 -0.12870988539E+02  0.17013204018E+02  0.00000000000E+00 0.  1.
         11    1    1    2    0    0  0.57792154601E+02  0.68801742516E+02  0.97383548603E+02  0.13250346579E+03  0.00000000000E+00 0. -1.
</event>
<event>
 7    1  0.2878477E-009  0.1373066E+03  0.7561462E-02  0.1217000E+00
         -1   -1    0    0    0  501 -0.00000000000E+00  0.00000000000E+00  0.11657645268E+03  0.11657645268E+03  0.00000000000E+00 0.  1.
          1   -1    0    0  501    0  0.00000000000E+00 -0.00000000000E+00 -0.27967455642E+03  0.27967455642E+03  0.00000000000E+00 0. -1.
         25    2    1    2    0    0 -0.23951177177E+02  0.10544301419E+03  0.17875698471E+02  0.16630898034E+03  0.12508896120E+03 0.  0.
          5    1    3    3  502    0  0.15695467401E+02  0.87876927644E+02 -0.36587943941E+02  0.96565274043E+02  0.41800000000E+01 0. -1.
         -5    1    3    3    0  502 -0.39646644577E+02  0.17566086543E+02  0.54463642412E+02  0.69743706293E+02  0.41800000000E+01 0. -1.
        -11    1    1    2    0    0  0.50408232301E+02 -0.23579790924E+02 -0.65658938572E+02  0.86070277322E+02  0.00000000000E+00 0.  1.
         11    1    1    2    0    0 -0.26457055124E+02 -0.81863223263E+02 -0.11531486364E+03  0.14387175145E+03  0.00000000000E+00 0. -1.
</event>
<event>
 7    1  0.2878477E-009  0.1025505E+03  0.7561462E-02  0.1275022E+00
         -2   -1    0    0    0  501 -0.00000000000E+00  0.00000000000E+00  0.30339158498E+02  0.30339158498E+02  0.00000000000E+00 0.  1.
          2   -1    0    0  501    0  0.00000000000E+00 -0.00000000000E+00 -0.47447886036E+03  0.47447886036E+03  0.00000000000E+00 0. -1.
         25    2    1    2    0    0  0.13913477324E+02  0.59564291991E+02 -0.33150792186E+03  0.35956351650E+03  0.12508769090E+03 0.  0.
          5    1    3    3  502    0  0.29802421212E+02  0.93740256282E+02 -0.26902799746E+03  0.28647679797E+03  0.41800000000E+01 0. -1.
         -5    1    3    3    0  502 -0.15888943889E+02 -0.34175964291E+02 -0.62479924402E+02  0.73086718537E+02  0.41800000000E+01 0. -1.
        -11    1    1    2    0    0  0.40346089549E+01 -0.46138417655E+02 -0.20878154363E+02  0.50802844239E+02  0.00000000000E+00 0.  1.
         11    1    1    2    0    0 -0.17948086279E+02 -0.13425874336E+02 -0.91753625643E+02  0.94451658119E+02  0.00000000000E+00 0. -1.
</event>
<event>
 7    1  0.2878477E-009  0.1747590E+03  0.7561462E-02  0.1172974E+00
          1   -1    0    0  501    0  0.00000000000E+00  0.00000000000E+00  0.59011896422E+03  0.59011896422E+03  0.00000000000E+00 0. -1.
         -1   -1    0    0    0  501 -0.00000000000E+00 -0.00000000000E+00 -0.71363479626E+02  0.71363479626E+02  0.00000000000E+00 0.  1.
         25    2    1    2    0    0 -0.14897441551E+03 -0.48136239708E+02  0.14804703119E+03  0.24915186947E+03  0.12509299168E+03 0.  0.
          5    1    3    3  502    0 -0.41733208674E+02 -0.70411556570E+02  0.10048025801E+03  0.12966573431E+03  0.41800000000E+01 0. -1.
         -5    1    3    3    0  502 -0.10724120684E+03  0.22275316862E+02  0.47566773180E+02  0.11948613516E+03  0.41800000000E+01 0. -1.
        -11    1    1    2    0    0  0.11475536695E+02  0.10102857199E+02  0.18369040131E+00  0.15290173583E+02  0.00000000000E+00 0.  1.
         11    1    1    2    0    0  0.13749887882E+03  0.38033382508E+02  0.37052476300E+03  0.39704040079E+03  0.00000000000E+00 0. -1.
</event>
<event>
 7    1  0.2878477E-009  0.6717468E+02  0.7561462E-02  0.1369973E+00
          1   -1    0    0  501    0  0.00000000000E+00  0.00000000000E+00  0.28616022856E+03  0.28616022856E+03  0.00000000000E+00 0. -1.
         -1   -1    0    0    0  501 -0.00000000000E+00 -0.00000000000E+00 -0.48634794420E+02  0.48634794420E+02  0.00000000000E+00 0.  1.
         25    2    1    2    0    0 -0.41893433724E+02 -0.19689181099E+02  0.13570856050E+03  0.19028241893E+03  0.12509141425E+03 0.  0.
          5    1    3    3  502    0 -0.36528025808E+02  0.60263075631E+00 -0.13780827351E+02  0.39268860892E+02  0.41800000000E+01 0. -1.
         -5    1    3    3    0  502 -0.53654079164E+01 -0.20291811855E+02  0.14948938785E+03  0.15101355803E+03  0.41800000000E+01 0. -1.
        -11    1    1    2    0    0  0.28487048494E+02 -0.19655932630E+02  0.78264909611E-01  0.34610312695E+02  0.00000000000E+00 0.  1.
         11    1    1    2    0    0  0.13406385230E+02  0.39345113729E+02  0.10173860874E+03  0.10990229136E+03  0.00000000000E+00 0. -1.
</event>
<event>
 7    1  0.2878477E-009  0.1397225E+03  0.7561462E-02  0.1213703E+00
         -2   -1    0    0    0  501 -0.00000000000E+00  0.00000000000E+00  0.83855767037E+02  0.83855767037E+02  0.00000000000E+00 0.  1.
          2   -1    0    0  501    0  0.00000000000E+00 -0.00000000000E+00 -0.33997097394E+03  0.33997097394E+03  0.00000000000E+00 0. -1.
         25    2    1    2    0    0  0.12914896983E+03 -0.11697605379E+02 -0.14287472785E+03  0.22994792340E+03  0.12508624719E+03 0.  0.
          5    1    3    3  502    0  0.37299723008E+01 -0.41457944184E+01  0.21733749158E+02  0.22823859384E+02  0.41800000000E+01 0. -1.
         -5    1    3    3    0  502  0.12541899753E+03 -0.75518109611E+01 -0.16460847701E+03  0.20712406401E+03  0.41800000000E+01 0. -1.
        -11    1    1    2    0    0 -0.12178727887E+02 -0.21901342903E+02 -0.51812373357E+02  0.57554428733E+02  0.00000000000E+00 0.  1.
         11    1    1    2    0    0 -0.11697024194E+03  0.33598948282E+02 -0.61428105700E+02  0.13632438885E+03  0.00000000000E+00 0. -1.
</event>
<event>
 7    1  0.2878477E-009  0.1152264E+03  0.7561462E-02  0.1251187E+00
          2   -1    0    0  501    0  0.00000000000E+00  0.00000000000E+00  0.12614035710E+03  0.12614035710E+03  0.00000000000E+00 0. -1.
         -2   -1    0    0    0  501 -0.00000000000E+00 -0.00000000000E+00 -0.14342723124E+03  0.14342723124E+03  0.00000000000E+00 0.  1.
         25    2    1    2    0    0 -0.68079954637E+02  0.20543389886E+02  0.17512278891E+02  0.14495247225E+03  0.12509048008E+03 0.  0.
          5    1    3    3  502    0 -0.91751389822E+02  0.23956104283E+02  0.47685456736E+02  0.10622423288E+03  0.41800000000E+01 0.  1.
         -5    1    3    3    0  502  0.23671435184E+02 -0.34127143978E+01 -0.30173177845E+02  0.38728239368E+02  0.41800000000E+01 0.  1.
        -11    1    1    2    0    0  0.19629274368E+02  0.33403703659E+02 -0.34839417476E+02  0.52104710347E+02  0.00000000000E+00 0.  1.
         11    1    1    2    0    0  0.48450680270E+02 -0.53947093544E+02  0.40264445958E-01  0.72510405748E+02  0.00000000000E+00 0. -1.
</event>
<event>
 7    1  0.2878477E-009  0.1922903E+03  0.7561462E-02  0.1156412E+00
          1   -1    0    0  501    0  0.00000000000E+00  0.00000000000E+00  0.25400198308E+03  0.25400198308E+03  0.00000000000E+00 0. -1.
         -1   -1    0    0    0  501 -0.00000000000E+00 -0.00000000000E+00 -0.23381152861E+03  0.23381152861E+03  0.00000000000E+00 0.  1.
         25    2    1    2    0    0  0.33111219543E+02 -0.16305578144E+03  0.15107318873E+03  0.25720409723E+03  0.12508916242E+03 0.  0.
          5    1    3    3  502    0  0.52806318465E+02 -0.16924342670E+03  0.10388202896E+03  0.20552565069E+03  0.41800000000E+01 0.  1.
         -5    1    3    3    0  502 -0.19695098922E+02  0.61876452612E+01  0.47191159770E+02  0.51678446531E+02  0.41800000000E+01 0.  1.
        -11    1    1    2    0    0  0.27375174799E+02  0.34001575557E+02 -0.51342266698E+02  0.67390916935E+02  0.00000000000E+00 0.  1.
         11    1    1    2    0    0 -0.60486394343E+02  0.12905420588E+03 -0.79540467562E+02  0.16321849753E+03  0.00000000000E+00 0. -1.
</event>
<event>
 7    1  0.2878477E-009  0.1564207E+03  0.7561462E-02  0.1192798E+00
         -3   -1    0    0    0  501 -0.00000000000E+00  0.00000000000E+00  0.35637090743E+03  0.35637090743E+03  0.00000000000E+00 0.  1.
          3   -1    0    0  501    0  0.00000000000E+00 -0.00000000000E+00 -0.82508357982E+02  0.82508357982E+02  0.00000000000E+00 0. -1.
         25    2    1    2    0    0 -0.10605662701E+03 -0.62370355518E+02  0.20396012848E+03  0.26904708086E+03  0.12509407792E+03 0.  0.
          5    1    3    3  502    0 -0.26063155999E+01  0.29840551273E+02  0.12656455901E+02  0.32785814878E+02  0.41800000000E+01 0.  1.
         -5    1    3    3    0  502 -0.10345031141E+03 -0.92210906791E+02  0.19130367258E+03  0.23626126599E+03  0.41800000000E+01 0.  1.
        -11    1    1    2    0    0  0.92101379796E+02  0.13447159071E+02  0.73833298173E+02  0.11880591806E+03  0.00000000000E+00 0.  1.
         11    1    1    2    0    0  0.13955247215E+02  0.48923196447E+02 -0.39308772121E+01  0.51026266482E+02  0.00000000000E+00 0. -1.
</event>
<event>
 7    1  0.2878477E-009  0.1766987E+03  0.7561462E-02  0.1171037E+00
         -3   -1    0    0    0  501 -0.00000000000E+00  0.00000000000E+00  0.90099225781E+02  0.90099225781E+02  0.00000000000E+00 0.  1.
          3   -1    0    0  501    0  0.00000000000E+00 -0.00000000000E+00 -0.44385910500E+03  0.44385910500E+03  0.00000000000E+00 0. -1.
         25    2    1    2    0    0  0.14156457159E+03 -0.27368342601E+02 -0.72653931444E+02  0.20424590162E+03  0.12509292732E+03 0.  0.
          5    1    3    3  502    0  0.16432419996E+03 -0.31451636679E+02 -0.62514165811E+02  0.17865369145E+03  0.41800000000E+01 0.  1.
         -5    1    3    3    0  502 -0.22759628369E+02  0.40832940776E+01 -0.10139765633E+02  0.25592210164E+02  0.41800000000E+01 0.  1.
        -11    1    1    2    0    0 -0.84107851132E+02 -0.21833862807E+02 -0.94612852063E+02  0.12846182298E+03  0.00000000000E+00 0.  1.
         11    1    1    2    0    0 -0.57456720459E+02  0.49202205408E+02 -0.18649309571E+03  0.20125060619E+03  0.00000000000E+00 0. -1.
</event>
<event>
 7    1  0.2878477E-009  0.1941237E+03  0.7561462E-02  0.1154794E+00
          2   -1    0    0  501    0  0.00000000000E+00  0.00000000000E+00  0.15646913310E+04  0.15646913310E+04  0.00000000000E+00 0.  1.
         -2   -1    0    0    0  501 -0.00000000000E+00 -0.00000000000E+00 -0.28907228809E+02  0.28907228809E+02  0.00000000000E+00 0. -1.
         25    2    1    2    0    0 -0.12098042777E+03 -0.13047843709E+03  0.94463205186E+03  0.96934886068E+03  0.12508642551E+03 0.  0.
          5    1    3    3  502    0 -0.12906252072E+02 -0.79623279408E+02  0.58081374021E+03  0.58640302795E+03  0.41800000000E+01 0.  1.
         -5    1    3    3    0  502 -0.10807417570E+03 -0.50855157685E+02  0.36381831165E+03  0.38294583273E+03  0.41800000000E+01 0.  1.
        -11    1    1    2    0    0  0.12283097824E+03  0.10266186096E+03  0.56006030528E+03  0.58248987327E+03  0.00000000000E+00 0.  1.
         11    1    1    2    0    0 -0.18505504686E+01  0.27816576134E+02  0.31091745015E+02  0.41759825825E+02  0.00000000000E+00 0. -1.
</event>
<event>
 7    1  0.2878477E-009  0.1635524E+03  0.7561462E-02  0.1184744E+00
          2   -1    0    0  501    0  0.00000000000E+00  0.00000000000E+00  0.10916650235E+03  0.10916650235E+03  0.00000000000E+00 0. -1.
         -2   -1    0    0    0  501 -0.00000000000E+00 -0.00000000000E+00 -0.26376946948E+03  0.26376946948E+03  0.00000000000E+00 0.  1.
         25    2    1    2    0    0 -0.79827746666E+02  0.96523049775E+02 -0.12033835878E+03  0.21405120675E+03  0.12508968880E+03 0.  0.
          5    1    3    3  502    0 -0.10792279225E+03  0.45480496954E+02 -0.67230617813E+02  0.13510452643E+03  0.41800000000E+01 0.  1.
         -5    1    3    3    0  502  0.28095045579E+02  0.51042552820E+02 -0.53107740966E+02  0.78946680329E+02  0.41800000000E+01 0.  1.
        -11    1    1    2    0    0  0.97185892155E+02 -0.69870195942E+02 -0.12504276911E+02  0.12034657808E+03  0.00000000000E+00 0. -1.
         11    1    1    2    0    0 -0.17358145490E+02 -0.26652853833E+02 -0.21760331446E+02  0.38538186995E+02  0.00000000000E+00 0.  1.
</event>
<event>
 6    1  0.2878477E-009  0.1201700E+03  0.7561462E-02  0.1242817E+00
          1   -1    0    0  501    0  0.00000000000E+00  0.00000000000E+00  0.59377763069E+03  0.59377763069E+03  0.00000000000E+00 0. -1.
         -1   -1    0    0    0  501 -0.00000000000E+00 -0.00000000000E+00 -0.36881671729E+02  0.36881671729E+02  0.00000000000E+00 0.  1.
          5    1    1    2  502    0 -0.26574143299E+02  0.18319710117E+02  0.24339324682E+03  0.24555965033E+03  0.41800000000E+01 0.  1.
         -5    1    1    2    0  502 -0.11050393954E+02  0.76754632862E+02  0.59749622940E+02  0.97984053365E+02  0.41800000000E+01 0.  1.
        -11    1    1    2    0    0  0.21859885305E+02  0.98902379561E+01  0.23543363141E+02  0.33614897596E+02  0.00000000000E+00 0.  1.
         11    1    1    2    0    0  0.15764651949E+02 -0.10496458093E+03  0.23020972607E+03  0.25350070114E+03  0.00000000000E+00 0. -1.
</event>
<event>
 7    1  0.2878477E-009  0.8636430E+02  0.7561462E-02  0.1311903E+00
          2   -1    0    0  501    0  0.00000000000E+00  0.00000000000E+00  0.44740155682E+03  0.44740155682E+03  0.00000000000E+00 0. -1.
         -2   -1    0    0    0  501 -0.00000000000E+00 -0.00000000000E+00 -0.35924187849E+02  0.35924187849E+02  0.00000000000E+00 0.  1.
         25    2    1    2    0    0  0.11945121307E+02 -0.11540248146E+02  0.34558157949E+03  0.36789954180E+03  0.12509029347E+03 0.  0.
          5    1    3    3  502    0  0.60289139070E+02  0.20450335374E+02  0.22768914189E+03  0.23645890603E+03  0.41800000000E+01 0.  1.
         -5    1    3    3    0  502 -0.48344017763E+02 -0.31990583521E+02  0.11789243760E+03  0.13144063577E+03  0.41800000000E+01 0.  1.
        -11    1    1    2    0    0 -0.12972755023E+02 -0.17480739123E+02 -0.16981485798E+02  0.27608684740E+02  0.00000000000E+00 0.  1.
         11    1    1    2    0    0  0.10276337166E+01  0.29020987269E+02  0.82877275275E+02  0.87817518128E+02  0.00000000000E+00 0. -1.
</event>
<event>
 7    1  0.2878477E-009  0.1063818E+03  0.7561462E-02  0.1267421E+00
          2   -1    0    0  501    0  0.00000000000E+00  0.00000000000E+00  0.44594500699E+03  0.44594500699E+03  0.00000000000E+00 0. -1.
         -2   -1    0    0    0  501 -0.00000000000E+00 -0.00000000000E+00 -0.28515851485E+02  0.28515851485E+02  0.00000000000E+00 0.  1.
         25    2    1    2    0    0  0.42240554341E+01 -0.20218097240E+02  0.19339023376E+03  0.23124476141E+03  0.12509093918E+03 0.  0.
          5    1    3    3  502    0 -0.58041316114E+02  0.59075400392E+01  0.78165720885E+02  0.97627074764E+02  0.41800000000E+01 0.  1.
         -5    1    3    3    0  502  0.62265371548E+02 -0.26125637279E+02  0.11522451288E+03  0.13361768665E+03  0.41800000000E+01 0.  1.
        -11    1    1    2    0    0 -0.41430086116E+02 -0.49140742119E+01  0.15759873723E+03  0.16302748891E+03  0.00000000000E+00 0. -1.
         11    1    1    2    0    0  0.37206030682E+02  0.25132171451E+02  0.66440184512E+02  0.80188608162E+02  0.00000000000E+00 0.  1.
</event>
<event>
 7    1  0.2878477E-009  0.1084091E+03  0.7561462E-02  0.1263545E+00
         -1   -1    0    0    0  501 -0.00000000000E+00  0.00000000000E+00  0.27738652355E+03  0.27738652355E+03  0.00000000000E+00 0.  1.
          1   -1    0    0  501    0  0.00000000000E+00 -0.00000000000E+00 -0.45089117140E+02  0.45089117140E+02  0.00000000000E+00 0. -1.
         25    2    1    2    0    0 -0.13573284557E+02 -0.33467957122E+01  0.16308409480E+03  0.20600819630E+03  0.12509004705E+03 0.  0.
          5    1    3    3  502    0 -0.50990897142E+02 -0.44223657438E+02  0.68182462790E+02  0.96031891061E+02  0.41800000000E+01 0.  1.
         -5    1    3    3    0  502  0.37417612585E+02  0.40876861726E+02  0.94901632014E+02  0.10997630524E+03  0.41800000000E+01 0.  1.
        -11    1    1    2    0    0  0.44981413987E+02 -0.24868060020E+02  0.36056681075E+02  0.62784012803E+02  0.00000000000E+00 0. -1.
         11    1    1    2    0    0 -0.31408129430E+02  0.28214855732E+02  0.33156630527E+02  0.53683431580E+02  0.00000000000E+00 0.  1.
</event>
<event>
 7    1  0.2878477E-009  0.1148566E+03  0.7561462E-02  0.1251832E+00
          1   -1    0    0  501    0  0.00000000000E+00  0.00000000000E+00  0.11772081723E+03  0.11772081723E+03  0.00000000000E+00 0. -1.
         -1   -1    0    0    0  501 -0.00000000000E+00 -0.00000000000E+00 -0.12932143486E+03  0.12932143486E+03  0.00000000000E+00 0.  1.
         25    2    1    2    0    0 -0.13007979879E+02 -0.52624373341E+01  0.34318166903E+02  0.13048171116E+03  0.12510331563E+03 0.  0.
          5    1    3    3  502    0 -0.59028534732E+02  0.30071632022E+02  0.27732666601E+02  0.71939169872E+02  0.41800000000E+01 0.  1.
         -5    1    3    3    0  502  0.46020554853E+02 -0.35334069356E+02  0.65855003025E+01  0.58542541288E+02  0.41800000000E+01 0.  1.
        -11    1    1    2    0    0 -0.45358749017E+02  0.10512879557E+02 -0.31483898991E+02  0.56206517813E+02  0.00000000000E+00 0.  1.
         11    1    1    2    0    0  0.58366728896E+02 -0.52504422231E+01 -0.14434885549E+02  0.60354023117E+02  0.00000000000E+00 0. -1.
</event>
<event>
 7    1  0.2878477E-009  0.1316872E+03  0.7561462E-02  0.1224974E+00
         -3   -1    0    0    0  501 -0.00000000000E+00  0.00000000000E+00  0.25598893518E+03  0.25598893518E+03  0.00000000000E+00 0.  1.
          3   -1    0    0  501    0  0.00000000000E+00 -0.00000000000E+00 -0.85145736080E+02  0.85145736080E+02  0.00000000000E+00 0. -1.
         25    2    1    2    0    0  0.14536607797E+02  0.62846726741E+02  0.25522234265E+02  0.14303971280E+03  0.12509177019E+03 0.  0.
          5    1    3    3  502    0 -0.20796745714E+02  0.88558685387E+02 -0.22549199706E+01  0.91091725496E+02  0.41800000000E+01 0.  1.
         -5    1    3    3    0  502  0.35333353511E+02 -0.25711958647E+02  0.27777154236E+02  0.51947987307E+02  0.41800000000E+01 0.  1.
        -11    1    1    2    0    0  0.42031627794E+02  0.23483926038E+01  0.77982580736E+02  0.88619724560E+02  0.00000000000E+00 0.  1.
         11    1    1    2    0    0 -0.56568235591E+02 -0.65195119344E+02  0.67338384102E+02  0.10947523390E+03  0.00000000000E+00 0. -1.
</event>
<event>
 7    1  0.3524744E-009  0.9779182E+02  0.7561462E-02  0.1285009E+00
         -2   -1    0    0    0  501 -0.00000000000E+00  0.00000000000E+00  0.25984406977E+03  0.25984406977E+03  0.00000000000E+00 0.  1.
          2   -1    0    0  501    0  0.00000000000E+00 -0.00000000000E+00 -0.56991342339E+02  0.56991342339E+02  0.00000000000E+00 0. -1.
         25    2    1    2    0    0 -0.17204381542E+02 -0.43195105068E+02  0.74537824257E+02  0.15285557315E+03  0.12508849328E+03 0.  0.
          5    1    3    3  502    0  0.10332066844E+02  0.34019812883E+02  0.59449136239E+02  0.69395759765E+02  0.41800000000E+01 0. -1.
         -5    1    3    3    0  502 -0.27536448386E+02 -0.77214917951E+02  0.15088688018E+02  0.83459813384E+02  0.41800000000E+01 0. -1.
        -11    1    1    2    0    0  0.31545178356E+02 -0.66788715017E+00  0.45339998969E+01  0.31876347122E+02  0.00000000000E+00 0. -1.
         11    1    1    2    0    0 -0.14340796814E+02  0.43862992219E+02  0.12378090327E+03  0.13210349183E+03  0.00000000000E+00 0.  1.
</event>
<event>
 7    1  0.2878477E-009  0.1210773E+03  0.7561462E-02  0.1241330E+00
          2   -1    0    0  501    0  0.00000000000E+00  0.00000000000E+00  0.55914224141E+02  0.55914224141E+02  0.00000000000E+00 0. -1.
         -2   -1    0    0    0  501 -0.00000000000E+00 -0.00000000000E+00 -0.44021539856E+03  0.44021539856E+03  0.00000000000E+00 0.  1.
         25    2    1    2    0    0  0.71925328148E+02 -0.81148624753E+02 -0.28047734627E+03  0.32568998569E+03  0.12509225747E+03 0.  0.
          5    1    3    3  502    0 -0.13407022067E+02 -0.32486828198E+02 -0.83762495857E+01  0.36369990434E+02  0.41800000000E+01 0.  1.
         -5    1    3    3    0  502  0.85332350214E+02 -0.48661796555E+02 -0.27210109668E+03  0.28931999525E+03  0.41800000000E+01 0.  1.
        -11    1    1    2    0    0 -0.14671887920E+02  0.17207178042E+02  0.12532036936E+02  0.25853495336E+02  0.00000000000E+00 0. -1.
         11    1    1    2    0    0 -0.57253440227E+02  0.63941446711E+02 -0.11635586509E+03  0.14458614168E+03  0.00000000000E+00 0.  1.
</event>
<event>
 7    1  0.2878477E-009  0.9665840E+02  0.7561462E-02  0.1287484E+00
          1   -1    0    0  501    0  0.00000000000E+00  0.00000000000E+00  0.14867166895E+03  0.14867166895E+03  0.00000000000E+00 0. -1.
         -1   -1    0    0    0  501 -0.00000000000E+00 -0.00000000000E+00 -0.12963721631E+03  0.12963721631E+03  0.00000000000E+00 0.  1.
         25    2    1    2    0    0 -0.82094552402E+02  0.14309672594E+01  0.43188499480E+02  0.15573950098E+03  0.12509189612E+03 0.  0.
          5    1    3    3  502    0 -0.45703402801E+02 -0.65422258694E+01 -0.42071010428E+02  0.62602268852E+02  0.41800000000E+01 0.  1.
         -5    1    3    3    0  502 -0.36391149601E+02  0.79731931289E+01  0.85259509908E+02  0.93137232124E+02  0.41800000000E+01 0.  1.
        -11    1    1    2    0    0  0.56621370830E+02  0.33839808738E+02  0.10696609004E+02  0.66824619223E+02  0.00000000000E+00 0.  1.
         11    1    1    2    0    0  0.25473181571E+02 -0.35270775998E+02 -0.34850655839E+02  0.55744765057E+02  0.00000000000E+00 0. -1.
</event>
<event>
 7    1  0.2878477E-009  0.1731804E+03  0.7561462E-02  0.1174571E+00
          2   -1    0    0  501    0  0.00000000000E+00  0.00000000000E+00  0.16698511713E+04  0.16698511713E+04  0.00000000000E+00 0. -1.
         -2   -1    0    0    0  501 -0.00000000000E+00 -0.00000000000E+00 -0.22683835648E+02  0.22683835648E+02  0.00000000000E+00 0.  1.
         25    2    1    2    0    0 -0.53318203902E+02  0.13728090128E+03  0.11519405233E+04  0.11680338782E+04  0.12508914686E+03 0.  0.
          5    1    3    3  502    0 -0.54264348891E+02  0.15682559469E+03  0.10984689320E+04  0.11109412017E+04  0.41800000000E+01 0.  1.
         -5    1    3    3    0  502  0.94614498866E+00 -0.19544693411E+02  0.53471591330E+02  0.57092676503E+02  0.41800000000E+01 0.  1.
        -11    1    1    2    0    0 -0.14377258525E+02 -0.33352269075E+02  0.21508686572E+03  0.21813170155E+03  0.00000000000E+00 0. -1.
         11    1    1    2    0    0  0.67695462427E+02 -0.10392863221E+03  0.28013994659E+03  0.30636942716E+03  0.00000000000E+00 0.  1.
</event>
<event>
 7    1  0.2878477E-009  0.6396419E+02  0.7561462E-02  0.1381911E+00
          1   -1    0    0  501    0  0.00000000000E+00  0.00000000000E+00  0.11995983343E+02  0.11995983343E+02  0.00000000000E+00 0. -1.
         -1   -1    0    0    0  501 -0.00000000000E+00 -0.00000000000E+00 -0.10167459249E+04  0.10167459249E+04  0.00000000000E+00 0.  1.
         25    2    1    2    0    0 -0.98231101488E+00  0.30050517131E+01 -0.50232546078E+03  0.51767496197E+03  0.12508598018E+03 0.  0.
          5    1    3    3  502    0  0.14908719882E+02 -0.49022442145E+01 -0.12731705526E+01  0.16290957311E+02  0.41800000000E+01 0.  1.
         -5    1    3    3    0  502 -0.15891030897E+02  0.79072959275E+01 -0.50105229022E+03  0.50138400466E+03  0.41800000000E+01 0.  1.
        -11    1    1    2    0    0 -0.12263334325E+02 -0.46445431041E+02 -0.24438316109E+03  0.24905962510E+03  0.00000000000E+00 0.  1.
         11    1    1    2    0    0  0.13245645340E+02  0.43440379328E+02 -0.25804131972E+03  0.26200732120E+03  0.00000000000E+00 0. -1.
</event>
<event>
 7    1  0.2878477E-009  0.7356193E+02  0.7561462E-02  0.1348383E+00
         -2   -1    0    0    0  501 -0.00000000000E+00  0.00000000000E+00  0.14313279491E+02  0.14313279491E+02  0.00000000000E+00 0.  1.
          2   -1    0    0  501    0  0.00000000000E+00 -0.00000000000E+00 -0.94919137997E+03  0.94919137997E+03  0.00000000000E+00 0. -1.
         25    2    1    2    0    0  0.26565268172E+02 -0.12895426150E+02 -0.63211325780E+03  0.64504800777E+03  0.12509099151E+03 0.  0.
          5    1    3    3  502    0  0.20126828559E+02  0.14496713257E+02 -0.19636451445E+02  0.31910915820E+02  0.41800000000E+01 0.  1.
         -5    1    3    3    0  502  0.64384396127E+01 -0.27392139407E+02 -0.61247680635E+03  0.61313709195E+03  0.41800000000E+01 0.  1.
        -11    1    1    2    0    0 -0.59035896084E+02  0.13208032181E+01 -0.23651262724E+03  0.24377285410E+03  0.00000000000E+00 0. -1.
         11    1    1    2    0    0  0.32470627912E+02  0.11574622932E+02 -0.66252215438E+02  0.74683797597E+02  0.00000000000E+00 0.  1.
</event>
<event>
 7    1  0.2905745E-009  0.1033061E+03  0.7561462E-02  0.1273493E+00
          2   -1    0    0  501    0  0.00000000000E+00  0.00000000000E+00  0.16488141341E+03  0.16488141341E+03  0.00000000000E+00 0. -1.
         -2   -1    0    0    0  501 -0.00000000000E+00 -0.00000000000E+00 -0.11911547011E+03  0.11911547011E+03  0.00000000000E+00 0.  1.
         25    2    1    2    0    0  0.48395096694E+02 -0.69439167152E+02 -0.16938974619E+01  0.15104263887E+03  0.12508847329E+03 0.  0.
          5    1    3    3  502    0  0.64871960342E+02 -0.26206121546E+02  0.46494027511E+02  0.84108852324E+02  0.41800000000E+01 0. -1.
         -5    1    3    3    0  502 -0.16476863648E+02 -0.43233045606E+02 -0.48187924973E+02  0.66933786545E+02  0.41800000000E+01 0. -1.
        -11    1    1    2    0    0 -0.36749124638E+02  0.69276429032E+02  0.71575473088E+02  0.10617330234E+03  0.00000000000E+00 0. -1.
         11    1    1    2    0    0 -0.11645972056E+02  0.16273812022E+00 -0.24115632330E+02  0.26780942319E+02  0.00000000000E+00 0.  1.
</event>
<event>
 7    1  0.2878477E-009  0.1305834E+03  0.7561462E-02  0.1226593E+00
          1   -1    0    0  501    0  0.00000000000E+00  0.00000000000E+00  0.47168911828E+02  0.47168911828E+02  0.00000000000E+00 0. -1.
         -1   -1    0    0    0  501 -0.00000000000E+00 -0.00000000000E+00 -0.39762481098E+03  0.39762481098E+03  0.00000000000E+00 0.  1.
         25    2    1    2    0    0  0.51554215272E+02  0.64855110922E+02 -0.21204180221E+03  0.25975388854E+03  0.12508530770E+03 0.  0.
          5    1    3    3  502    0 -0.38019638056E+02  0.33075111289E+02 -0.10502082976E+03  0.11656029748E+03  0.41800000000E+01 0. -1.
         -5    1    3    3    0  502  0.89573853327E+02  0.31779999633E+02 -0.10702097245E+03  0.14319359106E+03  0.41800000000E+01 0. -1.
        -11    1    1    2    0    0  0.21158191486E+02 -0.62131200214E+01 -0.57039047619E+02  0.61153290023E+02  0.00000000000E+00 0.  1.
         11    1    1    2    0    0 -0.72712406758E+02 -0.58641990900E+02 -0.81375049326E+02  0.12388654425E+03  0.00000000000E+00 0. -1.
</event>
<event>
 7    1  0.2878477E-009  0.1115707E+03  0.7561462E-02  0.1257689E+00
          2   -1    0    0  501    0  0.00000000000E+00  0.00000000000E+00  0.31438057282E+03  0.31438057282E+03  0.00000000000E+00 0. -1.
         -2   -1    0    0    0  501 -0.00000000000E+00 -0.00000000000E+00 -0.71716657749E+02  0.71716657749E+02  0.00000000000E+00 0.  1.
         25    2    1    2    0    0  0.50023288059E+02 -0.83037646894E+02  0.17130161514E+03  0.23321610916E+03  0.12509168667E+03 0.  0.
          5    1    3    3  502    0 -0.20506731321E+02 -0.26215168380E+02 -0.59995793232E+01  0.34076802003E+02  0.41800000000E+01 0.  1.
         -5    1    3    3    0  502  0.70530019380E+02 -0.56822478514E+02  0.17730119446E+03  0.19913930716E+03  0.41800000000E+01 0.  1.
        -11    1    1    2    0    0 -0.48143141458E+02  0.65496088924E+02  0.93941057412E+02  0.12422729974E+03  0.00000000000E+00 0. -1.
         11    1    1    2    0    0 -0.18801466011E+01  0.17541557969E+02 -0.22578757473E+02  0.28653821670E+02  0.00000000000E+00 0.  1.
</event>
<event>
 7    1  0.2878477E-009  0.1376841E+03  0.7561462E-02  0.1216480E+00
          2   -1    0    0  501    0  0.00000000000E+00  0.00000000000E+00  0.62451530372E+03  0.62451530372E+03  0.00000000000E+00 0. -1.
         -2   -1    0    0    0  501 -0.00000000000E+00 -0.00000000000E+00 -0.37658449366E+02  0.37658449366E+02  0.00000000000E+00 0.  1.
         25    2    1    2    0    0  0.40149165923E+02  0.94553956334E+02  0.38149886528E+03  0.41440407834E+03  0.12504778989E+03 0.  0.
          5    1    3    3  502    0  0.83393955155E+02  0.71267720063E+02  0.22548065694E+03  0.25078404801E+03  0.41800000000E+01 0.  1.
         -5    1    3    3    0  502 -0.43244789232E+02  0.23286236270E+02  0.15601820834E+03  0.16362003034E+03  0.41800000000E+01 0.  1.
        -11    1    1    2    0    0 -0.31693463107E+02 -0.12918702672E+02  0.96657512499E+01  0.35563959702E+02  0.00000000000E+00 0.  1.
         11    1    1    2    0    0 -0.84557028155E+01 -0.81635253661E+02  0.19569223783E+03  0.21220571504E+03  0.00000000000E+00 0. -1.
</event>
<event>
 7    1  0.2878477E-009  0.1612835E+03  0.7561462E-02  0.1187255E+00
         -1   -1    0    0    0  501 -0.00000000000E+00  0.00000000000E+00  0.43827722700E+02  0.43827722700E+02  0.00000000000E+00 0.  1.
          1   -1    0    0  501    0  0.00000000000E+00 -0.00000000000E+00 -0.80189080516E+03  0.80189080516E+03  0.00000000000E+00 0. -1.
         25    2    1    2    0    0  0.11915513531E+03  0.92886169517E+02 -0.34831833700E+03  0.39975199575E+03  0.12510078920E+03 0.  0.
          5    1    3    3  502    0 -0.26180136980E-01  0.12715947394E+02 -0.17097730310E+03  0.17150045650E+03  0.41800000000E+01 0.  1.
         -5    1    3    3    0  502  0.11918131545E+03  0.80170222123E+02 -0.17734103390E+03  0.22825153925E+03  0.41800000000E+01 0.  1.
        -11    1    1    2    0    0 -0.54463025689E+02 -0.27456527237E+01 -0.21524788916E+03  0.22204822351E+03  0.00000000000E+00 0. -1.
         11    1    1    2    0    0 -0.64692109622E+02 -0.90140516794E+02 -0.19449685629E+03  0.22391830859E+03  0.00000000000E+00 0.  1.
</event>
<event>
 7    1  0.2878477E-009  0.1349064E+03  0.7561462E-02  0.1220352E+00
          1   -1    0    0  501    0  0.00000000000E+00  0.00000000000E+00  0.45000183775E+03  0.45000183775E+03  0.00000000000E+00 0. -1.
         -1   -1    0    0    0  501 -0.00000000000E+00 -0.00000000000E+00 -0.44461341165E+02  0.44461341165E+02  0.00000000000E+00 0.  1.
         25    2    1    2    0    0  0.46935361152E+02 -0.77968406677E+02  0.20620111462E+03  0.25779873837E+03  0.12513708190E+03 0.  0.
          5    1    3    3  502    0  0.25474445510E+02  0.30683045949E+02  0.31870619471E+02  0.51221142785E+02  0.41800000000E+01 0. -1.
         -5    1    3    3    0  502  0.21460915642E+02 -0.10865145263E+03  0.17433049515E+03  0.20657759558E+03  0.41800000000E+01 0. -1.
        -11    1    1    2    0    0 -0.64957546904E+02  0.77135913887E+02  0.19260388800E+03  0.21740673813E+03  0.00000000000E+00 0. -1.
         11    1    1    2    0    0  0.18022185751E+02  0.83249278969E+00  0.67354939667E+01  0.19257702420E+02  0.00000000000E+00 0.  1.
</event>
<event>
 7    1  0.2878477E-009  0.8440794E+02  0.7561462E-02  0.1316988E+00
          2   -1    0    0  501    0  0.00000000000E+00  0.00000000000E+00  0.30791782926E+03  0.30791782926E+03  0.00000000000E+00 0. -1.
         -2   -1    0    0    0  501 -0.00000000000E+00 -0.00000000000E+00 -0.37801514680E+02  0.37801514680E+02  0.00000000000E+00 0.  1.
         25    2    1    2    0    0  0.60669004135E+01  0.26199247535E+02  0.18701641225E+03  0.22659803917E+03  0.12509326543E+03 0.  0.
          5    1    3    3  502    0  0.52324262624E+02  0.13389063546E+01  0.15791052141E+03  0.16641161709E+03  0.41800000000E+01 0.  1.
         -5    1    3    3    0  502 -0.46257362210E+02  0.24860341180E+02  0.29105890836E+02  0.60186422086E+02  0.41800000000E+01 0.  1.
        -11    1    1    2    0    0 -0.31641943954E+02 -0.93266274558E+01  0.27199876755E+01  0.33099802565E+02  0.00000000000E+00 0.  1.
         11    1    1    2    0    0  0.25575043541E+02 -0.16872620079E+02  0.80379914657E+02  0.86021502200E+02  0.00000000000E+00 0. -1.
</event>
<event>
 6    1  0.2878477E-009  0.1027658E+03  0.7561462E-02  0.1274585E+00
          2   -1    0    0  501    0  0.00000000000E+00  0.00000000000E+00  0.51012649185E+03  0.51012649185E+03  0.00000000000E+00 0. -1.
         -2   -1    0    0    0  501 -0.00000000000E+00 -0.00000000000E+00 -0.39155868721E+02  0.39155868721E+02  0.00000000000E+00 0.  1.
          5    1    1    2  502    0  0.77880424940E+02  0.40033551018E+02  0.39722503477E+02  0.96246534891E+02  0.41800000000E+01 0.  1.
         -5    1    1    2    0  502 -0.30497136137E+02 -0.38161845976E+00  0.86555253992E+02  0.91866780388E+02  0.41800000000E+01 0.  1.
        -11    1    1    2    0    0 -0.33986128701E+02 -0.56268124096E+02  0.32671465762E+03  0.33326209841E+03  0.00000000000E+00 0. -1.
         11    1    1    2    0    0 -0.13397160101E+02  0.16616191537E+02  0.17978208043E+02  0.27906946885E+02  0.00000000000E+00 0.  1.
</event>
<event>
 7    1  0.2878477E-009  0.8340407E+02  0.7561462E-02  0.1319660E+00
          2   -1    0    0  501    0  0.00000000000E+00  0.00000000000E+00  0.33547155241E+03  0.33547155241E+03  0.00000000000E+00 0. -1.
         -2   -1    0    0    0  501 -0.00000000000E+00 -0.00000000000E+00 -0.37903857975E+02  0.37903857975E+02  0.00000000000E+00 0.  1.
         25    2    1    2    0    0 -0.75134941850E+01  0.17888610527E+02  0.21723851533E+03  0.25143121329E+03  0.12509447426E+03 0.  0.
          5    1    3    3  502    0 -0.36087282173E+02  0.61523131805E+02  0.98592206025E+02  0.12175911946E+03  0.41800000000E+01 0. -1.
         -5    1    3    3    0  502  0.28573787988E+02 -0.43634521278E+02  0.11864630931E+03  0.12967209384E+03  0.41800000000E+01 0. -1.
        -11    1    1    2    0    0  0.23324758273E+02 -0.10334445828E+02 -0.11839135446E+02  0.28124904394E+02  0.00000000000E+00 0.  1.
         11    1    1    2    0    0 -0.15811264088E+02 -0.75541646993E+01  0.92168314548E+02  0.93819292702E+02  0.00000000000E+00 0. -1.
</event>
<event>
 7    1  0.2878477E-009  0.6963710E+02  0.7561462E-02  0.1361331E+00
         -2   -1    0    0    0  501 -0.00000000000E+00  0.00000000000E+00  0.44214386689E+03  0.44214386689E+03  0.00000000000E+00 0. -1.
          2   -1    0    0  501    0  0.00000000000E+00 -0.00000000000E+00 -0.36979706908E+02  0.36979706908E+02  0.00000000000E+00 0.  1.
         25    2    1    2    0    0  0.47224464294E+02 -0.20878504198E+00  0.31851536995E+03  0.34544108666E+03  0.12508920753E+03 0.  0.
          5    1    3    3  502    0  0.45533801471E+02 -0.13675037081E+02  0.29564549457E+02  0.56141506037E+02  0.41800000000E+01 0.  1.
         -5    1    3    3    0  502  0.16906628235E+01  0.13466252039E+02  0.28895082050E+03  0.28929958063E+03  0.41800000000E+01 0.  1.
        -11    1    1    2    0    0 -0.59339543969E+02 -0.11561646100E+02  0.18134403581E+02  0.63116635938E+02  0.00000000000E+00 0.  1.
         11    1    1    2    0    0  0.12115079674E+02  0.11770431142E+02  0.68514386448E+02  0.70565851197E+02  0.00000000000E+00 0. -1.
</event>
<event>
 7    1  0.2878477E-009  0.1285754E+03  0.7561462E-02  0.1229585E+00
          2   -1    0    0  501    0  0.00000000000E+00  0.00000000000E+00  0.23216579466E+03  0.23216579466E+03  0.00000000000E+00 0. -1.
         -2   -1    0    0    0  501 -0.00000000000E+00 -0.00000000000E+00 -0.94341714371E+02  0.94341714371E+02  0.00000000000E+00 0.  1.
         25    2    1    2    0    0  0.55230532278E+02  0.65723144795E+02  0.23097321465E+02  0.15346255093E+03  0.12508926742E+03 0.  0.
          5    1    3    3  502    0  0.28623563732E+02  0.89369355277E+02  0.52047732384E+02  0.10739007826E+03  0.41800000000E+01 0.  1.
         -5    1    3    3    0  502  0.26606968546E+02 -0.23646210482E+02 -0.28950410919E+02  0.46072472668E+02  0.41800000000E+01 0.  1.
        -11    1    1    2    0    0  0.25025768442E+02 -0.31233133879E+02  0.51438380268E+02  0.65174417548E+02  0.00000000000E+00 0. -1.
         11    1    1    2    0    0 -0.80256300720E+02 -0.34490010916E+02  0.63288378554E+02  0.10787054055E+03  0.00000000000E+00 0.  1.
</event>
<event>
 7    1  0.2878477E-009  0.1206891E+03  0.7561462E-02  0.1241965E+00
         -1   -1    0    0    0  501 -0.00000000000E+00  0.00000000000E+00  0.72651892575E+02  0.72651892575E+02  0.00000000000E+00 0.  1.
          1   -1    0    0  501    0  0.00000000000E+00 -0.00000000000E+00 -0.28260528753E+03  0.28260528753E+03  0.00000000000E+00 0. -1.
         25    2    1    2    0    0 -0.83549212080E+02 -0.40215269381E+02 -0.13270726131E+03  0.20458914678E+03  0.12509101904E+03 0.  0.
          5    1    3    3  502    0 -0.76859521570E+02  0.16708261570E+02 -0.25221519932E+02  0.82705196501E+02  0.41800000000E+01 0.  1.
         -5    1    3    3    0  502 -0.66896905102E+01 -0.56923530951E+02 -0.10748574138E+03  0.12188395028E+03  0.41800000000E+01 0.  1.
        -11    1    1    2    0    0  0.27829916752E+02 -0.10554993269E+02  0.13512210567E+02  0.32687795639E+02  0.00000000000E+00 0.  1.
         11    1    1    2    0    0  0.55719295328E+02  0.50770262650E+02 -0.90758344210E+02  0.11798023769E+03  0.00000000000E+00 0. -1.
</event>
<event>
 7    1  0.2878477E-009  0.1084777E+03  0.7561462E-02  0.1263415E+00
          2   -1    0    0  501    0  0.00000000000E+00  0.00000000000E+00  0.17751910725E+03  0.17751910725E+03  0.00000000000E+00 0.  1.
         -2   -1    0    0    0  501 -0.00000000000E+00 -0.00000000000E+00 -0.78550478626E+02  0.78550478626E+02  0.00000000000E+00 0. -1.
         25    2    1    2    0    0 -0.17992532380E+02 -0.24391948577E+02  0.17326081860E+02  0.12987076350E+03  0.12509006244E+03 0.  0.
          5    1    3    3  502    0 -0.40050861431E+02 -0.64032440449E+02 -0.10682975887E+02  0.76392560534E+02  0.41800000000E+01 0. -1.
         -5    1    3    3    0  502  0.22058329051E+02  0.39640491872E+02  0.28009057747E+02  0.53478202964E+02  0.41800000000E+01 0. -1.
        -11    1    1    2    0    0  0.47413508351E+02  0.40374678799E+02  0.46997354854E+02  0.78018631272E+02  0.00000000000E+00 0.  1.
         11    1    1    2    0    0 -0.29420975971E+02 -0.15982730222E+02  0.34645191908E+02  0.48180191103E+02  0.00000000000E+00 0. -1.
</event>
<event>
 7    1  0.2878477E-009  0.9809578E+02  0.7561462E-02  0.1284352E+00
         -1   -1    0    0    0  501 -0.00000000000E+00  0.00000000000E+00  0.89825446449E+02  0.89825446449E+02  0.00000000000E+00 0.  1.
          1   -1    0    0  501    0  0.00000000000E+00 -0.00000000000E+00 -0.15610849909E+03  0.15610849909E+03  0.00000000000E+00 0. -1.
         25    2    1    2    0    0 -0.11457362405E+02 -0.23656351116E+02 -0.80898570739E+02  0.15127081222E+03  0.12508951107E+03 0.  0.
          5    1    3    3  502    0 -0.57426786869E+02  0.54932945013E+01 -0.77321065006E+02  0.96561025410E+02  0.41800000000E+01 0.  1.
         -5    1    3    3    0  502  0.45969424463E+02 -0.29149645617E+02 -0.35775057325E+01  0.54709786806E+02  0.41800000000E+01 0.  1.
        -11    1    1    2    0    0 -0.34420219028E+02  0.11616231596E+02  0.27442902021E+02  0.45528026377E+02  0.00000000000E+00 0.  1.
         11    1    1    2    0    0  0.45877581433E+02  0.12040119520E+02 -0.12827383922E+02  0.49135106945E+02  0.00000000000E+00 0. -1.
</event>
<event>
 7    1  0.2878477E-009  0.1010571E+03  0.7561462E-02  0.1278089E+00
          2   -1    0    0  501    0  0.00000000000E+00  0.00000000000E+00  0.63321752349E+03  0.63321752349E+03  0.00000000000E+00 0. -1.
         -2   -1    0    0    0  501 -0.00000000000E+00 -0.00000000000E+00 -0.22067750706E+02  0.22067750706E+02  0.00000000000E+00 0.  1.
         25    2    1    2    0    0  0.17441977384E+02 -0.43276383123E+02  0.38727641838E+03  0.40964355852E+03  0.12509097846E+03 0.  0.
          5    1    3    3  502    0 -0.44125428022E+02 -0.24596502755E+02  0.27945755430E+03  0.28401767269E+03  0.41800000000E+01 0. -1.
         -5    1    3    3    0  502  0.61567405406E+02 -0.18679880369E+02  0.10781886409E+03  0.12562588584E+03  0.41800000000E+01 0. -1.
        -11    1    1    2    0    0  0.16996956035E+02 -0.12706716906E+02  0.12581766821E+03  0.12759483847E+03  0.00000000000E+00 0.  1.
         11    1    1    2    0    0 -0.34438933419E+02  0.55983100030E+02  0.98055686193E+02  0.11804687721E+03  0.00000000000E+00 0. -1.
</event>
<event>
 7    1  0.2878477E-009  0.7153564E+02  0.7561462E-02  0.1354948E+00
         -1   -1    0    0    0  501 -0.00000000000E+00  0.00000000000E+00  0.17162307961E+03  0.17162307961E+03  0.00000000000E+00 0.  1.
          1   -1    0    0  501    0  0.00000000000E+00 -0.00000000000E+00 -0.10388815636E+03  0.10388815636E+03  0.00000000000E+00 0. -1.
         25    2    1    2    0    0  0.40726499902E+02 -0.33273682523E-01  0.10580838293E+03  0.16882337144E+03  0.12508904006E+03 0.  0.
          5    1    3    3  502    0  0.33039944711E+02 -0.27608660860E+02 -0.14080784028E+02  0.45493043202E+02  0.41800000000E+01 0. -1.
         -5    1    3    3    0  502  0.76865551911E+01  0.27575387177E+02  0.11988916696E+03  0.12333032824E+03  0.41800000000E+01 0. -1.
        -11    1    1    2    0    0 -0.50304194226E+02  0.15545281240E+02  0.11479054112E+02  0.53888184316E+02  0.00000000000E+00 0.  1.
         11    1    1    2    0    0  0.95776943245E+01 -0.15512007558E+02 -0.49552513795E+02  0.52799680212E+02  0.00000000000E+00 0. -1.
</event>
<event>
 7    1  0.2878477E-009  0.1447090E+03  0.7561462E-02  0.1207129E+00
         -1   -1    0    0    0  501 -0.00000000000E+00  0.00000000000E+00  0.74533193405E+02  0.74533193405E+02  0.00000000000E+00 0.  1.
          1   -1    0    0  501    0  0.00000000000E+00 -0.00000000000E+00 -0.32535629416E+03  0.32535629416E+03  0.00000000000E+00 0. -1.
         25    2    1    2    0    0  0.66955925687E+01 -0.11272524137E+03 -0.14286183357E+03  0.22093650188E+03  0.12510644816E+03 0.  0.
          5    1    3    3  502    0  0.64800880270E+01 -0.13738335802E+03 -0.95872987344E+02  0.16770593521E+03  0.41800000000E+01 0.  1.
         -5    1    3    3    0  502  0.21550454172E+00  0.24658116646E+02 -0.46988846225E+02  0.53230566673E+02  0.41800000000E+01 0.  1.
        -11    1    1    2    0    0  0.22580305856E+02  0.78924369007E+02 -0.10616393008E+03  0.13420024697E+03  0.00000000000E+00 0. -1.
         11    1    1    2    0    0 -0.29275898425E+02  0.33800872366E+02 -0.17973370965E+01  0.44752738709E+02  0.00000000000E+00 0.  1.
</event>
<event>
 7    1  0.2878477E-009  0.8017624E+02  0.7561462E-02  0.1328552E+00
          2   -1    0    0  501    0  0.00000000000E+00  0.00000000000E+00  0.38013292297E+03  0.38013292297E+03  0.00000000000E+00 0. -1.
         -2   -1    0    0    0  501 -0.00000000000E+00 -0.00000000000E+00 -0.34965444933E+02  0.34965444933E+02  0.00000000000E+00 0.  1.
         25    2    1    2    0    0  0.14705241416E+00 -0.34567914347E+02  0.21449304728E+03  0.25069871498E+03  0.12509043143E+03 0.  0.
          5    1    3    3  502    0  0.24971068023E+02 -0.49221151463E+01 -0.62637532397E+01  0.26542201499E+02  0.41800000000E+01 0. -1.
         -5    1    3    3    0  502 -0.24824015609E+02 -0.29645799200E+02  0.22075680052E+03  0.22415651348E+03  0.41800000000E+01 0. -1.
        -11    1    1    2    0    0  0.26212948993E+02  0.55911076050E+02  0.60452553333E+02  0.86415729612E+02  0.00000000000E+00 0.  1.
         11    1    1    2    0    0 -0.26360001407E+02 -0.21343161703E+02  0.70221877427E+02  0.77983923311E+02  0.00000000000E+00 0. -1.
</event>
<event>
 7    1  0.3562909E-009  0.8148013E+02  0.7561462E-02  0.1324903E+00
         -4   -1    0    0    0  501 -0.00000000000E+00  0.00000000000E+00  0.10346052603E+03  0.10346052603E+03  0.00000000000E+00 0.  1.
          4   -1    0    0  501    0  0.00000000000E+00 -0.00000000000E+00 -0.14160377381E+03  0.14160377381E+03  0.00000000000E+00 0. -1.
         25    2    1    2    0    0  0.12260593065E+02  0.27895582380E+01  0.32183388552E+02  0.12977123380E+03  0.12508676527E+03 0.  0.
          5    1    3    3  502    0 -0.42974245219E+02 -0.17278908386E+02  0.49936653748E+02  0.68238465800E+02  0.41800000000E+01 0.  1.
         -5    1    3    3    0  502  0.55234838285E+02  0.20068466624E+02 -0.17753265196E+02  0.61532768003E+02  0.41800000000E+01 0.  1.
        -11    1    1    2    0    0 -0.34858240862E+02 -0.10601840196E+01 -0.82499039376E+02  0.89567362606E+02  0.00000000000E+00 0. -1.
         11    1    1    2    0    0  0.22597647797E+02 -0.17293742184E+01  0.12172403047E+02  0.25725703432E+02  0.00000000000E+00 0.  1.
</event>
<event>
 7    1  0.2878477E-009  0.1049109E+03  0.7561462E-02  0.1270295E+00
         -2   -1    0    0    0  501 -0.00000000000E+00  0.00000000000E+00  0.49154841242E+02  0.49154841242E+02  0.00000000000E+00 0. -1.
          2   -1    0    0  501    0  0.00000000000E+00 -0.00000000000E+00 -0.33103410712E+03  0.33103410712E+03  0.00000000000E+00 0.  1.
         25    2    1    2    0    0  0.17854297919E+02  0.13579611114E+02 -0.69075193768E+02  0.14464434315E+03  0.12508965512E+03 0.  0.
          5    1    3    3  502    0  0.48814514261E+02 -0.39490198322E+02 -0.49381031084E+02  0.79989319268E+02  0.41800000000E+01 0.  1.
         -5    1    3    3    0  502 -0.30960216342E+02  0.53069809435E+02 -0.19694162684E+02  0.64655023883E+02  0.41800000000E+01 0.  1.
        -11    1    1    2    0    0  0.22477829629E+02  0.22056553927E+02 -0.14796336321E+03  0.15127756360E+03  0.00000000000E+00 0.  1.
         11    1    1    2    0    0 -0.40332127548E+02 -0.35636165041E+02 -0.64840708897E+02  0.84267041610E+02  0.00000000000E+00 0. -1.
</event>
<event>
 7    1  0.2878477E-009  0.1053023E+03  0.7561462E-02  0.1269525E+00
         -1   -1    0    0    0  501 -0.00000000000E+00  0.00000000000E+00  0.21294845090E+02  0.21294845090E+02  0.00000000000E+00 0.  1.
          1   -1    0    0  501    0  0.00000000000E+00 -0.00000000000E+00 -0.59060572413E+03  0.59060572413E+03  0.00000000000E+00 0. -1.
         25    2    1    2    0    0  0.26990590634E+02 -0.26498641797E+01 -0.32161302089E+03  0.34614715103E+03  0.12508957269E+03 0.  0.
          5    1    3    3  502    0  0.72500512252E+02 -0.25218293623E+02 -0.20153371999E+03  0.21569793533E+03  0.41800000000E+01 0. -1.
         -5    1    3    3    0  502 -0.45509921618E+02  0.22568429443E+02 -0.12007930089E+03  0.13044921570E+03  0.41800000000E+01 0. -1.
        -11    1    1    2    0    0 -0.51334154775E+02  0.17510552744E+02 -0.86839056408E+02  0.10238572470E+03  0.00000000000E+00 0.  1.
         11    1    1    2    0    0  0.24343564141E+02 -0.14860688564E+02 -0.16085880175E+03  0.16336769350E+03  0.00000000000E+00 0. -1.
</event>
<event>
 7    1  0.2878477E-009  0.1093690E+03  0.7561462E-02  0.1261743E+00
          1   -1    0    0  501    0  0.00000000000E+00  0.00000000000E+00  0.34111893400E+03  0.34111893400E+03  0.00000000000E+00 0. -1.
         -1   -1    0    0    0  501 -0.00000000000E+00 -0.00000000000E+00 -0.10177724045E+03  0.10177724045E+03  0.00000000000E+00 0.  1.
         25    2    1    2    0    0 -0.26255530035E+02  0.14884355583E+02  0.30130958690E+03  0.32763052176E+03  0.12507355727E+03 0.  0.
          5    1    3    3  502    0 -0.39327174989E+02 -0.45201324489E+02  0.95731415851E+02  0.11301222416E+03  0.41800000000E+01 0.  1.
         -5    1    3    3    0  502  0.13071644954E+02  0.60085680072E+02  0.20557817105E+03  0.21461829760E+03  0.41800000000E+01 0.  1.
        -11    1    1    2    0    0  0.25771933039E+02  0.37036814137E+02 -0.25660685150E+02  0.51907503276E+02  0.00000000000E+00 0. -1.
         11    1    1    2    0    0  0.48359699641E+00 -0.51921169720E+02 -0.36307208203E+02  0.63358149426E+02  0.00000000000E+00 0.  1.
</event>
<event>
 7    1  0.2878477E-009  0.1620681E+03  0.7561462E-02  0.1186381E+00
          2   -1    0    0  501    0  0.00000000000E+00  0.00000000000E+00  0.41096786284E+03  0.41096786284E+03  0.00000000000E+00 0.  1.
         -2   -1    0    0    0  501 -0.00000000000E+00 -0.00000000000E+00 -0.10699456655E+03  0.10699456655E+03  0.00000000000E+00 0. -1.
         25    2    1    2    0    0 -0.91151904666E+02 -0.10971749787E+03  0.24357649885E+02  0.19129638403E+03  0.12511759417E+03 0.  0.
          5    1    3    3  502    0 -0.10185659146E+03 -0.58235077712E+02  0.55691171833E+02  0.12994255854E+03  0.41800000000E+01 0.  1.
         -5    1    3    3    0  502  0.10704686792E+02 -0.51482420157E+02 -0.31333521949E+02  0.61353825490E+02  0.41800000000E+01 0.  1.
        -11    1    1    2    0    0  0.68464893427E+02  0.11190881771E+03  0.17015468091E+03  0.21485725622E+03  0.00000000000E+00 0. -1.
         11    1    1    2    0    0  0.22687011239E+02 -0.21913198359E+01  0.10946096549E+03  0.11180878914E+03  0.00000000000E+00 0.  1.
</event>
<event>
 7    1  0.2878477E-009  0.8124875E+02  0.7561462E-02  0.1325545E+00
         -2   -1    0    0    0  501 -0.00000000000E+00  0.00000000000E+00  0.19506754065E+03  0.19506754065E+03  0.00000000000E+00 0.  1.
          2   -1    0    0  501    0  0.00000000000E+00 -0.00000000000E+00 -0.62219104763E+02  0.62219104763E+02  0.00000000000E+00 0. -1.
         25    2    1    2    0    0  0.27287394897E+00  0.23696197783E+02  0.62147923293E+02  0.14166760792E+03  0.12508302248E+03 0.  0.
          5    1    3    3  502    0 -0.57253037982E+02  0.34519818694E+02  0.21769687450E+02  0.70433798226E+02  0.41800000000E+01 0.  1.
         -5    1    3    3    0  502  0.57525911931E+02 -0.10823620912E+02  0.40378235843E+02  0.71233809690E+02  0.41800000000E+01 0.  1.
        -11    1    1    2    0    0 -0.13428956153E+02 -0.58282023592E+01  0.86913649707E+02  0.88137888059E+02  0.00000000000E+00 0.  1.
         11    1    1    2    0    0  0.13156082204E+02 -0.17867995423E+02 -0.16213137113E+02  0.27481149439E+02  0.00000000000E+00 0. -1.
</event>
<event>
 7    1  0.2878477E-009  0.1755657E+03  0.7561462E-02  0.1172165E+00
         -4   -1    0    0    0  501 -0.00000000000E+00  0.00000000000E+00  0.12013437589E+03  0.12013437589E+03  0.00000000000E+00 0. -1.
          4   -1    0    0  501    0  0.00000000000E+00 -0.00000000000E+00 -0.30975150086E+03  0.30975150086E+03  0.00000000000E+00 0.  1.
         25    2    1    2    0    0 -0.12761892466E+03 -0.64964937102E+02 -0.18258556850E+03  0.26361274878E+03  0.12508860265E+03 0.  0.
          5    1    3    3  502    0 -0.15237687426E+03 -0.56032636554E+02 -0.16595173912E+03  0.23219780423E+03  0.41800000000E+01 0.  1.
         -5    1    3    3    0  502  0.24757949607E+02 -0.89323005472E+01 -0.16633829373E+02  0.31414944555E+02  0.41800000000E+01 0.  1.
        -11    1    1    2    0    0  0.18725560564E+02 -0.17383350631E+02 -0.14800258722E+02  0.29527532166E+02  0.00000000000E+00 0.  1.
         11    1    1    2    0    0  0.10889336409E+03  0.82348287732E+02  0.77687022495E+01  0.13674559580E+03  0.00000000000E+00 0. -1.
</event>
<event>
 7    1  0.2878477E-009  0.1212094E+03  0.7561462E-02  0.1241115E+00
          2   -1    0    0  501    0  0.00000000000E+00  0.00000000000E+00  0.43626221303E+03  0.43626221303E+03  0.00000000000E+00 0. -1.
         -2   -1    0    0    0  501 -0.00000000000E+00 -0.00000000000E+00 -0.34447389216E+02  0.34447389216E+02  0.00000000000E+00 0.  1.
         25    2    1    2    0    0 -0.12637068264E+02 -0.54384156504E+02  0.24031620842E+03  0.27661455946E+03  0.12508558072E+03 0.  0.
          5    1    3    3  502    0  0.40376418358E+02  0.18749850342E+02  0.59282734928E+02  0.74254475339E+02  0.41800000000E+01 0. -1.
         -5    1    3    3    0  502 -0.53013486622E+02 -0.73134006847E+02  0.18103347349E+03  0.20236008412E+03  0.41800000000E+01 0. -1.
        -11    1    1    2    0    0  0.39270009231E+02  0.67117047680E+02  0.12409005265E+03  0.14644170472E+03  0.00000000000E+00 0. -1.
         11    1    1    2    0    0 -0.26632940968E+02 -0.12732891176E+02  0.37408562746E+02  0.47653338067E+02  0.00000000000E+00 0.  1.
</event>
<event>
 7    1  0.2878477E-009  0.1320858E+03  0.7561462E-02  0.1224393E+00
         -4   -1    0    0    0  501 -0.00000000000E+00  0.00000000000E+00  0.98849371407E+02  0.98849371407E+02  0.00000000000E+00 0.  1.
          4   -1    0    0  501    0  0.00000000000E+00 -0.00000000000E+00 -0.21260427584E+03  0.21260427584E+03  0.00000000000E+00 0. -1.
         25    2    1    2    0    0 -0.91299373026E+02  0.18634316169E+02 -0.45800644325E+02  0.16256730873E+03  0.12509043765E+03 0.  0.
          5    1    3    3  502    0 -0.86416774868E+02  0.62611676527E+02 -0.13546779400E+02  0.10765253666E+03  0.41800000000E+01 0. -1.
         -5    1    3    3    0  502 -0.48825981582E+01 -0.43977360359E+02 -0.32253864925E+02  0.54914772070E+02  0.41800000000E+01 0. -1.
        -11    1    1    2    0    0  0.95967505824E+01 -0.29024196139E+02 -0.58473046089E+02  0.65981805842E+02  0.00000000000E+00 0. -1.
         11    1    1    2    0    0  0.81702622444E+02  0.10389879971E+02 -0.94812140223E+01  0.82904532683E+02  0.00000000000E+00 0.  1.
</event>
<event>
 7    1  0.2878477E-009  0.1135244E+03  0.7561462E-02  0.1254179E+00
         -1   -1    0    0    0  501 -0.00000000000E+00  0.00000000000E+00  0.70190358283E+02  0.70190358283E+02  0.00000000000E+00 0.  1.
          1   -1    0    0  501    0  0.00000000000E+00 -0.00000000000E+00 -0.29465022179E+03  0.29465022179E+03  0.00000000000E+00 0. -1.
         25    2    1    2    0    0  0.40876860352E+02 -0.99919356375E+01 -0.23231076589E+03  0.26718048000E+03  0.12508541264E+03 0.  0.
          5    1    3    3  502    0 -0.19486658501E+02  0.44521494465E+02 -0.10881033935E+03  0.11924368192E+03  0.41800000000E+01 0.  1.
         -5    1    3    3    0  502  0.60363518853E+02 -0.54513430102E+02 -0.12350042654E+03  0.14793679808E+03  0.41800000000E+01 0.  1.
        -11    1    1    2    0    0 -0.61784886942E+02 -0.15655425419E+02  0.99241235607E+01  0.64505448049E+02  0.00000000000E+00 0.  1.
         11    1    1    2    0    0  0.20908026590E+02  0.25647361057E+02 -0.20732211821E+01  0.33154652029E+02  0.00000000000E+00 0. -1.
</event>
<event>
 6    1  0.2878477E-009  0.3171301E+03  0.7561462E-02  0.1076978E+00
         -2   -1    0    0    0  501 -0.00000000000E+00  0.00000000000E+00  0.57673149388E+03  0.57673149388E+03  0.00000000000E+00 0.  1.
          2   -1    0    0  501    0  0.00000000000E+00 -0.00000000000E+00 -0.26243563952E+03  0.26243563952E+03  0.00000000000E+00 0. -1.
          5    1    1    2  502    0 -0.10683285613E+03  0.57425239256E+02 -0.29690409791E+02  0.12493962576E+03  0.41800000000E+01 0. -1.
         -5    1    1    2    0  502 -0.54763102301E+02  0.19992418016E+03 -0.44832211614E+02  0.21212278233E+03  0.41800000000E+01 0. -1.
        -11    1    1    2    0    0  0.14861943785E+03 -0.21568956882E+03  0.27298776113E+03  0.37832795975E+03  0.00000000000E+00 0. -1.
         11    1    1    2    0    0  0.12976520582E+02 -0.41659850599E+02  0.11583071463E+03  0.12377676555E+03  0.00000000000E+00 0.  1.
</event>
<event>
 7    1  0.3486782E-009  0.8823407E+02  0.7561462E-02  0.1307185E+00
          1   -1    0    0  501    0  0.00000000000E+00  0.00000000000E+00  0.36686755478E+03  0.36686755478E+03  0.00000000000E+00 0. -1.
         -1   -1    0    0    0  501 -0.00000000000E+00 -0.00000000000E+00 -0.52395948134E+02  0.52395948134E+02  0.00000000000E+00 0.  1.
         25    2    1    2    0    0 -0.33178233664E+01  0.98519985283E+01  0.43099678570E+02  0.13271369396E+03  0.12508905806E+03 0.  0.
          5    1    3    3  502    0 -0.58710788234E+01 -0.36861119060E+02  0.69378598880E+02  0.78892800986E+02  0.41800000000E+01 0.  1.
         -5    1    3    3    0  502  0.25532554570E+01  0.46713117588E+02 -0.26278920311E+02  0.53820892978E+02  0.41800000000E+01 0.  1.
        -11    1    1    2    0    0  0.41623516450E+02 -0.27372604384E+02  0.15305787563E+03  0.16096114402E+03  0.00000000000E+00 0.  1.
         11    1    1    2    0    0 -0.38305693083E+02  0.17520605856E+02  0.11831405244E+03  0.12558866492E+03  0.00000000000E+00 0. -1.
</event>
<event>
 7    1  0.2878477E-009  0.1858906E+03  0.7561462E-02  0.1162221E+00
          2   -1    0    0  501    0  0.00000000000E+00  0.00000000000E+00  0.18370284595E+03  0.18370284595E+03  0.00000000000E+00 0. -1.
         -2   -1    0    0    0  501 -0.00000000000E+00 -0.00000000000E+00 -0.20248621996E+03  0.20248621996E+03  0.00000000000E+00 0.  1.
         25    2    1    2    0    0 -0.12688562467E+03  0.88328308215E+02 -0.44893669292E+02  0.20386704694E+03  0.12507789376E+03 0.  0.
          5    1    3    3  502    0  0.86200803973E+01  0.56225250400E+02  0.14145964453E+01  0.57053116056E+02  0.41800000000E+01 0.  1.
         -5    1    3    3    0  502 -0.13550570507E+03  0.32103057815E+02 -0.46308265737E+02  0.14681393089E+03  0.41800000000E+01 0.  1.
        -11    1    1    2    0    0  0.11892812938E+03 -0.38555846771E+02 -0.11313559643E+01  0.12502693008E+03  0.00000000000E+00 0.  1.
         11    1    1    2    0    0  0.79574952887E+01 -0.49772461444E+02  0.27241651246E+02  0.57295088900E+02  0.00000000000E+00 0. -1.
</event>
<event>
 7    1  0.2878477E-009  0.1551153E+03  0.7561462E-02  0.1194325E+00
          2   -1    0    0  501    0  0.00000000000E+00  0.00000000000E+00  0.53889621046E+03  0.53889621046E+03  0.00000000000E+00 0. -1.
         -2   -1    0    0    0  501 -0.00000000000E+00 -0.00000000000E+00 -0.99637813945E+02  0.99637813945E+02  0.00000000000E+00 0.  1.
         25    2    1    2    0    0 -0.53295479068E+02  0.13017345238E+03  0.23574510977E+02  0.18970577375E+03  0.12508791802E+03 0.  0.
          5    1    3    3  502    0 -0.34361051693E+01  0.63119234354E+02  0.69684412259E+02  0.94176612149E+02  0.41800000000E+01 0.  1.
         -5    1    3    3    0  502 -0.49859373898E+02  0.67054218026E+02 -0.46109901282E+02  0.95529161604E+02  0.41800000000E+01 0.  1.
        -11    1    1    2    0    0 -0.19909326494E+02 -0.54069526234E+02  0.20810162619E+03  0.21593096529E+03  0.00000000000E+00 0.  1.
         11    1    1    2    0    0  0.73204805562E+02 -0.76103926146E+02  0.20758225935E+03  0.23289728536E+03  0.00000000000E+00 0. -1.
</event>
<event>
 7    1  0.2878477E-009  0.1420328E+03  0.7561462E-02  0.1210620E+00
         -1   -1    0    0    0  501 -0.00000000000E+00  0.00000000000E+00  0.59177694403E+03  0.59177694403E+03  0.00000000000E+00 0.  1.
          1   -1    0    0  501    0  0.00000000000E+00 -0.00000000000E+00 -0.46382090741E+02  0.46382090741E+02  0.00000000000E+00 0. -1.
         25    2    1    2    0    0 -0.90299964090E+02  0.71541281173E+02  0.39461585033E+03  0.42969865803E+03  0.12508808479E+03 0.  0.
          5    1    3    3  502    0 -0.11832634217E+03  0.58970200611E+02  0.26185814605E+03  0.29336967953E+03  0.41800000000E+01 0. -1.
         -5    1    3    3    0  502  0.28026378082E+02  0.12571080562E+02  0.13275770428E+03  0.13632897850E+03  0.41800000000E+01 0. -1.
        -11    1    1    2    0    0  0.12374129855E+02 -0.30075654950E+02  0.10315766416E+03  0.10816269128E+03  0.00000000000E+00 0.  1.
         11    1    1    2    0    0  0.77925834234E+02 -0.41465626223E+02  0.47621338800E+02  0.10029768546E+03  0.00000000000E+00 0. -1.
</event>
<event>
 7    1  0.2878477E-009  0.8372160E+02  0.7561462E-02  0.1318810E+00
         -2   -1    0    0    0  501 -0.00000000000E+00  0.00000000000E+00  0.42134101785E+02  0.42134101785E+02  0.00000000000E+00 0.  1.
          2   -1    0    0  501    0  0.00000000000E+00 -0.00000000000E+00 -0.40934283979E+03  0.40934283979E+03  0.00000000000E+00 0. -1.
         25    2    1    2    0    0  0.66931529296E+02  0.19628627084E+02 -0.15845770381E+03  0.21359116363E+03  0.12508888307E+03 0.  0.
          5    1    3    3  502    0  0.49306696778E+02  0.14237004863E+02  0.24770947243E+01  0.51550470928E+02  0.41800000000E+01 0. -1.
         -5    1    3    3    0  502  0.17624832518E+02  0.53916222210E+01 -0.16093479853E+03  0.16204069270E+03  0.41800000000E+01 0. -1.
        -11    1    1    2    0    0  0.22730455771E+01  0.18093312580E+02 -0.11017460722E+03  0.11167353658E+03  0.00000000000E+00 0. -1.
         11    1    1    2    0    0 -0.69204574873E+02 -0.37721939664E+02 -0.98576426972E+02  0.12621224136E+03  0.00000000000E+00 0.  1.
</event>
<event>
 7    1  0.2878477E-009  0.1645812E+03  0.7561462E-02  0.1183620E+00
          1   -1    0    0  501    0  0.00000000000E+00  0.00000000000E+00  0.23028977930E+03  0.23028977930E+03  0.00000000000E+00 0. -1.
         -1   -1    0    0    0  501 -0.00000000000E+00 -0.00000000000E+00 -0.24284486128E+03  0.24284486128E+03  0.00000000000E+00 0.  1.
         25    2    1    2    0    0 -0.11144059524E+03 -0.58623582611E+02 -0.17456801325E+03  0.24893583761E+03  0.12505730402E+03 0.  0.
          5    1    3    3  502    0 -0.95553983245E+02  0.18210569536E+02 -0.11268664855E+03  0.14892260311E+03  0.41800000000E+01 0.  1.
         -5    1    3    3    0  502 -0.15886612000E+02 -0.76834152148E+02 -0.61881364699E+02  0.10001323449E+03  0.41800000000E+01 0.  1.
        -11    1    1    2    0    0  0.85920566769E+02 -0.35779220680E+01  0.10735793424E+03  0.13755315832E+03  0.00000000000E+00 0. -1.
         11    1    1    2    0    0  0.25520028476E+02  0.62201504679E+02  0.54654997026E+02  0.86645644655E+02  0.00000000000E+00 0.  1.
</event>
<event>
 7    1  0.2878477E-009  0.9570242E+02  0.7561462E-02  0.1289602E+00
         -3   -1    0    0    0  501 -0.00000000000E+00  0.00000000000E+00  0.34855131246E+02  0.34855131246E+02  0.00000000000E+00 0.  1.
          3   -1    0    0  501    0  0.00000000000E+00 -0.00000000000E+00 -0.40815164588E+03  0.40815164588E+03  0.00000000000E+00 0. -1.
         25    2    1    2    0    0  0.40505239555E+02 -0.24582961165E+02 -0.23958753202E+03  0.27439993026E+03  0.12509252502E+03 0.  0.
          5    1    3    3  502    0  0.61277760086E+01  0.31664340709E+02 -0.18744685169E+03  0.19024714116E+03  0.41800000000E+01 0. -1.
         -5    1    3    3    0  502  0.34377463547E+02 -0.56247301874E+02 -0.52140680327E+02  0.84152789098E+02  0.41800000000E+01 0. -1.
        -11    1    1    2    0    0  0.23209221896E+02  0.16779317243E+02 -0.12088603061E+02  0.31086135046E+02  0.00000000000E+00 0.  1.
         11    1    1    2    0    0 -0.63714461451E+02  0.78036439215E+01 -0.12162037956E+03  0.13752071182E+03  0.00000000000E+00 0. -1.
</event>
<event>
 7    1  0.2878477E-009  0.1259583E+03  0.7561462E-02  0.1233579E+00
         -1   -1    0    0    0  501 -0.00000000000E+00  0.00000000000E+00  0.28689015184E+03  0.28689015184E+03  0.00000000000E+00 0.  1.
          1   -1    0    0  501    0  0.00000000000E+00 -0.00000000000E+00 -0.84471765464E+02  0.84471765464E+02  0.00000000000E+00 0. -1.
         25    2    1    2    0    0 -0.88570803888E+00  0.97995710487E+02  0.43705911794E+02  0.16480768706E+03  0.12508966079E+03 0.  0.
          5    1    3    3  502    0  0.45246747974E+02  0.20045231725E+02  0.54216724674E+02  0.73525540811E+02  0.41800000000E+01 0. -1.
         -5    1    3    3    0  502 -0.46132456013E+02  0.77950478762E+02 -0.10510812880E+02  0.91282146252E+02  0.41800000000E+01 0. -1.
        -11    1    1    2    0    0  0.27071361184E+02 -0.46501428481E+02  0.13270789006E+03  0.14320134613E+03  0.00000000000E+00 0.  1.
         11    1    1    2    0    0 -0.26185653145E+02 -0.51494282006E+02  0.26004584521E+02  0.63352884118E+02  0.00000000000E+00 0. -1.
</event>
<event>
 7    1  0.2878477E-009  0.2282514E+03  0.7561462E-02  0.1127877E+00
          4   -1    0    0  501    0  0.00000000000E+00  0.00000000000E+00  0.12785403456E+03  0.12785403456E+03  0.00000000000E+00 0. -1.
         -4   -1    0    0    0  501 -0.00000000000E+00 -0.00000000000E+00 -0.46899975392E+03  0.46899975392E+03  0.00000000000E+00 0.  1.
         25    2    1    2    0    0 -0.95108945571E+02 -0.18388701943E+03 -0.89064927852E+02  0.25775950913E+03  0.12508899126E+03 0.  0.
          5    1    3    3  502    0 -0.24075172674E+02 -0.15535512916E+03 -0.27978274902E+02  0.15973442447E+03  0.41800000000E+01 0.  1.
         -5    1    3    3    0  502 -0.71033772897E+02 -0.28531890272E+02 -0.61086652950E+02  0.98025084663E+02  0.41800000000E+01 0.  1.
        -11    1    1    2    0    0  0.56535979021E+02  0.30152350734E+02 -0.44909796753E+02  0.78245581492E+02  0.00000000000E+00 0.  1.
         11    1    1    2    0    0  0.38572966550E+02  0.15373466869E+03 -0.20717099475E+03  0.26084869786E+03  0.00000000000E+00 0. -1.
</event>
<event>
 7    1  0.2878477E-009  0.2270187E+03  0.7561462E-02  0.1128756E+00
         -2   -1    0    0    0  501 -0.00000000000E+00  0.00000000000E+00  0.29394754477E+03  0.29394754477E+03  0.00000000000E+00 0.  1.
          2   -1    0    0  501    0  0.00000000000E+00 -0.00000000000E+00 -0.18872752996E+03  0.18872752996E+03  0.00000000000E+00 0. -1.
         25    2    1    2    0    0  0.40235941375E+02  0.20404412274E+03  0.34834744294E+02  0.24518233397E+03  0.12509189612E+03 0.  0.
          5    1    3    3  502    0  0.28310359392E+01 -0.17255147839E+02 -0.24837957709E+00  0.17980238704E+02  0.41800000000E+01 0. -1.
         -5    1    3    3    0  502  0.37404905436E+02  0.22129927058E+03  0.35083123871E+02  0.22720209526E+03  0.41800000000E+01 0. -1.
        -11    1    1    2    0    0 -0.36989812962E+02 -0.87563254213E+02 -0.10516624355E+02  0.95635606021E+02  0.00000000000E+00 0. -1.
         11    1    1    2    0    0 -0.32461284134E+01 -0.11648086853E+03  0.80901894877E+02  0.14185713474E+03  0.00000000000E+00 0.  1.
</event>
<event>
 7    1  0.2878477E-009  0.1302679E+03  0.7561462E-02  0.1227059E+00
          1   -1    0    0  501    0  0.00000000000E+00  0.00000000000E+00  0.83318040774E+03  0.83318040774E+03  0.00000000000E+00 0. -1.
         -1   -1    0    0    0  501 -0.00000000000E+00 -0.00000000000E+00 -0.26011702075E+02  0.26011702075E+02  0.00000000000E+00 0.  1.
         25    2    1    2    0    0  0.32587218890E+02  0.72661358792E+02  0.59741669636E+03  0.61554522517E+03  0.12509042825E+03 0.  0.
          5    1    3    3  502    0 -0.42008301133E+02  0.10296532895E+02  0.10557837130E+03  0.11417084059E+03  0.41800000000E+01 0. -1.
         -5    1    3    3    0  502  0.74595520023E+02  0.62364825896E+02  0.49183832506E+03  0.50137438458E+03  0.41800000000E+01 0. -1.
        -11    1    1    2    0    0 -0.33766033749E+02  0.11440521087E+02  0.94230227484E+02  0.10074902644E+03  0.00000000000E+00 0.  1.
         11    1    1    2    0    0  0.11788148588E+01 -0.84101879878E+02  0.11552178181E+03  0.14289785820E+03  0.00000000000E+00 0. -1.
</event>
<event>
 7    1  0.2878477E-009  0.1042664E+03  0.7561462E-02  0.1271572E+00
          1   -1    0    0  501    0  0.00000000000E+00  0.00000000000E+00  0.26695404906E+03  0.26695404906E+03  0.00000000000E+00 0. -1.
         -1   -1    0    0    0  501 -0.00000000000E+00 -0.00000000000E+00 -0.69911519098E+02  0.69911519098E+02  0.00000000000E+00 0.  1.
         25    2    1    2    0    0 -0.79675102279E+02  0.55309835708E+01  0.13599788600E+03  0.20130276076E+03  0.12509461535E+03 0.  0.
          5    1    3    3  502    0 -0.52585278031E+02  0.28907791527E+02 -0.47559097397E+00  0.60154554802E+02  0.41800000000E+01 0. -1.
         -5    1    3    3    0  502 -0.27089824248E+02 -0.23376807957E+02  0.13647347697E+03  0.14114820595E+03  0.41800000000E+01 0. -1.
        -11    1    1    2    0    0  0.63443038627E+02 -0.39480695335E+02  0.15205094707E+02  0.76255749682E+02  0.00000000000E+00 0.  1.
         11    1    1    2    0    0  0.16232063652E+02  0.33949711764E+02  0.45839549263E+02  0.59307057724E+02  0.00000000000E+00 0. -1.
</event>
<event>
 7    1  0.2878477E-009  0.1472791E+03  0.7561462E-02  0.1203857E+00
          1   -1    0    0  501    0  0.00000000000E+00  0.00000000000E+00  0.88306505094E+02  0.88306505094E+02  0.00000000000E+00 0. -1.
         -1   -1    0    0    0  501 -0.00000000000E+00 -0.00000000000E+00 -0.36425124128E+03  0.36425124128E+03  0.00000000000E+00 0.  1.
         25    2    1    2    0    0 -0.82793740792E+02  0.73489523628E+02 -0.25927429266E+03  0.30842665558E+03  0.12509328296E+03 0.  0.
          5    1    3    3  502    0  0.21373105682E+02 -0.82219508767E+01 -0.84293346159E+01  0.24757548440E+02  0.41800000000E+01 0. -1.
         -5    1    3    3    0  502 -0.10416684647E+03  0.81711474504E+02 -0.25084495805E+03  0.28366910714E+03  0.41800000000E+01 0. -1.
        -11    1    1    2    0    0  0.59199921251E+02 -0.91609773675E+02 -0.27475306092E+02  0.11248054833E+03  0.00000000000E+00 0.  1.
         11    1    1    2    0    0  0.23593819542E+02  0.18120250048E+02  0.10804862571E+02  0.31650542452E+02  0.00000000000E+00 0. -1.
</event>
<event>
 7    1  0.2878477E-009  0.1871929E+03  0.7561462E-02  0.1161018E+00
         -1   -1    0    0    0  501 -0.00000000000E+00  0.00000000000E+00  0.10282773690E+04  0.10282773690E+04  0.00000000000E+00 0.  1.
          1   -1    0    0  501    0  0.00000000000E+00 -0.00000000000E+00 -0.38435201424E+02  0.38435201424E+02  0.00000000000E+00 0. -1.
         25    2    1    2    0    0 -0.75452066539E+02  0.14818652964E+03  0.55495547366E+03  0.59268486407E+03  0.12509000137E+03 0.  0.
          5    1    3    3  502    0 -0.75845033034E+02  0.16968563127E+03  0.50516592745E+03  0.53828967030E+03  0.41800000000E+01 0.  1.
         -5    1    3    3    0  502  0.39296649451E+00 -0.21499101630E+02  0.49789546204E+02  0.54395193765E+02  0.41800000000E+01 0.  1.
        -11    1    1    2    0    0  0.40505116983E+02 -0.68938318057E+02  0.99540229635E+02  0.12767698898E+03  0.00000000000E+00 0. -1.
         11    1    1    2    0    0  0.34946949557E+02 -0.79248211582E+02  0.33534646430E+03  0.34635071739E+03  0.00000000000E+00 0.  1.
</event>
<event>
 7    1  0.3414150E-009  0.1017527E+03  0.7561462E-02  0.1276653E+00
          1   -1    0    0  501    0  0.00000000000E+00  0.00000000000E+00  0.22769559949E+03  0.22769559949E+03  0.00000000000E+00 0. -1.
         -1   -1    0    0    0  501 -0.00000000000E+00 -0.00000000000E+00 -0.81525915210E+02  0.81525915210E+02  0.00000000000E+00 0.  1.
         25    2    1    2    0    0 -0.78320367803E+01 -0.67034847519E+02  0.26858189431E+02  0.14464843274E+03  0.12508715030E+03 0.  0.
          5    1    3    3  502    0 -0.38321017964E+02 -0.88845344445E+02 -0.24538524773E+01  0.96878735744E+02  0.41800000000E+01 0. -1.
         -5    1    3    3    0  502  0.30488981184E+02  0.21810496927E+02  0.29312041908E+02  0.47769696991E+02  0.41800000000E+01 0. -1.
        -11    1    1    2    0    0  0.90669827603E+00  0.55336696583E+02  0.13374617481E+03  0.14474464192E+03  0.00000000000E+00 0. -1.
         11    1    1    2    0    0  0.69253385043E+01  0.11698150936E+02 -0.14434679961E+02  0.19828440037E+02  0.00000000000E+00 0.  1.
</event>
<event>
 7    1  0.2878477E-009  0.1032866E+03  0.7561462E-02  0.1273533E+00
         -1   -1    0    0    0  501 -0.00000000000E+00  0.00000000000E+00  0.31631978254E+02  0.31631978254E+02  0.00000000000E+00 0.  1.
          1   -1    0    0  501    0  0.00000000000E+00 -0.00000000000E+00 -0.57133521964E+03  0.57133521964E+03  0.00000000000E+00 0. -1.
         25    2    1    2    0    0 -0.56771951821E+02  0.50074523232E+02 -0.34846222828E+03  0.37789401097E+03  0.12508975418E+03 0.  0.
          5    1    3    3  502    0 -0.29674108832E+01 -0.13966521764E+02 -0.24191908358E+03  0.24237612230E+03  0.41800000000E+01 0. -1.
         -5    1    3    3    0  502 -0.53804540938E+02  0.64041044996E+02 -0.10654314469E+03  0.13551788868E+03  0.41800000000E+01 0. -1.
        -11    1    1    2    0    0  0.28358465321E+02  0.18405211982E+02 -0.22082820001E+02  0.40380754360E+02  0.00000000000E+00 0.  1.
         11    1    1    2    0    0  0.28413486500E+02 -0.68479735214E+02 -0.16915819311E+03  0.18469243256E+03  0.00000000000E+00 0. -1.
</event>
<event>
 7    1  0.2878477E-009  0.1064368E+03  0.7561462E-02  0.1267314E+00
          2   -1    0    0  501    0  0.00000000000E+00  0.00000000000E+00  0.17824154825E+03  0.17824154825E+03  0.00000000000E+00 0. -1.
         -2   -1    0    0    0  501 -0.00000000000E+00 -0.00000000000E+00 -0.67186600431E+02  0.67186600431E+02  0.00000000000E+00 0.  1.
         25    2    1    2    0    0 -0.62673658921E+01  0.20098529196E+02  0.44927667295E+02  0.13457052418E+03  0.12508996738E+03 0.  0.
          5    1    3    3  502    0 -0.59724728795E+01  0.73013977996E+02  0.31258785420E+02  0.79757729914E+02  0.41800000000E+01 0.  1.
         -5    1    3    3    0  502 -0.29489301260E+00 -0.52915448799E+02  0.13668881875E+02  0.54812794266E+02  0.41800000000E+01 0.  1.
        -11    1    1    2    0    0 -0.13773371718E+02 -0.49194120668E+02  0.25759155758E+02  0.57212772893E+02  0.00000000000E+00 0.  1.
         11    1    1    2    0    0  0.20040737610E+02  0.29095591472E+02  0.40368124769E+02  0.53644851611E+02  0.00000000000E+00 0. -1.
</event>
<event>
 7    1  0.2878477E-009  0.5221052E+02  0.7561462E-02  0.1433771E+00
          2   -1    0    0  501    0  0.00000000000E+00  0.00000000000E+00  0.48332248565E+03  0.48332248565E+03  0.00000000000E+00 0. -1.
         -2   -1    0    0    0  501 -0.00000000000E+00 -0.00000000000E+00 -0.28376638549E+02  0.28376638549E+02  0.00000000000E+00 0.  1.
         25    2    1    2    0    0  0.99403727375E+01  0.19619571786E+02  0.39680601280E+03  0.41663606759E+03  0.12508741910E+03 0.  0.
          5    1    3    3  502    0 -0.38162633248E+01  0.15639471635E+02  0.40083759839E+03  0.40118251410E+03  0.41800000000E+01 0. -1.
         -5    1    3    3    0  502  0.13756636062E+02  0.39801001516E+01 -0.40315855932E+01  0.15453553487E+02  0.41800000000E+01 0. -1.
        -11    1    1    2    0    0  0.29180673539E+02 -0.16968493159E+00  0.12091646187E+02  0.31587155755E+02  0.00000000000E+00 0. -1.
         11    1    1    2    0    0 -0.39121046277E+02 -0.19449886855E+02  0.46048188115E+02  0.63475900853E+02  0.00000000000E+00 0.  1.
</event>
<event>
 7    1  0.2878477E-009  0.9884133E+02  0.7561462E-02  0.1282752E+00
         -2   -1    0    0    0  501 -0.00000000000E+00  0.00000000000E+00  0.18130200753E+02  0.18130200753E+02  0.00000000000E+00 0.  1.
          2   -1    0    0  501    0  0.00000000000E+00 -0.00000000000E+00 -0.74782142495E+03  0.74782142495E+03  0.00000000000E+00 0. -1.
         25    2    1    2    0    0 -0.11781224714E+02  0.31681272169E+02 -0.31847763051E+03  0.34382944488E+03  0.12509270869E+03 0.  0.
          5    1    3    3  502    0  0.12757063840E+02  0.63341836583E+02 -0.28250227946E+03  0.28982743355E+03  0.41800000000E+01 0.  1.
         -5    1    3    3    0  502 -0.24538288554E+02 -0.31660564414E+02 -0.35975351053E+02  0.54002011329E+02  0.41800000000E+01 0.  1.
        -11    1    1    2    0    0  0.46514679315E+02 -0.13296990506E+01 -0.15673204874E+03  0.16349409345E+03  0.00000000000E+00 0.  1.
         11    1    1    2    0    0 -0.34733454601E+02 -0.30351573118E+02 -0.25448154495E+03  0.25862808737E+03  0.00000000000E+00 0. -1.
</event>
<event>
 7    1  0.2878477E-009  0.1121042E+03  0.7561462E-02  0.1256722E+00
          1   -1    0    0  501    0  0.00000000000E+00  0.00000000000E+00  0.12390635953E+04  0.12390635953E+04  0.00000000000E+00 0. -1.
         -1   -1    0    0    0  501 -0.00000000000E+00 -0.00000000000E+00 -0.12728471676E+02  0.12728471676E+02  0.00000000000E+00 0.  1.
         25    2    1    2    0    0  0.49586721014E+02  0.89713865922E+01  0.79733370477E+03  0.80865625325E+03  0.12507825746E+03 0.  0.
          5    1    3    3  502    0  0.45395660754E+02  0.57135582531E+02  0.29245715104E+03  0.30145297876E+03  0.41800000000E+01 0. -1.
         -5    1    3    3    0  502  0.41910602597E+01 -0.48164195939E+02  0.50487655373E+03  0.50720327450E+03  0.41800000000E+01 0. -1.
        -11    1    1    2    0    0 -0.21405743380E+02  0.40411057953E+02  0.11033037237E+03  0.11943220052E+03  0.00000000000E+00 0.  1.
         11    1    1    2    0    0 -0.28180977634E+02 -0.49382444545E+02  0.31867104646E+03  0.32370361318E+03  0.00000000000E+00 0. -1.
</event>
<event>
 7    1  0.2878477E-009  0.2189600E+03  0.7561462E-02  0.1134661E+00
         -2   -1    0    0    0  501 -0.00000000000E+00  0.00000000000E+00  0.76233919681E+02  0.76233919681E+02  0.00000000000E+00 0.  1.
          2   -1    0    0  501    0  0.00000000000E+00 -0.00000000000E+00 -0.72733721330E+03  0.72733721330E+03  0.00000000000E+00 0. -1.
         25    2    1    2    0    0 -0.15112442511E+03 -0.12651768721E+03 -0.44912251919E+03  0.50617329843E+03  0.12512015729E+03 0.  0.
          5    1    3    3  502    0 -0.10066308424E+02 -0.70426201051E+02 -0.80593673898E+02  0.10758249408E+03  0.41800000000E+01 0.  1.
         -5    1    3    3    0  502 -0.14105811668E+03 -0.56091486163E+02 -0.36852884529E+03  0.39859080435E+03  0.41800000000E+01 0.  1.
        -11    1    1    2    0    0  0.39769787255E+02  0.88679182417E+02 -0.65324872773E+02  0.11710240124E+03  0.00000000000E+00 0. -1.
         11    1    1    2    0    0  0.11135463785E+03  0.37838504796E+02 -0.13665590166E+03  0.18029543332E+03  0.00000000000E+00 0.  1.
</event>
<event>
 7    1  0.2878477E-009  0.8406600E+02  0.7561462E-02  0.1317893E+00
          1   -1    0    0  501    0  0.00000000000E+00  0.00000000000E+00  0.15143406414E+03  0.15143406414E+03  0.00000000000E+00 0. -1.
         -1   -1    0    0    0  501 -0.00000000000E+00 -0.00000000000E+00 -0.12755263250E+03  0.12755263250E+03  0.00000000000E+00 0.  1.
         25    2    1    2    0    0 -0.48019530175E+02  0.29806852428E+02  0.79257709116E+02  0.15849762331E+03  0.12508152705E+03 0.  0.
          5    1    3    3  502    0 -0.47743709318E+02 -0.73405766837E+01  0.10325725159E+03  0.11407400340E+03  0.41800000000E+01 0.  1.
         -5    1    3    3    0  502 -0.27582085659E+00  0.37147429112E+02 -0.23999542473E+02  0.44423619908E+02  0.41800000000E+01 0.  1.
        -11    1    1    2    0    0  0.32057307148E+02  0.14489134302E+02 -0.63610289002E+02  0.72690266345E+02  0.00000000000E+00 0.  1.
         11    1    1    2    0    0  0.15962223027E+02 -0.44295986730E+02  0.82340115238E+01  0.47798806994E+02  0.00000000000E+00 0. -1.
</event>
<event>
 7    1  0.2878477E-009  0.1917805E+03  0.7561462E-02  0.1156865E+00
         -1   -1    0    0    0  501 -0.00000000000E+00  0.00000000000E+00  0.84457014944E+02  0.84457014944E+02  0.00000000000E+00 0.  1.
          1   -1    0    0  501    0  0.00000000000E+00 -0.00000000000E+00 -0.48550308259E+03  0.48550308259E+03  0.00000000000E+00 0. -1.
         25    2    1    2    0    0  0.14304912953E+03  0.73642520829E+02 -0.30119161315E+03  0.36366179558E+03  0.12508892597E+03 0.  0.
          5    1    3    3  502    0  0.65140548265E+02  0.10115417235E+03 -0.19293682343E+03  0.22741492442E+03  0.41800000000E+01 0.  1.
         -5    1    3    3    0  502  0.77908581268E+02 -0.27511651526E+02 -0.10825478972E+03  0.13624687116E+03  0.41800000000E+01 0.  1.
        -11    1    1    2    0    0 -0.42320391667E+02  0.16352403596E+02 -0.27733323873E+02  0.53174748775E+02  0.00000000000E+00 0. -1.
         11    1    1    2    0    0 -0.10072873787E+03 -0.89994924425E+02 -0.72121130619E+02  0.15312355317E+03  0.00000000000E+00 0.  1.
</event>
<event>
 7    1  0.2878477E-009  0.1624181E+03  0.7561462E-02  0.1185993E+00
          2   -1    0    0  501    0  0.00000000000E+00  0.00000000000E+00  0.93666422656E+03  0.93666422656E+03  0.00000000000E+00 0. -1.
         -2   -1    0    0    0  501 -0.00000000000E+00 -0.00000000000E+00 -0.30242528939E+02  0.30242528939E+02  0.00000000000E+00 0.  1.
         25    2    1    2    0    0 -0.11906718356E+03 -0.41855269610E+02  0.42737269230E+03  0.46284334678E+03  0.12509071805E+03 0.  0.
          5    1    3    3  502    0 -0.12118836230E+03  0.77262385984E+01  0.35308000703E+03  0.37340230005E+03  0.41800000000E+01 0. -1.
         -5    1    3    3    0  502  0.21211787403E+01 -0.49581508208E+02  0.74292685268E+02  0.89441046728E+02  0.41800000000E+01 0. -1.
        -11    1    1    2    0    0  0.23323718118E+02 -0.26937784962E+02  0.72784354684E+02  0.81038277205E+02  0.00000000000E+00 0.  1.
         11    1    1    2    0    0  0.95743465445E+02  0.68793054572E+02  0.40626465064E+03  0.42302513151E+03  0.00000000000E+00 0. -1.
</event>
<event>
 7    1  0.2878477E-009  0.1100774E+03  0.7561462E-02  0.1260427E+00
         -2   -1    0    0    0  501 -0.00000000000E+00  0.00000000000E+00  0.21410248748E+03  0.21410248748E+03  0.00000000000E+00 0.  1.
          2   -1    0    0  501    0  0.00000000000E+00 -0.00000000000E+00 -0.15270695333E+03  0.15270695333E+03  0.00000000000E+00 0. -1.
         25    2    1    2    0    0  0.56774023088E+02  0.50777504372E+02  0.15663075950E+03  0.21443617363E+03  0.12509209844E+03 0.  0.
          5    1    3    3  502    0 -0.59015670490E+00  0.71824695665E+02  0.39055784011E+02  0.81865510791E+02  0.41800000000E+01 0. -1.
         -5    1    3    3    0  502  0.57364179793E+02 -0.21047191292E+02  0.11757497549E+03  0.13257066284E+03  0.41800000000E+01 0. -1.
        -11    1    1    2    0    0 -0.62330656893E+02 -0.37935191440E+02 -0.19737017776E+02  0.75589281046E+02  0.00000000000E+00 0.  1.
         11    1    1    2    0    0  0.55566338053E+01 -0.12842312933E+02 -0.75498207575E+02  0.76783986141E+02  0.00000000000E+00 0. -1.
</event>
<event>
 7    1  0.2878477E-009  0.1611604E+03  0.7561462E-02  0.1187393E+00
         -2   -1    0    0    0  501 -0.00000000000E+00  0.00000000000E+00  0.23670618126E+02  0.23670618126E+02  0.00000000000E+00 0.  1.
          2   -1    0    0  501    0  0.00000000000E+00 -0.00000000000E+00 -0.16579393398E+04  0.16579393398E+04  0.00000000000E+00 0. -1.
         25    2    1    2    0    0  0.10762466625E+03  0.98256942931E+02 -0.11795522268E+04  0.11950851116E+04  0.12508985755E+03 0.  0.
          5    1    3    3  502    0  0.25319875603E+01  0.13146657096E+02 -0.59160462048E+03  0.59177085508E+03  0.41800000000E+01 0.  1.
         -5    1    3    3    0  502  0.10509267869E+03  0.85110285835E+02 -0.58794760637E+03  0.60331425650E+03  0.41800000000E+01 0.  1.
        -11    1    1    2    0    0 -0.74368006535E+02 -0.56304243949E+01 -0.19132665988E+03  0.20534895387E+03  0.00000000000E+00 0. -1.
         11    1    1    2    0    0 -0.33256659712E+02 -0.92626518536E+02 -0.26338983493E+03  0.28117589245E+03  0.00000000000E+00 0.  1.
</event>
<event>
 7    1  0.2878477E-009  0.2791405E+03  0.7561462E-02  0.1096159E+00
         -2   -1    0    0    0  501 -0.00000000000E+00  0.00000000000E+00  0.25202459869E+03  0.25202459869E+03  0.00000000000E+00 0.  1.
          2   -1    0    0  501    0  0.00000000000E+00 -0.00000000000E+00 -0.33994580948E+03  0.33994580948E+03  0.00000000000E+00 0. -1.
         25    2    1    2    0    0  0.20410869239E+03  0.16740656958E+03  0.19989223168E+02  0.29280164686E+03  0.12509163646E+03 0.  0.
          5    1    3    3  502    0  0.16086963536E+03  0.18414842914E+03  0.25681783796E+02  0.24589979657E+03  0.41800000000E+01 0.  1.
         -5    1    3    3    0  502  0.43239057030E+02 -0.16741859554E+02 -0.56925606283E+01  0.46901850290E+02  0.41800000000E+01 0.  1.
        -11    1    1    2    0    0 -0.15651024063E+03 -0.10410907650E+03 -0.11382597335E+03  0.21975101237E+03  0.00000000000E+00 0. -1.
         11    1    1    2    0    0 -0.47598451760E+02 -0.63297493085E+02  0.59155393862E+01  0.79417748942E+02  0.00000000000E+00 0.  1.
</event>
<event>
 7    1  0.2878477E-009  0.3044374E+03  0.7561462E-02  0.1083043E+00
         -3   -1    0    0    0  501 -0.00000000000E+00  0.00000000000E+00  0.96860296562E+03  0.96860296562E+03  0.00000000000E+00 0.  1.
          3   -1    0    0  501    0  0.00000000000E+00 -0.00000000000E+00 -0.10511462289E+03  0.10511462289E+03  0.00000000000E+00 0. -1.
         25    2    1    2    0    0  0.29861922465E+03  0.25893864469E+02  0.46164924563E+03  0.56445669402E+03  0.12508956745E+03 0.  0.
          5    1    3    3  502    0  0.23696139295E+03  0.41804015797E+02  0.43106195446E+03  0.49369034675E+03  0.41800000000E+01 0.  1.
         -5    1    3    3    0  502  0.61657831703E+02 -0.15910151328E+02  0.30587291170E+02  0.70766347275E+02  0.41800000000E+01 0.  1.
        -11    1    1    2    0    0 -0.17450806030E+03 -0.41331185078E+02  0.29269358566E+03  0.34326500704E+03  0.00000000000E+00 0. -1.
         11    1    1    2    0    0 -0.12411116435E+03  0.15437320609E+02  0.10914551143E+03  0.16599588745E+03  0.00000000000E+00 0.  1.
</event>
<event>
 7    1  0.2878477E-009  0.1012193E+03  0.7561462E-02  0.1277753E+00
          2   -1    0    0  501    0  0.00000000000E+00  0.00000000000E+00  0.61722328815E+03  0.61722328815E+03  0.00000000000E+00 0. -1.
         -2   -1    0    0    0  501 -0.00000000000E+00 -0.00000000000E+00 -0.20415138725E+02  0.20415138725E+02  0.00000000000E+00 0.  1.
         25    2    1    2    0    0  0.28557160008E+02  0.19835714720E+00  0.34303765072E+03  0.36625480584E+03  0.12510876171E+03 0.  0.
          5    1    3    3  502    0 -0.20965297483E+02  0.39937941961E+02  0.24652619989E+03  0.25065359072E+03  0.41800000000E+01 0.  1.
         -5    1    3    3    0  502  0.49522457491E+02 -0.39739584814E+02  0.96511450826E+02  0.11560121512E+03  0.41800000000E+01 0.  1.
        -11    1    1    2    0    0  0.30953889104E+02 -0.11330473431E+02  0.12191976112E+03  0.12629707451E+03  0.00000000000E+00 0.  1.
         11    1    1    2    0    0 -0.59511049112E+02  0.11132116283E+02  0.13185073758E+03  0.14508654652E+03  0.00000000000E+00 0. -1.
</event>
<event>
 7    1  0.2878477E-009  0.8245718E+02  0.7561462E-02  0.1322219E+00
         -4   -1    0    0    0  501 -0.00000000000E+00  0.00000000000E+00  0.79404913587E+02  0.79404913587E+02  0.00000000000E+00 0.  1.
          4   -1    0    0  501    0  0.00000000000E+00 -0.00000000000E+00 -0.16110045866E+03  0.16110045866E+03  0.00000000000E+00 0. -1.
         25    2    1    2    0    0  0.11182616866E+02 -0.45990554331E+01 -0.60720154871E+02  0.13957370664E+03  0.12509068769E+03 0.  0.
          5    1    3    3  502    0 -0.67845163235E+01 -0.62711245750E+02 -0.20189232157E+02  0.66361189715E+02  0.41800000000E+01 0. -1.
         -5    1    3    3    0  502  0.17967133189E+02  0.58112190317E+02 -0.40530922714E+02  0.73212516925E+02  0.41800000000E+01 0. -1.
        -11    1    1    2    0    0 -0.24216868028E+02  0.10532090284E+02 -0.56642942176E+02  0.62496436068E+02  0.00000000000E+00 0. -1.
         11    1    1    2    0    0  0.13034251162E+02 -0.59330348511E+01  0.35667551974E+02  0.38435229539E+02  0.00000000000E+00 0.  1.
</event>
<event>
 7    1  0.2878477E-009  0.5904598E+02  0.7561462E-02  0.1401879E+00
         -1   -1    0    0    0  501 -0.00000000000E+00  0.00000000000E+00  0.79340288602E+02  0.79340288602E+02  0.00000000000E+00 0.  1.
          1   -1    0    0  501    0  0.00000000000E+00 -0.00000000000E+00 -0.15870054021E+03  0.15870054021E+03  0.00000000000E+00 0. -1.
         25    2    1    2    0    0 -0.16703287802E+02 -0.26926395527E+02 -0.42795471047E+02  0.13595154980E+03  0.12508933188E+03 0.  0.
          5    1    3    3  502    0 -0.17445377264E+02 -0.45762125116E+01  0.43198844361E+02  0.46998887890E+02  0.41800000000E+01 0. -1.
         -5    1    3    3    0  502  0.74208946154E+00 -0.22350183015E+02 -0.85994315408E+02  0.88952661906E+02  0.41800000000E+01 0. -1.
        -11    1    1    2    0    0  0.23410413410E+02  0.48705755983E+02  0.54277528048E+01  0.54311680349E+02  0.00000000000E+00 0.  1.
         11    1    1    2    0    0 -0.67071256072E+01 -0.21779360456E+02 -0.41992533364E+02  0.47777598664E+02  0.00000000000E+00 0. -1.
</event>
<event>
 7    1  0.2878477E-009  0.1288294E+03  0.7561462E-02  0.1229203E+00
          1   -1    0    0  501    0  0.00000000000E+00  0.00000000000E+00  0.18449643563E+04  0.18449643563E+04  0.00000000000E+00 0. -1.
         -1   -1    0    0    0  501 -0.00000000000E+00 -0.00000000000E+00 -0.16429850760E+02  0.16429850760E+02  0.00000000000E+00 0.  1.
         25    2    1    2    0    0 -0.60215070196E+02  0.99986179057E+02  0.13547205927E+04  0.13654804337E+04  0.12508333206E+03 0.  0.
          5    1    3    3  502    0  0.18404856418E+02  0.29080517156E+02  0.79886122511E+03  0.79961312183E+03  0.41800000000E+01 0. -1.
         -5    1    3    3    0  502 -0.78619926614E+02  0.70905661901E+02  0.55585936755E+03  0.56586731187E+03  0.41800000000E+01 0. -1.
        -11    1    1    2    0    0  0.27180710433E+02 -0.36964552696E+02  0.57497346609E+02  0.73560274896E+02  0.00000000000E+00 0.  1.
         11    1    1    2    0    0  0.33034359763E+02 -0.63021626361E+02  0.41631656627E+03  0.42235349846E+03  0.00000000000E+00 0. -1.
</event>
<event>
 7    1  0.2878477E-009  0.1760266E+03  0.7561462E-02  0.1171705E+00
         -2   -1    0    0    0  501 -0.00000000000E+00  0.00000000000E+00  0.50195296160E+02  0.50195296160E+02  0.00000000000E+00 0.  1.
          2   -1    0    0  501    0  0.00000000000E+00 -0.00000000000E+00 -0.78514751229E+03  0.78514751229E+03  0.00000000000E+00 0. -1.
         25    2    1    2    0    0 -0.55828649451E+02 -0.14016189274E+03 -0.52456359193E+03  0.55997953015E+03  0.12509163814E+03 0.  0.
          5    1    3    3  502    0 -0.57702522739E+02 -0.16281490740E+03 -0.46783499161E+03  0.49872369803E+03  0.41800000000E+01 0. -1.
         -5    1    3    3    0  502  0.18738732883E+01  0.22653014660E+02 -0.56728600317E+02  0.61255832116E+02  0.41800000000E+01 0. -1.
        -11    1    1    2    0    0  0.30639093975E+02  0.29048267346E+02 -0.77996833332E+01  0.42934729247E+02  0.00000000000E+00 0.  1.
         11    1    1    2    0    0  0.25189555476E+02  0.11111362540E+03 -0.20258894086E+03  0.23242854905E+03  0.00000000000E+00 0. -1.
</event>
<event>
 7    1  0.3186132E-009  0.1413024E+03  0.7561462E-02  0.1211587E+00
          1   -1    0    0  501    0  0.00000000000E+00  0.00000000000E+00  0.24260113216E+03  0.24260113216E+03  0.00000000000E+00 0. -1.
         -1   -1    0    0    0  501 -0.00000000000E+00 -0.00000000000E+00 -0.14433569733E+03  0.14433569733E+03  0.00000000000E+00 0.  1.
         25    2    1    2    0    0  0.11195985894E+03  0.67255306073E+02 -0.28414724913E+02  0.18306549793E+03  0.12508914314E+03 0.  0.
          5    1    3    3  502    0  0.22370921021E+02  0.29786167395E+02  0.46945121847E+02  0.60074876118E+02  0.41800000000E+01 0. -1.
         -5    1    3    3    0  502  0.89588937917E+02  0.37469138679E+02 -0.75359846760E+02  0.12299062181E+03  0.41800000000E+01 0. -1.
        -11    1    1    2    0    0 -0.89112421420E+02 -0.14307323994E+02  0.11297193995E+03  0.14459731113E+03  0.00000000000E+00 0.  1.
         11    1    1    2    0    0 -0.22847437518E+02 -0.52947982080E+02  0.13708219800E+02  0.59274020426E+02  0.00000000000E+00 0. -1.
</event>
<event>
 7    1  0.2878477E-009  0.1102566E+03  0.7561462E-02  0.1260095E+00
          2   -1    0    0  501    0  0.00000000000E+00  0.00000000000E+00  0.26733905156E+03  0.26733905156E+03  0.00000000000E+00 0. -1.
         -2   -1    0    0    0  501 -0.00000000000E+00 -0.00000000000E+00 -0.80861083894E+02  0.80861083894E+02  0.00000000000E+00 0.  1.
         25    2    1    2    0    0 -0.75708356442E+00  0.59397280192E+02  0.15239191196E+02  0.13932380135E+03  0.12510107356E+03 0.  0.
          5    1    3    3  502    0 -0.56536024812E+02  0.34432457119E+02 -0.19201999323E+02  0.69051469086E+02  0.41800000000E+01 0.  1.
         -5    1    3    3    0  502  0.55778941248E+02  0.24964823073E+02  0.34441190519E+02  0.70272332267E+02  0.41800000000E+01 0.  1.
        -11    1    1    2    0    0 -0.34587423110E+02 -0.19796645187E+02  0.14360919214E+03  0.14903622736E+03  0.00000000000E+00 0. -1.
         11    1    1    2    0    0  0.35344506675E+02 -0.39600635006E+02  0.27629584329E+02  0.59840106744E+02  0.00000000000E+00 0.  1.
</event>
<event>
 7    1  0.2878477E-009  0.1066029E+03  0.7561462E-02  0.1266993E+00
          2   -1    0    0  501    0  0.00000000000E+00  0.00000000000E+00  0.11873833665E+04  0.11873833665E+04  0.00000000000E+00 0. -1.
         -2   -1    0    0    0  501 -0.00000000000E+00 -0.00000000000E+00 -0.10659348230E+02  0.10659348230E+02  0.00000000000E+00 0.  1.
         25    2    1    2    0    0  0.59228296376E+01  0.26483327555E+02  0.73682663496E+03  0.74786183114E+03  0.12508949573E+03 0.  0.
          5    1    3    3  502    0 -0.12875160283E+02 -0.43481108716E+02  0.43753834738E+03  0.43990186906E+03  0.41800000000E+01 0.  1.
         -5    1    3    3    0  502  0.18797989921E+02  0.69964436271E+02  0.29928828758E+03  0.30795996209E+03  0.41800000000E+01 0.  1.
        -11    1    1    2    0    0  0.35006844082E+02 -0.38896117736E+02  0.21734305069E+03  0.22355399525E+03  0.00000000000E+00 0.  1.
         11    1    1    2    0    0 -0.40929673720E+02  0.12412790181E+02  0.22255433258E+03  0.22662688831E+03  0.00000000000E+00 0. -1.
</event>
<event>
 6    1  0.2878477E-009  0.8689133E+02  0.7561462E-02  0.1310559E+00
         -1   -1    0    0    0  501 -0.00000000000E+00  0.00000000000E+00  0.17437263825E+03  0.17437263825E+03  0.00000000000E+00 0.  1.
          1   -1    0    0  501    0  0.00000000000E+00 -0.00000000000E+00 -0.83998899098E+02  0.83998899098E+02  0.00000000000E+00 0. -1.
          5    1    1    2  502    0 -0.49270614406E+02  0.28461068701E+01  0.89444272025E+02  0.10224208510E+03  0.41800000000E+01 0.  1.
         -5    1    1    2    0  502  0.33372153454E+02  0.41693054955E+02 -0.84473342033E+01  0.54229524365E+02  0.41800000000E+01 0.  1.
        -11    1    1    2    0    0 -0.15416603357E+02 -0.34521194402E+02 -0.31662720278E+02  0.49314423625E+02  0.00000000000E+00 0. -1.
         11    1    1    2    0    0  0.31315064309E+02 -0.10017967423E+02  0.41039521612E+02  0.52585504258E+02  0.00000000000E+00 0.  1.
</event>
<event>
 7    1  0.2878477E-009  0.7506606E+02  0.7561462E-02  0.1343667E+00
          1   -1    0    0  501    0  0.00000000000E+00  0.00000000000E+00  0.14111162955E+03  0.14111162955E+03  0.00000000000E+00 0. -1.
         -1   -1    0    0    0  501 -0.00000000000E+00 -0.00000000000E+00 -0.13217287619E+03  0.13217287619E+03  0.00000000000E+00 0.  1.
         25    2    1    2    0    0 -0.46560703182E+02 -0.34978201902E+02  0.58818331992E+02  0.14999559281E+03  0.12509079900E+03 0.  0.
          5    1    3    3  502    0  0.15805626156E+01 -0.26282478835E+02 -0.35064947563E+02  0.44048720974E+02  0.41800000000E+01 0.  1.
         -5    1    3    3    0  502 -0.48141265797E+02 -0.86957230675E+01  0.93883279554E+02  0.10594687184E+03  0.41800000000E+01 0.  1.
        -11    1    1    2    0    0  0.36215553784E+02  0.46467452189E+02 -0.74031694257E+02  0.94612273006E+02  0.00000000000E+00 0.  1.
         11    1    1    2    0    0  0.10345149398E+02 -0.11489250287E+02  0.24152115625E+02  0.28676639925E+02  0.00000000000E+00 0. -1.
</event>
<event>
 7    1  0.2878477E-009  0.1766585E+03  0.7561462E-02  0.1171077E+00
          2   -1    0    0  501    0  0.00000000000E+00  0.00000000000E+00  0.89801357009E+03  0.89801357009E+03  0.00000000000E+00 0. -1.
         -2   -1    0    0    0  501 -0.00000000000E+00 -0.00000000000E+00 -0.42288351167E+02  0.42288351167E+02  0.00000000000E+00 0.  1.
         25    2    1    2    0    0  0.92810435227E+02 -0.11882348453E+03  0.58943577279E+03  0.62113966111E+03  0.12508857262E+03 0.  0.
          5    1    3    3  502    0  0.43088585042E+02 -0.13626025103E+03  0.42235152432E+03  0.44589434249E+03  0.41800000000E+01 0.  1.
         -5    1    3    3    0  502  0.49721850185E+02  0.17436766500E+02  0.16708424847E+03  0.17524531862E+03  0.41800000000E+01 0.  1.
        -11    1    1    2    0    0 -0.94210864133E+02  0.95589144839E+02  0.15307710176E+03  0.20358185237E+03  0.00000000000E+00 0.  1.
         11    1    1    2    0    0  0.14004289060E+01  0.23234339690E+02  0.11321234437E+03  0.11558040777E+03  0.00000000000E+00 0. -1.
</event>
<event>
 7    1  0.2878477E-009  0.1263781E+03  0.7561462E-02  0.1232931E+00
          1   -1    0    0  501    0  0.00000000000E+00  0.00000000000E+00  0.12969817874E+03  0.12969817874E+03  0.00000000000E+00 0. -1.
         -1   -1    0    0    0  501 -0.00000000000E+00 -0.00000000000E+00 -0.15559940650E+03  0.15559940650E+03  0.00000000000E+00 0.  1.
         25    2    1    2    0    0  0.73092817813E+02  0.71513732948E+01  0.40692502293E+02  0.15065770661E+03  0.12509261633E+03 0.  0.
          5    1    3    3  502    0  0.11173609667E+01  0.51146222889E+02  0.41791594301E+02  0.66190591216E+02  0.41800000000E+01 0. -1.
         -5    1    3    3    0  502  0.71975456846E+02 -0.43994849594E+02 -0.10990920080E+01  0.84467115390E+02  0.41800000000E+01 0. -1.
        -11    1    1    2    0    0 -0.22894276038E+02  0.41286755986E+02 -0.24943429029E+02  0.53393995420E+02  0.00000000000E+00 0.  1.
         11    1    1    2    0    0 -0.50198541775E+02 -0.48438129281E+02 -0.41650301020E+02  0.81245883217E+02  0.00000000000E+00 0. -1.
</event>
<event>
 7    1  0.2878477E-009  0.3149216E+03  0.7561462E-02  0.1078011E+00
          1   -1    0    0  501    0  0.00000000000E+00  0.00000000000E+00  0.44735880590E+03  0.44735880590E+03  0.00000000000E+00 0. -1.
         -1   -1    0    0    0  501 -0.00000000000E+00 -0.00000000000E+00 -0.29991369209E+03  0.29991369209E+03  0.00000000000E+00 0.  1.
         25    2    1    2    0    0 -0.14642542561E+03  0.26511323855E+03  0.25197218869E+03  0.41335599996E+03  0.12509102410E+03 0.  0.
          5    1    3    3  502    0 -0.67935142157E+01  0.13403824381E+03  0.82531435521E+02  0.15761127145E+03  0.41800000000E+01 0.  1.
         -5    1    3    3    0  502 -0.13963191140E+03  0.13107499474E+03  0.16944075317E+03  0.25574472851E+03  0.41800000000E+01 0.  1.
        -11    1    1    2    0    0  0.12059370818E+03 -0.23641859370E+03 -0.12131996082E+03  0.29181351373E+03  0.00000000000E+00 0.  1.
         11    1    1    2    0    0  0.25831717437E+02 -0.28694644846E+02  0.16792885940E+02  0.42102984298E+02  0.00000000000E+00 0. -1.
</event>
<event>
 7    1  0.2878477E-009  0.1303265E+03  0.7561462E-02  0.1226972E+00
          2   -1    0    0  501    0  0.00000000000E+00  0.00000000000E+00  0.71577585369E+03  0.71577585369E+03  0.00000000000E+00 0. -1.
         -2   -1    0    0    0  501 -0.00000000000E+00 -0.00000000000E+00 -0.35607865801E+02  0.35607865801E+02  0.00000000000E+00 0.  1.
         25    2    1    2    0    0 -0.79845224161E+02 -0.58922524761E+02  0.21124958212E+03  0.26480298216E+03  0.12508840741E+03 0.  0.
          5    1    3    3  502    0 -0.96222514832E+02 -0.31517046958E+02  0.78450930348E+02  0.12815661310E+03  0.41800000000E+01 0.  1.
         -5    1    3    3    0  502  0.16377290671E+02 -0.27405477803E+02  0.13279865177E+03  0.13664636905E+03  0.41800000000E+01 0.  1.
        -11    1    1    2    0    0  0.64879520012E+02 -0.14700819216E+01  0.18901508769E+03  0.19984548189E+03  0.00000000000E+00 0.  1.
         11    1    1    2    0    0  0.14965704149E+02  0.60392606683E+02  0.27990331808E+03  0.28673525545E+03  0.00000000000E+00 0. -1.
</event>
<event>
 7    1  0.2878477E-009  0.1132912E+03  0.7561462E-02  0.1254594E+00
          2   -1    0    0  501    0  0.00000000000E+00  0.00000000000E+00  0.52736404727E+03  0.52736404727E+03  0.00000000000E+00 0.  1.
         -2   -1    0    0    0  501 -0.00000000000E+00 -0.00000000000E+00 -0.10153238464E+03  0.10153238464E+03  0.00000000000E+00 0. -1.
         25    2    1    2    0    0  0.51627442401E+00 -0.10083247541E+03 -0.21163205922E+02  0.16205622411E+03  0.12508750478E+03 0.  0.
          5    1    3    3  502    0  0.35291673491E+01 -0.11135536135E+03 -0.56384936442E+02  0.12493680395E+03  0.41800000000E+01 0.  1.
         -5    1    3    3    0  502 -0.30128929251E+01  0.10522885944E+02  0.35221730520E+02  0.37119420162E+02  0.41800000000E+01 0.  1.
        -11    1    1    2    0    0 -0.74941848391E+01  0.91061042626E+02  0.44546172329E+03  0.45473555305E+03  0.00000000000E+00 0.  1.
         11    1    1    2    0    0  0.69779104151E+01  0.97714327789E+01  0.15331452682E+01  0.12104654755E+02  0.00000000000E+00 0. -1.
</event>
<event>
 6    1  0.2878477E-009  0.1672132E+03  0.7561462E-02  0.1180786E+00
          2   -1    0    0  501    0  0.00000000000E+00  0.00000000000E+00  0.17934522432E+03  0.17934522432E+03  0.00000000000E+00 0. -1.
         -2   -1    0    0    0  501 -0.00000000000E+00 -0.00000000000E+00 -0.78114556309E+03  0.78114556309E+03  0.00000000000E+00 0.  1.
          5    1    1    2  502    0  0.39479951504E+01  0.10366592395E+03 -0.64742437002E+01  0.10402691328E+03  0.41800000000E+01 0.  1.
         -5    1    1    2    0  502 -0.54332455675E+01  0.58038274304E+02  0.11144193769E+03  0.12583616061E+03  0.41800000000E+01 0.  1.
        -11    1    1    2    0    0 -0.28374745269E+02 -0.93363315743E+02 -0.26061134504E+03  0.27828062825E+03  0.00000000000E+00 0. -1.
         11    1    1    2    0    0  0.29859995686E+02 -0.68340882514E+02 -0.44615668772E+03  0.45234708528E+03  0.00000000000E+00 0.  1.
</event>
<event>
 7    1  0.2878477E-009  0.1292929E+03  0.7561462E-02  0.1228509E+00
          1   -1    0    0  501    0  0.00000000000E+00  0.00000000000E+00  0.39288060859E+03  0.39288060859E+03  0.00000000000E+00 0. -1.
         -1   -1    0    0    0  501 -0.00000000000E+00 -0.00000000000E+00 -0.76439035752E+02  0.76439035752E+02  0.00000000000E+00 0.  1.
         25    2    1    2    0    0  0.70895172108E+02 -0.85628969725E+02  0.63744502078E+02  0.17907990107E+03  0.12509118089E+03 0.  0.
          5    1    3    3  502    0  0.83783605666E+00 -0.17477349039E+02  0.78153544817E+02  0.80197310842E+02  0.41800000000E+01 0. -1.
         -5    1    3    3    0  502  0.70057336052E+02 -0.68151620685E+02 -0.14409042740E+02  0.98882590224E+02  0.41800000000E+01 0. -1.
        -11    1    1    2    0    0  0.18823811546E+02  0.35024893682E+02  0.70901858156E+02  0.81290544029E+02  0.00000000000E+00 0.  1.
         11    1    1    2    0    0 -0.89718983655E+02  0.50604076043E+02  0.18179521261E+03  0.20894919925E+03  0.00000000000E+00 0. -1.
</event>
<event>
 7    1  0.2878477E-009  0.8982246E+02  0.7561462E-02  0.1303282E+00
          4   -1    0    0  501    0  0.00000000000E+00  0.00000000000E+00  0.21745583121E+03  0.21745583121E+03  0.00000000000E+00 0.  1.
         -4   -1    0    0    0  501 -0.00000000000E+00 -0.00000000000E+00 -0.55421618689E+02  0.55421618689E+02  0.00000000000E+00 0. -1.
         25    2    1    2    0    0  0.16514434502E+02 -0.12643256083E+02  0.12118798323E+03  0.17540270580E+03  0.12508798283E+03 0.  0.
          5    1    3    3  502    0  0.55716771841E+02  0.25127942768E+02  0.27912472539E+02  0.67322735353E+02  0.41800000000E+01 0. -1.
         -5    1    3    3    0  502 -0.39202337340E+02 -0.37771198852E+02  0.93275510695E+02  0.10807997044E+03  0.41800000000E+01 0. -1.
        -11    1    1    2    0    0 -0.11524833408E+02  0.37086385382E+02 -0.10636481768E+02  0.40266071452E+02  0.00000000000E+00 0. -1.
         11    1    1    2    0    0 -0.49896010938E+01 -0.24443129299E+02  0.51482711053E+02  0.57208672649E+02  0.00000000000E+00 0.  1.
</event>
<event>
 7    1  0.2878477E-009  0.2437233E+03  0.7561462E-02  0.1117337E+00
          1   -1    0    0  501    0  0.00000000000E+00  0.00000000000E+00  0.13049992479E+04  0.13049992479E+04  0.00000000000E+00 0. -1.
         -1   -1    0    0    0  501 -0.00000000000E+00 -0.00000000000E+00 -0.52143512678E+02  0.52143512678E+02  0.00000000000E+00 0.  1.
         25    2    1    2    0    0  0.20559537616E+03 -0.11304284907E+03  0.56213104732E+03  0.62184115469E+03  0.12508782070E+03 0.  0.
          5    1    3    3  502    0  0.44673685680E+02 -0.14838050410E+02  0.26930487764E+02  0.54393285463E+02  0.41800000000E+01 0.  1.
         -5    1    3    3    0  502  0.16092169048E+03 -0.98204798656E+02  0.53520055955E+03  0.56744786923E+03  0.41800000000E+01 0.  1.
        -11    1    1    2    0    0 -0.84490525453E+00  0.31053420825E+02  0.70967273222E+02  0.77468591560E+02  0.00000000000E+00 0.  1.
         11    1    1    2    0    0 -0.20475047091E+03  0.81989428241E+02  0.61975741470E+03  0.65783301434E+03  0.00000000000E+00 0. -1.
</event>
<event>
 7    1  0.2878477E-009  0.1190022E+03  0.7561462E-02  0.1244752E+00
          4   -1    0    0  501    0  0.00000000000E+00  0.00000000000E+00  0.43063597303E+02  0.43063597303E+02  0.00000000000E+00 0. -1.
         -4   -1    0    0    0  501 -0.00000000000E+00 -0.00000000000E+00 -0.39794959230E+03  0.39794959230E+03  0.00000000000E+00 0.  1.
         25    2    1    2    0    0  0.50918963100E+02  0.42251425425E+01 -0.11741918086E+03  0.17901128648E+03  0.12508870461E+03 0.  0.
          5    1    3    3  502    0 -0.10490217798E+01  0.54885350501E+02 -0.22552640271E+02  0.59494505037E+02  0.41800000000E+01 0. -1.
         -5    1    3    3    0  502  0.51967984879E+02 -0.50660207959E+02 -0.94866540592E+02  0.11951678144E+03  0.41800000000E+01 0. -1.
        -11    1    1    2    0    0  0.18331148524E+02 -0.30995560659E+02 -0.88904239056E+02  0.95920381092E+02  0.00000000000E+00 0.  1.
         11    1    1    2    0    0 -0.69250111624E+02  0.26770418116E+02 -0.14856257508E+03  0.16608152203E+03  0.00000000000E+00 0. -1.
</event>
<event>
 7    1  0.2878477E-009  0.1149374E+03  0.7561462E-02  0.1251690E+00
          3   -1    0    0  501    0  0.00000000000E+00  0.00000000000E+00  0.31469725790E+02  0.31469725790E+02  0.00000000000E+00 0. -1.
         -3   -1    0    0    0  501 -0.00000000000E+00 -0.00000000000E+00 -0.43579317782E+03  0.43579317782E+03  0.00000000000E+00 0.  1.
         25    2    1    2    0    0  0.40349059377E+02  0.26780133789E+01 -0.19466126034E+03  0.23489410551E+03  0.12508803371E+03 0.  0.
          5    1    3    3  502    0  0.41860483230E+02 -0.57335070465E+02 -0.11138915525E+03  0.13215379930E+03  0.41800000000E+01 0. -1.
         -5    1    3    3    0  502 -0.15114238531E+01  0.60013083844E+02 -0.83272105095E+02  0.10274030622E+03  0.41800000000E+01 0. -1.
        -11    1    1    2    0    0 -0.61036026263E+02  0.23338237434E+02 -0.15748549219E+03  0.17050439900E+03  0.00000000000E+00 0.  1.
         11    1    1    2    0    0  0.20686966886E+02 -0.26016250813E+02 -0.52176699496E+02  0.61864399097E+02  0.00000000000E+00 0. -1.
</event>
<event>
 7    1  0.2878477E-009  0.9477169E+02  0.7561462E-02  0.1291691E+00
          1   -1    0    0  501    0  0.00000000000E+00  0.00000000000E+00  0.38431520515E+03  0.38431520515E+03  0.00000000000E+00 0. -1.
         -1   -1    0    0    0  501 -0.00000000000E+00 -0.00000000000E+00 -0.35595934700E+02  0.35595934700E+02  0.00000000000E+00 0.  1.
         25    2    1    2    0    0  0.59292988891E+02  0.17042722896E+02  0.19541537825E+03  0.24008616453E+03  0.12509229955E+03 0.  0.
          5    1    3    3  502    0  0.85516144266E+02  0.33543484325E+02  0.18591235845E+03  0.20741035098E+03  0.41800000000E+01 0. -1.
         -5    1    3    3    0  502 -0.26223155375E+02 -0.16500761429E+02  0.95030197962E+01  0.32675813545E+02  0.41800000000E+01 0. -1.
        -11    1    1    2    0    0 -0.26853443568E+02  0.47158584974E+01  0.66573576088E+01  0.28065408658E+02  0.00000000000E+00 0.  1.
         11    1    1    2    0    0 -0.32439545323E+02 -0.21758581394E+02  0.14664653459E+03  0.15175956666E+03  0.00000000000E+00 0. -1.
</event>
<event>
 7    1  0.2878477E-009  0.1575636E+03  0.7561462E-02  0.1191475E+00
          2   -1    0    0  501    0  0.00000000000E+00  0.00000000000E+00  0.34854316155E+03  0.34854316155E+03  0.00000000000E+00 0.  1.
         -2   -1    0    0    0  501 -0.00000000000E+00 -0.00000000000E+00 -0.86843490049E+02  0.86843490049E+02  0.00000000000E+00 0. -1.
         25    2    1    2    0    0 -0.11695694041E+03 -0.68955834394E+02  0.14116282113E+03  0.23239892041E+03  0.12509389726E+03 0.  0.
          5    1    3    3  502    0  0.14597792381E+02 -0.42271161514E+02  0.61817383485E+02  0.76412092885E+02  0.41800000000E+01 0. -1.
         -5    1    3    3    0  502 -0.13155473279E+03 -0.26684672880E+02  0.79345437645E+02  0.15598682753E+03  0.41800000000E+01 0. -1.
        -11    1    1    2    0    0  0.91043488529E+02  0.50634714901E+02  0.13295583125E+03  0.16890839002E+03  0.00000000000E+00 0.  1.
         11    1    1    2    0    0  0.25913451883E+02  0.18321119493E+02 -0.12418980880E+02  0.34079341162E+02  0.00000000000E+00 0. -1.
</event>
<event>
 7    1  0.3470799E-009  0.9957384E+02  0.7561462E-02  0.1281195E+00
          2   -1    0    0  501    0  0.00000000000E+00  0.00000000000E+00  0.35616246863E+03  0.35616246863E+03  0.00000000000E+00 0.  1.
         -2   -1    0    0    0  501 -0.00000000000E+00 -0.00000000000E+00 -0.43561467086E+02  0.43561467086E+02  0.00000000000E+00 0. -1.
         25    2    1    2    0    0  0.47829415995E+02 -0.16275045154E+02  0.11880451344E+03  0.17975596650E+03  0.12508063379E+03 0.  0.
          5    1    3    3  502    0  0.67736254085E+02  0.35023890461E+02  0.88142342744E+02  0.11662511738E+03  0.41800000000E+01 0. -1.
         -5    1    3    3    0  502 -0.19906838090E+02 -0.51298935615E+02  0.30662170700E+02  0.63130849116E+02  0.41800000000E+01 0. -1.
        -11    1    1    2    0    0 -0.18609015698E+02  0.30005650383E+02  0.18231367022E+03  0.18570112781E+03  0.00000000000E+00 0.  1.
         11    1    1    2    0    0 -0.29220400297E+02 -0.13730605228E+02  0.11482817877E+02  0.34266841405E+02  0.00000000000E+00 0. -1.
</event>
<event>
 7    1  0.2878477E-009  0.1164404E+03  0.7561462E-02  0.1249087E+00
         -2   -1    0    0    0  501 -0.00000000000E+00  0.00000000000E+00  0.11148844763E+03  0.11148844763E+03  0.00000000000E+00 0.  1.
          2   -1    0    0  501    0  0.00000000000E+00 -0.00000000000E+00 -0.13372993994E+03  0.13372993994E+03  0.00000000000E+00 0. -1.
         25    2    1    2    0    0 -0.35471232352E+02  0.42974353657E+02 -0.14331632912E+02  0.13768913111E+03  0.12509155738E+03 0.  0.
          5    1    3    3  502    0  0.18707447813E+02 -0.36145634507E+02 -0.26850772202E+01  0.41001921142E+02  0.41800000000E+01 0. -1.
         -5    1    3    3    0  502 -0.54178680166E+02  0.79119988165E+02 -0.11646555691E+02  0.96687209967E+02  0.41800000000E+01 0. -1.
        -11    1    1    2    0    0  0.10725766703E+02  0.23077795309E+02  0.19287963922E+02  0.31931994299E+02  0.00000000000E+00 0.  1.
         11    1    1    2    0    0  0.24745465650E+02 -0.66052148966E+02 -0.27197823314E+02  0.75597262161E+02  0.00000000000E+00 0. -1.
</event>
<event>
 7    1  0.2878477E-009  0.1164086E+03  0.7561462E-02  0.1249142E+00
          1   -1    0    0  501    0  0.00000000000E+00  0.00000000000E+00  0.69716626302E+03  0.69716626302E+03  0.00000000000E+00 0. -1.
         -1   -1    0    0    0  501 -0.00000000000E+00 -0.00000000000E+00 -0.47457628534E+02  0.47457628534E+02  0.00000000000E+00 0.  1.
         25    2    1    2    0    0  0.81018123209E+02  0.43665622239E+02  0.57415104150E+03  0.59478391959E+03  0.12509144530E+03 0.  0.
          5    1    3    3  502    0  0.93812000315E+02  0.63437110245E+01  0.23236434370E+03  0.25070220321E+03  0.41800000000E+01 0. -1.
         -5    1    3    3    0  502 -0.12793877106E+02  0.37321911215E+02  0.34178669780E+03  0.34408171638E+03  0.41800000000E+01 0. -1.
        -11    1    1    2    0    0 -0.30258262201E+02 -0.37047578700E+02  0.85238645889E+02  0.97743093219E+02  0.00000000000E+00 0. -1.
         11    1    1    2    0    0 -0.50759861008E+02 -0.66180435394E+01 -0.96810529064E+01  0.52096878747E+02  0.00000000000E+00 0.  1.
</event>
<event>
 7    1  0.2878477E-009  0.9554313E+02  0.7561462E-02  0.1289957E+00
         -2   -1    0    0    0  501 -0.00000000000E+00  0.00000000000E+00  0.29974196197E+03  0.29974196197E+03  0.00000000000E+00 0.  1.
          2   -1    0    0  501    0  0.00000000000E+00 -0.00000000000E+00 -0.61552844591E+02  0.61552844591E+02  0.00000000000E+00 0. -1.
         25    2    1    2    0    0 -0.65230796233E+02 -0.33657274042E+02  0.72214701812E+02  0.16201858071E+03  0.12508872237E+03 0.  0.
          5    1    3    3  502    0 -0.29120902213E+02  0.20487763668E+02 -0.25885632934E+02  0.44218930316E+02  0.41800000000E+01 0. -1.
         -5    1    3    3    0  502 -0.36109894019E+02 -0.54145037711E+02  0.98100334746E+02  0.11779965039E+03  0.41800000000E+01 0. -1.
        -11    1    1    2    0    0 -0.11984044996E+01  0.22654298803E+02  0.29292261798E+01  0.22874304221E+02  0.00000000000E+00 0. -1.
         11    1    1    2    0    0  0.66429200732E+02  0.11002975239E+02  0.16304518938E+03  0.17640192163E+03  0.00000000000E+00 0.  1.
</event>
<event>
 7    1  0.2878477E-009  0.2375778E+03  0.7561462E-02  0.1121417E+00
         -2   -1    0    0    0  501 -0.00000000000E+00  0.00000000000E+00  0.20803546837E+03  0.20803546837E+03  0.00000000000E+00 0.  1.
          2   -1    0    0  501    0  0.00000000000E+00 -0.00000000000E+00 -0.31590780571E+03  0.31590780571E+03  0.00000000000E+00 0. -1.
         25    2    1    2    0    0  0.20819024786E+03 -0.10097264545E+03 -0.74740913468E+02  0.27345062800E+03  0.12510150830E+03 0.  0.
          5    1    3    3  502    0  0.88821517915E+02 -0.79467192029E+02  0.18137423270E+02  0.12062642818E+03  0.41800000000E+01 0. -1.
         -5    1    3    3    0  502  0.11936872994E+03 -0.21505453417E+02 -0.92878336738E+02  0.15282419982E+03  0.41800000000E+01 0. -1.
        -11    1    1    2    0    0 -0.45002228695E+02  0.40384016701E+02  0.27145250812E+02  0.66279212685E+02  0.00000000000E+00 0.  1.
         11    1    1    2    0    0 -0.16318801916E+03  0.60588628745E+02 -0.60276674687E+02  0.18421343339E+03  0.00000000000E+00 0. -1.
</event>
<event>
 7    1  0.2878477E-009  0.1544714E+03  0.7561462E-02  0.1195084E+00
         -2   -1    0    0    0  501 -0.00000000000E+00  0.00000000000E+00  0.23001674218E+03  0.23001674218E+03  0.00000000000E+00 0.  1.
          2   -1    0    0  501    0  0.00000000000E+00 -0.00000000000E+00 -0.23889830904E+03  0.23889830904E+03  0.00000000000E+00 0. -1.
         25    2    1    2    0    0 -0.11489751031E+03  0.75498996324E+02  0.15717367293E+03  0.24341933516E+03  0.12509145833E+03 0.  0.
          5    1    3    3  502    0 -0.10421150327E+03  0.18335957835E+02  0.15150031843E+03  0.18484064393E+03  0.41800000000E+01 0. -1.
         -5    1    3    3    0  502 -0.10686007041E+02  0.57163038489E+02  0.56733545017E+01  0.58578691237E+02  0.41800000000E+01 0. -1.
        -11    1    1    2    0    0  0.39677693620E+02 -0.53049433535E+02 -0.11220598523E+03  0.13030251299E+03  0.00000000000E+00 0. -1.
         11    1    1    2    0    0  0.75219816687E+02 -0.22449562789E+02 -0.53849254563E+02  0.95193203060E+02  0.00000000000E+00 0.  1.
</event>
<event>
 7    1  0.2878477E-009  0.1465877E+03  0.7561462E-02  0.1204730E+00
         -2   -1    0    0    0  501 -0.00000000000E+00  0.00000000000E+00  0.19096294097E+03  0.19096294097E+03  0.00000000000E+00 0. -1.
          2   -1    0    0  501    0  0.00000000000E+00 -0.00000000000E+00 -0.15357119725E+03  0.15357119725E+03  0.00000000000E+00 0.  1.
         25    2    1    2    0    0  0.10530230712E+03  0.17279629699E+01  0.99808062537E+02  0.19157584151E+03  0.12509233375E+03 0.  0.
          5    1    3    3  502    0  0.12538378944E+03 -0.21989256181E+02  0.59695190516E+02  0.14066133162E+03  0.41800000000E+01 0. -1.
         -5    1    3    3    0  502 -0.20081482315E+02  0.23717219151E+02  0.40112872021E+02  0.50914509896E+02  0.41800000000E+01 0. -1.
        -11    1    1    2    0    0 -0.10898708309E+03  0.21370150456E+02 -0.33992949712E+02  0.11614813060E+03  0.00000000000E+00 0. -1.
         11    1    1    2    0    0  0.36847759684E+01 -0.23098113426E+02 -0.28423369100E+02  0.36810166106E+02  0.00000000000E+00 0.  1.
</event>
<event>
 7    1  0.2878477E-009  0.1217922E+03  0.7561462E-02  0.1240169E+00
         -1   -1    0    0    0  501 -0.00000000000E+00  0.00000000000E+00  0.79069539115E+02  0.79069539115E+02  0.00000000000E+00 0.  1.
          1   -1    0    0  501    0  0.00000000000E+00 -0.00000000000E+00 -0.21872805874E+03  0.21872805874E+03  0.00000000000E+00 0. -1.
         25    2    1    2    0    0 -0.56095873341E+02 -0.33148859906E+02 -0.29389875928E+02  0.14407265993E+03  0.12509025787E+03 0.  0.
          5    1    3    3  502    0  0.35112186122E+02 -0.27877157220E+02 -0.27170220388E+02  0.52589873406E+02  0.41800000000E+01 0.  1.
         -5    1    3    3    0  502 -0.91208059462E+02 -0.52717026856E+01 -0.22196555400E+01  0.91482786527E+02  0.41800000000E+01 0.  1.
        -11    1    1    2    0    0  0.49398589055E+02 -0.20173978964E+02 -0.54043579690E+02  0.75946813847E+02  0.00000000000E+00 0. -1.
         11    1    1    2    0    0  0.66972842860E+01  0.53322838869E+02 -0.56225064007E+02  0.77778124074E+02  0.00000000000E+00 0.  1.
</event>
<event>
 7    1  0.2878477E-009  0.9844172E+02  0.7561462E-02  0.1283607E+00
         -4   -1    0    0    0  501 -0.00000000000E+00  0.00000000000E+00  0.51579443674E+03  0.51579443674E+03  0.00000000000E+00 0.  1.
          4   -1    0    0  501    0  0.00000000000E+00 -0.00000000000E+00 -0.33104984203E+02  0.33104984203E+02  0.00000000000E+00 0. -1.
         25    2    1    2    0    0  0.59792296512E+02 -0.31775462425E+02  0.29592687040E+03  0.32833065433E+03  0.12507400694E+03 0.  0.
          5    1    3    3  502    0  0.65573778100E+02 -0.32780558021E+02  0.30670143686E+03  0.31536919497E+03  0.41800000000E+01 0.  1.
         -5    1    3    3    0  502 -0.57814815884E+01  0.10050955958E+01 -0.10774566460E+02  0.12961459367E+02  0.41800000000E+01 0.  1.
        -11    1    1    2    0    0  0.24140215068E+02  0.20288805899E+02  0.64875959678E+02  0.72133735329E+02  0.00000000000E+00 0. -1.
         11    1    1    2    0    0 -0.83932511580E+02  0.11486656526E+02  0.12188662246E+03  0.14843503128E+03  0.00000000000E+00 0.  1.
</event>
<event>
 7    1  0.2878477E-009  0.1946460E+03  0.7561462E-02  0.1154336E+00
         -2   -1    0    0    0  501 -0.00000000000E+00  0.00000000000E+00  0.59919344398E+02  0.59919344398E+02  0.00000000000E+00 0.  1.
          2   -1    0    0  501    0  0.00000000000E+00 -0.00000000000E+00 -0.66777707380E+03  0.66777707380E+03  0.00000000000E+00 0. -1.
         25    2    1    2    0    0  0.14095446823E+03  0.87547879626E+02 -0.36020687556E+03  0.41584890016E+03  0.12509404952E+03 0.  0.
          5    1    3    3  502    0 -0.12087123768E+02 -0.12444708868E+02 -0.92238004590E+01  0.20087813089E+02  0.41800000000E+01 0.  1.
         -5    1    3    3    0  502  0.15304159200E+03  0.99992588494E+02 -0.35098307510E+03  0.39576108707E+03  0.41800000000E+01 0.  1.
        -11    1    1    2    0    0 -0.82619564030E+02  0.91189778767E+00 -0.12398709179E+03  0.14899537862E+03  0.00000000000E+00 0. -1.
         11    1    1    2    0    0 -0.58334904202E+02 -0.88459777414E+02 -0.12366376205E+03  0.16285213942E+03  0.00000000000E+00 0.  1.
</event>
<event>
 7    1  0.2878477E-009  0.1759679E+03  0.7561462E-02  0.1171763E+00
         -2   -1    0    0    0  501 -0.00000000000E+00  0.00000000000E+00  0.49321807234E+02  0.49321807234E+02  0.00000000000E+00 0.  1.
          2   -1    0    0  501    0  0.00000000000E+00 -0.00000000000E+00 -0.85684097889E+03  0.85684097889E+03  0.00000000000E+00 0. -1.
         25    2    1    2    0    0  0.19257014830E+00  0.15354376705E+03 -0.23196297053E+03  0.30503053403E+03  0.12514424282E+03 0.  0.
          5    1    3    3  502    0 -0.59972832359E+02  0.50737827845E+02 -0.85168988768E+02  0.11594091962E+03  0.41800000000E+01 0. -1.
         -5    1    3    3    0  502  0.60165402507E+02  0.10280593921E+03 -0.14679398176E+03  0.18908961441E+03  0.41800000000E+01 0. -1.
        -11    1    1    2    0    0 -0.64887359584E+01 -0.72418120249E+02 -0.13707052454E+03  0.15516061527E+03  0.00000000000E+00 0.  1.
         11    1    1    2    0    0  0.62961658101E+01 -0.81125646804E+02 -0.43848567659E+03  0.44597163682E+03  0.00000000000E+00 0. -1.
</event>
<event>
 7    1  0.2878477E-009  0.1331384E+03  0.7561462E-02  0.1222872E+00
         -2   -1    0    0    0  501 -0.00000000000E+00  0.00000000000E+00  0.46634871236E+02  0.46634871236E+02  0.00000000000E+00 0.  1.
          2   -1    0    0  501    0  0.00000000000E+00 -0.00000000000E+00 -0.42734218189E+03  0.42734218189E+03  0.00000000000E+00 0. -1.
         25    2    1    2    0    0  0.86246618310E+02  0.26342420574E+02 -0.18691961016E+03  0.24231652182E+03  0.12508378708E+03 0.  0.
          5    1    3    3  502    0 -0.28775660186E+02  0.51472231645E+01 -0.12041852334E+02  0.31890611990E+02  0.41800000000E+01 0. -1.
         -5    1    3    3    0  502  0.11502227850E+03  0.21195197409E+02 -0.17487775783E+03  0.21042590983E+03  0.41800000000E+01 0. -1.
        -11    1    1    2    0    0 -0.43781047770E+02  0.27072454487E+02 -0.46647820499E+02  0.69467381504E+02  0.00000000000E+00 0. -1.
         11    1    1    2    0    0 -0.42465570540E+02 -0.53414875061E+02 -0.14713988000E+03  0.16219314981E+03  0.00000000000E+00 0.  1.
</event>
<event>
 7    1  0.2878477E-009  0.1064469E+03  0.7561462E-02  0.1267295E+00
          2   -1    0    0  501    0  0.00000000000E+00  0.00000000000E+00  0.10267317365E+04  0.10267317365E+04  0.00000000000E+00 0.  1.
         -2   -1    0    0    0  501 -0.00000000000E+00 -0.00000000000E+00 -0.17976252847E+02  0.17976252847E+02  0.00000000000E+00 0. -1.
         25    2    1    2    0    0 -0.16531397555E+02  0.73551037308E+02  0.44189119868E+03  0.46540138122E+03  0.12509025529E+03 0.  0.
          5    1    3    3  502    0  0.18425746516E+02  0.48233946959E+02  0.53040897199E+02  0.74140616059E+02  0.41800000000E+01 0. -1.
         -5    1    3    3    0  502 -0.34957144071E+02  0.25317090348E+02  0.38885030149E+03  0.39126076516E+03  0.41800000000E+01 0. -1.
        -11    1    1    2    0    0  0.24798112566E+02  0.14874012129E+02  0.10125881584E+03  0.10530683932E+03  0.00000000000E+00 0.  1.
         11    1    1    2    0    0 -0.82667150116E+01 -0.88425049436E+02  0.46560546916E+03  0.47399976884E+03  0.00000000000E+00 0. -1.
</event>
<event>
 7    1  0.2878477E-009  0.1068039E+03  0.7561462E-02  0.1266606E+00
          1   -1    0    0  501    0  0.00000000000E+00  0.00000000000E+00  0.65997781509E+03  0.65997781509E+03  0.00000000000E+00 0. -1.
         -1   -1    0    0    0  501 -0.00000000000E+00 -0.00000000000E+00 -0.27296926707E+02  0.27296926707E+02  0.00000000000E+00 0.  1.
         25    2    1    2    0    0  0.56158388011E+02 -0.22229238829E+02  0.47133060714E+03  0.49137341962E+03  0.12508953864E+03 0.  0.
          5    1    3    3  502    0  0.76882804373E+02 -0.29256757745E+02  0.45813339666E+03  0.46547889858E+03  0.41800000000E+01 0. -1.
         -5    1    3    3    0  502 -0.20724416361E+02  0.70275189163E+01  0.13197210478E+02  0.25894521043E+02  0.41800000000E+01 0. -1.
        -11    1    1    2    0    0 -0.75508540268E+02 -0.48666960566E+01  0.93163108556E+02  0.12001912006E+03  0.00000000000E+00 0.  1.
         11    1    1    2    0    0  0.19350152257E+02  0.27095934886E+02  0.68187172689E+02  0.75882202123E+02  0.00000000000E+00 0. -1.
</event>
<event>
 7    1  0.2878477E-009  0.1928134E+03  0.7561462E-02  0.1155948E+00
         -1   -1    0    0    0  501 -0.00000000000E+00  0.00000000000E+00  0.20103491978E+02  0.20103491978E+02  0.00000000000E+00 0.  1.
          1   -1    0    0  501    0  0.00000000000E+00 -0.00000000000E+00 -0.21218337455E+04  0.21218337455E+04  0.00000000000E+00 0. -1.
         25    2    1    2    0    0 -0.12140934450E+03 -0.11864017271E+03 -0.12880645785E+04  0.13052098672E+04  0.12508684773E+03 0.  0.
          5    1    3    3  502    0 -0.10769344816E+03 -0.40501266943E+02 -0.99247012623E+03  0.99912594564E+03  0.41800000000E+01 0.  1.
         -5    1    3    3    0  502 -0.13715896342E+02 -0.78138905769E+02 -0.29559445225E+03  0.30608392151E+03  0.41800000000E+01 0.  1.
        -11    1    1    2    0    0 -0.72248861685E+01  0.39205471493E+02 -0.10992935597E+03  0.11693473085E+03  0.00000000000E+00 0. -1.
         11    1    1    2    0    0  0.12863423067E+03  0.79434701219E+02 -0.70373631909E+03  0.71979263949E+03  0.00000000000E+00 0.  1.
</event>
<event>
 7    1  0.2878477E-009  0.1398558E+03  0.7561462E-02  0.1213523E+00
         -1   -1    0    0    0  501 -0.00000000000E+00  0.00000000000E+00  0.24829802248E+02  0.24829802248E+02  0.00000000000E+00 0.  1.
          1   -1    0    0  501    0  0.00000000000E+00 -0.00000000000E+00 -0.89544038802E+03  0.89544038802E+03  0.00000000000E+00 0. -1.
         25    2    1    2    0    0  0.50726304911E+02 -0.83737002949E+02 -0.40859655050E+03  0.43838363805E+03  0.12507609428E+03 0.  0.
          5    1    3    3  502    0 -0.33704720128E+02 -0.71093625597E+01 -0.42203146688E+02  0.54636335760E+02  0.41800000000E+01 0.  1.
         -5    1    3    3    0  502  0.84431025039E+02 -0.76627640389E+02 -0.36639340381E+03  0.38374730229E+03  0.41800000000E+01 0.  1.
        -11    1    1    2    0    0 -0.57554313998E+02  0.11919959914E+02 -0.13902064568E+03  0.15093483504E+03  0.00000000000E+00 0.  1.
         11    1    1    2    0    0  0.68280090863E+01  0.71817043034E+02 -0.32299338960E+03  0.33095171718E+03  0.00000000000E+00 0. -1.
</event>
<event>
 7    1  0.2878477E-009  0.1111957E+03  0.7561462E-02  0.1258372E+00
          3   -1    0    0  501    0  0.00000000000E+00  0.00000000000E+00  0.10959338027E+03  0.10959338027E+03  0.00000000000E+00 0. -1.
         -3   -1    0    0    0  501 -0.00000000000E+00 -0.00000000000E+00 -0.16169759910E+03  0.16169759910E+03  0.00000000000E+00 0.  1.
         25    2    1    2    0    0 -0.15645343213E+02  0.73714889059E+02 -0.17601999740E+02  0.14708754583E+03  0.12508498755E+03 0.  0.
          5    1    3    3  502    0 -0.35500056162E+02  0.53906408784E+00  0.38602638738E+02  0.52613502974E+02  0.41800000000E+01 0. -1.
         -5    1    3    3    0  502  0.19854712949E+02  0.73175824971E+02 -0.56204638478E+02  0.94474042853E+02  0.41800000000E+01 0. -1.
        -11    1    1    2    0    0 -0.11877298996E+02  0.14240963460E+02 -0.25603330067E+02  0.31613379797E+02  0.00000000000E+00 0.  1.
         11    1    1    2    0    0  0.27522642209E+02 -0.87955852519E+02 -0.88988890202E+01  0.92590053744E+02  0.00000000000E+00 0. -1.
</event>
<event>
 7    1  0.2878477E-009  0.1181019E+03  0.7561462E-02  0.1246262E+00
          2   -1    0    0  501    0  0.00000000000E+00  0.00000000000E+00  0.37852947370E+02  0.37852947370E+02  0.00000000000E+00 0. -1.
         -2   -1    0    0    0  501 -0.00000000000E+00 -0.00000000000E+00 -0.50089057602E+03  0.50089057602E+03  0.00000000000E+00 0.  1.
         25    2    1    2    0    0  0.82321286694E+01  0.77761093516E+02 -0.19136040746E+03  0.24162142108E+03  0.12509016737E+03 0.  0.
          5    1    3    3  502    0  0.27892003775E+02 -0.16846509120E+02 -0.72353041420E+01  0.33639125585E+02  0.41800000000E+01 0.  1.
         -5    1    3    3    0  502 -0.19659875106E+02  0.94607602636E+02 -0.18412510332E+03  0.20798229549E+03  0.41800000000E+01 0.  1.
        -11    1    1    2    0    0 -0.33736107777E+02 -0.73368939557E+02 -0.25196805489E+03  0.26459218988E+03  0.00000000000E+00 0.  1.
         11    1    1    2    0    0  0.25503979107E+02 -0.43921539593E+01 -0.19709166293E+02  0.32529912429E+02  0.00000000000E+00 0. -1.
</event>
<event>
 7    1  0.2878477E-009  0.1965373E+03  0.7561462E-02  0.1152694E+00
          2   -1    0    0  501    0  0.00000000000E+00  0.00000000000E+00  0.82852526849E+03  0.82852526849E+03  0.00000000000E+00 0. -1.
         -2   -1    0    0    0  501 -0.00000000000E+00 -0.00000000000E+00 -0.55475996933E+02  0.55475996933E+02  0.00000000000E+00 0.  1.
         25    2    1    2    0    0  0.13552978828E+03 -0.10593741771E+03  0.25650699165E+03  0.33321931998E+03  0.12509283937E+03 0.  0.
          5    1    3    3  502    0  0.14893277139E+02  0.28099235537E+02  0.44612126908E+02  0.54946255641E+02  0.41800000000E+01 0. -1.
         -5    1    3    3    0  502  0.12063651114E+03 -0.13403665324E+03  0.21189486474E+03  0.27827306434E+03  0.41800000000E+01 0. -1.
        -11    1    1    2    0    0 -0.60996570498E+02  0.82278186330E+02  0.19971222520E+03  0.22444432373E+03  0.00000000000E+00 0.  1.
         11    1    1    2    0    0 -0.74533217783E+02  0.23659231376E+02  0.31683005471E+03  0.32633762172E+03  0.00000000000E+00 0. -1.
</event>
<event>
 7    1  0.2878477E-009  0.1261799E+03  0.7561462E-02  0.1233237E+00
          1   -1    0    0  501    0  0.00000000000E+00  0.00000000000E+00  0.11940397650E+03  0.11940397650E+03  0.00000000000E+00 0. -1.
         -1   -1    0    0    0  501 -0.00000000000E+00 -0.00000000000E+00 -0.26053248411E+03  0.26053248411E+03  0.00000000000E+00 0.  1.
         25    2    1    2    0    0 -0.89928921771E+02  0.69726000978E+02 -0.28932426186E+01  0.16912855991E+03  0.12508865952E+03 0.  0.
          5    1    3    3  502    0 -0.47393682301E+02  0.47911698587E+02 -0.62910353984E+02  0.92286927687E+02  0.41800000000E+01 0. -1.
         -5    1    3    3    0  502 -0.42535239470E+02  0.21814302391E+02  0.60017111365E+02  0.76841632220E+02  0.41800000000E+01 0. -1.
        -11    1    1    2    0    0  0.97778738270E+02 -0.39216661003E+02 -0.14436175691E+03  0.17871470285E+03  0.00000000000E+00 0.  1.
         11    1    1    2    0    0 -0.78498164987E+01 -0.30509339975E+02  0.61264919152E+01  0.32093197845E+02  0.00000000000E+00 0. -1.
</event>
<event>
 7    1  0.2878477E-009  0.2777672E+03  0.7561462E-02  0.1096915E+00
          2   -1    0    0  501    0  0.00000000000E+00  0.00000000000E+00  0.39215379133E+03  0.39215379133E+03  0.00000000000E+00 0.  1.
         -2   -1    0    0    0  501 -0.00000000000E+00 -0.00000000000E+00 -0.53820114249E+03  0.53820114249E+03  0.00000000000E+00 0. -1.
         25    2    1    2    0    0 -0.67961676572E+02 -0.26878448115E+03 -0.42770714331E+03  0.52482844170E+03  0.12509039129E+03 0.  0.
          5    1    3    3  502    0 -0.38789053765E+01 -0.48241515829E+02 -0.12248433117E+02  0.50097767118E+02  0.41800000000E+01 0. -1.
         -5    1    3    3    0  502 -0.64082771196E+02 -0.22054296532E+03 -0.41545871019E+03  0.47473067458E+03  0.41800000000E+01 0. -1.
        -11    1    1    2    0    0  0.26110184749E+02  0.10819654768E+03  0.17776725453E+03  0.20973657636E+03  0.00000000000E+00 0.  1.
         11    1    1    2    0    0  0.41851491823E+02  0.16058793347E+03  0.10389253762E+03  0.19578991577E+03  0.00000000000E+00 0. -1.
</event>
<event>
 7    1  0.4533604E-009  0.9357666E+02  0.7561462E-02  0.1294414E+00
         -1   -1    0    0    0  501 -0.00000000000E+00  0.00000000000E+00  0.33642807158E+03  0.33642807158E+03  0.00000000000E+00 0.  1.
          1   -1    0    0  501    0  0.00000000000E+00 -0.00000000000E+00 -0.54673171019E+02  0.54673171019E+02  0.00000000000E+00 0. -1.
         25    2    1    2    0    0 -0.25488546368E+02  0.64567210178E+02  0.95621908343E+02  0.17207366717E+03  0.12508879626E+03 0.  0.
          5    1    3    3  502    0  0.10136662310E+02  0.78401527525E+02  0.10595624111E+03  0.13226393640E+03  0.41800000000E+01 0.  1.
         -5    1    3    3    0  502 -0.35625208678E+02 -0.13834317347E+02 -0.10334332771E+02  0.39809730766E+02  0.41800000000E+01 0.  1.
        -11    1    1    2    0    0  0.17365323570E+02 -0.48973510980E+02  0.19320921994E+03  0.20007439094E+03  0.00000000000E+00 0.  1.
         11    1    1    2    0    0  0.81232227977E+01 -0.15593699199E+02 -0.70762277285E+01  0.18953184487E+02  0.00000000000E+00 0. -1.
</event>
<event>
 7    1  0.2878477E-009  0.9931940E+02  0.7561462E-02  0.1281734E+00
         -3   -1    0    0    0  501 -0.00000000000E+00  0.00000000000E+00  0.27674102994E+03  0.27674102994E+03  0.00000000000E+00 0.  1.
          3   -1    0    0  501    0  0.00000000000E+00 -0.00000000000E+00 -0.47743091226E+02  0.47743091226E+02  0.00000000000E+00 0. -1.
         25    2    1    2    0    0  0.77729924607E+01 -0.32206763962E+02  0.16024445181E+03  0.20596918370E+03  0.12508926909E+03 0.  0.
          5    1    3    3  502    0  0.56876470216E+02  0.16952029148E+02  0.66900731598E+02  0.89529237933E+02  0.41800000000E+01 0. -1.
         -5    1    3    3    0  502 -0.49103477756E+02 -0.49158793111E+02  0.93343720209E+02  0.11643994577E+03  0.41800000000E+01 0. -1.
        -11    1    1    2    0    0 -0.29458299870E+01 -0.18432499623E+02 -0.12632607390E+02  0.22539248571E+02  0.00000000000E+00 0. -1.
         11    1    1    2    0    0 -0.48271624737E+01  0.50639263585E+02  0.81386094297E+02  0.95975688895E+02  0.00000000000E+00 0.  1.
</event>
<event>
 7    1  0.2878477E-009  0.1033534E+03  0.7561462E-02  0.1273398E+00
         -1   -1    0    0    0  501 -0.00000000000E+00  0.00000000000E+00  0.83161688942E+03  0.83161688942E+03  0.00000000000E+00 0.  1.
          1   -1    0    0  501    0  0.00000000000E+00 -0.00000000000E+00 -0.15424563765E+02  0.15424563765E+02  0.00000000000E+00 0. -1.
         25    2    1    2    0    0 -0.24337621127E+01  0.32915348104E+02  0.42906140593E+03  0.44814782231E+03  0.12511369727E+03 0.  0.
          5    1    3    3  502    0 -0.53769860902E+02  0.24617419278E+02  0.33834683544E+03  0.34350148285E+03  0.41800000000E+01 0. -1.
         -5    1    3    3    0  502  0.51336098789E+02  0.82979288259E+01  0.90714570495E+02  0.10464633946E+03  0.41800000000E+01 0. -1.
        -11    1    1    2    0    0 -0.40668365182E+02  0.56785631629E+00  0.13884705491E+03  0.14468152282E+03  0.00000000000E+00 0.  1.
         11    1    1    2    0    0  0.43102127295E+02 -0.33483204420E+02  0.24828386481E+03  0.25421210806E+03  0.00000000000E+00 0. -1.
</event>
<event>
 7    1  0.2878477E-009  0.9407774E+02  0.7561462E-02  0.1293267E+00
          1   -1    0    0  501    0  0.00000000000E+00  0.00000000000E+00  0.89154652942E+02  0.89154652942E+02  0.00000000000E+00 0. -1.
         -1   -1    0    0    0  501 -0.00000000000E+00 -0.00000000000E+00 -0.19038155911E+03  0.19038155911E+03  0.00000000000E+00 0.  1.
         25    2    1    2    0    0  0.42539550074E+02  0.54890144833E+02 -0.63812341994E+02  0.15665397080E+03  0.12508361306E+03 0.  0.
          5    1    3    3  502    0  0.63160800227E+02  0.27360339280E+02 -0.89885314105E+02  0.11329040976E+03  0.41800000000E+01 0.  1.
         -5    1    3    3    0  502 -0.20621250153E+02  0.27529805553E+02  0.26072972110E+02  0.43363561043E+02  0.41800000000E+01 0.  1.
        -11    1    1    2    0    0 -0.35494311866E+02 -0.63907971377E+02 -0.61941747135E+02  0.95816778377E+02  0.00000000000E+00 0.  1.
         11    1    1    2    0    0 -0.70452382076E+01  0.90178265444E+01  0.24527182959E+02  0.27065462880E+02  0.00000000000E+00 0. -1.
</event>
<event>
 7    1  0.2878477E-009  0.1677900E+03  0.7561462E-02  0.1180172E+00
          1   -1    0    0  501    0  0.00000000000E+00  0.00000000000E+00  0.73990572311E+03  0.73990572311E+03  0.00000000000E+00 0. -1.
         -1   -1    0    0    0  501 -0.00000000000E+00 -0.00000000000E+00 -0.55514473392E+02  0.55514473392E+02  0.00000000000E+00 0.  1.
         25    2    1    2    0    0  0.96179593079E+02 -0.11367081829E+03  0.19185558275E+03  0.27317925263E+03  0.12508705122E+03 0.  0.
          5    1    3    3  502    0  0.10942965183E+03 -0.63978707530E+02  0.18007136602E+03  0.22025279335E+03  0.41800000000E+01 0. -1.
         -5    1    3    3    0  502 -0.13250058753E+02 -0.49692110760E+02  0.11784216730E+02  0.52926459287E+02  0.41800000000E+01 0. -1.
        -11    1    1    2    0    0 -0.73588774819E+02  0.11262879069E+03  0.47482241384E+03  0.49351481939E+03  0.00000000000E+00 0. -1.
         11    1    1    2    0    0 -0.22590818260E+02  0.10420275976E+01  0.17713253130E+02  0.28726124480E+02  0.00000000000E+00 0.  1.
</event>
<event>
 7    1  0.2878477E-009  0.1059432E+03  0.7561462E-02  0.1268272E+00
          2   -1    0    0  501    0  0.00000000000E+00  0.00000000000E+00  0.10986388434E+03  0.10986388434E+03  0.00000000000E+00 0. -1.
         -2   -1    0    0    0  501 -0.00000000000E+00 -0.00000000000E+00 -0.14302086038E+03  0.14302086038E+03  0.00000000000E+00 0.  1.
         25    2    1    2    0    0 -0.30541134803E+02 -0.13566528590E+01 -0.75681209514E+02  0.14936358156E+03  0.12508889879E+03 0.  0.
          5    1    3    3  502    0 -0.19676556615E+02 -0.57512818894E+02 -0.92920935135E+01  0.61633648433E+02  0.41800000000E+01 0.  1.
         -5    1    3    3    0  502 -0.10864578189E+02  0.56156166035E+02 -0.66389116000E+02  0.87729933126E+02  0.41800000000E+01 0.  1.
        -11    1    1    2    0    0  0.62498413523E+01  0.44047828431E+02  0.26846290616E+02  0.51961476367E+02  0.00000000000E+00 0. -1.
         11    1    1    2    0    0  0.24291293451E+02 -0.42691175572E+02  0.15677942861E+02  0.51559686787E+02  0.00000000000E+00 0.  1.
</event>
<event>
 7    1  0.2878477E-009  0.2403683E+03  0.7561462E-02  0.1119548E+00
         -1   -1    0    0    0  501 -0.00000000000E+00  0.00000000000E+00  0.77145809105E+02  0.77145809105E+02  0.00000000000E+00 0.  1.
          1   -1    0    0  501    0  0.00000000000E+00 -0.00000000000E+00 -0.86206771201E+03  0.86206771201E+03  0.00000000000E+00 0. -1.
         25    2    1    2    0    0  0.75552436840E+02  0.21986782285E+03 -0.35935018530E+03  0.44590368906E+03  0.12509002360E+03 0.  0.
          5    1    3    3  502    0  0.58370817032E+02  0.19171958508E+03 -0.20014435496E+03  0.28326451738E+03  0.41800000000E+01 0. -1.
         -5    1    3    3    0  502  0.17181619807E+02  0.28148237763E+02 -0.15920583034E+03  0.16263917168E+03  0.41800000000E+01 0. -1.
        -11    1    1    2    0    0  0.18519312603E+02 -0.38999484221E+02 -0.50730391072E+02  0.66614542610E+02  0.00000000000E+00 0.  1.
         11    1    1    2    0    0 -0.94071749443E+02 -0.18086833863E+03 -0.37484132653E+03  0.42669528944E+03  0.00000000000E+00 0. -1.
</event>
<event>
 7    1  0.2878477E-009  0.2318648E+03  0.7561462E-02  0.1125334E+00
          1   -1    0    0  501    0  0.00000000000E+00  0.00000000000E+00  0.21125335957E+04  0.21125335957E+04  0.00000000000E+00 0. -1.
         -1   -1    0    0    0  501 -0.00000000000E+00 -0.00000000000E+00 -0.51096634119E+02  0.51096634119E+02  0.00000000000E+00 0.  1.
         25    2    1    2    0    0 -0.14037233540E+03 -0.16847622075E+03  0.17687054566E+04  0.17866339248E+04  0.12511258802E+03 0.  0.
          5    1    3    3  502    0 -0.13717599812E+03 -0.88137706391E+02  0.94188386933E+03  0.95590177605E+03  0.41800000000E+01 0.  1.
         -5    1    3    3    0  502 -0.31963372804E+01 -0.80338514362E+02  0.82682158727E+03  0.83073214880E+03  0.41800000000E+01 0.  1.
        -11    1    1    2    0    0  0.67744754805E+02  0.66589310742E+02  0.19949174074E+03  0.22095348545E+03  0.00000000000E+00 0.  1.
         11    1    1    2    0    0  0.72627580595E+02  0.10188691001E+03  0.93239764272E+02  0.15604281956E+03  0.00000000000E+00 0. -1.
</event>
<event>
 7    1  0.2878477E-009  0.9733577E+02  0.7561462E-02  0.1286000E+00
          1   -1    0    0  501    0  0.00000000000E+00  0.00000000000E+00  0.16784055190E+03  0.16784055190E+03  0.00000000000E+00 0. -1.
         -1   -1    0    0    0  501 -0.00000000000E+00 -0.00000000000E+00 -0.89134719668E+02  0.89134719668E+02  0.00000000000E+00 0.  1.
         25    2    1    2    0    0 -0.52759403760E+02  0.47358611479E+01  0.53401613764E+02  0.14596261566E+03  0.12508944701E+03 0.  0.
          5    1    3    3  502    0  0.13784877752E+02  0.39834401678E+02 -0.14257806105E+02  0.44694069479E+02  0.41800000000E+01 0.  1.
         -5    1    3    3    0  502 -0.66544281511E+02 -0.35098540531E+02  0.67659419868E+02  0.10126854618E+03  0.41800000000E+01 0.  1.
        -11    1    1    2    0    0  0.55738983178E+02  0.14422492661E+02 -0.20626023698E+02  0.61157790950E+02  0.00000000000E+00 0.  1.
         11    1    1    2    0    0 -0.29795794188E+01 -0.19158353809E+02  0.45930242165E+02  0.49854864954E+02  0.00000000000E+00 0. -1.
</event>
<event>
 7    1  0.2878477E-009  0.9050960E+02  0.7561462E-02  0.1301622E+00
         -1   -1    0    0    0  501 -0.00000000000E+00  0.00000000000E+00  0.22725497036E+03  0.22725497036E+03  0.00000000000E+00 0.  1.
          1   -1    0    0  501    0  0.00000000000E+00 -0.00000000000E+00 -0.56486837179E+02  0.56486837179E+02  0.00000000000E+00 0. -1.
         25    2    1    2    0    0 -0.29033922800E+02 -0.11071461891E+02  0.84536641850E+02  0.15414070362E+03  0.12508943503E+03 0.  0.
          5    1    3    3  502    0  0.28538316716E+02  0.12159916984E+02  0.86394170605E+02  0.91889739452E+02  0.41800000000E+01 0. -1.
         -5    1    3    3    0  502 -0.57572239516E+02 -0.23231378875E+02 -0.18575287545E+01  0.62250964172E+02  0.41800000000E+01 0. -1.
        -11    1    1    2    0    0 -0.28359726877E+02  0.10062940202E+02  0.55760553722E+01  0.30604399480E+02  0.00000000000E+00 0. -1.
         11    1    1    2    0    0  0.57393649677E+02  0.10085216889E+01  0.80655435958E+02  0.98996704434E+02  0.00000000000E+00 0.  1.
</event>
<event>
 7    1  0.2878477E-009  0.2002647E+03  0.7561462E-02  0.1149516E+00
          1   -1    0    0  501    0  0.00000000000E+00  0.00000000000E+00  0.15034360627E+04  0.15034360627E+04  0.00000000000E+00 0. -1.
         -1   -1    0    0    0  501 -0.00000000000E+00 -0.00000000000E+00 -0.33470322400E+02  0.33470322400E+02  0.00000000000E+00 0.  1.
         25    2    1    2    0    0  0.70546353807E+02 -0.18151338473E+03  0.73665904109E+03  0.77216462513E+03  0.12509104133E+03 0.  0.
          5    1    3    3  502    0  0.82982861772E+02 -0.16398372735E+03  0.47098636455E+03  0.50559118483E+03  0.41800000000E+01 0.  1.
         -5    1    3    3    0  502 -0.12436507966E+02 -0.17529657379E+02  0.26567267653E+03  0.26657344030E+03  0.41800000000E+01 0.  1.
        -11    1    1    2    0    0 -0.23248740397E+02  0.66265759416E+02  0.12109905206E+03  0.13998798238E+03  0.00000000000E+00 0.  1.
         11    1    1    2    0    0 -0.47297613410E+02  0.11524762531E+03  0.61220764711E+03  0.62475377754E+03  0.00000000000E+00 0. -1.
</event>
<event>
 7    1  0.2878477E-009  0.1485591E+03  0.7561462E-02  0.1202255E+00
          1   -1    0    0  501    0  0.00000000000E+00  0.00000000000E+00  0.38492991601E+03  0.38492991601E+03  0.00000000000E+00 0. -1.
         -1   -1    0    0    0  501 -0.00000000000E+00 -0.00000000000E+00 -0.58746642288E+02  0.58746642288E+02  0.00000000000E+00 0.  1.
         25    2    1    2    0    0  0.10370394438E+03 -0.64700453710E+00  0.17951361260E+03  0.24212991610E+03  0.12508729939E+03 0.  0.
          5    1    3    3  502    0  0.23409367787E+02 -0.56496771483E+02  0.46327020086E+02  0.76834555236E+02  0.41800000000E+01 0. -1.
         -5    1    3    3    0  502  0.80294576591E+02  0.55849766946E+02  0.13318659251E+03  0.16529536086E+03  0.41800000000E+01 0. -1.
        -11    1    1    2    0    0 -0.74047919227E+02  0.43447177028E+02  0.97777502769E+02  0.13011991232E+03  0.00000000000E+00 0.  1.
         11    1    1    2    0    0 -0.29656025151E+02 -0.42800172491E+02  0.48892158352E+02  0.71426729879E+02  0.00000000000E+00 0. -1.
</event>
<event>
 7    1  0.2878477E-009  0.1210825E+03  0.7561462E-02  0.1241322E+00
          1   -1    0    0  501    0  0.00000000000E+00  0.00000000000E+00  0.12538809348E+04  0.12538809348E+04  0.00000000000E+00 0. -1.
         -1   -1    0    0    0  501 -0.00000000000E+00 -0.00000000000E+00 -0.21521566852E+02  0.21521566852E+02  0.00000000000E+00 0.  1.
         25    2    1    2    0    0 -0.25030422952E+02 -0.82090061093E+02  0.10009819997E+04  0.10124120656E+04  0.12509167299E+03 0.  0.
          5    1    3    3  502    0 -0.69828233942E+02 -0.74945121598E+02  0.58197431388E+03  0.59093513004E+03  0.41800000000E+01 0.  1.
         -5    1    3    3    0  502  0.44797810989E+02 -0.71449394949E+01  0.41900768582E+03  0.42147693555E+03  0.41800000000E+01 0.  1.
        -11    1    1    2    0    0  0.33895159907E+02  0.47319943882E+02  0.21642784353E+03  0.22411842943E+03  0.00000000000E+00 0. -1.
         11    1    1    2    0    0 -0.88647369544E+01  0.34770117212E+02  0.14949524773E+02  0.38872006677E+02  0.00000000000E+00 0.  1.
</event>
<event>
 7    1  0.2878477E-009  0.1194745E+03  0.7561462E-02  0.1243967E+00
          2   -1    0    0  501    0  0.00000000000E+00  0.00000000000E+00  0.33377856685E+03  0.33377856685E+03  0.00000000000E+00 0. -1.
         -2   -1    0    0    0  501 -0.00000000000E+00 -0.00000000000E+00 -0.64130606432E+02  0.64130606432E+02  0.00000000000E+00 0.  1.
         25    2    1    2    0    0 -0.89483045981E+02  0.35192150883E+02  0.16621246237E+03  0.22917188389E+03  0.12508983458E+03 0.  0.
          5    1    3    3  502    0 -0.59429271466E+02 -0.32771414226E+02  0.12930844186E+03  0.14609568588E+03  0.41800000000E+01 0.  1.
         -5    1    3    3    0  502 -0.30053774515E+02  0.67963565109E+02  0.36904020506E+02  0.83076198002E+02  0.41800000000E+01 0.  1.
        -11    1    1    2    0    0  0.37754062915E+02 -0.10392280422E+02  0.10425341137E+03  0.11136490714E+03  0.00000000000E+00 0. -1.
         11    1    1    2    0    0  0.51728983066E+02 -0.24799870460E+02 -0.81791332190E+00  0.57372382260E+02  0.00000000000E+00 0.  1.
</event>
<event>
 7    1  0.2878477E-009  0.7339483E+02  0.7561462E-02  0.1348915E+00
          1   -1    0    0  501    0  0.00000000000E+00  0.00000000000E+00  0.46768531853E+02  0.46768531853E+02  0.00000000000E+00 0. -1.
         -1   -1    0    0    0  501 -0.00000000000E+00 -0.00000000000E+00 -0.28172752104E+03  0.28172752104E+03  0.00000000000E+00 0.  1.
         25    2    1    2    0    0  0.93379764773E+01 -0.18693678597E+02 -0.20154174236E+03  0.23812499185E+03  0.12509111242E+03 0.  0.
          5    1    3    3  502    0 -0.31252068964E+02 -0.16758877580E+02 -0.34599252060E+01  0.35874716371E+02  0.41800000000E+01 0.  1.
         -5    1    3    3    0  502  0.40590045441E+02 -0.19348010175E+01 -0.19808181715E+03  0.20225027548E+03  0.41800000000E+01 0.  1.
        -11    1    1    2    0    0 -0.26755542613E+02  0.36544034882E+02 -0.44122336331E+02  0.63230578910E+02  0.00000000000E+00 0.  1.
         11    1    1    2    0    0  0.17417566136E+02 -0.17850356285E+02  0.10705089499E+02  0.27140482140E+02  0.00000000000E+00 0. -1.
</event>
<event>
 7    1  0.2878477E-009  0.2700325E+03  0.7561462E-02  0.1101261E+00
          1   -1    0    0  501    0  0.00000000000E+00  0.00000000000E+00  0.91618648982E+03  0.91618648982E+03  0.00000000000E+00 0. -1.
         -1   -1    0    0    0  501 -0.00000000000E+00 -0.00000000000E+00 -0.93620880615E+02  0.93620880615E+02  0.00000000000E+00 0.  1.
         25    2    1    2    0    0 -0.20111352623E+03  0.17090851450E+03  0.52701471126E+03  0.60253493331E+03  0.12508984458E+03 0.  0.
          5    1    3    3  502    0 -0.13712011628E+03  0.16038879205E+03  0.30282692106E+03  0.36911801286E+03  0.41800000000E+01 0.  1.
         -5    1    3    3    0  502 -0.63993409956E+02  0.10519722457E+02  0.22418779020E+03  0.23341692045E+03  0.41800000000E+01 0.  1.
        -11    1    1    2    0    0  0.85241264694E+02 -0.67772951259E+02  0.19209099970E+03  0.22081258636E+03  0.00000000000E+00 0.  1.
         11    1    1    2    0    0  0.11587226154E+03 -0.10313556324E+03  0.10345989824E+03  0.18645985076E+03  0.00000000000E+00 0. -1.
</event>
<event>
 7    1  0.2878477E-009  0.2046809E+03  0.7561462E-02  0.1145849E+00
         -1   -1    0    0    0  501 -0.00000000000E+00  0.00000000000E+00  0.22541230755E+03  0.22541230755E+03  0.00000000000E+00 0.  1.
          1   -1    0    0  501    0  0.00000000000E+00 -0.00000000000E+00 -0.28917924862E+03  0.28917924862E+03  0.00000000000E+00 0. -1.
         25    2    1    2    0    0 -0.10976310755E+03  0.16828162629E+03  0.80696639998E+02  0.25005402851E+03  0.12509366068E+03 0.  0.
          5    1    3    3  502    0  0.54308682519E+01  0.14162877779E+02  0.53401424055E+02  0.55671051077E+02  0.41800000000E+01 0.  1.
         -5    1    3    3    0  502 -0.11519397580E+03  0.15411874851E+03  0.27295215944E+02  0.19438297743E+03  0.41800000000E+01 0.  1.
        -11    1    1    2    0    0  0.77123499911E+02 -0.10947404603E+03 -0.14486555427E+03  0.19727805202E+03  0.00000000000E+00 0. -1.
         11    1    1    2    0    0  0.32639607637E+02 -0.58807580252E+02  0.40197319607E+00  0.67259475646E+02  0.00000000000E+00 0.  1.
</event>
<event>
 7    1  0.2878477E-009  0.9017044E+02  0.7561462E-02  0.1302439E+00
         -2   -1    0    0    0  501 -0.00000000000E+00  0.00000000000E+00  0.35928376386E+03  0.35928376386E+03  0.00000000000E+00 0.  1.
          2   -1    0    0  501    0  0.00000000000E+00 -0.00000000000E+00 -0.77175019474E+02  0.77175019474E+02  0.00000000000E+00 0. -1.
         25    2    1    2    0    0  0.20182733027E+02  0.63875236878E+02  0.10467749343E+02  0.14228800262E+03  0.12509561669E+03 0.  0.
          5    1    3    3  502    0  0.18658015835E+02  0.23296870956E+02 -0.56398229811E+02  0.63946059120E+02  0.41800000000E+01 0. -1.
         -5    1    3    3    0  502  0.15247171916E+01  0.40578365923E+02  0.66865979154E+02  0.78341943502E+02  0.41800000000E+01 0. -1.
        -11    1    1    2    0    0 -0.34208615025E+01  0.21807298925E+02  0.30035464196E+02  0.37274517962E+02  0.00000000000E+00 0.  1.
         11    1    1    2    0    0 -0.16761871524E+02 -0.85682535804E+02  0.24160553085E+03  0.25689626275E+03  0.00000000000E+00 0. -1.
</event>
<event>
 7    1  0.2878477E-009  0.1106288E+03  0.7561462E-02  0.1259410E+00
          3   -1    0    0  501    0  0.00000000000E+00  0.00000000000E+00  0.13673062859E+03  0.13673062859E+03  0.00000000000E+00 0. -1.
         -3   -1    0    0    0  501 -0.00000000000E+00 -0.00000000000E+00 -0.11649410296E+03  0.11649410296E+03  0.00000000000E+00 0.  1.
         25    2    1    2    0    0  0.39889209815E+02  0.46608096514E+02  0.41831575117E+02  0.14546044011E+03  0.12508155436E+03 0.  0.
          5    1    3    3  502    0  0.55742360003E+02  0.82236345500E+02  0.36291290517E+02  0.10585158188E+03  0.41800000000E+01 0.  1.
         -5    1    3    3    0  502 -0.15853150188E+02 -0.35628248986E+02  0.55402846000E+01  0.39608858228E+02  0.41800000000E+01 0.  1.
        -11    1    1    2    0    0  0.68301466509E+01  0.81424229519E+01  0.21422774987E+02  0.23914122249E+02  0.00000000000E+00 0. -1.
         11    1    1    2    0    0 -0.46719356466E+02 -0.54750519466E+02 -0.43017824476E+02  0.83850169189E+02  0.00000000000E+00 0.  1.
</event>
<event>
 7    1  0.2878477E-009  0.8623237E+02  0.7561462E-02  0.1312241E+00
         -1   -1    0    0    0  501 -0.00000000000E+00  0.00000000000E+00  0.49628810981E+02  0.49628810981E+02  0.00000000000E+00 0.  1.
          1   -1    0    0  501    0  0.00000000000E+00 -0.00000000000E+00 -0.28679429686E+03  0.28679429686E+03  0.00000000000E+00 0. -1.
         25    2    1    2    0    0  0.38348843707E+02 -0.15373214658E+02 -0.98972590856E+02  0.16476972323E+03  0.12508604403E+03 0.  0.
          5    1    3    3  502    0  0.43280674318E+01 -0.57821038302E+02 -0.93283266863E+02  0.10991471655E+03  0.41800000000E+01 0. -1.
         -5    1    3    3    0  502  0.34020776275E+02  0.42447823644E+02 -0.56893239930E+01  0.54855006681E+02  0.41800000000E+01 0. -1.
        -11    1    1    2    0    0 -0.22939566091E+01 -0.13430266213E+02  0.97019199608E+01  0.16726073610E+02  0.00000000000E+00 0.  1.
         11    1    1    2    0    0 -0.36054887098E+02  0.28803480871E+02 -0.14789481499E+03  0.15492731100E+03  0.00000000000E+00 0. -1.
</event>
<event>
 7    1  0.2878477E-009  0.9601154E+02  0.7561462E-02  0.1288914E+00
          2   -1    0    0  501    0  0.00000000000E+00  0.00000000000E+00  0.13845524846E+03  0.13845524846E+03  0.00000000000E+00 0.  1.
         -2   -1    0    0    0  501 -0.00000000000E+00 -0.00000000000E+00 -0.99560238790E+02  0.99560238790E+02  0.00000000000E+00 0. -1.
         25    2    1    2    0    0 -0.12453350180E+02 -0.13606915146E+02 -0.19590806421E+02  0.12795060243E+03  0.12508925972E+03 0.  0.
          5    1    3    3  502    0 -0.73111273747E+01 -0.66499628655E+02  0.87154503415E+01  0.67595004766E+02  0.41800000000E+01 0.  1.
         -5    1    3    3    0  502 -0.51422228055E+01  0.52892713509E+02 -0.28306256763E+02  0.60355597666E+02  0.41800000000E+01 0.  1.
        -11    1    1    2    0    0 -0.27653304084E+02  0.15185339325E+02  0.62212514221E+02  0.69754545966E+02  0.00000000000E+00 0.  1.
         11    1    1    2    0    0  0.40106654265E+02 -0.15784241796E+01 -0.37266981310E+01  0.40310338849E+02  0.00000000000E+00 0. -1.
</event>
<event>
 7    1  0.2878477E-009  0.1172212E+03  0.7561462E-02  0.1247753E+00
          1   -1    0    0  501    0  0.00000000000E+00  0.00000000000E+00  0.21284767581E+03  0.21284767581E+03  0.00000000000E+00 0. -1.
         -1   -1    0    0    0  501 -0.00000000000E+00 -0.00000000000E+00 -0.65687052419E+02  0.65687052419E+02  0.00000000000E+00 0.  1.
         25    2    1    2    0    0 -0.52484725845E+02  0.82705055312E+00  0.76911003848E+02  0.15594305760E+03  0.12509038428E+03 0.  0.
          5    1    3    3  502    0 -0.99379012175E+01 -0.60137575074E+02  0.31684894049E+02  0.68823649477E+02  0.41800000000E+01 0. -1.
         -5    1    3    3    0  502 -0.42546824627E+02  0.60964625627E+02  0.45226109799E+02  0.87119408120E+02  0.41800000000E+01 0. -1.
        -11    1    1    2    0    0 -0.21716268252E+02  0.99832388481E+01  0.82167936894E+01  0.25274039313E+02  0.00000000000E+00 0. -1.
         11    1    1    2    0    0  0.74200994097E+02 -0.10810289401E+02  0.62032825848E+02  0.97317631314E+02  0.00000000000E+00 0.  1.
</event>
<event>
 7    1  0.2878477E-009  0.7716210E+02  0.7561462E-02  0.1337303E+00
         -1   -1    0    0    0  501 -0.00000000000E+00  0.00000000000E+00  0.68570470154E+02  0.68570470154E+02  0.00000000000E+00 0. -1.
          1   -1    0    0  501    0  0.00000000000E+00 -0.00000000000E+00 -0.21296186295E+03  0.21296186295E+03  0.00000000000E+00 0.  1.
         25    2    1    2    0    0 -0.25055328780E+02  0.21455949039E+02 -0.12809303019E+03  0.18205314493E+03  0.12508955170E+03 0.  0.
          5    1    3    3  502    0 -0.46134699577E+02 -0.19748749478E+02 -0.12582267711E+03  0.13552579860E+03  0.41800000000E+01 0.  1.
         -5    1    3    3    0  502  0.21079370797E+02  0.41204698517E+02 -0.22703530789E+01  0.46527346326E+02  0.41800000000E+01 0.  1.
        -11    1    1    2    0    0  0.32482557504E+00 -0.30988724405E+02  0.31899533290E+02  0.44474563247E+02  0.00000000000E+00 0. -1.
         11    1    1    2    0    0  0.24730503205E+02  0.95327753653E+01 -0.48197895902E+02  0.55004624936E+02  0.00000000000E+00 0.  1.
</event>
<event>
 7    1  0.2878477E-009  0.1062835E+03  0.7561462E-02  0.1267611E+00
          2   -1    0    0  501    0  0.00000000000E+00  0.00000000000E+00  0.60928084429E+02  0.60928084429E+02  0.00000000000E+00 0. -1.
         -2   -1    0    0    0  501 -0.00000000000E+00 -0.00000000000E+00 -0.21274946401E+03  0.21274946401E+03  0.00000000000E+00 0.  1.
         25    2    1    2    0    0 -0.13581905751E+02  0.12764149344E+02 -0.12011769860E+03  0.17442238849E+03  0.12509003325E+03 0.  0.
          5    1    3    3  502    0  0.50042246904E+02  0.27054268779E+02 -0.34298593378E+02  0.66558439300E+02  0.41800000000E+01 0. -1.
         -5    1    3    3    0  502 -0.63624152655E+02 -0.14290119435E+02 -0.85819105222E+02  0.10786394919E+03  0.41800000000E+01 0. -1.
        -11    1    1    2    0    0  0.29917774068E+02 -0.45004029117E+02 -0.49085919232E+01  0.54263524734E+02  0.00000000000E+00 0.  1.
         11    1    1    2    0    0 -0.16335868317E+02  0.32239879773E+02 -0.26795089058E+02  0.44991635212E+02  0.00000000000E+00 0. -1.
</event>
<event>
 7    1  0.2878477E-009  0.1051416E+03  0.7561462E-02  0.1269841E+00
         -2   -1    0    0    0  501 -0.00000000000E+00  0.00000000000E+00  0.28894789805E+03  0.28894789805E+03  0.00000000000E+00 0.  1.
          2   -1    0    0  501    0  0.00000000000E+00 -0.00000000000E+00 -0.42518241578E+02  0.42518241578E+02  0.00000000000E+00 0. -1.
         25    2    1    2    0    0 -0.38157854817E+01  0.31463986900E+01  0.10269462906E+03  0.16191831445E+03  0.12508754405E+03 0.  0.
          5    1    3    3  502    0  0.61478835935E+01 -0.60334732838E+02  0.49746993156E+02  0.78551334727E+02  0.41800000000E+01 0.  1.
         -5    1    3    3    0  502 -0.99636690752E+01  0.63481131528E+02  0.52947635901E+02  0.83366979728E+02  0.41800000000E+01 0.  1.
        -11    1    1    2    0    0 -0.81507044287E+01  0.39743190392E+02  0.96252047142E+02  0.10445291640E+03  0.00000000000E+00 0.  1.
         11    1    1    2    0    0  0.11966489910E+02 -0.42889589082E+02  0.47482980269E+02  0.65094908769E+02  0.00000000000E+00 0. -1.
</event>
<event>
 7    1  0.2878477E-009  0.2326857E+03  0.7561462E-02  0.1124764E+00
         -1   -1    0    0    0  501 -0.00000000000E+00  0.00000000000E+00  0.89859950821E+03  0.89859950821E+03  0.00000000000E+00 0.  1.
          1   -1    0    0  501    0  0.00000000000E+00 -0.00000000000E+00 -0.70577855399E+02  0.70577855399E+02  0.00000000000E+00 0. -1.
         25    2    1    2    0    0  0.19279230032E+01 -0.22703834536E+03  0.42937073281E+03  0.50155444558E+03  0.12509000175E+03 0.  0.
          5    1    3    3  502    0  0.12367809152E+02 -0.11422204586E+03  0.97135783651E+02  0.15050737965E+03  0.41800000000E+01 0.  1.
         -5    1    3    3    0  502 -0.10439886149E+02 -0.11281629950E+03  0.33223494915E+03  0.35104706593E+03  0.41800000000E+01 0.  1.
        -11    1    1    2    0    0  0.27771156984E+02  0.17435238455E+03  0.34137234911E+03  0.38432417553E+03  0.00000000000E+00 0. -1.
         11    1    1    2    0    0 -0.29699079987E+02  0.52685960812E+02  0.57278570898E+02  0.83298742505E+02  0.00000000000E+00 0.  1.
</event>
<event>
 7    1  0.2878477E-009  0.1542491E+03  0.7561462E-02  0.1195347E+00
         -2   -1    0    0    0  501 -0.00000000000E+00  0.00000000000E+00  0.20382292146E+02  0.20382292146E+02  0.00000000000E+00 0.  1.
          2   -1    0    0  501    0  0.00000000000E+00 -0.00000000000E+00 -0.14243165328E+04  0.14243165328E+04  0.00000000000E+00 0. -1.
         25    2    1    2    0    0 -0.74824991223E+02  0.81718270978E+02 -0.10513598450E+04  0.10645564137E+04  0.12508468790E+03 0.  0.
          5    1    3    3  502    0 -0.40310796455E+02 -0.29741399871E+02 -0.30187272728E+03  0.30602961793E+03  0.41800000000E+01 0. -1.
         -5    1    3    3    0  502 -0.34514194768E+02  0.11145967085E+03 -0.74948711768E+03  0.75852679573E+03  0.41800000000E+01 0. -1.
        -11    1    1    2    0    0  0.38569054662E+02  0.12480440534E+02 -0.85254974700E+02  0.94402034324E+02  0.00000000000E+00 0.  1.
         11    1    1    2    0    0  0.36255936560E+02 -0.94198711512E+02 -0.26731942100E+03  0.28574037697E+03  0.00000000000E+00 0. -1.
</event>
<event>
 7    1  0.2878477E-009  0.8738907E+02  0.7561462E-02  0.1309301E+00
         -2   -1    0    0    0  501 -0.00000000000E+00  0.00000000000E+00  0.23879523504E+02  0.23879523504E+02  0.00000000000E+00 0. -1.
          2   -1    0    0  501    0  0.00000000000E+00 -0.00000000000E+00 -0.78162881468E+03  0.78162881468E+03  0.00000000000E+00 0.  1.
         25    2    1    2    0    0  0.59777442570E+02  0.17040284440E+02 -0.57724934884E+03  0.59390953144E+03  0.12509199362E+03 0.  0.
          5    1    3    3  502    0  0.65118092448E+02  0.99341708875E+01 -0.12330903872E+03  0.13986295130E+03  0.41800000000E+01 0. -1.
         -5    1    3    3    0  502 -0.53406498775E+01  0.71061135529E+01 -0.45394031012E+03  0.45404658014E+03  0.41800000000E+01 0. -1.
        -11    1    1    2    0    0  0.17133852531E+02 -0.13751050535E+02 -0.90680339379E+02  0.93303720415E+02  0.00000000000E+00 0.  1.
         11    1    1    2    0    0 -0.76911295101E+02 -0.32892339057E+01 -0.89819602962E+02  0.11829508633E+03  0.00000000000E+00 0. -1.
</event>
<event>
 7    1  0.2878477E-009  0.1072779E+03  0.7561462E-02  0.1265695E+00
         -1   -1    0    0    0  501 -0.00000000000E+00  0.00000000000E+00  0.26015820305E+02  0.26015820305E+02  0.00000000000E+00 0.  1.
          1   -1    0    0  501    0  0.00000000000E+00 -0.00000000000E+00 -0.81580754818E+03  0.81580754818E+03  0.00000000000E+00 0. -1.
         25    2    1    2    0    0 -0.22695113531E+02 -0.68177943208E+02 -0.61329514885E+03  0.63003288957E+03  0.12508877735E+03 0.  0.
          5    1    3    3  502    0 -0.61715120476E+02 -0.44316779551E+02 -0.52520524376E+03  0.53068894234E+03  0.41800000000E+01 0. -1.
         -5    1    3    3    0  502  0.39020006946E+02 -0.23861163657E+02 -0.88089905087E+02  0.99343947231E+02  0.41800000000E+01 0. -1.
        -11    1    1    2    0    0  0.32230789103E+02  0.10242143559E+02 -0.10033854767E+02  0.35276103985E+02  0.00000000000E+00 0. -1.
         11    1    1    2    0    0 -0.95356755718E+01  0.57935799648E+02 -0.16646272426E+03  0.17651437493E+03  0.00000000000E+00 0.  1.
</event>
<event>
 7    1  0.2878477E-009  0.9480935E+02  0.7561462E-02  0.1291606E+00
         -2   -1    0    0    0  501 -0.00000000000E+00  0.00000000000E+00  0.85122286879E+02  0.85122286879E+02  0.00000000000E+00 0.  1.
          2   -1    0    0  501    0  0.00000000000E+00 -0.00000000000E+00 -0.15552221210E+03  0.15552221210E+03  0.00000000000E+00 0. -1.
         25    2    1    2    0    0  0.28496937486E-01  0.41220148764E+01 -0.81888219683E+02  0.14956542237E+03  0.12508854155E+03 0.  0.
          5    1    3    3  502    0 -0.25531829404E+02  0.48837087163E+02 -0.31132728150E+01  0.55354315667E+02  0.41800000000E+01 0.  1.
         -5    1    3    3    0  502  0.25560326341E+02 -0.44715072287E+02 -0.78774946868E+02  0.94211106704E+02  0.41800000000E+01 0.  1.
        -11    1    1    2    0    0  0.19563318154E+02  0.34335225072E+02  0.23883672131E+02  0.46174244903E+02  0.00000000000E+00 0.  1.
         11    1    1    2    0    0 -0.19591815092E+02 -0.38457239948E+02 -0.12395377670E+02  0.44904831707E+02  0.00000000000E+00 0. -1.
</event>
<event>
 7    1  0.2878477E-009  0.9135691E+02  0.7561462E-02  0.1299599E+00
         -2   -1    0    0    0  501 -0.00000000000E+00  0.00000000000E+00  0.27222185376E+02  0.27222185376E+02  0.00000000000E+00 0.  1.
          2   -1    0    0  501    0  0.00000000000E+00 -0.00000000000E+00 -0.69860950017E+03  0.69860950017E+03  0.00000000000E+00 0. -1.
         25    2    1    2    0    0  0.64272828068E+02  0.10170837486E+02 -0.49788322082E+03  0.51746599101E+03  0.12509559510E+03 0.  0.
          5    1    3    3  502    0  0.34591715869E+02  0.21405547804E+02 -0.47807890458E+03  0.47982465098E+03  0.41800000000E+01 0. -1.
         -5    1    3    3    0  502  0.29681112200E+02 -0.11234710317E+02 -0.19804316238E+02  0.37641340026E+02  0.41800000000E+01 0. -1.
        -11    1    1    2    0    0 -0.51335090667E+02  0.35452963046E+02 -0.12916949058E+03  0.14344671979E+03  0.00000000000E+00 0. -1.
         11    1    1    2    0    0 -0.12937737401E+02 -0.45623800532E+02 -0.44334603399E+02  0.64918974750E+02  0.00000000000E+00 0.  1.
</event>
<event>
 7    1  0.2878477E-009  0.1453280E+03  0.7561462E-02  0.1206334E+00
         -4   -1    0    0    0  501 -0.00000000000E+00  0.00000000000E+00  0.14679048608E+04  0.14679048608E+04  0.00000000000E+00 0.  1.
          4   -1    0    0  501    0  0.00000000000E+00 -0.00000000000E+00 -0.20990443765E+02  0.20990443765E+02  0.00000000000E+00 0. -1.
         25    2    1    2    0    0 -0.11289632641E+03  0.59284888630E+01  0.10938922907E+04  0.11068100310E+04  0.12508946276E+03 0.  0.
          5    1    3    3  502    0 -0.10148791470E+03  0.49895293261E+02  0.92386541051E+03  0.93077070552E+03  0.41800000000E+01 0.  1.
         -5    1    3    3    0  502 -0.11408411712E+02 -0.43966804398E+02  0.17002688014E+03  0.17603932548E+03  0.41800000000E+01 0.  1.
        -11    1    1    2    0    0  0.95582856459E+01  0.22711360822E+02  0.18546820607E+02  0.30840740742E+02  0.00000000000E+00 0.  1.
         11    1    1    2    0    0  0.10333804077E+03 -0.28639849685E+02  0.33447530580E+03  0.35124453284E+03  0.00000000000E+00 0. -1.
</event>
<event>
 7    1  0.2878477E-009  0.1128606E+03  0.7561462E-02  0.1255362E+00
         -2   -1    0    0    0  501 -0.00000000000E+00  0.00000000000E+00  0.10758538956E+03  0.10758538956E+03  0.00000000000E+00 0.  1.
          2   -1    0    0  501    0  0.00000000000E+00 -0.00000000000E+00 -0.12231475530E+03  0.12231475530E+03  0.00000000000E+00 0. -1.
         25    2    1    2    0    0 -0.26583482895E+02  0.21735007161E+02 -0.87530145717E+01  0.13001409695E+03  0.12509179846E+03 0.  0.
          5    1    3    3  502    0  0.49154272309E+02 -0.25358198796E+01 -0.98300297648E+01  0.50365412278E+02  0.41800000000E+01 0.  1.
         -5    1    3    3    0  502 -0.75737755204E+02  0.24270827040E+02  0.10770151931E+01  0.79648684674E+02  0.41800000000E+01 0.  1.
        -11    1    1    2    0    0 -0.52720891257E+01 -0.52282488556E+02  0.89308738409E+01  0.53301163598E+02  0.00000000000E+00 0.  1.
         11    1    1    2    0    0  0.31855572021E+02  0.30547481395E+02 -0.14907225016E+02  0.46584884309E+02  0.00000000000E+00 0. -1.
</event>
<event>
 7    1  0.2878477E-009  0.2338506E+03  0.7561462E-02  0.1123959E+00
          1   -1    0    0  501    0  0.00000000000E+00  0.00000000000E+00  0.15815019425E+03  0.15815019425E+03  0.00000000000E+00 0. -1.
         -1   -1    0    0    0  501 -0.00000000000E+00 -0.00000000000E+00 -0.45388518495E+03  0.45388518495E+03  0.00000000000E+00 0.  1.
         25    2    1    2    0    0  0.15489722490E+03 -0.14382211813E+03 -0.29155541818E+03  0.38122197919E+03  0.12509070150E+03 0.  0.
          5    1    3    3  502    0  0.16571785504E+03 -0.15029553544E+03 -0.24061960148E+03  0.32858244090E+03  0.41800000000E+01 0.  1.
         -5    1    3    3    0  502 -0.10820630146E+02  0.64734173009E+01 -0.50935816701E+02  0.52639538289E+02  0.41800000000E+01 0.  1.
        -11    1    1    2    0    0 -0.39585883604E+02  0.99562224338E+02 -0.56310376459E+01  0.10729113328E+03  0.00000000000E+00 0.  1.
         11    1    1    2    0    0 -0.11531134129E+03  0.44259893797E+02  0.14514651235E+01  0.12352226674E+03  0.00000000000E+00 0. -1.
</event>
<event>
 7    1  0.3733396E-009  0.2529226E+03  0.7561462E-02  0.1111472E+00
          2   -1    0    0  501    0  0.00000000000E+00  0.00000000000E+00  0.16553298174E+04  0.16553298174E+04  0.00000000000E+00 0. -1.
         -2   -1    0    0    0  501 -0.00000000000E+00 -0.00000000000E+00 -0.42187803568E+02  0.42187803568E+02  0.00000000000E+00 0.  1.
         25    2    1    2    0    0 -0.17555405248E+03  0.15644318184E+03  0.66283232710E+03  0.71434434140E+03  0.12508976678E+03 0.  0.
          5    1    3    3  502    0 -0.17110379149E+02  0.79374577962E+02  0.13211740784E+03  0.15513081755E+03  0.41800000000E+01 0. -1.
         -5    1    3    3    0  502 -0.15844367334E+03  0.77068603881E+02  0.53071491926E+03  0.55921352385E+03  0.41800000000E+01 0. -1.
        -11    1    1    2    0    0  0.61168662505E+02 -0.10791113721E+03  0.55953290155E+03  0.57311734115E+03  0.00000000000E+00 0. -1.
         11    1    1    2    0    0  0.11438538998E+03 -0.48532044633E+02  0.39077678517E+03  0.41005593841E+03  0.00000000000E+00 0.  1.
</event>
<event>
 7    1  0.2878477E-009  0.7448755E+02  0.7561462E-02  0.1345465E+00
          1   -1    0    0  501    0  0.00000000000E+00  0.00000000000E+00  0.71124955525E+02  0.71124955525E+02  0.00000000000E+00 0. -1.
         -1   -1    0    0    0  501 -0.00000000000E+00 -0.00000000000E+00 -0.19039595101E+03  0.19039595101E+03  0.00000000000E+00 0.  1.
         25    2    1    2    0    0 -0.31291690933E+01  0.22783828813E+02 -0.10793427041E+03  0.16681078923E+03  0.12508852114E+03 0.  0.
          5    1    3    3  502    0 -0.17636194015E+02 -0.16750422207E+02  0.20185252049E+02  0.31883048532E+02  0.41800000000E+01 0. -1.
         -5    1    3    3    0  502  0.14507024921E+02  0.39534251020E+02 -0.12811952246E+03  0.13492774070E+03  0.41800000000E+01 0. -1.
        -11    1    1    2    0    0 -0.12409120521E+02 -0.49521119265E+02  0.15931782444E+02  0.53480362912E+02  0.00000000000E+00 0. -1.
         11    1    1    2    0    0  0.15538289615E+02  0.26737290452E+02 -0.27268507526E+02  0.41229754396E+02  0.00000000000E+00 0.  1.
</event>
<event>
 7    1  0.2878477E-009  0.1406100E+03  0.7561462E-02  0.1212511E+00
         -3   -1    0    0    0  501 -0.00000000000E+00  0.00000000000E+00  0.30359379256E+03  0.30359379256E+03  0.00000000000E+00 0.  1.
          3   -1    0    0  501    0  0.00000000000E+00 -0.00000000000E+00 -0.75095575112E+02  0.75095575112E+02  0.00000000000E+00 0. -1.
         25    2    1    2    0    0 -0.47199810826E+02  0.88052192282E+02  0.84367018385E+02  0.18095997415E+03  0.12509079800E+03 0.  0.
          5    1    3    3  502    0  0.22489993702E+01 -0.28500491093E+02  0.24298389529E+00  0.28894072608E+02  0.41800000000E+01 0.  1.
         -5    1    3    3    0  502 -0.49448810196E+02  0.11655268337E+03  0.84124034489E+02  0.15206590154E+03  0.41800000000E+01 0.  1.
        -11    1    1    2    0    0  0.16980016481E+02 -0.93425184344E+02  0.13619001730E+03  0.16602501872E+03  0.00000000000E+00 0.  1.
         11    1    1    2    0    0  0.30219794345E+02  0.53729920626E+01  0.79411817655E+01  0.31704374805E+02  0.00000000000E+00 0. -1.
</event>
<event>
 7    1  0.2878477E-009  0.8611611E+02  0.7561462E-02  0.1312539E+00
          1   -1    0    0  501    0  0.00000000000E+00  0.00000000000E+00  0.54817673134E+03  0.54817673134E+03  0.00000000000E+00 0. -1.
         -1   -1    0    0    0  501 -0.00000000000E+00 -0.00000000000E+00 -0.29405414419E+02  0.29405414419E+02  0.00000000000E+00 0.  1.
         25    2    1    2    0    0 -0.34929088395E+01  0.36596673901E+02  0.41445253502E+03  0.43448169287E+03  0.12510763647E+03 0.  0.
          5    1    3    3  502    0  0.48894503135E+02 -0.14988142274E+02  0.11201245893E+03  0.12320543901E+03  0.41800000000E+01 0. -1.
         -5    1    3    3    0  502 -0.52387411975E+02  0.51584816175E+02  0.30244007609E+03  0.31127625386E+03  0.41800000000E+01 0. -1.
        -11    1    1    2    0    0 -0.11724164564E+02 -0.26613692293E+02  0.11723194232E+03  0.12078523483E+03  0.00000000000E+00 0. -1.
         11    1    1    2    0    0  0.15217073403E+02 -0.99829816078E+01 -0.12913160424E+02  0.22315218056E+02  0.00000000000E+00 0.  1.
</event>
<event>
 7    1  0.2878477E-009  0.1338187E+03  0.7561462E-02  0.1221897E+00
          1   -1    0    0  501    0  0.00000000000E+00  0.00000000000E+00  0.98740289821E+02  0.98740289821E+02  0.00000000000E+00 0. -1.
         -1   -1    0    0    0  501 -0.00000000000E+00 -0.00000000000E+00 -0.21851686539E+03  0.21851686539E+03  0.00000000000E+00 0.  1.
         25    2    1    2    0    0  0.38387161302E+02  0.89644591223E+02 -0.80112187343E+02  0.17769366421E+03  0.12508936347E+03 0.  0.
          5    1    3    3  502    0 -0.12129991893E+02  0.10044362652E+03 -0.74188797949E+02  0.12552891680E+03  0.41800000000E+01 0. -1.
         -5    1    3    3    0  502  0.50517153196E+02 -0.10799035301E+02 -0.59233893934E+01  0.52164747410E+02  0.41800000000E+01 0. -1.
        -11    1    1    2    0    0 -0.30052474405E+02 -0.61935793622E+01 -0.46179971746E+02  0.55444579839E+02  0.00000000000E+00 0.  1.
         11    1    1    2    0    0 -0.83346868978E+01 -0.83451011861E+02  0.65155835174E+01  0.84118911161E+02  0.00000000000E+00 0. -1.
</event>
<event>
 7    1  0.2878477E-009  0.1078494E+03  0.7561462E-02  0.1264605E+00
          2   -1    0    0  501    0  0.00000000000E+00  0.00000000000E+00  0.75977711950E+03  0.75977711950E+03  0.00000000000E+00 0. -1.
         -2   -1    0    0    0  501 -0.00000000000E+00 -0.00000000000E+00 -0.19741049873E+02  0.19741049873E+02  0.00000000000E+00 0.  1.
         25    2    1    2    0    0 -0.47682836273E+02  0.30049537150E+02  0.45865336043E+03  0.47873495881E+03  0.12509048001E+03 0.  0.
          5    1    3    3  502    0 -0.59169221969E+02 -0.22296963628E+02  0.36740783350E+03  0.37283258968E+03  0.41800000000E+01 0. -1.
         -5    1    3    3    0  502  0.11486385696E+02  0.52346500778E+02  0.91245526934E+02  0.10590236912E+03  0.41800000000E+01 0. -1.
        -11    1    1    2    0    0  0.62330467906E+02 -0.45586812892E+02  0.16148660505E+03  0.17900047025E+03  0.00000000000E+00 0. -1.
         11    1    1    2    0    0 -0.14647631633E+02  0.15537275742E+02  0.11989610415E+03  0.12178274032E+03  0.00000000000E+00 0.  1.
</event>
<event>
 7    1  0.2878477E-009  0.2479772E+03  0.7561462E-02  0.1114590E+00
          2   -1    0    0  501    0  0.00000000000E+00  0.00000000000E+00  0.15859004527E+03  0.15859004527E+03  0.00000000000E+00 0. -1.
         -2   -1    0    0    0  501 -0.00000000000E+00 -0.00000000000E+00 -0.39653376139E+03  0.39653376139E+03  0.00000000000E+00 0.  1.
         25    2    1    2    0    0 -0.19371911970E+03  0.12229033681E+03 -0.12069782186E+03  0.28757252386E+03  0.12509184012E+03 0.  0.
          5    1    3    3  502    0  0.73649571004E+01 -0.11343746128E+02 -0.23156760251E+02  0.27140949037E+02  0.41800000000E+01 0.  1.
         -5    1    3    3    0  502 -0.20108407680E+03  0.13363408294E+03 -0.97541061605E+02  0.26043157483E+03  0.41800000000E+01 0.  1.
        -11    1    1    2    0    0  0.15143116360E+02 -0.41775006334E+02 -0.25642771793E+02  0.51303185793E+02  0.00000000000E+00 0.  1.
         11    1    1    2    0    0  0.17857600334E+03 -0.80515330479E+02 -0.91603122465E+02  0.21624809700E+03  0.00000000000E+00 0. -1.
</event>
<event>
 7    1  0.2878477E-009  0.1157767E+03  0.7561462E-02  0.1250231E+00
         -1   -1    0    0    0  501 -0.00000000000E+00  0.00000000000E+00  0.52172757320E+02  0.52172757320E+02  0.00000000000E+00 0. -1.
          1   -1    0    0  501    0  0.00000000000E+00 -0.00000000000E+00 -0.35793397703E+03  0.35793397703E+03  0.00000000000E+00 0.  1.
         25    2    1    2    0    0  0.56726308357E+02 -0.58104197938E+02 -0.19600782518E+03  0.24629060136E+03  0.12508405538E+03 0.  0.
          5    1    3    3  502    0  0.82498000357E+02 -0.71904722308E+02 -0.10944336987E+03  0.15482742897E+03  0.41800000000E+01 0. -1.
         -5    1    3    3    0  502 -0.25771692000E+02  0.13800524370E+02 -0.86564455307E+02  0.91463172392E+02  0.41800000000E+01 0. -1.
        -11    1    1    2    0    0 -0.31831604192E+02  0.29182064669E+01 -0.96750627268E+02  0.10189431206E+03  0.00000000000E+00 0.  1.
         11    1    1    2    0    0 -0.24894704165E+02  0.55185991471E+02 -0.13002767267E+02  0.61921820925E+02  0.00000000000E+00 0. -1.
</event>
<event>
 7    1  0.2878477E-009  0.1095643E+03  0.7561462E-02  0.1261379E+00
         -2   -1    0    0    0  501 -0.00000000000E+00  0.00000000000E+00  0.36182928713E+03  0.36182928713E+03  0.00000000000E+00 0. -1.
          2   -1    0    0  501    0  0.00000000000E+00 -0.00000000000E+00 -0.68008058139E+02  0.68008058139E+02  0.00000000000E+00 0.  1.
         25    2    1    2    0    0  0.50845303420E+02 -0.10730143509E+02  0.29628279576E+03  0.32577356473E+03  0.12507813379E+03 0.  0.
          5    1    3    3  502    0 -0.15111244234E+02  0.34956345676E+02  0.18253893696E+03  0.18651603607E+03  0.41800000000E+01 0.  1.
         -5    1    3    3    0  502  0.65956547654E+02 -0.45686489185E+02  0.11374385880E+03  0.13925752866E+03  0.41800000000E+01 0.  1.
        -11    1    1    2    0    0 -0.69213437795E+02 -0.13042959518E+02 -0.14129705308E+02  0.71835000776E+02  0.00000000000E+00 0. -1.
         11    1    1    2    0    0  0.18368134375E+02  0.23773103027E+02  0.11668138531E+02  0.32228779759E+02  0.00000000000E+00 0.  1.
</event>
<event>
 7    1  0.2878477E-009  0.1422238E+03  0.7561462E-02  0.1210368E+00
          1   -1    0    0  501    0  0.00000000000E+00  0.00000000000E+00  0.33058411396E+03  0.33058411396E+03  0.00000000000E+00 0. -1.
         -1   -1    0    0    0  501 -0.00000000000E+00 -0.00000000000E+00 -0.68127459358E+02  0.68127459358E+02  0.00000000000E+00 0.  1.
         25    2    1    2    0    0  0.42967204475E+02 -0.96959608200E+02  0.16731387685E+03  0.23428469755E+03  0.12509212539E+03 0.  0.
          5    1    3    3  502    0  0.59780230276E+02 -0.19799887864E+00  0.34823286891E+02  0.69309803386E+02  0.41800000000E+01 0.  1.
         -5    1    3    3    0  502 -0.16813025802E+02 -0.96761609321E+02  0.13249058996E+03  0.16497489416E+03  0.41800000000E+01 0.  1.
        -11    1    1    2    0    0 -0.14039689066E+02  0.96266523056E+02  0.46496414886E+02  0.10782519616E+03  0.00000000000E+00 0. -1.
         11    1    1    2    0    0 -0.28927515408E+02  0.69308514412E+00  0.48646362866E+02  0.56601679611E+02  0.00000000000E+00 0.  1.
</event>
<event>
 7    1  0.2878477E-009  0.1593688E+03  0.7561462E-02  0.1189411E+00
          1   -1    0    0  501    0  0.00000000000E+00  0.00000000000E+00  0.13713974192E+04  0.13713974192E+04  0.00000000000E+00 0. -1.
         -1   -1    0    0    0  501 -0.00000000000E+00 -0.00000000000E+00 -0.21757519784E+02  0.21757519784E+02  0.00000000000E+00 0.  1.
         25    2    1    2    0    0 -0.33452425463E+02 -0.13027567579E+03  0.72123684504E+03  0.74425913639E+03  0.12509300134E+03 0.  0.
          5    1    3    3  502    0  0.34708223949E+02 -0.52011507919E+02  0.13429279732E+03  0.14819543036E+03  0.41800000000E+01 0. -1.
         -5    1    3    3    0  502 -0.68160649412E+02 -0.78264167875E+02  0.58694404772E+03  0.59606370604E+03  0.41800000000E+01 0. -1.
        -11    1    1    2    0    0 -0.20295498337E+02  0.15748923236E+02  0.43951212694E+02  0.50908201040E+02  0.00000000000E+00 0.  1.
         11    1    1    2    0    0  0.53747923800E+02  0.11452675256E+03  0.58445184164E+03  0.59798760151E+03  0.00000000000E+00 0. -1.
</event>
<event>
 7    1  0.2878477E-009  0.1502326E+03  0.7561462E-02  0.1200188E+00
         -2   -1    0    0    0  501 -0.00000000000E+00  0.00000000000E+00  0.25912507649E+03  0.25912507649E+03  0.00000000000E+00 0.  1.
          2   -1    0    0  501    0  0.00000000000E+00 -0.00000000000E+00 -0.10524971555E+03  0.10524971555E+03  0.00000000000E+00 0. -1.
         25    2    1    2    0    0  0.95924274657E+02  0.79079541239E+02  0.88896429666E+02  0.19749724922E+03  0.12509015920E+03 0.  0.
          5    1    3    3  502    0  0.91779573587E+01  0.63936084577E+02  0.88118846555E+02  0.10933645929E+03  0.41800000000E+01 0. -1.
         -5    1    3    3    0  502  0.86746317298E+02  0.15143456662E+02  0.77758311075E+00  0.88160789924E+02  0.41800000000E+01 0. -1.
        -11    1    1    2    0    0 -0.72007320328E+00 -0.47164478330E+02 -0.19311783485E+00  0.47170370107E+02  0.00000000000E+00 0.  1.
         11    1    1    2    0    0 -0.95204201454E+02 -0.31915062909E+02  0.65172049106E+02  0.11970717272E+03  0.00000000000E+00 0. -1.
</event>
<event>
 7    1  0.3590557E-009  0.9032331E+02  0.7561462E-02  0.1302071E+00
          3   -1    0    0  501    0  0.00000000000E+00  0.00000000000E+00  0.26674929694E+03  0.26674929694E+03  0.00000000000E+00 0. -1.
         -3   -1    0    0    0  501 -0.00000000000E+00 -0.00000000000E+00 -0.52447014086E+02  0.52447014086E+02  0.00000000000E+00 0.  1.
         25    2    1    2    0    0  0.25568906770E+02 -0.23664241476E+02  0.16079315340E+03  0.20667782108E+03  0.12509004048E+03 0.  0.
          5    1    3    3  502    0  0.48080287737E+02 -0.49954334445E+02  0.38297706619E+02  0.79317944571E+02  0.41800000000E+01 0. -1.
         -5    1    3    3    0  502 -0.22511380967E+02  0.26290092969E+02  0.12249544678E+03  0.12735987650E+03  0.41800000000E+01 0. -1.
        -11    1    1    2    0    0  0.18329093436E+01  0.42840167549E+02 -0.69367222271E+01  0.43436823405E+02  0.00000000000E+00 0.  1.
         11    1    1    2    0    0 -0.27401816114E+02 -0.19175926073E+02  0.60445851683E+02  0.69081666546E+02  0.00000000000E+00 0. -1.
</event>
<event>
 7    1  0.2878477E-009  0.2099038E+03  0.7561462E-02  0.1141642E+00
         -3   -1    0    0    0  501 -0.00000000000E+00  0.00000000000E+00  0.26063217075E+03  0.26063217075E+03  0.00000000000E+00 0.  1.
          3   -1    0    0  501    0  0.00000000000E+00 -0.00000000000E+00 -0.20132778262E+03  0.20132778262E+03  0.00000000000E+00 0. -1.
         25    2    1    2    0    0 -0.11086063747E+03  0.16821733225E+03  0.35062189508E+02  0.23971673967E+03  0.12509039265E+03 0.  0.
          5    1    3    3  502    0 -0.26965723110E+02  0.34679320349E+02  0.65567913760E+02  0.79034354540E+02  0.41800000000E+01 0.  1.
         -5    1    3    3    0  502 -0.83894914365E+02  0.13353801190E+03 -0.30505724252E+02  0.16068238513E+03  0.41800000000E+01 0.  1.
        -11    1    1    2    0    0  0.78616711107E+02 -0.45066692397E+02  0.28125367641E+02  0.94882191868E+02  0.00000000000E+00 0.  1.
         11    1    1    2    0    0  0.32243926368E+02 -0.12315063985E+03 -0.38831690182E+01  0.12736102184E+03  0.00000000000E+00 0. -1.
</event>
<event>
 7    1  0.2878477E-009  0.1655758E+03  0.7561462E-02  0.1182542E+00
          4   -1    0    0  501    0  0.00000000000E+00  0.00000000000E+00  0.56670110390E+03  0.56670110390E+03  0.00000000000E+00 0. -1.
         -4   -1    0    0    0  501 -0.00000000000E+00 -0.00000000000E+00 -0.64629786631E+02  0.64629786631E+02  0.00000000000E+00 0.  1.
         25    2    1    2    0    0 -0.11716132132E+03 -0.39539330276E+02  0.10816654207E+03  0.20648972596E+03  0.12509145555E+03 0.  0.
          5    1    3    3  502    0  0.74721473375E+01  0.30989718045E+02  0.25885710192E+02  0.41276361303E+02  0.41800000000E+01 0. -1.
         -5    1    3    3    0  502 -0.12463346866E+03 -0.70529048320E+02  0.82280831875E+02  0.16521336465E+03  0.41800000000E+01 0. -1.
        -11    1    1    2    0    0  0.76265836078E+02 -0.24191537210E+02  0.24590721377E+03  0.25859633797E+03  0.00000000000E+00 0. -1.
         11    1    1    2    0    0  0.40895485243E+02  0.63730867485E+02  0.14799756143E+03  0.16624482661E+03  0.00000000000E+00 0.  1.
</event>
<event>
 7    1  0.2878477E-009  0.1112517E+03  0.7561462E-02  0.1258269E+00
          1   -1    0    0  501    0  0.00000000000E+00  0.00000000000E+00  0.15071655472E+03  0.15071655472E+03  0.00000000000E+00 0. -1.
         -1   -1    0    0    0  501 -0.00000000000E+00 -0.00000000000E+00 -0.10762438410E+03  0.10762438410E+03  0.00000000000E+00 0.  1.
         25    2    1    2    0    0 -0.47865038023E+02 -0.36030000340E+02 -0.77452398816E+01  0.13890949945E+03  0.12508652008E+03 0.  0.
          5    1    3    3  502    0 -0.41023036854E+02  0.33521617313E+02  0.28252205223E+02  0.60185113442E+02  0.41800000000E+01 0. -1.
         -5    1    3    3    0  502 -0.68420011690E+01 -0.69551617653E+02 -0.35997445105E+02  0.78724386008E+02  0.41800000000E+01 0. -1.
        -11    1    1    2    0    0 -0.20180705174E+02  0.22034140857E+02 -0.50102612528E+01  0.30296318959E+02  0.00000000000E+00 0.  1.
         11    1    1    2    0    0  0.68045743197E+02  0.13995859483E+02  0.55847671758E+02  0.89135120410E+02  0.00000000000E+00 0. -1.
</event>
<event>
 7    1  0.2878477E-009  0.1244344E+03  0.7561462E-02  0.1235956E+00
          2   -1    0    0  501    0  0.00000000000E+00  0.00000000000E+00  0.85337666959E+02  0.85337666959E+02  0.00000000000E+00 0. -1.
         -2   -1    0    0    0  501 -0.00000000000E+00 -0.00000000000E+00 -0.32286956843E+03  0.32286956843E+03  0.00000000000E+00 0.  1.
         25    2    1    2    0    0 -0.50855572060E+02  0.68246361994E+02 -0.24118936530E+03  0.28471933428E+03  0.12509570034E+03 0.  0.
          5    1    3    3  502    0 -0.17192251831E+02  0.10187827941E+03 -0.17043275290E+03  0.19934781915E+03  0.41800000000E+01 0.  1.
         -5    1    3    3    0  502 -0.33663320229E+02 -0.33631917412E+02 -0.70756612394E+02  0.85371515127E+02  0.41800000000E+01 0.  1.
        -11    1    1    2    0    0 -0.44680359933E+00 -0.38283524127E+02 -0.35598436845E+02  0.52278834712E+02  0.00000000000E+00 0.  1.
         11    1    1    2    0    0  0.51302375660E+02 -0.29962837867E+02  0.39255900665E+02  0.71209066406E+02  0.00000000000E+00 0. -1.
</event>
<event>
 7    1  0.2878477E-009  0.1107380E+03  0.7561462E-02  0.1259209E+00
         -2   -1    0    0    0  501 -0.00000000000E+00  0.00000000000E+00  0.15165895319E+03  0.15165895319E+03  0.00000000000E+00 0.  1.
          2   -1    0    0  501    0  0.00000000000E+00 -0.00000000000E+00 -0.13664567797E+03  0.13664567797E+03  0.00000000000E+00 0. -1.
         25    2    1    2    0    0  0.43669020525E+02  0.78237164278E+02  0.41411136212E+02  0.15934506615E+03  0.12509168908E+03 0.  0.
          5    1    3    3  502    0  0.61482371679E+02  0.24859465676E+02 -0.26070372127E+02  0.71380752054E+02  0.41800000000E+01 0. -1.
         -5    1    3    3    0  502 -0.17813351154E+02  0.53377698601E+02  0.67481508340E+02  0.87964314100E+02  0.41800000000E+01 0. -1.
        -11    1    1    2    0    0 -0.42649093812E+02 -0.34514419710E+02  0.25995111533E+02  0.60711911472E+02  0.00000000000E+00 0.  1.
         11    1    1    2    0    0 -0.10199267129E+01 -0.43722744567E+02 -0.52392972523E+02  0.68247653534E+02  0.00000000000E+00 0. -1.
</event>
<event>
 7    1  0.2878477E-009  0.8285472E+02  0.7561462E-02  0.1321140E+00
          2   -1    0    0  501    0  0.00000000000E+00  0.00000000000E+00  0.16950896337E+03  0.16950896337E+03  0.00000000000E+00 0. -1.
         -2   -1    0    0    0  501 -0.00000000000E+00 -0.00000000000E+00 -0.76329204926E+02  0.76329204926E+02  0.00000000000E+00 0.  1.
         25    2    1    2    0    0 -0.55598221664E+00  0.73317925461E+01  0.36220100160E+02  0.13043554795E+03  0.12508985656E+03 0.  0.
          5    1    3    3  502    0 -0.55054768930E+02  0.10953855825E+02  0.48494968600E+02  0.74298377633E+02  0.41800000000E+01 0.  1.
         -5    1    3    3    0  502  0.54498786713E+02 -0.36220632790E+01 -0.12274868440E+02  0.56137170314E+02  0.41800000000E+01 0.  1.
        -11    1    1    2    0    0 -0.22141411036E+02  0.11680327774E+02 -0.20577140332E+02  0.32405105212E+02  0.00000000000E+00 0.  1.
         11    1    1    2    0    0  0.22697393252E+02 -0.19012120320E+02  0.77536798611E+02  0.82997515134E+02  0.00000000000E+00 0. -1.
</event>
<event>
 7    1  0.2878477E-009  0.1195081E+03  0.7561462E-02  0.1243911E+00
         -1   -1    0    0    0  501 -0.00000000000E+00  0.00000000000E+00  0.54132766077E+02  0.54132766077E+02  0.00000000000E+00 0.  1.
          1   -1    0    0  501    0  0.00000000000E+00 -0.00000000000E+00 -0.34466451046E+03  0.34466451046E+03  0.00000000000E+00 0. -1.
         25    2    1    2    0    0  0.51218023701E+02 -0.63791741136E+02 -0.13542420734E+03  0.20169524518E+03  0.12509429965E+03 0.  0.
          5    1    3    3  502    0 -0.21277925550E+02 -0.83190047915E-02 -0.94124249249E+02  0.96589838397E+02  0.41800000000E+01 0. -1.
         -5    1    3    3    0  502  0.72495949250E+02 -0.63783422131E+02 -0.41299958088E+02  0.10510540678E+03  0.41800000000E+01 0. -1.
        -11    1    1    2    0    0  0.16475447654E+02  0.48581417325E+02 -0.54035495591E+02  0.74507914133E+02  0.00000000000E+00 0.  1.
         11    1    1    2    0    0 -0.67693471355E+02  0.15210323811E+02 -0.10107204146E+03  0.12259411723E+03  0.00000000000E+00 0. -1.
</event>
<event>
 7    1  0.2878477E-009  0.2670485E+03  0.7561462E-02  0.1102981E+00
         -2   -1    0    0    0  501 -0.00000000000E+00  0.00000000000E+00  0.17681244294E+03  0.17681244294E+03  0.00000000000E+00 0.  1.
          2   -1    0    0  501    0  0.00000000000E+00 -0.00000000000E+00 -0.61596700757E+03  0.61596700757E+03  0.00000000000E+00 0. -1.
         25    2    1    2    0    0 -0.20842950217E+03 -0.15304803560E+03 -0.15334501316E+02  0.28766284583E+03  0.12509279501E+03 0.  0.
          5    1    3    3  502    0 -0.10755920508E+03 -0.59056466712E+02 -0.67598771388E+02  0.14015603858E+03  0.41800000000E+01 0.  1.
         -5    1    3    3    0  502 -0.10087029709E+03 -0.93991568892E+02  0.52264270072E+02  0.14750680725E+03  0.41800000000E+01 0.  1.
        -11    1    1    2    0    0  0.18895394312E+01  0.35867061276E+02 -0.74757868764E+02  0.82938262496E+02  0.00000000000E+00 0.  1.
         11    1    1    2    0    0  0.20653996274E+03  0.11718097433E+03 -0.34906219455E+03  0.42217834219E+03  0.00000000000E+00 0. -1.
</event>
<event>
 7    1  0.2878477E-009  0.2121950E+03  0.7561462E-02  0.1139840E+00
          1   -1    0    0  501    0  0.00000000000E+00  0.00000000000E+00  0.26161308978E+02  0.26161308978E+02  0.00000000000E+00 0. -1.
         -1   -1    0    0    0  501 -0.00000000000E+00 -0.00000000000E+00 -0.18585564660E+04  0.18585564660E+04  0.00000000000E+00 0.  1.
         25    2    1    2    0    0 -0.16320837436E+03  0.89302466336E+02 -0.11578057998E+04  0.11793166180E+04  0.12514596127E+03 0.  0.
          5    1    3    3  502    0  0.17975566374E+02  0.38819943186E+01 -0.19350373518E+03  0.19442057195E+03  0.41800000000E+01 0.  1.
         -5    1    3    3    0  502 -0.18118394074E+03  0.85420472017E+02 -0.96430206461E+03  0.98489604610E+03  0.41800000000E+01 0.  1.
        -11    1    1    2    0    0  0.15739126028E+01 -0.34453850703E+02 -0.89225342652E+02  0.95659326783E+02  0.00000000000E+00 0.  1.
         11    1    1    2    0    0  0.16163446176E+03 -0.54848615633E+02 -0.58536401459E+03  0.60974183015E+03  0.00000000000E+00 0. -1.
</event>
<event>
 7    1  0.2878477E-009  0.8347098E+02  0.7561462E-02  0.1319480E+00
          1   -1    0    0  501    0  0.00000000000E+00  0.00000000000E+00  0.41992708188E+03  0.41992708188E+03  0.00000000000E+00 0. -1.
         -1   -1    0    0    0  501 -0.00000000000E+00 -0.00000000000E+00 -0.34351977544E+02  0.34351977544E+02  0.00000000000E+00 0.  1.
         25    2    1    2    0    0  0.91046647668E+01  0.46879769006E+02  0.24436206053E+03  0.27864101095E+03  0.12508952273E+03 0.  0.
          5    1    3    3  502    0 -0.56244191047E+01  0.60569863762E+02  0.25001160635E+03  0.25733949988E+03  0.41800000000E+01 0.  1.
         -5    1    3    3    0  502  0.14729083872E+02 -0.13690094756E+02 -0.56495458238E+01  0.21301511076E+02  0.41800000000E+01 0.  1.
        -11    1    1    2    0    0 -0.21241173105E+02 -0.62291017038E+02  0.14145997842E+03  0.15602013887E+03  0.00000000000E+00 0. -1.
         11    1    1    2    0    0  0.12136508338E+02  0.15411248032E+02 -0.24693460749E+00  0.19617909604E+02  0.00000000000E+00 0.  1.
</event>
<event>
 7    1  0.2878477E-009  0.1111369E+03  0.7561462E-02  0.1258479E+00
          3   -1    0    0  501    0  0.00000000000E+00  0.00000000000E+00  0.27590370731E+02  0.27590370731E+02  0.00000000000E+00 0. -1.
         -3   -1    0    0    0  501 -0.00000000000E+00 -0.00000000000E+00 -0.56405552580E+03  0.56405552580E+03  0.00000000000E+00 0.  1.
         25    2    1    2    0    0 -0.60372751084E+02 -0.12866010296E+02 -0.31616234297E+03  0.34556835436E+03  0.12509379334E+03 0.  0.
          5    1    3    3  502    0 -0.93262853614E+02  0.16659044154E+02 -0.20513980226E+03  0.22599843912E+03  0.41800000000E+01 0.  1.
         -5    1    3    3    0  502  0.32890102530E+02 -0.29525054451E+02 -0.11102254071E+03  0.11956991524E+03  0.41800000000E+01 0.  1.
        -11    1    1    2    0    0  0.31736703503E+02  0.34709113003E+02 -0.19845783986E+03  0.20395454169E+03  0.00000000000E+00 0.  1.
         11    1    1    2    0    0  0.28636047582E+02 -0.21843102706E+02 -0.21844972244E+02  0.42123000478E+02  0.00000000000E+00 0. -1.
</event>
<event>
 7    1  0.2878477E-009  0.8951332E+02  0.7561462E-02  0.1304035E+00
          1   -1    0    0  501    0  0.00000000000E+00  0.00000000000E+00  0.63938227525E+02  0.63938227525E+02  0.00000000000E+00 0. -1.
         -1   -1    0    0    0  501 -0.00000000000E+00 -0.00000000000E+00 -0.21026491399E+03  0.21026491399E+03  0.00000000000E+00 0.  1.
         25    2    1    2    0    0 -0.40784346650E+01 -0.31820468328E+02 -0.10749781912E+03  0.16803086545E+03  0.12509762107E+03 0.  0.
          5    1    3    3  502    0  0.23677826842E+02 -0.48848296244E+02  0.12255270972E+01  0.54458882164E+02  0.41800000000E+01 0.  1.
         -5    1    3    3    0  502 -0.27756261507E+02  0.17027827916E+02 -0.10872334622E+03  0.11357198329E+03  0.41800000000E+01 0.  1.
        -11    1    1    2    0    0 -0.36856131355E+02 -0.43677271233E+01 -0.35618967797E+02  0.51440862411E+02  0.00000000000E+00 0.  1.
         11    1    1    2    0    0  0.40934566020E+02  0.36188195451E+02 -0.32098995523E+01  0.54731413652E+02  0.00000000000E+00 0. -1.
</event>
<event>
 7    1  0.2878477E-009  0.1320930E+03  0.7561462E-02  0.1224383E+00
         -1   -1    0    0    0  501 -0.00000000000E+00  0.00000000000E+00  0.40048383300E+02  0.40048383300E+02  0.00000000000E+00 0.  1.
          1   -1    0    0  501    0  0.00000000000E+00 -0.00000000000E+00 -0.45316672723E+03  0.45316672723E+03  0.00000000000E+00 0. -1.
         25    2    1    2    0    0 -0.70873377935E+02  0.31027499958E+02 -0.19060831249E+03  0.24075858613E+03  0.12508967404E+03 0.  0.
          5    1    3    3  502    0  0.34542438231E+02 -0.43574679289E+01 -0.35848825799E+02  0.50147565014E+02  0.41800000000E+01 0.  1.
         -5    1    3    3    0  502 -0.10541581617E+03  0.35384967887E+02 -0.15475948669E+03  0.19061102112E+03  0.41800000000E+01 0.  1.
        -11    1    1    2    0    0  0.57183845467E+02 -0.61780135564E+02 -0.14024566056E+03  0.16357146034E+03  0.00000000000E+00 0. -1.
         11    1    1    2    0    0  0.13689532468E+02  0.30752635607E+02 -0.82264370876E+02  0.88885064052E+02  0.00000000000E+00 0.  1.
</event>
<event>
 7    1  0.2878477E-009  0.7657744E+02  0.7561462E-02  0.1339055E+00
          1   -1    0    0  501    0  0.00000000000E+00  0.00000000000E+00  0.27389389926E+03  0.27389389926E+03  0.00000000000E+00 0. -1.
         -1   -1    0    0    0  501 -0.00000000000E+00 -0.00000000000E+00 -0.84836112116E+02  0.84836112116E+02  0.00000000000E+00 0.  1.
         25    2    1    2    0    0  0.41207121002E+02  0.27135616266E+01 -0.12830716267E+02  0.13236329569E+03  0.12510005807E+03 0.  0.
          5    1    3    3  502    0  0.41846752797E+02  0.16002120584E+02  0.50428675347E+02  0.67585074388E+02  0.41800000000E+01 0.  1.
         -5    1    3    3    0  502 -0.63963179458E+00 -0.13288558958E+02 -0.63259391614E+02  0.64778221305E+02  0.41800000000E+01 0.  1.
        -11    1    1    2    0    0  0.48077802795E+01  0.34623601166E+02  0.12194332074E+03  0.12685457020E+03  0.00000000000E+00 0. -1.
         11    1    1    2    0    0 -0.46014901282E+02 -0.37337162792E+02  0.79945182675E+02  0.99512145481E+02  0.00000000000E+00 0.  1.
</event>
<event>
 7    1  0.3977722E-009  0.9689356E+02  0.7561462E-02  0.1286967E+00
         -2   -1    0    0    0  501 -0.00000000000E+00  0.00000000000E+00  0.41632155888E+02  0.41632155888E+02  0.00000000000E+00 0.  1.
          2   -1    0    0  501    0  0.00000000000E+00 -0.00000000000E+00 -0.38621164179E+03  0.38621164179E+03  0.00000000000E+00 0. -1.
         25    2    1    2    0    0  0.61450521493E+02  0.22107911238E+02 -0.19299888223E+03  0.23907376601E+03  0.12507106268E+03 0.  0.
          5    1    3    3  502    0  0.85394169385E+02  0.26184526744E+02 -0.19482158781E+03  0.21436118371E+03  0.41800000000E+01 0.  1.
         -5    1    3    3    0  502 -0.23943647892E+02 -0.40766155061E+01  0.18227055762E+01  0.24712582300E+02  0.41800000000E+01 0.  1.
        -11    1    1    2    0    0 -0.13448320232E+02 -0.28293035240E+02 -0.13346438805E+03  0.13709156078E+03  0.00000000000E+00 0. -1.
         11    1    1    2    0    0 -0.48002201261E+02  0.61851240018E+01 -0.18116215625E+02  0.51678470889E+02  0.00000000000E+00 0.  1.
</event>
<event>
 7    1  0.2878477E-009  0.2144552E+03  0.7561462E-02  0.1138086E+00
         -1   -1    0    0    0  501 -0.00000000000E+00  0.00000000000E+00  0.69926911395E+02  0.69926911395E+02  0.00000000000E+00 0.  1.
          1   -1    0    0  501    0  0.00000000000E+00 -0.00000000000E+00 -0.68290176430E+03  0.68290176430E+03  0.00000000000E+00 0. -1.
         25    2    1    2    0    0 -0.18518998237E+03  0.18642069989E+02 -0.37432669840E+03  0.43636012271E+03  0.12508726237E+03 0.  0.
          5    1    3    3  502    0 -0.53466541121E+02  0.65230325009E+02 -0.13779325255E+03  0.16161101190E+03  0.41800000000E+01 0. -1.
         -5    1    3    3    0  502 -0.13172344125E+03 -0.46588255020E+02 -0.23653344585E+03  0.27474911081E+03  0.41800000000E+01 0. -1.
        -11    1    1    2    0    0  0.59702533796E+01  0.20403211723E+02 -0.10441876323E+02  0.23684757866E+02  0.00000000000E+00 0.  1.
         11    1    1    2    0    0  0.17921972899E+03 -0.39045281712E+02 -0.22820627818E+03  0.29278379512E+03  0.00000000000E+00 0. -1.
</event>
<event>
 7    1  0.2878477E-009  0.1118228E+03  0.7561462E-02  0.1257231E+00
         -2   -1    0    0    0  501 -0.00000000000E+00  0.00000000000E+00  0.45325710488E+02  0.45325710488E+02  0.00000000000E+00 0.  1.
          2   -1    0    0  501    0  0.00000000000E+00 -0.00000000000E+00 -0.43704008844E+03  0.43704008844E+03  0.00000000000E+00 0. -1.
         25    2    1    2    0    0  0.66966466555E+02  0.37902471677E+01 -0.31179391894E+03  0.34257523815E+03  0.12507386732E+03 0.  0.
          5    1    3    3  502    0  0.20328307266E+02 -0.41062564855E+02 -0.24575685069E+03  0.25002655133E+03  0.41800000000E+01 0.  1.
         -5    1    3    3    0  502  0.46638159289E+02  0.44852812023E+02 -0.66037068256E+02  0.92548686820E+02  0.41800000000E+01 0.  1.
        -11    1    1    2    0    0 -0.82221015547E+02  0.19921940011E+02 -0.48267195912E+02  0.97400725318E+02  0.00000000000E+00 0.  1.
         11    1    1    2    0    0  0.15254548992E+02 -0.23712187179E+02 -0.31653263093E+02  0.42389835458E+02  0.00000000000E+00 0. -1.
</event>
<event>
 7    1  0.2878477E-009  0.1731530E+03  0.7561462E-02  0.1174599E+00
          3   -1    0    0  501    0  0.00000000000E+00  0.00000000000E+00  0.40971345142E+03  0.40971345142E+03  0.00000000000E+00 0. -1.
         -3   -1    0    0    0  501 -0.00000000000E+00 -0.00000000000E+00 -0.90499747167E+02  0.90499747167E+02  0.00000000000E+00 0.  1.
         25    2    1    2    0    0  0.14091034017E+03  0.74903717334E+02  0.15334151596E+03  0.25421858006E+03  0.12508866893E+03 0.  0.
          5    1    3    3  502    0  0.64151185377E+02  0.67918553297E+02  0.13500426185E+02  0.94488297553E+02  0.41800000000E+01 0. -1.
         -5    1    3    3    0  502  0.76759154795E+02  0.69851640372E+01  0.13984108977E+03  0.15973028251E+03  0.41800000000E+01 0. -1.
        -11    1    1    2    0    0 -0.15681211941E+02 -0.43858550720E+02  0.74627753718E+02  0.87970304672E+02  0.00000000000E+00 0.  1.
         11    1    1    2    0    0 -0.12522912823E+03 -0.31045166614E+02  0.91244434578E+02  0.15802431385E+03  0.00000000000E+00 0. -1.
</event>
<event>
 7    1  0.2878477E-009  0.1013956E+03  0.7561462E-02  0.1277388E+00
          1   -1    0    0  501    0  0.00000000000E+00  0.00000000000E+00  0.13140143493E+04  0.13140143493E+04  0.00000000000E+00 0. -1.
         -1   -1    0    0    0  501 -0.00000000000E+00 -0.00000000000E+00 -0.20634466645E+02  0.20634466645E+02  0.00000000000E+00 0.  1.
         25    2    1    2    0    0 -0.79778369622E+01  0.62428378314E+02  0.10837237474E+04  0.10927332459E+04  0.12509131765E+03 0.  0.
          5    1    3    3  502    0  0.43012333175E+02  0.31953317529E+02  0.84451895670E+03  0.84622740202E+03  0.41800000000E+01 0.  1.
         -5    1    3    3    0  502 -0.50990170138E+02  0.30475060785E+02  0.23920479070E+03  0.24650584389E+03  0.41800000000E+01 0.  1.
        -11    1    1    2    0    0  0.36030926379E+02 -0.33473942836E+02  0.29599866667E+02  0.57401085455E+02  0.00000000000E+00 0.  1.
         11    1    1    2    0    0 -0.28053089417E+02 -0.28954435478E+02  0.18005626858E+03  0.18451448457E+03  0.00000000000E+00 0. -1.
</event>
<event>
 7    1  0.2878477E-009  0.9879978E+02  0.7561462E-02  0.1282840E+00
          1   -1    0    0  501    0  0.00000000000E+00  0.00000000000E+00  0.12090337060E+03  0.12090337060E+03  0.00000000000E+00 0. -1.
         -1   -1    0    0    0  501 -0.00000000000E+00 -0.00000000000E+00 -0.14841576027E+03  0.14841576027E+03  0.00000000000E+00 0.  1.
         25    2    1    2    0    0  0.70683617752E+02  0.27584495531E+02 -0.35736022256E+02  0.15060367383E+03  0.12508926842E+03 0.  0.
          5    1    3    3  502    0  0.60510050474E+02  0.77813437846E+01  0.38987183648E+02  0.72522330411E+02  0.41800000000E+01 0.  1.
         -5    1    3    3    0  502  0.10173567278E+02  0.19803151747E+02 -0.74723205904E+02  0.78081343424E+02  0.41800000000E+01 0.  1.
        -11    1    1    2    0    0 -0.58229500873E+02 -0.57226999871E+02 -0.91754612650E+01  0.82157126140E+02  0.00000000000E+00 0. -1.
         11    1    1    2    0    0 -0.12454116879E+02  0.29642504340E+02  0.17399093858E+02  0.36558330895E+02  0.00000000000E+00 0.  1.
</event>
<event>
 7    1  0.2878477E-009  0.1885893E+03  0.7561462E-02  0.1159740E+00
          1   -1    0    0  501    0  0.00000000000E+00  0.00000000000E+00  0.30674055923E+03  0.30674055923E+03  0.00000000000E+00 0. -1.
         -1   -1    0    0    0  501 -0.00000000000E+00 -0.00000000000E+00 -0.17563058066E+03  0.17563058066E+03  0.00000000000E+00 0.  1.
         25    2    1    2    0    0 -0.99409378044E+02  0.14750396081E+03  0.17136674679E+03  0.27686432551E+03  0.12509056694E+03 0.  0.
          5    1    3    3  502    0 -0.81581620175E+02  0.54340857670E+02  0.23086941070E+02  0.10079171003E+03  0.41800000000E+01 0.  1.
         -5    1    3    3    0  502 -0.17827757869E+02  0.93163103140E+02  0.14827980572E+03  0.17607261548E+03  0.41800000000E+01 0.  1.
        -11    1    1    2    0    0  0.67298490297E+02 -0.13264134830E+03  0.40654175803E+01  0.14879294907E+03  0.00000000000E+00 0. -1.
         11    1    1    2    0    0  0.32110887747E+02 -0.14862612513E+02 -0.44322185809E+02  0.56713865303E+02  0.00000000000E+00 0.  1.
</event>
<event>
 7    1  0.2878477E-009  0.1402821E+03  0.7561462E-02  0.1212950E+00
         -1   -1    0    0    0  501 -0.00000000000E+00  0.00000000000E+00  0.10102394917E+03  0.10102394917E+03  0.00000000000E+00 0.  1.
          1   -1    0    0  501    0  0.00000000000E+00 -0.00000000000E+00 -0.27224433933E+03  0.27224433933E+03  0.00000000000E+00 0. -1.
         25    2    1    2    0    0  0.55533514671E+02 -0.11051657626E+03 -0.80517499164E+02  0.19346892494E+03  0.12509705179E+03 0.  0.
          5    1    3    3  502    0  0.25719014436E+02 -0.76588494425E+02  0.19874625005E+02  0.83305091687E+02  0.41800000000E+01 0.  1.
         -5    1    3    3    0  502  0.29814500235E+02 -0.33928081831E+02 -0.10039212417E+03  0.11016383325E+03  0.41800000000E+01 0.  1.
        -11    1    1    2    0    0 -0.41296618845E+01  0.10213967774E+03 -0.50565664101E+02  0.11404584281E+03  0.00000000000E+00 0. -1.
         11    1    1    2    0    0 -0.51403852787E+02  0.83768985207E+01 -0.40137226887E+02  0.65753520760E+02  0.00000000000E+00 0.  1.
</event>
<event>
 7    1  0.2878477E-009  0.1184733E+03  0.7561462E-02  0.1245637E+00
         -2   -1    0    0    0  501 -0.00000000000E+00  0.00000000000E+00  0.21338566915E+03  0.21338566915E+03  0.00000000000E+00 0.  1.
          2   -1    0    0  501    0  0.00000000000E+00 -0.00000000000E+00 -0.10596829018E+03  0.10596829018E+03  0.00000000000E+00 0. -1.
         25    2    1    2    0    0  0.68846648105E+02 -0.23717523178E+02 -0.20754153786E+02  0.14622625905E+03  0.12509597146E+03 0.  0.
          5    1    3    3  502    0  0.86327554768E+02 -0.43555349561E+02  0.18675132761E+02  0.98568494821E+02  0.41800000000E+01 0.  1.
         -5    1    3    3    0  502 -0.17480906663E+02  0.19837826383E+02 -0.39429286548E+02  0.47657764226E+02  0.41800000000E+01 0.  1.
        -11    1    1    2    0    0 -0.42221573006E+02 -0.31109042995E+02  0.40079665757E+02  0.66006161761E+02  0.00000000000E+00 0. -1.
         11    1    1    2    0    0 -0.26625075099E+02  0.54826566174E+02  0.88091867000E+02  0.10712153852E+03  0.00000000000E+00 0.  1.
</event>
<event>
 7    1  0.2878477E-009  0.8967167E+02  0.7561462E-02  0.1303649E+00
          2   -1    0    0  501    0  0.00000000000E+00  0.00000000000E+00  0.53068880453E+03  0.53068880453E+03  0.00000000000E+00 0.  1.
         -2   -1    0    0    0  501 -0.00000000000E+00 -0.00000000000E+00 -0.24409703923E+02  0.24409703923E+02  0.00000000000E+00 0. -1.
         25    2    1    2    0    0 -0.23603055755E+02 -0.20193605628E+02  0.26545270512E+03  0.29508771319E+03  0.12508690527E+03 0.  0.
          5    1    3    3  502    0  0.36761572669E+02 -0.13064707878E+02  0.23841684766E+02  0.45912940981E+02  0.41800000000E+01 0. -1.
         -5    1    3    3    0  502 -0.60364628424E+02 -0.71288977509E+01  0.24161102036E+03  0.24917477221E+03  0.41800000000E+01 0. -1.
        -11    1    1    2    0    0  0.50012108578E+02  0.10937804623E+02  0.21790399084E+03  0.22383698487E+03  0.00000000000E+00 0.  1.
         11    1    1    2    0    0 -0.26409052823E+02  0.92558010055E+01  0.22922404647E+02  0.36173810389E+02  0.00000000000E+00 0. -1.
</event>
<event>
 7    1  0.2878477E-009  0.1756061E+03  0.7561462E-02  0.1172125E+00
         -2   -1    0    0    0  501 -0.00000000000E+00  0.00000000000E+00  0.11148445450E+03  0.11148445450E+03  0.00000000000E+00 0.  1.
          2   -1    0    0  501    0  0.00000000000E+00 -0.00000000000E+00 -0.36355170309E+03  0.36355170309E+03  0.00000000000E+00 0. -1.
         25    2    1    2    0    0  0.99205882883E+02  0.13519230632E+03 -0.16098418423E+03  0.26397268759E+03  0.12508759066E+03 0.  0.
          5    1    3    3  502    0  0.39774489221E+02  0.59296225961E+02  0.53035261276E+01  0.71719259584E+02  0.41800000000E+01 0.  1.
         -5    1    3    3    0  502  0.59431393662E+02  0.75896080362E+02 -0.16628771035E+03  0.19225342801E+03  0.41800000000E+01 0. -1.
        -11    1    1    2    0    0 -0.88974752974E+02 -0.59995455597E+02 -0.24427619638E+02  0.11005757566E+03  0.00000000000E+00 0.  1.
         11    1    1    2    0    0 -0.10231129909E+02 -0.75196850726E+02 -0.66655444724E+02  0.10100589433E+03  0.00000000000E+00 0. -1.
</event>
<event>
 7    1  0.2878477E-009  0.1608528E+03  0.7561462E-02  0.1187737E+00
         -1   -1    0    0    0  501 -0.00000000000E+00  0.00000000000E+00  0.14619303808E+03  0.14619303808E+03  0.00000000000E+00 0.  1.
          1   -1    0    0  501    0  0.00000000000E+00 -0.00000000000E+00 -0.23478531711E+03  0.23478531711E+03  0.00000000000E+00 0. -1.
         25    2    1    2    0    0 -0.12072633499E+03 -0.10453336923E+02 -0.13372442194E+03  0.21957603504E+03  0.12508914393E+03 0.  0.
          5    1    3    3  502    0 -0.91202482894E+02  0.51863655262E+02 -0.83790253972E+02  0.13433544091E+03  0.41800000000E+01 0.  1.
         -5    1    3    3    0  502 -0.29523852092E+02 -0.62316992185E+02 -0.49934167966E+02  0.85240594131E+02  0.41800000000E+01 0.  1.
        -11    1    1    2    0    0  0.12369974104E+03  0.30459872018E+02  0.19701904950E+02  0.12890925023E+03  0.00000000000E+00 0. -1.
         11    1    1    2    0    0 -0.29734060569E+01 -0.20006535095E+02  0.25430237956E+02  0.32493069916E+02  0.00000000000E+00 0.  1.
</event>
<event>
 7    1  0.2878477E-009  0.8558465E+02  0.7561462E-02  0.1313911E+00
          3   -1    0    0  501    0  0.00000000000E+00  0.00000000000E+00  0.10473128152E+03  0.10473128152E+03  0.00000000000E+00 0. -1.
         -3   -1    0    0    0  501 -0.00000000000E+00 -0.00000000000E+00 -0.12726320966E+03  0.12726320966E+03  0.00000000000E+00 0.  1.
         25    2    1    2    0    0 -0.22092740142E+02 -0.32498702524E+02 -0.11891870044E+02  0.13165563145E+03  0.12509010307E+03 0.  0.
          5    1    3    3  502    0 -0.50674997067E+02  0.10917542052E+02  0.34046567780E+02  0.62159385693E+02  0.41800000000E+01 0.  1.
         -5    1    3    3    0  502  0.28582256925E+02 -0.43416244576E+02 -0.45938437824E+02  0.69496245753E+02  0.41800000000E+01 0.  1.
        -11    1    1    2    0    0  0.18602130211E+02 -0.12157860336E+02 -0.40715831362E+02  0.46385684643E+02  0.00000000000E+00 0.  1.
         11    1    1    2    0    0  0.34906099311E+01  0.44656562861E+02  0.30075773272E+02  0.53953175088E+02  0.00000000000E+00 0. -1.
</event>
<event>
 7    1  0.2878477E-009  0.2632333E+03  0.7561462E-02  0.1105216E+00
         -1   -1    0    0    0  501 -0.00000000000E+00  0.00000000000E+00  0.63103591850E+02  0.63103591850E+02  0.00000000000E+00 0.  1.
          1   -1    0    0  501    0  0.00000000000E+00 -0.00000000000E+00 -0.12615644314E+04  0.12615644314E+04  0.00000000000E+00 0. -1.
         25    2    1    2    0    0 -0.22592036325E+03  0.11789619720E+03 -0.73748273852E+03  0.79023305704E+03  0.12509185021E+03 0.  0.
          5    1    3    3  502    0 -0.12664111928E+03  0.80141171964E+02 -0.58797406567E+03  0.60678789939E+03  0.41800000000E+01 0. -1.
         -5    1    3    3    0  502 -0.99279243961E+02  0.37755025238E+02 -0.14950867284E+03  0.18344515766E+03  0.41800000000E+01 0. -1.
        -11    1    1    2    0    0  0.14554466349E+02 -0.43977295019E+02 -0.86245274745E+02  0.97898326766E+02  0.00000000000E+00 0.  1.
         11    1    1    2    0    0  0.21136589690E+03 -0.73918902183E+02 -0.37473282625E+03  0.43653663940E+03  0.00000000000E+00 0. -1.
</event>
<event>
 7    1  0.2878477E-009  0.1021867E+03  0.7561462E-02  0.1275764E+00
         -2   -1    0    0    0  501 -0.00000000000E+00  0.00000000000E+00  0.10885849096E+03  0.10885849096E+03  0.00000000000E+00 0. -1.
          2   -1    0    0  501    0  0.00000000000E+00 -0.00000000000E+00 -0.10958892104E+03  0.10958892104E+03  0.00000000000E+00 0.  1.
         25    2    1    2    0    0  0.21871537186E-01 -0.33049740681E+01  0.15816531607E+02  0.12609983925E+03  0.12506031927E+03 0.  0.
          5    1    3    3  502    0  0.49040486795E+02 -0.30623116026E+02  0.33703228056E+02  0.67053147291E+02  0.41800000000E+01 0.  1.
         -5    1    3    3    0  502 -0.49018615257E+02  0.27318141958E+02 -0.17886696449E+02  0.59046691962E+02  0.41800000000E+01 0.  1.
        -11    1    1    2    0    0 -0.30476399827E+02  0.34843512101E+02 -0.14291528212E+02  0.48447178045E+02  0.00000000000E+00 0.  1.
         11    1    1    2    0    0  0.30454528289E+02 -0.31538538033E+02 -0.22554334797E+01  0.43900394700E+02  0.00000000000E+00 0. -1.
</event>
<event>
 7    1  0.2878477E-009  0.1495022E+03  0.7561462E-02  0.1201086E+00
          2   -1    0    0  501    0  0.00000000000E+00  0.00000000000E+00  0.96231918905E+03  0.96231918905E+03  0.00000000000E+00 0.  1.
         -2   -1    0    0    0  501 -0.00000000000E+00 -0.00000000000E+00 -0.28824865840E+02  0.28824865840E+02  0.00000000000E+00 0. -1.
         25    2    1    2    0    0  0.11370568580E+03 -0.51023469140E+02  0.44942833305E+03  0.48287289097E+03  0.12509206570E+03 0.  0.
          5    1    3    3  502    0  0.86572090687E+02  0.81674596212E+01  0.36988724693E+03  0.37999405538E+03  0.41800000000E+01 0. -1.
         -5    1    3    3    0  502  0.27133595110E+02 -0.59190928761E+02  0.79541086118E+02  0.10287883559E+03  0.41800000000E+01 0. -1.
        -11    1    1    2    0    0 -0.65234760198E+02 -0.12879088526E+02  0.14011549207E+03  0.15509286243E+03  0.00000000000E+00 0. -1.
         11    1    1    2    0    0 -0.48470925599E+02  0.63902557667E+02  0.34395049809E+03  0.35317830149E+03  0.00000000000E+00 0.  1.
</event>
<event>
 7    1  0.2878477E-009  0.1083883E+03  0.7561462E-02  0.1263584E+00
         -2   -1    0    0    0  501 -0.00000000000E+00  0.00000000000E+00  0.13374508919E+03  0.13374508919E+03  0.00000000000E+00 0.  1.
          2   -1    0    0  501    0  0.00000000000E+00 -0.00000000000E+00 -0.50853950293E+03  0.50853950293E+03  0.00000000000E+00 0. -1.
         25    2    1    2    0    0 -0.77594595664E+01  0.69459994206E+02  0.86149637055E+02  0.16719552274E+03  0.12509069850E+03 0.  0.
          5    1    3    3  502    0 -0.39339064696E+02  0.62389479235E+02 -0.12688590298E+01  0.73885665278E+02  0.41800000000E+01 0. -1.
         -5    1    3    3    0  502  0.31579605130E+02  0.70705149716E+01  0.87418496085E+02  0.93309857463E+02  0.41800000000E+01 0. -1.
        -11    1    1    2    0    0 -0.35679944171E+02 -0.52846134579E+02 -0.33068255890E+03  0.33677400006E+03  0.00000000000E+00 0.  1.
         11    1    1    2    0    0  0.43439403737E+02 -0.16613859627E+02 -0.13026149190E+03  0.13831506932E+03  0.00000000000E+00 0. -1.
</event>
<event>
 7    1  0.2878477E-009  0.1075587E+03  0.7561462E-02  0.1265159E+00
          2   -1    0    0  501    0  0.00000000000E+00  0.00000000000E+00  0.85503444130E+03  0.85503444130E+03  0.00000000000E+00 0.  1.
         -2   -1    0    0    0  501 -0.00000000000E+00 -0.00000000000E+00 -0.16092024741E+02  0.16092024741E+02  0.00000000000E+00 0. -1.
         25    2    1    2    0    0 -0.26833457649E+02  0.29275658977E+02  0.40406722448E+03  0.42484733035E+03  0.12509130085E+03 0.  0.
          5    1    3    3  502    0  0.10919316258E+02 -0.38655852265E+02  0.23855352230E+03  0.24194784930E+03  0.41800000000E+01 0.  1.
         -5    1    3    3    0  502 -0.37752773907E+02  0.67931511242E+02  0.16551370219E+03  0.18289948105E+03  0.41800000000E+01 0.  1.
        -11    1    1    2    0    0  0.53140391945E+02 -0.41948621055E+02  0.35091110361E+03  0.35738241521E+03  0.00000000000E+00 0.  1.
         11    1    1    2    0    0 -0.26306934297E+02  0.12672962079E+02  0.83964088470E+02  0.88896720482E+02  0.00000000000E+00 0. -1.
</event>
<event>
 7    1  0.2878477E-009  0.1459258E+03  0.7561462E-02  0.1205571E+00
          2   -1    0    0  501    0  0.00000000000E+00  0.00000000000E+00  0.31477134430E+03  0.31477134430E+03  0.00000000000E+00 0. -1.
         -2   -1    0    0    0  501 -0.00000000000E+00 -0.00000000000E+00 -0.79140119592E+02  0.79140119592E+02  0.00000000000E+00 0.  1.
         25    2    1    2    0    0 -0.17626585010E+02  0.11395699435E+03  0.12273691515E+03  0.20978145846E+03  0.12508803664E+03 0.  0.
          5    1    3    3  502    0  0.48959282414E+01 -0.16630254234E+02 -0.11411867538E+02  0.21171645896E+02  0.41800000000E+01 0.  1.
         -5    1    3    3    0  502 -0.22522513251E+02  0.13058724859E+03  0.13414878269E+03  0.18860981256E+03  0.41800000000E+01 0.  1.
        -11    1    1    2    0    0  0.44905360642E+02 -0.10239674511E+03  0.10519820521E+03  0.15351953362E+03  0.00000000000E+00 0. -1.
         11    1    1    2    0    0 -0.27278775633E+02 -0.11560249245E+02  0.76961043458E+01  0.30610471815E+02  0.00000000000E+00 0.  1.
</event>
<event>
 7    1  0.2878477E-009  0.1542269E+03  0.7561462E-02  0.1195373E+00
          2   -1    0    0  501    0  0.00000000000E+00  0.00000000000E+00  0.19169664262E+04  0.19169664262E+04  0.00000000000E+00 0. -1.
         -2   -1    0    0    0  501 -0.00000000000E+00 -0.00000000000E+00 -0.23242752907E+02  0.23242752907E+02  0.00000000000E+00 0.  1.
         25    2    1    2    0    0  0.27074019095E+02  0.12894913603E+03  0.15455012621E+04  0.15561436027E+04  0.12509148238E+03 0.  0.
          5    1    3    3  502    0 -0.25354901155E+02  0.68822110208E+02  0.11667042549E+04  0.11690148180E+04  0.41800000000E+01 0.  1.
         -5    1    3    3    0  502  0.52428920250E+02  0.60127025819E+02  0.37879700719E+03  0.38712878473E+03  0.41800000000E+01 0.  1.
        -11    1    1    2    0    0  0.29080189619E+02 -0.33471667271E+02  0.15635260985E+03  0.16251814835E+03  0.00000000000E+00 0.  1.
         11    1    1    2    0    0 -0.56154208714E+02 -0.95477468755E+02  0.19186980134E+03  0.22154742802E+03  0.00000000000E+00 0. -1.
</event>
<event>
 7    1  0.2878477E-009  0.1104974E+03  0.7561462E-02  0.1259652E+00
         -4   -1    0    0    0  501 -0.00000000000E+00  0.00000000000E+00  0.13954803493E+02  0.13954803493E+02  0.00000000000E+00 0.  1.
          4   -1    0    0  501    0  0.00000000000E+00 -0.00000000000E+00 -0.10130766454E+04  0.10130766454E+04  0.00000000000E+00 0. -1.
         25    2    1    2    0    0  0.44728628187E+02  0.57946655598E+00 -0.64492312120E+03  0.65846274191E+03  0.12508542788E+03 0.  0.
          5    1    3    3  502    0  0.82167969755E+02 -0.41311258380E+01 -0.55152535106E+03  0.55764354808E+03  0.41800000000E+01 0.  1.
         -5    1    3    3    0  502 -0.37439341568E+02  0.47105923939E+01 -0.93397770140E+02  0.10081919383E+03  0.41800000000E+01 0.  1.
        -11    1    1    2    0    0 -0.72643678754E+02 -0.23372391200E+01 -0.22786560246E+03  0.23917629384E+03  0.00000000000E+00 0.  1.
         11    1    1    2    0    0  0.27915050567E+02  0.17577725641E+01 -0.12633311823E+03  0.12939241312E+03  0.00000000000E+00 0. -1.
</event>
<event>
 7    1  0.2878477E-009  0.9188148E+02  0.7561462E-02  0.1298358E+00
         -2   -1    0    0    0  501 -0.00000000000E+00  0.00000000000E+00  0.10810356569E+03  0.10810356569E+03  0.00000000000E+00 0.  1.
          2   -1    0    0  501    0  0.00000000000E+00 -0.00000000000E+00 -0.13781663345E+03  0.13781663345E+03  0.00000000000E+00 0. -1.
         25    2    1    2    0    0 -0.12202851676E+02  0.20034699303E+01  0.38844559610E+02  0.13156411952E+03  0.12508914522E+03 0.  0.
          5    1    3    3  502    0  0.18977751781E+02 -0.38813415096E+02 -0.24548434029E+02  0.49867166225E+02  0.41800000000E+01 0. -1.
         -5    1    3    3    0  502 -0.31180603458E+02  0.40816885026E+02  0.63392993638E+02  0.81696953295E+02  0.41800000000E+01 0. -1.
        -11    1    1    2    0    0  0.10317851680E+01  0.42716433956E+02 -0.19269664452E+02  0.46873001596E+02  0.00000000000E+00 0.  1.
         11    1    1    2    0    0  0.11171066508E+02 -0.44719903886E+02 -0.49287962917E+02  0.67483078020E+02  0.00000000000E+00 0. -1.
</event>
<event>
 7    1  0.2878477E-009  0.7394672E+02  0.7561462E-02  0.1347164E+00
          1   -1    0    0  501    0  0.00000000000E+00  0.00000000000E+00  0.12517146613E+03  0.12517146613E+03  0.00000000000E+00 0. -1.
         -1   -1    0    0    0  501 -0.00000000000E+00 -0.00000000000E+00 -0.13245851634E+03  0.13245851634E+03  0.00000000000E+00 0.  1.
         25    2    1    2    0    0  0.52391061187E+02  0.48736956296E+02 -0.16654681489E+02  0.14506620368E+03  0.12508681318E+03 0.  0.
          5    1    3    3  502    0  0.42862262618E+02  0.48544893602E+02  0.47279368542E+02  0.80290667834E+02  0.41800000000E+01 0. -1.
         -5    1    3    3    0  502  0.95287985693E+01  0.19206269442E+00 -0.63934050031E+02  0.64775535842E+02  0.41800000000E+01 0. -1.
        -11    1    1    2    0    0 -0.40870434091E+02 -0.30400948558E+02  0.46894844987E+02  0.69236814935E+02  0.00000000000E+00 0. -1.
         11    1    1    2    0    0 -0.11520627096E+02 -0.18336007738E+02 -0.37527213703E+02  0.43326963854E+02  0.00000000000E+00 0.  1.
</event>
<event>
 7    1  0.2878477E-009  0.1741461E+03  0.7561462E-02  0.1173592E+00
          1   -1    0    0  501    0  0.00000000000E+00  0.00000000000E+00  0.47859227308E+02  0.47859227308E+02  0.00000000000E+00 0. -1.
         -1   -1    0    0    0  501 -0.00000000000E+00 -0.00000000000E+00 -0.79417069228E+03  0.79417069228E+03  0.00000000000E+00 0.  1.
         25    2    1    2    0    0 -0.67163443455E+02  0.11128394816E+02 -0.35136386841E+03  0.37912865381E+03  0.12508876373E+03 0.  0.
          5    1    3    3  502    0 -0.12441292743E+02  0.51802604667E+02 -0.25780568001E+03  0.26328603583E+03  0.41800000000E+01 0.  1.
         -5    1    3    3    0  502 -0.54722150711E+02 -0.40674209850E+02 -0.93558188394E+02  0.11584261798E+03  0.41800000000E+01 0.  1.
        -11    1    1    2    0    0  0.61818110461E+02 -0.11071914285E+03 -0.29779361853E+03  0.32366842078E+03  0.00000000000E+00 0.  1.
         11    1    1    2    0    0  0.53453329932E+01  0.99590748030E+02 -0.97153978039E+02  0.13923284500E+03  0.00000000000E+00 0. -1.
</event>
<event>
 7    1  0.4898375E-009  0.1376616E+03  0.7561462E-02  0.1216510E+00
          2   -1    0    0  501    0  0.00000000000E+00  0.00000000000E+00  0.44768759434E+03  0.44768759434E+03  0.00000000000E+00 0. -1.
         -2   -1    0    0    0  501 -0.00000000000E+00 -0.00000000000E+00 -0.61141592420E+02  0.61141592420E+02  0.00000000000E+00 0.  1.
         25    2    1    2    0    0 -0.36617423707E+02  0.10480481080E+03  0.29266525870E+03  0.33708309605E+03  0.12508867217E+03 0.  0.
          5    1    3    3  502    0  0.44403597719E+02  0.28601625811E+02  0.66618353308E+02  0.85118798669E+02  0.41800000000E+01 0.  1.
         -5    1    3    3    0  502 -0.81021021426E+02  0.76203184993E+02  0.22604690540E+03  0.25196429738E+03  0.41800000000E+01 0.  1.
        -11    1    1    2    0    0  0.17340002897E+02 -0.46641756791E+02  0.98440101583E+02  0.11030223378E+03  0.00000000000E+00 0. -1.
         11    1    1    2    0    0  0.19277420810E+02 -0.58163054014E+02 -0.45593583697E+01  0.61443856927E+02  0.00000000000E+00 0.  1.
</event>
<event>
 7    1  0.2878477E-009  0.6184988E+02  0.7561462E-02  0.1390229E+00
          2   -1    0    0  501    0  0.00000000000E+00  0.00000000000E+00  0.72349690622E+03  0.72349690622E+03  0.00000000000E+00 0. -1.
         -2   -1    0    0    0  501 -0.00000000000E+00 -0.00000000000E+00 -0.14074424485E+02  0.14074424485E+02  0.00000000000E+00 0.  1.
         25    2    1    2    0    0  0.95230126073E+01 -0.81800736100E+00  0.48477539579E+03  0.50074684856E+03  0.12509542389E+03 0.  0.
          5    1    3    3  502    0  0.31334121874E+02 -0.16198333838E+01  0.47568496480E+03  0.47673693919E+03  0.41800000000E+01 0.  1.
         -5    1    3    3    0  502 -0.21811109267E+02  0.80182602277E+00  0.90904309880E+01  0.24009909370E+02  0.41800000000E+01 0.  1.
        -11    1    1    2    0    0  0.24562667914E+02 -0.18403505755E+02  0.14336010982E+03  0.14660878134E+03  0.00000000000E+00 0. -1.
         11    1    1    2    0    0 -0.34085680521E+02  0.19221513116E+02  0.81286976138E+02  0.90215700810E+02  0.00000000000E+00 0.  1.
</event>
<event>
 7    1  0.2878477E-009  0.1957287E+03  0.7561462E-02  0.1153394E+00
         -2   -1    0    0    0  501 -0.00000000000E+00  0.00000000000E+00  0.14948094822E+03  0.14948094822E+03  0.00000000000E+00 0. -1.
          2   -1    0    0  501    0  0.00000000000E+00 -0.00000000000E+00 -0.36854605479E+03  0.36854605479E+03  0.00000000000E+00 0.  1.
         25    2    1    2    0    0 -0.18040984644E+03  0.37268216607E+02 -0.22114157677E+03  0.31382663130E+03  0.12508766877E+03 0.  0.
          5    1    3    3  502    0 -0.67810059265E+02 -0.41726309308E+01 -0.17039237159E+03  0.18348473419E+03  0.41800000000E+01 0.  1.
         -5    1    3    3    0  502 -0.11259978717E+03  0.41440847538E+02 -0.50749205186E+02  0.13034189711E+03  0.41800000000E+01 0.  1.
        -11    1    1    2    0    0  0.16958516385E+03 -0.58590800163E+02 -0.42253020343E+01  0.17947106407E+03  0.00000000000E+00 0.  1.
         11    1    1    2    0    0  0.10824682585E+02  0.21322583557E+02  0.63017722346E+01  0.24729307631E+02  0.00000000000E+00 0. -1.
</event>
<event>
 7    1  0.2878477E-009  0.1659844E+03  0.7561462E-02  0.1182101E+00
         -1   -1    0    0    0  501 -0.00000000000E+00  0.00000000000E+00  0.13031208994E+03  0.13031208994E+03  0.00000000000E+00 0.  1.
          1   -1    0    0  501    0  0.00000000000E+00 -0.00000000000E+00 -0.26956621544E+03  0.26956621544E+03  0.00000000000E+00 0. -1.
         25    2    1    2    0    0 -0.49744080104E+02 -0.13025238671E+03 -0.13877884480E+03  0.23311723022E+03  0.12507564716E+03 0.  0.
          5    1    3    3  502    0 -0.79646067612E+02 -0.91999936937E+02 -0.13846450222E+03  0.18438377168E+03  0.41800000000E+01 0. -1.
         -5    1    3    3    0  502  0.29901987508E+02 -0.38252449769E+02 -0.31434258091E+00  0.48733458542E+02  0.41800000000E+01 0. -1.
        -11    1    1    2    0    0  0.39363870167E+02  0.97809135538E+01  0.18115525403E+02  0.44422435830E+02  0.00000000000E+00 0.  1.
         11    1    1    2    0    0  0.10380209937E+02  0.12047147315E+03 -0.18590806108E+02  0.12233863933E+03  0.00000000000E+00 0. -1.
</event>
<event>
 7    1  0.2878477E-009  0.9794594E+02  0.7561462E-02  0.1284676E+00
          2   -1    0    0  501    0  0.00000000000E+00  0.00000000000E+00  0.25154083367E+03  0.25154083367E+03  0.00000000000E+00 0. -1.
         -2   -1    0    0    0  501 -0.00000000000E+00 -0.00000000000E+00 -0.86709793725E+02  0.86709793725E+02  0.00000000000E+00 0.  1.
         25    2    1    2    0    0 -0.31391117401E+02  0.78270542293E+02  0.22950729406E+02  0.15260331879E+03  0.12509738959E+03 0.  0.
          5    1    3    3  502    0  0.18171111753E+02  0.10098533176E+02 -0.41376391850E+02  0.46493525111E+02  0.41800000000E+01 0. -1.
         -5    1    3    3    0  502 -0.49562229154E+02  0.68172009116E+02  0.64327121257E+02  0.10610979368E+03  0.41800000000E+01 0. -1.
        -11    1    1    2    0    0  0.18405366503E+02 -0.74553784292E+02  0.15096191034E+03  0.16937096162E+03  0.00000000000E+00 0. -1.
         11    1    1    2    0    0  0.12985750898E+02 -0.37167580009E+01 -0.90815997938E+01  0.16276346987E+02  0.00000000000E+00 0.  1.
</event>
<event>
 7    1  0.2878477E-009  0.1145325E+03  0.7561462E-02  0.1252399E+00
         -3   -1    0    0    0  501 -0.00000000000E+00  0.00000000000E+00  0.17515883072E+02  0.17515883072E+02  0.00000000000E+00 0.  1.
          3   -1    0    0  501    0  0.00000000000E+00 -0.00000000000E+00 -0.13404498683E+04  0.13404498683E+04  0.00000000000E+00 0. -1.
         25    2    1    2    0    0  0.23702042429E+02 -0.24966917032E+01 -0.10190193059E+04  0.10269447937E+04  0.12508894065E+03 0.  0.
          5    1    3    3  502    0 -0.39279646336E+02 -0.19828199365E+02 -0.17888337319E+03  0.18426280610E+03  0.41800000000E+01 0.  1.
         -5    1    3    3    0  502  0.62981688765E+02  0.17331507662E+02 -0.84013593275E+03  0.84268198757E+03  0.41800000000E+01 0.  1.
        -11    1    1    2    0    0  0.21826660270E+02  0.49422222884E+02 -0.20827504850E+03  0.21516843412E+03  0.00000000000E+00 0. -1.
         11    1    1    2    0    0 -0.45528702699E+02 -0.46925531181E+02 -0.95639630825E+02  0.11585252363E+03  0.00000000000E+00 0.  1.
</event>
<event>
 7    1  0.2878477E-009  0.1040947E+03  0.7561462E-02  0.1271914E+00
          2   -1    0    0  501    0  0.00000000000E+00  0.00000000000E+00  0.99631179415E+02  0.99631179415E+02  0.00000000000E+00 0. -1.
         -2   -1    0    0    0  501 -0.00000000000E+00 -0.00000000000E+00 -0.14893070532E+03  0.14893070532E+03  0.00000000000E+00 0.  1.
         25    2    1    2    0    0  0.46542012443E+02  0.16757276324E+01  0.50247261573E+01  0.13357688494E+03  0.12509424181E+03 0.  0.
          5    1    3    3  502    0  0.21481895731E+01 -0.55075375315E+02  0.21902109188E+02  0.59456593170E+02  0.41800000000E+01 0. -1.
         -5    1    3    3    0  502  0.44393822870E+02  0.56751102947E+02 -0.16877383031E+02  0.74120291774E+02  0.41800000000E+01 0. -1.
        -11    1    1    2    0    0 -0.60018679024E+02 -0.14920002837E+02 -0.67805229449E+02  0.91773620703E+02  0.00000000000E+00 0.  1.
         11    1    1    2    0    0  0.13476666581E+02  0.13244275205E+02  0.13480977387E+02  0.23211379087E+02  0.00000000000E+00 0. -1.
</event>
<event>
 7    1  0.2878477E-009  0.1771043E+03  0.7561462E-02  0.1170635E+00
          4   -1    0    0  501    0  0.00000000000E+00  0.00000000000E+00  0.20680491426E+03  0.20680491426E+03  0.00000000000E+00 0. -1.
         -4   -1    0    0    0  501 -0.00000000000E+00 -0.00000000000E+00 -0.26079596094E+03  0.26079596094E+03  0.00000000000E+00 0.  1.
         25    2    1    2    0    0  0.13384575576E+03  0.78892342330E+02 -0.16265070898E+03  0.25737229332E+03  0.12508619517E+03 0.  0.
          5    1    3    3  502    0  0.20225116826E+02  0.54656978284E+02 -0.12013467866E+03  0.13358987253E+03  0.41800000000E+01 0.  1.
         -5    1    3    3    0  502  0.11362063894E+03  0.24235364046E+02 -0.42516030321E+02  0.12378242079E+03  0.41800000000E+01 0.  1.
        -11    1    1    2    0    0 -0.48694193898E+02 -0.80818857142E+02  0.49743972680E+02  0.10666430990E+03  0.00000000000E+00 0.  1.
         11    1    1    2    0    0 -0.85151561864E+02  0.19265148120E+01  0.58915689617E+02  0.10356427198E+03  0.00000000000E+00 0. -1.
</event>
<event>
 7    1  0.2878477E-009  0.2249621E+03  0.7561462E-02  0.1130237E+00
         -1   -1    0    0    0  501 -0.00000000000E+00  0.00000000000E+00  0.69019913871E+02  0.69019913871E+02  0.00000000000E+00 0.  1.
          1   -1    0    0  501    0  0.00000000000E+00 -0.00000000000E+00 -0.75514983764E+03  0.75514983764E+03  0.00000000000E+00 0. -1.
         25    2    1    2    0    0 -0.19459291149E+03 -0.30492799944E+02 -0.28631110485E+03  0.36934866737E+03  0.12509267475E+03 0.  0.
          5    1    3    3  502    0 -0.10568697258E+03 -0.78752320958E+02 -0.15398602851E+03  0.20273340525E+03  0.41800000000E+01 0. -1.
         -5    1    3    3    0  502 -0.88905938915E+02  0.48259521014E+02 -0.13232507633E+03  0.16661526212E+03  0.41800000000E+01 0. -1.
        -11    1    1    2    0    0  0.10877732457E+02  0.31254817606E+02 -0.60561746143E+02  0.69013866599E+02  0.00000000000E+00 0. -1.
         11    1    1    2    0    0  0.18371517903E+03 -0.76201766212E+00 -0.33925707278E+03  0.38580721754E+03  0.00000000000E+00 0.  1.
</event>
<event>
 7    1  0.2878477E-009  0.1233776E+03  0.7561462E-02  0.1237627E+00
         -2   -1    0    0    0  501 -0.00000000000E+00  0.00000000000E+00  0.80976995902E+02  0.80976995902E+02  0.00000000000E+00 0.  1.
          2   -1    0    0  501    0  0.00000000000E+00 -0.00000000000E+00 -0.29531485584E+03  0.29531485584E+03  0.00000000000E+00 0. -1.
         25    2    1    2    0    0 -0.10308945039E+03  0.10264764070E+02 -0.73020014887E+02  0.17807820817E+03  0.12508847065E+03 0.  0.
          5    1    3    3  502    0 -0.30941862437E+02  0.18198012454E+02 -0.95394445600E+02  0.10201048554E+03  0.41800000000E+01 0. -1.
         -5    1    3    3    0  502 -0.72147587952E+02 -0.79332483836E+01  0.22374430713E+02  0.76067722636E+02  0.41800000000E+01 0. -1.
        -11    1    1    2    0    0  0.35115488244E+02 -0.48535209632E+02 -0.73729462130E+02  0.94998935124E+02  0.00000000000E+00 0.  1.
         11    1    1    2    0    0  0.67973962145E+02  0.38270445562E+02 -0.67588382917E+02  0.10321470844E+03  0.00000000000E+00 0. -1.
</event>
<event>
 7    1  0.2878477E-009  0.6996023E+02  0.7561462E-02  0.1360228E+00
         -1   -1    0    0    0  501 -0.00000000000E+00  0.00000000000E+00  0.15946035460E+03  0.15946035460E+03  0.00000000000E+00 0.  1.
          1   -1    0    0  501    0  0.00000000000E+00 -0.00000000000E+00 -0.11071201927E+03  0.11071201927E+03  0.00000000000E+00 0. -1.
         25    2    1    2    0    0  0.40131484833E+02  0.23222818670E+02 -0.33874825750E+02  0.13764133050E+03  0.12509115340E+03 0.  0.
          5    1    3    3  502    0  0.41169211787E+02  0.15761336838E+01 -0.77996047006E+02  0.88307666401E+02  0.41800000000E+01 0. -1.
         -5    1    3    3    0  502 -0.10377269536E+01  0.21646684986E+02  0.44121221257E+02  0.49333664098E+02  0.41800000000E+01 0. -1.
        -11    1    1    2    0    0 -0.70837375087E+01  0.20466675713E+02 -0.10822970712E+02  0.24211584972E+02  0.00000000000E+00 0. -1.
         11    1    1    2    0    0 -0.33047747325E+02 -0.43689494383E+02  0.93446131789E+02  0.10831945840E+03  0.00000000000E+00 0.  1.
</event>
<event>
 7    1  0.2878477E-009  0.1494773E+03  0.7561462E-02  0.1201117E+00
          1   -1    0    0  501    0  0.00000000000E+00  0.00000000000E+00  0.79156004844E+03  0.79156004844E+03  0.00000000000E+00 0. -1.
         -1   -1    0    0    0  501 -0.00000000000E+00 -0.00000000000E+00 -0.51583127831E+02  0.51583127831E+02  0.00000000000E+00 0.  1.
         25    2    1    2    0    0 -0.84142576680E+02  0.10650337907E+03  0.60105645113E+03  0.62876065906E+03  0.12509262961E+03 0.  0.
          5    1    3    3  502    0 -0.60872232603E+02  0.88779888795E+02  0.20479956791E+03  0.23140361443E+03  0.41800000000E+01 0.  1.
         -5    1    3    3    0  502 -0.23270344078E+02  0.17723490271E+02  0.39625688322E+03  0.39735704464E+03  0.41800000000E+01 0.  1.
        -11    1    1    2    0    0 -0.14365045665E+02 -0.40843338875E+02  0.51127281146E+02  0.66996505467E+02  0.00000000000E+00 0. -1.
         11    1    1    2    0    0  0.98507622345E+02 -0.65660040191E+02  0.87793188332E+02  0.14738601174E+03  0.00000000000E+00 0.  1.
</event>
<event>
 7    1  0.2878477E-009  0.1243015E+03  0.7561462E-02  0.1236165E+00
          1   -1    0    0  501    0  0.00000000000E+00  0.00000000000E+00  0.21136422032E+04  0.21136422032E+04  0.00000000000E+00 0. -1.
         -1   -1    0    0    0  501 -0.00000000000E+00 -0.00000000000E+00 -0.10976503689E+02  0.10976503689E+02  0.00000000000E+00 0.  1.
         25    2    1    2    0    0 -0.52586319592E+02  0.48228157982E+02  0.17385439464E+04  0.17444978121E+04  0.12508511776E+03 0.  0.
          5    1    3    3  502    0  0.39467598128E+02 -0.30637393779E+00  0.44306905649E+03  0.44484317056E+03  0.41800000000E+01 0. -1.
         -5    1    3    3    0  502 -0.92053917721E+02  0.48534531920E+02  0.12954748899E+04  0.12996546415E+04  0.41800000000E+01 0. -1.
        -11    1    1    2    0    0  0.19009283995E+02  0.20693222457E+02  0.56658099142E+02  0.63243201469E+02  0.00000000000E+00 0.  1.
         11    1    1    2    0    0  0.33577035597E+02 -0.68921380439E+02  0.30746365395E+03  0.31687769329E+03  0.00000000000E+00 0. -1.
</event>
<event>
 7    1  0.2878477E-009  0.9567938E+02  0.7561462E-02  0.1289653E+00
         -2   -1    0    0    0  501 -0.00000000000E+00  0.00000000000E+00  0.49363570425E+03  0.49363570425E+03  0.00000000000E+00 0.  1.
          2   -1    0    0  501    0  0.00000000000E+00 -0.00000000000E+00 -0.24610699730E+02  0.24610699730E+02  0.00000000000E+00 0. -1.
         25    2    1    2    0    0  0.75501159930E+01 -0.19088380152E+02  0.28937285243E+03  0.31591970290E+03  0.12508893015E+03 0.  0.
          5    1    3    3  502    0  0.26360004423E+02 -0.53022300976E+02  0.64387913289E+02  0.87575624529E+02  0.41800000000E+01 0. -1.
         -5    1    3    3    0  502 -0.18809888430E+02  0.33933920823E+02  0.22498493915E+03  0.22834407837E+03  0.41800000000E+01 0. -1.
        -11    1    1    2    0    0 -0.49244661329E+02  0.11950847749E+02  0.93458790045E+02  0.10631276907E+03  0.00000000000E+00 0.  1.
         11    1    1    2    0    0  0.41694545336E+02  0.71375324038E+01  0.86193362042E+02  0.96013932009E+02  0.00000000000E+00 0. -1.
</event>
<event>
 7    1  0.2878477E-009  0.7193539E+02  0.7561462E-02  0.1353633E+00
          2   -1    0    0  501    0  0.00000000000E+00  0.00000000000E+00  0.38744713641E+03  0.38744713641E+03  0.00000000000E+00 0. -1.
         -2   -1    0    0    0  501 -0.00000000000E+00 -0.00000000000E+00 -0.31677464444E+02  0.31677464444E+02  0.00000000000E+00 0.  1.
         25    2    1    2    0    0 -0.22335193283E+01  0.15390299941E+01  0.24895932273E+03  0.27863131586E+03  0.12508920250E+03 0.  0.
          5    1    3    3  502    0 -0.13962781003E+02  0.25224723227E+02  0.91435497231E+00  0.29147115814E+02  0.41800000000E+01 0.  1.
         -5    1    3    3    0  502  0.11729261675E+02 -0.23685693233E+02  0.24804496776E+03  0.24948420005E+03  0.41800000000E+01 0.  1.
        -11    1    1    2    0    0 -0.35956794371E+02  0.22907754784E+02  0.70557739765E+02  0.82438164289E+02  0.00000000000E+00 0. -1.
         11    1    1    2    0    0  0.38190313699E+02 -0.24446784778E+02  0.36252609470E+02  0.58055120703E+02  0.00000000000E+00 0.  1.
</event>
<event>
 7    1  0.2878477E-009  0.2330673E+03  0.7561462E-02  0.1124499E+00
          2   -1    0    0  501    0  0.00000000000E+00  0.00000000000E+00  0.40209070735E+02  0.40209070735E+02  0.00000000000E+00 0. -1.
         -2   -1    0    0    0  501 -0.00000000000E+00 -0.00000000000E+00 -0.16397329732E+04  0.16397329732E+04  0.00000000000E+00 0.  1.
         25    2    1    2    0    0 -0.19929589761E+03 -0.11552007496E+03 -0.89915227168E+03  0.93658252539E+03  0.12509307204E+03 0.  0.
          5    1    3    3  502    0 -0.14352640124E+02 -0.22858358893E+02 -0.32755651776E+03  0.32869324237E+03  0.41800000000E+01 0.  1.
         -5    1    3    3    0  502 -0.18494325749E+03 -0.92661716062E+02 -0.57159575391E+03  0.60788928302E+03  0.41800000000E+01 0.  1.
        -11    1    1    2    0    0  0.14232037805E+03  0.68003035649E+02 -0.58737088181E+03  0.60818093991E+03  0.00000000000E+00 0.  1.
         11    1    1    2    0    0  0.56975519564E+02  0.47517039307E+02 -0.11300074896E+03  0.13517857863E+03  0.00000000000E+00 0. -1.
</event>
<event>
 7    1  0.2878477E-009  0.1448673E+03  0.7561462E-02  0.1206926E+00
         -1   -1    0    0    0  501 -0.00000000000E+00  0.00000000000E+00  0.48801989494E+02  0.48801989494E+02  0.00000000000E+00 0.  1.
          1   -1    0    0  501    0  0.00000000000E+00 -0.00000000000E+00 -0.56417789353E+03  0.56417789353E+03  0.00000000000E+00 0. -1.
         25    2    1    2    0    0 -0.88805535677E+02  0.87988177161E+02 -0.25264659140E+03  0.30840072197E+03  0.12510940284E+03 0.  0.
          5    1    3    3  502    0 -0.43082162690E+02  0.82029386626E+02 -0.24435485926E+03  0.26136499891E+03  0.41800000000E+01 0. -1.
         -5    1    3    3    0  502 -0.45723372987E+02  0.59587905349E+01 -0.82917321444E+01  0.47035723061E+02  0.41800000000E+01 0. -1.
        -11    1    1    2    0    0  0.48065406823E+02  0.58173665194E+01 -0.56667086857E+02  0.74533776364E+02  0.00000000000E+00 0.  1.
         11    1    1    2    0    0  0.40740128854E+02 -0.93805543681E+02 -0.20606222578E+03  0.23004538469E+03  0.00000000000E+00 0. -1.
</event>
<event>
 7    1  0.2878477E-009  0.7596583E+02  0.7561462E-02  0.1340906E+00
          1   -1    0    0  501    0  0.00000000000E+00  0.00000000000E+00  0.44251391629E+02  0.44251391629E+02  0.00000000000E+00 0. -1.
         -1   -1    0    0    0  501 -0.00000000000E+00 -0.00000000000E+00 -0.39799676028E+03  0.39799676028E+03  0.00000000000E+00 0.  1.
         25    2    1    2    0    0  0.40138832257E+02 -0.17247374350E+02 -0.90509893535E+02  0.16046144641E+03  0.12508891710E+03 0.  0.
          5    1    3    3  502    0 -0.30344152592E+00 -0.16732695290E+02 -0.11278658676E+03  0.11409803558E+03  0.41800000000E+01 0. -1.
         -5    1    3    3    0  502  0.40442273783E+02 -0.51467906007E+00  0.22276693228E+02  0.46363410837E+02  0.41800000000E+01 0. -1.
        -11    1    1    2    0    0 -0.52568031114E+02  0.41363482067E+02 -0.13440019974E+03  0.15012577805E+03  0.00000000000E+00 0. -1.
         11    1    1    2    0    0  0.12429198857E+02 -0.24116107718E+02 -0.12883527537E+03  0.13166092745E+03  0.00000000000E+00 0.  1.
</event>
<event>
 7    1  0.2878477E-009  0.1180249E+03  0.7561462E-02  0.1246391E+00
         -2   -1    0    0    0  501 -0.00000000000E+00  0.00000000000E+00  0.44762937892E+02  0.44762937892E+02  0.00000000000E+00 0.  1.
          2   -1    0    0  501    0  0.00000000000E+00 -0.00000000000E+00 -0.43118842860E+03  0.43118842860E+03  0.00000000000E+00 0. -1.
         25    2    1    2    0    0 -0.53526364983E+02  0.67020063410E+02 -0.24918047308E+03  0.29171115313E+03  0.12509087917E+03 0.  0.
          5    1    3    3  502    0 -0.41045117472E+02 -0.75254238632E+01 -0.13322850767E+02  0.44003459241E+02  0.41800000000E+01 0. -1.
         -5    1    3    3    0  502 -0.12481247511E+02  0.74545487273E+02 -0.23585762231E+03  0.24770769389E+03  0.41800000000E+01 0. -1.
        -11    1    1    2    0    0  0.75312451291E+02 -0.46666498361E+02 -0.78542634355E+02  0.11840047635E+03  0.00000000000E+00 0.  1.
         11    1    1    2    0    0 -0.21786086308E+02 -0.20353565048E+02 -0.58702383275E+02  0.65839737006E+02  0.00000000000E+00 0. -1.
</event>
<event>
 7    1  0.2878477E-009  0.1381060E+03  0.7561462E-02  0.1215900E+00
          1   -1    0    0  501    0  0.00000000000E+00  0.00000000000E+00  0.35777112549E+03  0.35777112549E+03  0.00000000000E+00 0. -1.
         -1   -1    0    0    0  501 -0.00000000000E+00 -0.00000000000E+00 -0.93528930340E+02  0.93528930340E+02  0.00000000000E+00 0.  1.
         25    2    1    2    0    0  0.52022945829E+02 -0.10425365998E+03  0.24631360279E+03  0.29982037488E+03  0.12508658506E+03 0.  0.
          5    1    3    3  502    0 -0.10261167534E+02  0.17163343085E+02  0.89959478375E+02  0.92249943385E+02  0.41800000000E+01 0. -1.
         -5    1    3    3    0  502  0.62284113364E+02 -0.12141700306E+03  0.15635412442E+03  0.20757043150E+03  0.41800000000E+01 0. -1.
        -11    1    1    2    0    0 -0.48933681509E+02  0.73186903947E+02  0.54385048580E+02  0.10348218013E+03  0.00000000000E+00 0. -1.
         11    1    1    2    0    0 -0.30892643205E+01  0.31066756028E+02 -0.36456456225E+02  0.47997500816E+02  0.00000000000E+00 0.  1.
</event>
<event>
 7    1  0.2878477E-009  0.1019829E+03  0.7561462E-02  0.1276181E+00
         -2   -1    0    0    0  501 -0.00000000000E+00  0.00000000000E+00  0.67910017186E+02  0.67910017186E+02  0.00000000000E+00 0.  1.
          2   -1    0    0  501    0  0.00000000000E+00 -0.00000000000E+00 -0.18945846924E+03  0.18945846924E+03  0.00000000000E+00 0. -1.
         25    2    1    2    0    0 -0.25368976847E+02  0.29047679030E+02 -0.49870065823E+02  0.14008071831E+03  0.12509289162E+03 0.  0.
          5    1    3    3  502    0  0.45234295458E+02 -0.51122014091E+01  0.23290057198E+01  0.45773057103E+02  0.41800000000E+01 0.  1.
         -5    1    3    3    0  502 -0.70603272306E+02  0.34159880439E+02 -0.52199071543E+02  0.94307661204E+02  0.41800000000E+01 0.  1.
        -11    1    1    2    0    0 -0.22296216280E+02  0.26679137003E+01  0.35679221760E+01  0.22736954338E+02  0.00000000000E+00 0.  1.
         11    1    1    2    0    0  0.47665193127E+02 -0.31715592730E+02 -0.75246308411E+02  0.94550813786E+02  0.00000000000E+00 0. -1.
</event>
<event>
 7    1  0.2976124E-009  0.1299283E+03  0.7561462E-02  0.1227562E+00
         -2   -1    0    0    0  501 -0.00000000000E+00  0.00000000000E+00  0.22861783508E+03  0.22861783508E+03  0.00000000000E+00 0.  1.
          2   -1    0    0  501    0  0.00000000000E+00 -0.00000000000E+00 -0.12686706307E+03  0.12686706307E+03  0.00000000000E+00 0. -1.
         25    2    1    2    0    0  0.60177521029E+02  0.78271260259E+02  0.14396390918E+03  0.21475738193E+03  0.12508957481E+03 0.  0.
          5    1    3    3  502    0  0.49247498492E+02  0.98735841529E+02  0.56224561061E+02  0.12390623946E+03  0.41800000000E+01 0. -1.
         -5    1    3    3    0  502  0.10930022537E+02 -0.20464581270E+02  0.87739348122E+02  0.90851142469E+02  0.41800000000E+01 0. -1.
        -11    1    1    2    0    0 -0.54272930954E+02 -0.74288379000E+01  0.55871173712E+01  0.55063186862E+02  0.00000000000E+00 0.  1.
         11    1    1    2    0    0 -0.59045900750E+01 -0.70842422359E+02 -0.47800254545E+02  0.85664329357E+02  0.00000000000E+00 0. -1.
</event>
<event>
 7    1  0.2878477E-009  0.1242027E+03  0.7561462E-02  0.1236321E+00
         -2   -1    0    0    0  501 -0.00000000000E+00  0.00000000000E+00  0.96368574233E+02  0.96368574233E+02  0.00000000000E+00 0.  1.
          2   -1    0    0  501    0  0.00000000000E+00 -0.00000000000E+00 -0.19188220404E+03  0.19188220404E+03  0.00000000000E+00 0. -1.
         25    2    1    2    0    0 -0.76349487664E+02  0.22945542396E+02 -0.35829993079E+02  0.15260066740E+03  0.12508970023E+03 0.  0.
          5    1    3    3  502    0  0.84195969639E+01  0.48934398702E+02 -0.39765713617E+02  0.63751465621E+02  0.41800000000E+01 0.  1.
         -5    1    3    3    0  502 -0.84769084628E+02 -0.25988856307E+02  0.39357205381E+01  0.88849201780E+02  0.41800000000E+01 0.  1.
        -11    1    1    2    0    0  0.90743638305E+02 -0.27325283395E+02 -0.25252736898E+02  0.98075377778E+02  0.00000000000E+00 0.  1.
         11    1    1    2    0    0 -0.14394150641E+02  0.43797409993E+01 -0.34430899828E+02  0.37574733091E+02  0.00000000000E+00 0. -1.
</event>
<event>
 7    1  0.2878477E-009  0.1069419E+03  0.7561462E-02  0.1266340E+00
         -1   -1    0    0    0  501 -0.00000000000E+00  0.00000000000E+00  0.68147537813E+02  0.68147537813E+02  0.00000000000E+00 0.  1.
          1   -1    0    0  501    0  0.00000000000E+00 -0.00000000000E+00 -0.28656116332E+03  0.28656116332E+03  0.00000000000E+00 0. -1.
         25    2    1    2    0    0 -0.17970577280E+02 -0.83778043890E+02 -0.10621977497E+03  0.18513048079E+03  0.12509577146E+03 0.  0.
          5    1    3    3  502    0  0.21846772115E+02 -0.57003357498E+02 -0.12028549196E+03  0.13495457085E+03  0.41800000000E+01 0. -1.
         -5    1    3    3    0  502 -0.39817349395E+02 -0.26774686392E+02  0.14065716988E+02  0.50175909943E+02  0.41800000000E+01 0. -1.
        -11    1    1    2    0    0  0.33341425004E+02  0.82645855631E+02 -0.43483505080E+02  0.99160492578E+02  0.00000000000E+00 0.  1.
         11    1    1    2    0    0 -0.15370847725E+02  0.11321882589E+01 -0.68710345462E+02  0.70417727765E+02  0.00000000000E+00 0. -1.
</event>
<event>
 7    1  0.2878477E-009  0.9616599E+02  0.7561462E-02  0.1288571E+00
          2   -1    0    0  501    0  0.00000000000E+00  0.00000000000E+00  0.63063997461E+03  0.63063997461E+03  0.00000000000E+00 0. -1.
         -2   -1    0    0    0  501 -0.00000000000E+00 -0.00000000000E+00 -0.27496338108E+02  0.27496338108E+02  0.00000000000E+00 0.  1.
         25    2    1    2    0    0 -0.36578554662E+02  0.12806878934E+02  0.49550661991E+03  0.51252419629E+03  0.12510889097E+03 0.  0.
          5    1    3    3  502    0  0.26104020496E+02  0.18494238927E+02  0.37609064372E+03  0.37747198764E+03  0.41800000000E+01 0.  1.
         -5    1    3    3    0  502 -0.62682575158E+02 -0.56873599938E+01  0.11941597619E+03  0.13505220865E+03  0.41800000000E+01 0.  1.
        -11    1    1    2    0    0 -0.12289768961E+02  0.29750047086E+02  0.25968093744E+02  0.41357533962E+02  0.00000000000E+00 0.  1.
         11    1    1    2    0    0  0.48868323623E+02 -0.42556926020E+02  0.81668922853E+02  0.10425458247E+03  0.00000000000E+00 0. -1.
</event>
<event>
 7    1  0.2878477E-009  0.1031828E+03  0.7561462E-02  0.1273742E+00
          1   -1    0    0  501    0  0.00000000000E+00  0.00000000000E+00  0.30948195498E+03  0.30948195498E+03  0.00000000000E+00 0. -1.
         -1   -1    0    0    0  501 -0.00000000000E+00 -0.00000000000E+00 -0.47196326192E+02  0.47196326192E+02  0.00000000000E+00 0.  1.
         25    2    1    2    0    0 -0.43364930152E+02 -0.27181527688E+02  0.17307885907E+03  0.21960125137E+03  0.12509622508E+03 0.  0.
          5    1    3    3  502    0 -0.27133671830E+02  0.35404784513E+02  0.13971769755E+03  0.14672505690E+03  0.41800000000E+01 0.  1.
         -5    1    3    3    0  502 -0.16231258322E+02 -0.62586312201E+02  0.33361161522E+02  0.72876194465E+02  0.41800000000E+01 0.  1.
        -11    1    1    2    0    0  0.68053621430E+02  0.17631229926E+02  0.39187400325E+02  0.80484830885E+02  0.00000000000E+00 0. -1.
         11    1    1    2    0    0 -0.24688691278E+02  0.95502977622E+01  0.50019369386E+02  0.56592198916E+02  0.00000000000E+00 0.  1.
</event>
<event>
 7    1  0.2878477E-009  0.1133162E+03  0.7561462E-02  0.1254549E+00
         -2   -1    0    0    0  501 -0.00000000000E+00  0.00000000000E+00  0.10292405278E+03  0.10292405278E+03  0.00000000000E+00 0.  1.
          2   -1    0    0  501    0  0.00000000000E+00 -0.00000000000E+00 -0.13240771092E+03  0.13240771092E+03  0.00000000000E+00 0. -1.
         25    2    1    2    0    0 -0.35254197662E+02  0.25919785343E+02 -0.29483782573E+02  0.13578142083E+03  0.12511037960E+03 0.  0.
          5    1    3    3  502    0 -0.68273120980E+02  0.53899748646E+02 -0.84924611863E+01  0.87498549985E+02  0.41800000000E+01 0.  1.
         -5    1    3    3    0  502  0.33018923318E+02 -0.27979963303E+02 -0.20991321386E+02  0.48282870846E+02  0.41800000000E+01 0.  1.
        -11    1    1    2    0    0 -0.28219076954E+02 -0.13930804655E+02  0.12309925009E+02  0.33792275392E+02  0.00000000000E+00 0.  1.
         11    1    1    2    0    0  0.63473274616E+02 -0.11988980687E+02 -0.12309800577E+02  0.65758067479E+02  0.00000000000E+00 0. -1.
</event>
<event>
 7    1  0.2878477E-009  0.1245147E+03  0.7561462E-02  0.1235830E+00
          2   -1    0    0  501    0  0.00000000000E+00  0.00000000000E+00  0.10033053875E+03  0.10033053875E+03  0.00000000000E+00 0. -1.
         -2   -1    0    0    0  501 -0.00000000000E+00 -0.00000000000E+00 -0.19215662137E+03  0.19215662137E+03  0.00000000000E+00 0.  1.
         25    2    1    2    0    0 -0.65899249677E+02 -0.54860620609E+02 -0.62328287646E+02  0.16396402085E+03  0.12508791265E+03 0.  0.
          5    1    3    3  502    0 -0.39515923793E+02 -0.90316743164E+02 -0.67086032380E+02  0.11931735192E+03  0.41800000000E+01 0.  1.
         -5    1    3    3    0  502 -0.26383325884E+02  0.35456122555E+02  0.47577447342E+01  0.44646668927E+02  0.41800000000E+01 0.  1.
        -11    1    1    2    0    0  0.72451002884E+02  0.62653497765E+02 -0.48200975455E+02  0.10722846001E+03  0.00000000000E+00 0.  1.
         11    1    1    2    0    0 -0.65517532066E+01 -0.77928771561E+01  0.18703180486E+02  0.21294679259E+02  0.00000000000E+00 0. -1.
</event>
<event>
 7    1  0.2878477E-009  0.8207843E+02  0.7561462E-02  0.1323255E+00
         -2   -1    0    0    0  501 -0.00000000000E+00  0.00000000000E+00  0.12650798308E+03  0.12650798308E+03  0.00000000000E+00 0.  1.
          2   -1    0    0  501    0  0.00000000000E+00 -0.00000000000E+00 -0.12032172826E+03  0.12032172826E+03  0.00000000000E+00 0. -1.
         25    2    1    2    0    0 -0.73376671274E+01 -0.21317937864E+02 -0.51611815569E+02  0.13718595032E+03  0.12509160493E+03 0.  0.
          5    1    3    3  502    0  0.57866939659E+01 -0.53986840192E+02 -0.76475120272E+02  0.93882805463E+02  0.41800000000E+01 0.  1.
         -5    1    3    3    0  502 -0.13124361093E+02  0.32668902328E+02  0.24863304702E+02  0.43303144853E+02  0.41800000000E+01 0.  1.
        -11    1    1    2    0    0 -0.23538115909E+02  0.33593985060E+02 -0.21797201376E+01  0.41077364967E+02  0.00000000000E+00 0.  1.
         11    1    1    2    0    0  0.30875783036E+02 -0.12276047196E+02  0.59977790525E+02  0.68566396064E+02  0.00000000000E+00 0. -1.
</event>
<event>
 7    1  0.2878477E-009  0.9898122E+02  0.7561462E-02  0.1282453E+00
          1   -1    0    0  501    0  0.00000000000E+00  0.00000000000E+00  0.28943389587E+03  0.28943389587E+03  0.00000000000E+00 0. -1.
         -1   -1    0    0    0  501 -0.00000000000E+00 -0.00000000000E+00 -0.98824285723E+02  0.98824285723E+02  0.00000000000E+00 0.  1.
         25    2    1    2    0    0  0.67385004989E+02  0.43024038077E+02  0.20912037165E+03  0.25645794277E+03  0.12509012679E+03 0.  0.
          5    1    3    3  502    0  0.19960199492E+02  0.17841119915E+02 -0.11443649107E+02  0.29413340995E+02  0.41800000000E+01 0.  1.
         -5    1    3    3    0  502  0.47424805497E+02  0.25182918162E+02  0.22056402075E+03  0.22704460177E+03  0.41800000000E+01 0.  1.
        -11    1    1    2    0    0 -0.54400590003E+02  0.15894851027E+02  0.20141922131E+02  0.60147880336E+02  0.00000000000E+00 0. -1.
         11    1    1    2    0    0 -0.12984414986E+02 -0.58918889103E+02 -0.38652683627E+02  0.71652358491E+02  0.00000000000E+00 0.  1.
</event>
<event>
 7    1  0.2878477E-009  0.1057100E+03  0.7561462E-02  0.1268727E+00
          3   -1    0    0  501    0  0.00000000000E+00  0.00000000000E+00  0.41530664165E+02  0.41530664165E+02  0.00000000000E+00 0. -1.
         -3   -1    0    0    0  501 -0.00000000000E+00 -0.00000000000E+00 -0.32435476563E+03  0.32435476563E+03  0.00000000000E+00 0.  1.
         25    2    1    2    0    0  0.22082027052E+02  0.25866414253E+02 -0.13059748770E+03  0.18401135144E+03  0.12509111223E+03 0.  0.
          5    1    3    3  502    0  0.38605268847E+02  0.69723005942E+02 -0.63130358401E+02  0.10175745129E+03  0.41800000000E+01 0. -1.
         -5    1    3    3    0  502 -0.16523241795E+02 -0.43856591689E+02 -0.67467129303E+02  0.82253900152E+02  0.41800000000E+01 0. -1.
        -11    1    1    2    0    0 -0.50819230283E+02 -0.10206675197E+02 -0.13559266617E+03  0.14516246590E+03  0.00000000000E+00 0.  1.
         11    1    1    2    0    0  0.28737203231E+02 -0.15659739057E+02 -0.16633947582E+02  0.36711612455E+02  0.00000000000E+00 0. -1.
</event>
<event>
 7    1  0.2878477E-009  0.9729288E+02  0.7561462E-02  0.1286094E+00
         -1   -1    0    0    0  501 -0.00000000000E+00  0.00000000000E+00  0.97165883636E+02  0.97165883636E+02  0.00000000000E+00 0. -1.
          1   -1    0    0  501    0  0.00000000000E+00 -0.00000000000E+00 -0.14480923479E+03  0.14480923479E+03  0.00000000000E+00 0.  1.
         25    2    1    2    0    0 -0.32546450096E+02  0.66642539696E+00  0.84485565864E+01  0.12953665918E+03  0.12509457393E+03 0.  0.
          5    1    3    3  502    0 -0.28209381700E+02  0.61661065414E+02  0.59095061991E+01  0.68192747909E+02  0.41800000000E+01 0. -1.
         -5    1    3    3    0  502 -0.43370683957E+01 -0.60994640017E+02  0.25390503873E+01  0.61343911271E+02  0.41800000000E+01 0. -1.
        -11    1    1    2    0    0  0.99381655090E+01  0.27499946410E+02 -0.68314027288E+02  0.74308953098E+02  0.00000000000E+00 0.  1.
         11    1    1    2    0    0  0.22608284587E+02 -0.28166371807E+02  0.12222119549E+02  0.38129506147E+02  0.00000000000E+00 0. -1.
</event>
<event>
 7    1  0.2878477E-009  0.9979396E+02  0.7561462E-02  0.1280730E+00
          1   -1    0    0  501    0  0.00000000000E+00  0.00000000000E+00  0.22645844814E+03  0.22645844814E+03  0.00000000000E+00 0. -1.
         -1   -1    0    0    0  501 -0.00000000000E+00 -0.00000000000E+00 -0.61969656316E+02  0.61969656316E+02  0.00000000000E+00 0.  1.
         25    2    1    2    0    0  0.47242185381E+02  0.58052971923E+01  0.83366018516E+02  0.15768213989E+03  0.12509292003E+03 0.  0.
          5    1    3    3  502    0  0.91244905103E+01  0.55673673623E+02  0.75415064883E+02  0.94274697947E+02  0.41800000000E+01 0.  1.
         -5    1    3    3    0  502  0.38117694871E+02 -0.49868376431E+02  0.79509536333E+01  0.63407441944E+02  0.41800000000E+01 0.  1.
        -11    1    1    2    0    0 -0.63017885108E+02  0.76027911929E+00  0.18277854860E+02  0.65619447164E+02  0.00000000000E+00 0.  1.
         11    1    1    2    0    0  0.15775699726E+02 -0.65655763116E+01  0.62844918450E+02  0.65126517404E+02  0.00000000000E+00 0. -1.
</event>
<event>
 7    1  0.2878477E-009  0.1120286E+03  0.7561462E-02  0.1256859E+00
         -2   -1    0    0    0  501 -0.00000000000E+00  0.00000000000E+00  0.23421743174E+03  0.23421743174E+03  0.00000000000E+00 0.  1.
          2   -1    0    0  501    0  0.00000000000E+00 -0.00000000000E+00 -0.83545137950E+02  0.83545137950E+02  0.00000000000E+00 0. -1.
         25    2    1    2    0    0  0.76620742156E+02 -0.83228479028E+01  0.33561764396E+02  0.15071813713E+03  0.12509818905E+03 0.  0.
          5    1    3    3  502    0  0.63164717068E+02 -0.60981021482E+02  0.38550533729E+02  0.95979594259E+02  0.41800000000E+01 0. -1.
         -5    1    3    3    0  502  0.13456025088E+02  0.52658173579E+02 -0.49887693334E+01  0.54738542868E+02  0.41800000000E+01 0. -1.
        -11    1    1    2    0    0 -0.25768949497E+02 -0.99368739937E+01  0.10895584691E+03  0.11240176510E+03  0.00000000000E+00 0.  1.
         11    1    1    2    0    0 -0.50851792659E+02  0.18259721897E+02  0.81546824826E+01  0.54642667456E+02  0.00000000000E+00 0. -1.
</event>
<event>
 7    1  0.2878477E-009  0.1186134E+03  0.7561462E-02  0.1245402E+00
          1   -1    0    0  501    0  0.00000000000E+00  0.00000000000E+00  0.23280469222E+03  0.23280469222E+03  0.00000000000E+00 0. -1.
         -1   -1    0    0    0  501 -0.00000000000E+00 -0.00000000000E+00 -0.98993521434E+02  0.98993521434E+02  0.00000000000E+00 0.  1.
         25    2    1    2    0    0  0.30924123681E+02 -0.10003157574E+03  0.56245391721E+02  0.17254926536E+03  0.12508831805E+03 0.  0.
          5    1    3    3  502    0  0.16000548430E+02 -0.27686562872E+02 -0.39854364270E+02  0.51267982846E+02  0.41800000000E+01 0.  1.
         -5    1    3    3    0  502  0.14923575251E+02 -0.72345012871E+02  0.96099755991E+02  0.12128128251E+03  0.41800000000E+01 0.  1.
        -11    1    1    2    0    0  0.26806973799E+02  0.30026002775E+02  0.58695256905E+00  0.40255672895E+02  0.00000000000E+00 0.  1.
         11    1    1    2    0    0 -0.57731097480E+02  0.70005572968E+02  0.76978826501E+02  0.11899327541E+03  0.00000000000E+00 0. -1.
</event>
<event>
 7    1  0.2878477E-009  0.1447502E+03  0.7561462E-02  0.1207076E+00
         -1   -1    0    0    0  501 -0.00000000000E+00  0.00000000000E+00  0.28744457966E+03  0.28744457966E+03  0.00000000000E+00 0.  1.
          1   -1    0    0  501    0  0.00000000000E+00 -0.00000000000E+00 -0.94873219347E+02  0.94873219347E+02  0.00000000000E+00 0. -1.
         25    2    1    2    0    0 -0.85160739798E+02  0.91034702751E+02  0.11346035879E+03  0.20990150558E+03  0.12508285382E+03 0.  0.
          5    1    3    3  502    0 -0.58126819768E+02 -0.71685392919E+01  0.18540015066E+01  0.58745424107E+02  0.41800000000E+01 0. -1.
         -5    1    3    3    0  502 -0.27033920030E+02  0.98203242043E+02  0.11160635728E+03  0.15115608147E+03  0.41800000000E+01 0. -1.
        -11    1    1    2    0    0  0.59493763479E+02 -0.39922114193E+02 -0.37356568116E+01  0.71744255703E+02  0.00000000000E+00 0. -1.
         11    1    1    2    0    0  0.25666976319E+02 -0.51112588558E+02  0.82846658336E+02  0.10067203773E+03  0.00000000000E+00 0.  1.
</event>
<event>
 7    1  0.2878477E-009  0.9735959E+02  0.7561462E-02  0.1285948E+00
          3   -1    0    0  501    0  0.00000000000E+00  0.00000000000E+00  0.52155224866E+02  0.52155224866E+02  0.00000000000E+00 0. -1.
         -3   -1    0    0    0  501 -0.00000000000E+00 -0.00000000000E+00 -0.23469628960E+03  0.23469628960E+03  0.00000000000E+00 0.  1.
         25    2    1    2    0    0  0.17010766166E+02 -0.35207488244E+01 -0.92576317421E+02  0.15658787764E+03  0.12509047541E+03 0.  0.
          5    1    3    3  502    0 -0.21328468145E+02 -0.56476132272E+02 -0.49539217827E+02  0.78205265633E+02  0.41800000000E+01 0. -1.
         -5    1    3    3    0  502  0.38339234311E+02  0.52955383448E+02 -0.43037099594E+02  0.78382612007E+02  0.41800000000E+01 0. -1.
        -11    1    1    2    0    0 -0.25960495113E+01 -0.31092074599E+02 -0.87261834583E+02  0.92671917810E+02  0.00000000000E+00 0.  1.
         11    1    1    2    0    0 -0.14414716654E+02  0.34612823424E+02 -0.27029127350E+01  0.37591719019E+02  0.00000000000E+00 0. -1.
</event>
<event>
 7    1  0.6080340E-009  0.2141525E+03  0.7561462E-02  0.1138319E+00
          1   -1    0    0  501    0  0.00000000000E+00  0.00000000000E+00  0.74376733253E+03  0.74376733253E+03  0.00000000000E+00 0. -1.
         -1   -1    0    0    0  501 -0.00000000000E+00 -0.00000000000E+00 -0.79768388420E+02  0.79768388420E+02  0.00000000000E+00 0.  1.
         25    2    1    2    0    0  0.19108125292E+03  0.80662304781E+02  0.23013929330E+03  0.33411010954E+03  0.12508804239E+03 0.  0.
          5    1    3    3  502    0  0.90980301748E+02  0.77776127008E+02  0.19315868997E+03  0.22727580854E+03  0.41800000000E+01 0.  1.
         -5    1    3    3    0  502  0.10010095117E+03  0.28861777724E+01  0.36980603331E+02  0.10683430100E+03  0.41800000000E+01 0.  1.
        -11    1    1    2    0    0 -0.87595567988E+02 -0.47464796060E+02  0.11294134822E+03  0.15060424474E+03  0.00000000000E+00 0. -1.
         11    1    1    2    0    0 -0.10348568493E+03 -0.33197508720E+02  0.32091830259E+03  0.33882136666E+03  0.00000000000E+00 0.  1.
</event>
<event>
 7    1  0.2878477E-009  0.1264008E+03  0.7561462E-02  0.1232896E+00
         -2   -1    0    0    0  501 -0.00000000000E+00  0.00000000000E+00  0.24144397388E+02  0.24144397388E+02  0.00000000000E+00 0.  1.
          2   -1    0    0  501    0  0.00000000000E+00 -0.00000000000E+00 -0.70460503681E+03  0.70460503681E+03  0.00000000000E+00 0. -1.
         25    2    1    2    0    0 -0.19126394650E+02 -0.69150855219E+02 -0.41768833672E+03  0.44188127704E+03  0.12509139307E+03 0.  0.
          5    1    3    3  502    0  0.41389284066E+02  0.99229871531E+01 -0.15925300355E+03  0.16489551252E+03  0.41800000000E+01 0.  1.
         -5    1    3    3    0  502 -0.60515678716E+02 -0.79073842372E+02 -0.25843533317E+03  0.27698576452E+03  0.41800000000E+01 0.  1.
        -11    1    1    2    0    0  0.43086706256E+01  0.87038995844E+02 -0.16760153904E+03  0.18890375150E+03  0.00000000000E+00 0.  1.
         11    1    1    2    0    0  0.14817724024E+02 -0.17888140626E+02 -0.95170763660E+02  0.97964405658E+02  0.00000000000E+00 0. -1.
</event>
<event>
 7    1  0.2878477E-009  0.1073025E+03  0.7561462E-02  0.1265648E+00
         -1   -1    0    0    0  501 -0.00000000000E+00  0.00000000000E+00  0.21798425118E+03  0.21798425118E+03  0.00000000000E+00 0.  1.
          1   -1    0    0  501    0  0.00000000000E+00 -0.00000000000E+00 -0.68431276729E+02  0.68431276729E+02  0.00000000000E+00 0. -1.
         25    2    1    2    0    0 -0.53123409946E+02  0.22738995546E+02  0.81595577604E+02  0.16013920400E+03  0.12509023851E+03 0.  0.
          5    1    3    3  502    0 -0.60716525696E+02  0.56099986304E+02  0.92366236663E+02  0.12402700928E+03  0.41800000000E+01 0. -1.
         -5    1    3    3    0  502  0.75931157502E+01 -0.33360990758E+02 -0.10770659059E+02  0.36112194723E+02  0.41800000000E+01 0. -1.
        -11    1    1    2    0    0  0.58086980651E+02 -0.45677327638E+02  0.71162148020E+02  0.10258931178E+03  0.00000000000E+00 0.  1.
         11    1    1    2    0    0 -0.49635707054E+01  0.22938332092E+02 -0.32047511698E+01  0.23687012125E+02  0.00000000000E+00 0. -1.
</event>
<event>
 7    1  0.2878477E-009  0.1398070E+03  0.7561462E-02  0.1213589E+00
          1   -1    0    0  501    0  0.00000000000E+00  0.00000000000E+00  0.16513699752E+03  0.16513699752E+03  0.00000000000E+00 0. -1.
         -1   -1    0    0    0  501 -0.00000000000E+00 -0.00000000000E+00 -0.16672584277E+03  0.16672584277E+03  0.00000000000E+00 0.  1.
         25    2    1    2    0    0  0.27588077980E+02 -0.93253561266E+02 -0.80581690585E+02  0.17775317457E+03  0.12508178715E+03 0.  0.
          5    1    3    3  502    0 -0.46726329411E+02 -0.56879129101E+02 -0.51572477640E+02  0.89976541595E+02  0.41800000000E+01 0. -1.
         -5    1    3    3    0  502  0.74314407391E+02 -0.36374432164E+02 -0.29009212945E+02  0.87776632977E+02  0.41800000000E+01 0. -1.
        -11    1    1    2    0    0 -0.51709310783E+02  0.80705610394E+02  0.82791554491E+02  0.12665579286E+03  0.00000000000E+00 0. -1.
         11    1    1    2    0    0  0.24121232804E+02  0.12547950871E+02 -0.37987091551E+01  0.27453872847E+02  0.00000000000E+00 0.  1.
</event>
<event>
 7    1  0.3641659E-009  0.1707634E+03  0.7561462E-02  0.1177054E+00
          1   -1    0    0  501    0  0.00000000000E+00  0.00000000000E+00  0.57531374115E+03  0.57531374115E+03  0.00000000000E+00 0. -1.
         -1   -1    0    0    0  501 -0.00000000000E+00 -0.00000000000E+00 -0.76199530637E+02  0.76199530637E+02  0.00000000000E+00 0.  1.
         25    2    1    2    0    0  0.11897490242E+03 -0.96378810335E+02  0.11688684513E+03  0.22967602690E+03  0.12507853645E+03 0.  0.
          5    1    3    3  502    0  0.83283350510E+02 -0.21139251617E+02 -0.87482964351E-01  0.86025952388E+02  0.41800000000E+01 0. -1.
         -5    1    3    3    0  502  0.35691551909E+02 -0.75239558718E+02  0.11697432810E+03  0.14365007451E+03  0.41800000000E+01 0. -1.
        -11    1    1    2    0    0 -0.99797626935E+02  0.11005538303E+03  0.28045645433E+03  0.31737608046E+03  0.00000000000E+00 0.  1.
         11    1    1    2    0    0 -0.19177275484E+02 -0.13676572700E+02  0.10177091106E+03  0.10446116443E+03  0.00000000000E+00 0. -1.
</event>
<event>
 7    1  0.2878477E-009  0.8753679E+02  0.7561462E-02  0.1308929E+00
         -1   -1    0    0    0  501 -0.00000000000E+00  0.00000000000E+00  0.12283691106E+03  0.12283691106E+03  0.00000000000E+00 0.  1.
          1   -1    0    0  501    0  0.00000000000E+00 -0.00000000000E+00 -0.13899970733E+03  0.13899970733E+03  0.00000000000E+00 0. -1.
         25    2    1    2    0    0 -0.34109488281E+02 -0.20780062790E+02 -0.39973734342E+02  0.13726229711E+03  0.12509104912E+03 0.  0.
          5    1    3    3  502    0  0.13717477563E+02 -0.14838832739E+02  0.39303288613E+02  0.44391227101E+02  0.41800000000E+01 0.  1.
         -5    1    3    3    0  502 -0.47826965843E+02 -0.59412300510E+01 -0.79277022954E+02  0.92871070010E+02  0.41800000000E+01 0.  1.
        -11    1    1    2    0    0 -0.34852157276E+02  0.10039495980E+02 -0.20733922023E+02  0.41777504338E+02  0.00000000000E+00 0. -1.
         11    1    1    2    0    0  0.68961645556E+02  0.10740566810E+02  0.44544860096E+02  0.82796816933E+02  0.00000000000E+00 0.  1.
</event>
<event>
 7    1  0.2878477E-009  0.1148895E+03  0.7561462E-02  0.1251774E+00
         -2   -1    0    0    0  501 -0.00000000000E+00  0.00000000000E+00  0.33930314915E+02  0.33930314915E+02  0.00000000000E+00 0.  1.
          2   -1    0    0  501    0  0.00000000000E+00 -0.00000000000E+00 -0.49689307492E+03  0.49689307492E+03  0.00000000000E+00 0. -1.
         25    2    1    2    0    0 -0.42621217907E+02 -0.53556079632E+02 -0.21999499950E+03  0.26216356354E+03  0.12508841818E+03 0.  0.
          5    1    3    3  502    0  0.27359458772E+02 -0.35254013532E+02 -0.16561182265E+03  0.17156961752E+03  0.41800000000E+01 0. -1.
         -5    1    3    3    0  502 -0.69980676679E+02 -0.18302066100E+02 -0.54383176856E+02  0.90593946028E+02  0.41800000000E+01 0. -1.
        -11    1    1    2    0    0  0.66720088572E+02  0.17226826891E+02 -0.17303870043E+03  0.18625446473E+03  0.00000000000E+00 0. -1.
         11    1    1    2    0    0 -0.24098870665E+02  0.36329252741E+02 -0.69929060066E+02  0.82405361560E+02  0.00000000000E+00 0.  1.
</event>
<event>
 7    1  0.2878477E-009  0.1559555E+03  0.7561462E-02  0.1193340E+00
         -1   -1    0    0    0  501 -0.00000000000E+00  0.00000000000E+00  0.17310866346E+03  0.17310866346E+03  0.00000000000E+00 0.  1.
          1   -1    0    0  501    0  0.00000000000E+00 -0.00000000000E+00 -0.18607413185E+03  0.18607413185E+03  0.00000000000E+00 0. -1.
         25    2    1    2    0    0 -0.13458381743E+03 -0.30411846967E+02 -0.38392159950E+02  0.19015630391E+03  0.12509107731E+03 0.  0.
          5    1    3    3  502    0 -0.10646387578E+03 -0.13548191717E+01 -0.79039837166E+02  0.13266936587E+03  0.41800000000E+01 0.  1.
         -5    1    3    3    0  502 -0.28119941643E+02 -0.29057027795E+02  0.40647677216E+02  0.57486938041E+02  0.41800000000E+01 0.  1.
        -11    1    1    2    0    0  0.11279734286E+03  0.60156076684E+02  0.31501051306E+02  0.13165982816E+03  0.00000000000E+00 0. -1.
         11    1    1    2    0    0  0.21786474569E+02 -0.29744229718E+02 -0.60743597467E+01  0.37366663244E+02  0.00000000000E+00 0.  1.
</event>
<event>
 7    1  0.2878477E-009  0.1366585E+03  0.7561462E-02  0.1217897E+00
          1   -1    0    0  501    0  0.00000000000E+00  0.00000000000E+00  0.17069710005E+03  0.17069710005E+03  0.00000000000E+00 0. -1.
         -1   -1    0    0    0  501 -0.00000000000E+00 -0.00000000000E+00 -0.12271237314E+03  0.12271237314E+03  0.00000000000E+00 0.  1.
         25    2    1    2    0    0  0.67148811415E+01  0.84449973388E+02  0.68781081040E+02  0.16599625328E+03  0.12508809439E+03 0.  0.
          5    1    3    3  502    0  0.39917783957E+02  0.10218619515E+03  0.34956859658E+02  0.11521676264E+03  0.41800000000E+01 0.  1.
         -5    1    3    3    0  502 -0.33202902816E+02 -0.17736221761E+02  0.33824221382E+02  0.50779490642E+02  0.41800000000E+01 0.  1.
        -11    1    1    2    0    0  0.40719692432E+02 -0.59391251101E+02 -0.13657397187E+02  0.73293509652E+02  0.00000000000E+00 0.  1.
         11    1    1    2    0    0 -0.47434573574E+02 -0.25058722287E+02 -0.71389569401E+01  0.54119710263E+02  0.00000000000E+00 0. -1.
</event>
<event>
 7    1  0.2878477E-009  0.1239461E+03  0.7561462E-02  0.1236726E+00
          1   -1    0    0  501    0  0.00000000000E+00  0.00000000000E+00  0.27163478390E+03  0.27163478390E+03  0.00000000000E+00 0. -1.
         -1   -1    0    0    0  501 -0.00000000000E+00 -0.00000000000E+00 -0.78206036985E+02  0.78206036985E+02  0.00000000000E+00 0.  1.
         25    2    1    2    0    0 -0.86984704011E+02  0.18122647813E+02  0.58236057230E+02  0.16411732835E+03  0.12509312534E+03 0.  0.
          5    1    3    3  502    0 -0.12851435061E+02  0.41747288121E+02 -0.24672222350E+02  0.50340703255E+02  0.41800000000E+01 0.  1.
         -5    1    3    3    0  502 -0.74133268950E+02 -0.23624640308E+02  0.82908279579E+02  0.11377662509E+03  0.41800000000E+01 0.  1.
        -11    1    1    2    0    0 -0.15648035457E+02  0.11328710331E+02  0.12195916559E+02  0.22846029680E+02  0.00000000000E+00 0.  1.
         11    1    1    2    0    0  0.10263273947E+03 -0.29451358144E+02  0.12299677313E+03  0.16287746286E+03  0.00000000000E+00 0. -1.
</event>
<event>
 7    1  0.2878477E-009  0.7921578E+02  0.7561462E-02  0.1331292E+00
          1   -1    0    0  501    0  0.00000000000E+00  0.00000000000E+00  0.32351563634E+02  0.32351563634E+02  0.00000000000E+00 0. -1.
         -1   -1    0    0    0  501 -0.00000000000E+00 -0.00000000000E+00 -0.39509054884E+03  0.39509054884E+03  0.00000000000E+00 0.  1.
         25    2    1    2    0    0 -0.22323219401E+02  0.16803780074E+02 -0.16666716042E+03  0.21025386718E+03  0.12509217862E+03 0.  0.
          5    1    3    3  502    0  0.27166999809E+01 -0.39746603638E+02 -0.13465805421E+03  0.14048998869E+03  0.41800000000E+01 0. -1.
         -5    1    3    3    0  502 -0.25039919382E+02  0.56550383712E+02 -0.32009106205E+02  0.69763878481E+02  0.41800000000E+01 0. -1.
        -11    1    1    2    0    0  0.38003001581E+02 -0.10018672100E+02 -0.19620536295E+03  0.20010283949E+03  0.00000000000E+00 0.  1.
         11    1    1    2    0    0 -0.15679782180E+02 -0.67851079749E+01  0.13353815828E+00  0.17085405815E+02  0.00000000000E+00 0. -1.
</event>
<event>
 7    1  0.2878477E-009  0.1084925E+03  0.7561462E-02  0.1263387E+00
          1   -1    0    0  501    0  0.00000000000E+00  0.00000000000E+00  0.30752803938E+02  0.30752803938E+02  0.00000000000E+00 0.  1.
         -1   -1    0    0    0  501 -0.00000000000E+00 -0.00000000000E+00 -0.67533692609E+03  0.67533692609E+03  0.00000000000E+00 0. -1.
         25    2    1    2    0    0  0.25740914989E+02  0.21208418282E+02 -0.56944204902E+03  0.58397109286E+03  0.12508236644E+03 0.  0.
          5    1    3    3  502    0  0.71419298379E+02 -0.81231188178E+01 -0.26045880565E+03  0.27022761347E+03  0.41800000000E+01 0. -1.
         -5    1    3    3    0  502 -0.45678383389E+02  0.29331537099E+02 -0.30898324336E+03  0.31374347939E+03  0.41800000000E+01 0. -1.
        -11    1    1    2    0    0  0.25105560778E+02  0.13949133779E+02 -0.59430150924E+01  0.29328943785E+02  0.00000000000E+00 0.  1.
         11    1    1    2    0    0 -0.50846475767E+02 -0.35157552061E+02 -0.69199058046E+02  0.92789693389E+02  0.00000000000E+00 0. -1.
</event>
<event>
 7    1  0.2878477E-009  0.7457932E+02  0.7561462E-02  0.1345179E+00
          1   -1    0    0  501    0  0.00000000000E+00  0.00000000000E+00  0.13563753417E+03  0.13563753417E+03  0.00000000000E+00 0. -1.
         -1   -1    0    0    0  501 -0.00000000000E+00 -0.00000000000E+00 -0.17362738949E+03  0.17362738949E+03  0.00000000000E+00 0.  1.
         25    2    1    2    0    0 -0.27863860539E+02 -0.67176244818E+02  0.61391094729E+02  0.15717950317E+03  0.12508991612E+03 0.  0.
          5    1    3    3  502    0 -0.97155947959E+01 -0.47609464034E+02 -0.33074563871E+02  0.58927523477E+02  0.41800000000E+01 0. -1.
         -5    1    3    3    0  502 -0.18148265743E+02 -0.19566780783E+02  0.94465658601E+02  0.98251979698E+02  0.41800000000E+01 0. -1.
        -11    1    1    2    0    0  0.15017192408E+02  0.23841299116E+02 -0.10295903773E+03  0.10674496269E+03  0.00000000000E+00 0.  1.
         11    1    1    2    0    0  0.12846668131E+02  0.43334945702E+02  0.35780876703E+01  0.45340457788E+02  0.00000000000E+00 0. -1.
</event>
<event>
 7    1  0.2878477E-009  0.5525944E+02  0.7561462E-02  0.1418876E+00
          1   -1    0    0  501    0  0.00000000000E+00  0.00000000000E+00  0.10029439065E+03  0.10029439065E+03  0.00000000000E+00 0. -1.
         -1   -1    0    0    0  501 -0.00000000000E+00 -0.00000000000E+00 -0.14717740837E+03  0.14717740837E+03  0.00000000000E+00 0.  1.
         25    2    1    2    0    0 -0.13081671504E+02  0.36517036905E+02 -0.66150659557E+02  0.14672311355E+03  0.12508852137E+03 0.  0.
          5    1    3    3  502    0  0.75153313740E+01  0.34639559759E+01 -0.96641616083E+02  0.97085290110E+02  0.41800000000E+01 0.  1.
         -5    1    3    3    0  502 -0.20597002878E+02  0.33053080929E+02  0.30490956526E+02  0.49637823445E+02  0.41800000000E+01 0.  1.
        -11    1    1    2    0    0  0.30847786625E+02 -0.15386923844E+02  0.49170753454E+02  0.60050864776E+02  0.00000000000E+00 0. -1.
         11    1    1    2    0    0 -0.17766115121E+02 -0.21130113061E+02 -0.29903111622E+02  0.40697820693E+02  0.00000000000E+00 0.  1.
</event>
<event>
 7    1  0.2878477E-009  0.1037580E+03  0.7561462E-02  0.1272586E+00
          1   -1    0    0  501    0  0.00000000000E+00  0.00000000000E+00  0.16084274446E+03  0.16084274446E+03  0.00000000000E+00 0. -1.
         -1   -1    0    0    0  501 -0.00000000000E+00 -0.00000000000E+00 -0.15635884572E+03  0.15635884572E+03  0.00000000000E+00 0.  1.
         25    2    1    2    0    0  0.18303234500E+00 -0.25917745298E+02 -0.10991050126E+03  0.16852288060E+03  0.12509148642E+03 0.  0.
          5    1    3    3  502    0 -0.33065724470E+02  0.32473260324E+02 -0.92811167961E+01  0.47449618542E+02  0.41800000000E+01 0. -1.
         -5    1    3    3    0  502  0.33248756815E+02 -0.58391005622E+02 -0.10062938446E+03  0.12107326205E+03  0.41800000000E+01 0. -1.
        -11    1    1    2    0    0  0.70732916680E-01 -0.33870529804E+02  0.29963121874E+02  0.45221747697E+02  0.00000000000E+00 0.  1.
         11    1    1    2    0    0 -0.25376526168E+00  0.59788275102E+02  0.84431278131E+02  0.10345696189E+03  0.00000000000E+00 0. -1.
</event>
<event>
 7    1  0.2878477E-009  0.6628043E+02  0.7561462E-02  0.1373219E+00
         -2   -1    0    0    0  501 -0.00000000000E+00  0.00000000000E+00  0.15545824075E+03  0.15545824075E+03  0.00000000000E+00 0. -1.
          2   -1    0    0  501    0  0.00000000000E+00 -0.00000000000E+00 -0.80180309716E+02  0.80180309716E+02  0.00000000000E+00 0.  1.
         25    2    1    2    0    0 -0.10318047656E+02 -0.17651036875E+02  0.60331177848E+02  0.14037999846E+03  0.12509465111E+03 0.  0.
          5    1    3    3  502    0  0.11773946843E+02 -0.15450903884E+02  0.96067923792E+02  0.98101348802E+02  0.41800000000E+01 0.  1.
         -5    1    3    3    0  502 -0.22091994499E+02 -0.22001329905E+01 -0.35736745944E+02  0.42278649656E+02  0.41800000000E+01 0.  1.
        -11    1    1    2    0    0  0.31876736530E+02 -0.26182402229E+02 -0.67658567666E+01  0.41802169036E+02  0.00000000000E+00 0.  1.
         11    1    1    2    0    0 -0.21558688874E+02  0.43833439104E+02  0.21712609956E+02  0.53456382974E+02  0.00000000000E+00 0. -1.
</event>
<event>
 7    1  0.2878477E-009  0.1078630E+03  0.7561462E-02  0.1264579E+00
          3   -1    0    0  501    0  0.00000000000E+00  0.00000000000E+00  0.77435054206E+02  0.77435054206E+02  0.00000000000E+00 0. -1.
         -3   -1    0    0    0  501 -0.00000000000E+00 -0.00000000000E+00 -0.17455400515E+03  0.17455400515E+03  0.00000000000E+00 0.  1.
         25    2    1    2    0    0 -0.18980758187E+02 -0.51700512877E+01 -0.87238696303E+02  0.15377994624E+03  0.12510269031E+03 0.  0.
          5    1    3    3  502    0 -0.20666845186E+02 -0.64070142999E+02 -0.49801606654E+02  0.83843748361E+02  0.41800000000E+01 0. -1.
         -5    1    3    3    0  502  0.16860869990E+01  0.58900091712E+02 -0.37437089650E+02  0.69936197884E+02  0.41800000000E+01 0. -1.
        -11    1    1    2    0    0  0.29464076835E+02  0.41778560310E+02  0.14318887286E+02  0.53090587287E+02  0.00000000000E+00 0.  1.
         11    1    1    2    0    0 -0.10483318648E+02 -0.36608509023E+02 -0.24199141927E+02  0.45118525827E+02  0.00000000000E+00 0. -1.
</event>
<event>
 7    1  0.2878477E-009  0.2449484E+03  0.7561462E-02  0.1116540E+00
          1   -1    0    0  501    0  0.00000000000E+00  0.00000000000E+00  0.14315455351E+03  0.14315455351E+03  0.00000000000E+00 0. -1.
         -1   -1    0    0    0  501 -0.00000000000E+00 -0.00000000000E+00 -0.43349379129E+03  0.43349379129E+03  0.00000000000E+00 0.  1.
         25    2    1    2    0    0  0.21371003996E+03 -0.66725896372E+02 -0.16297617090E+03  0.30386501587E+03  0.12509352166E+03 0.  0.
          5    1    3    3  502    0  0.21180470149E+03 -0.28284374365E+02 -0.11663465889E+03  0.24347967771E+03  0.41800000000E+01 0.  1.
         -5    1    3    3    0  502  0.19053384766E+01 -0.38441522006E+02 -0.46341512014E+02  0.60385338159E+02  0.41800000000E+01 0.  1.
        -11    1    1    2    0    0 -0.16682542373E+03  0.14777339931E+02 -0.11098548838E+03  0.20091508258E+03  0.00000000000E+00 0.  1.
         11    1    1    2    0    0 -0.46884616235E+02  0.51948556441E+02 -0.16377578506E+02  0.71868246351E+02  0.00000000000E+00 0. -1.
</event>
<event>
 7    1  0.2878477E-009  0.7258020E+02  0.7561462E-02  0.1351532E+00
          2   -1    0    0  501    0  0.00000000000E+00  0.00000000000E+00  0.13637079194E+03  0.13637079194E+03  0.00000000000E+00 0. -1.
         -2   -1    0    0    0  501 -0.00000000000E+00 -0.00000000000E+00 -0.94761266857E+02  0.94761266857E+02  0.00000000000E+00 0.  1.
         25    2    1    2    0    0 -0.16507177306E+02 -0.17346079847E+02  0.30532003917E+00  0.12736230660E+03  0.12509072921E+03 0.  0.
          5    1    3    3  502    0  0.14820752756E+02  0.42919065897E+02 -0.28166741998E+02  0.53596069674E+02  0.41800000000E+01 0.  1.
         -5    1    3    3    0  502 -0.31327930062E+02 -0.60265145744E+02  0.28472062037E+02  0.73766236926E+02  0.41800000000E+01 0.  1.
        -11    1    1    2    0    0  0.15459656734E+02  0.13899732908E+01  0.69577486016E+02  0.71287864131E+02  0.00000000000E+00 0. -1.
         11    1    1    2    0    0  0.10475205723E+01  0.15956106556E+02 -0.28273280969E+02  0.32481888069E+02  0.00000000000E+00 0.  1.
</event>
<event>
 7    1  0.2878477E-009  0.1243739E+03  0.7561462E-02  0.1236051E+00
         -3   -1    0    0    0  501 -0.00000000000E+00  0.00000000000E+00  0.15197741545E+02  0.15197741545E+02  0.00000000000E+00 0.  1.
          3   -1    0    0  501    0  0.00000000000E+00 -0.00000000000E+00 -0.11695242833E+04  0.11695242833E+04  0.00000000000E+00 0. -1.
         25    2    1    2    0    0  0.57538508981E+02 -0.38252480701E+02 -0.78589059457E+03  0.79877826891E+03  0.12509501972E+03 0.  0.
          5    1    3    3  502    0  0.86185226318E+02  0.69197405608E+01 -0.55680813672E+03  0.56349671655E+03  0.41800000000E+01 0. -1.
         -5    1    3    3    0  502 -0.28646717337E+02 -0.45172221261E+02 -0.22908245785E+03  0.23528155236E+03  0.41800000000E+01 0. -1.
        -11    1    1    2    0    0 -0.22907199482E+01  0.51635015759E+02 -0.11300805931E+03  0.12426682469E+03  0.00000000000E+00 0.  1.
         11    1    1    2    0    0 -0.55247789033E+02 -0.13382535059E+02 -0.25542788786E+03  0.26167693123E+03  0.00000000000E+00 0. -1.
</event>
<event>
 7    1  0.3392932E-009  0.1077393E+03  0.7561462E-02  0.1264815E+00
          3   -1    0    0  501    0  0.00000000000E+00  0.00000000000E+00  0.17740644265E+03  0.17740644265E+03  0.00000000000E+00 0. -1.
         -3   -1    0    0    0  501 -0.00000000000E+00 -0.00000000000E+00 -0.11397415905E+03  0.11397415905E+03  0.00000000000E+00 0.  1.
         25    2    1    2    0    0 -0.12618503409E+02  0.76391564915E+02  0.84945892102E+02  0.16989243658E+03  0.12511090122E+03 0.  0.
          5    1    3    3  502    0  0.46005590796E+02  0.57504735775E+02  0.78669808910E+02  0.10784118070E+03  0.41800000000E+01 0. -1.
         -5    1    3    3    0  502 -0.58624094204E+02  0.18886829140E+02  0.62760831912E+01  0.62051255882E+02  0.41800000000E+01 0. -1.
        -11    1    1    2    0    0 -0.32760137134E+01 -0.41653412265E+02  0.34159606173E+02  0.53968673442E+02  0.00000000000E+00 0. -1.
         11    1    1    2    0    0  0.15894517122E+02 -0.34738152650E+02 -0.55673214672E+02  0.67519491675E+02  0.00000000000E+00 0.  1.
</event>
<event>
 7    1  0.2878477E-009  0.4496123E+03  0.7561462E-02  0.1027838E+00
          1   -1    0    0  501    0  0.00000000000E+00  0.00000000000E+00  0.61967821352E+03  0.61967821352E+03  0.00000000000E+00 0. -1.
         -1   -1    0    0    0  501 -0.00000000000E+00 -0.00000000000E+00 -0.35786194979E+03  0.35786194979E+03  0.00000000000E+00 0.  1.
         25    2    1    2    0    0  0.43762238171E+03 -0.15569494684E+02  0.27415777981E+03  0.53157230647E+03  0.12510343974E+03 0.  0.
          5    1    3    3  502    0  0.31262458303E+03  0.45445394744E+02  0.18101573977E+03  0.36412028818E+03  0.41800000000E+01 0.  1.
         -5    1    3    3    0  502  0.12499779868E+03 -0.61014889428E+02  0.93142040040E+02  0.16745201829E+03  0.41800000000E+01 0.  1.
        -11    1    1    2    0    0 -0.32338065857E+03  0.44113393242E+02 -0.26077450734E+02  0.32741575288E+03  0.00000000000E+00 0.  1.
         11    1    1    2    0    0 -0.11424172314E+03 -0.28543898558E+02  0.13735934657E+02  0.11855210396E+03  0.00000000000E+00 0. -1.
</event>
<event>
 7    1  0.2878477E-009  0.1721838E+03  0.7561462E-02  0.1175589E+00
          2   -1    0    0  501    0  0.00000000000E+00  0.00000000000E+00  0.40871969505E+03  0.40871969505E+03  0.00000000000E+00 0. -1.
         -2   -1    0    0    0  501 -0.00000000000E+00 -0.00000000000E+00 -0.12823405340E+03  0.12823405340E+03  0.00000000000E+00 0.  1.
         25    2    1    2    0    0  0.19527562854E+02 -0.16121767761E+03  0.28500738796E+03  0.35106929159E+03  0.12509185035E+03 0.  0.
          5    1    3    3  502    0 -0.34259804009E+01 -0.90947781862E+02  0.25568546038E+03  0.27143279724E+03  0.41800000000E+01 0.  1.
         -5    1    3    3    0  502  0.22953543255E+02 -0.70269895743E+02  0.29321927576E+02  0.79636494351E+02  0.41800000000E+01 0.  1.
        -11    1    1    2    0    0  0.27052555112E+02  0.32239490105E+02 -0.22260234614E+02  0.47610329818E+02  0.00000000000E+00 0.  1.
         11    1    1    2    0    0 -0.46580117966E+02  0.12897818750E+03  0.17738488304E+02  0.13827412704E+03  0.00000000000E+00 0. -1.
</event>
<event>
 7    1  0.2878477E-009  0.1244014E+03  0.7561462E-02  0.1236008E+00
          1   -1    0    0  501    0  0.00000000000E+00  0.00000000000E+00  0.55775086021E+02  0.55775086021E+02  0.00000000000E+00 0. -1.
         -1   -1    0    0    0  501 -0.00000000000E+00 -0.00000000000E+00 -0.41388733030E+03  0.41388733030E+03  0.00000000000E+00 0.  1.
         25    2    1    2    0    0  0.71326458189E+02  0.76009221684E+02 -0.19783694304E+03  0.25622590224E+03  0.12508953405E+03 0.  0.
          5    1    3    3  502    0  0.53242453302E+02  0.99597499571E+02 -0.19588441513E+03  0.22614729105E+03  0.41800000000E+01 0.  1.
         -5    1    3    3    0  502  0.18084004887E+02 -0.23588277887E+02 -0.19525279095E+01  0.30078611200E+02  0.41800000000E+01 0.  1.
        -11    1    1    2    0    0 -0.31121266937E+02 -0.46285169681E+02 -0.15307667117E+03  0.16292120011E+03  0.00000000000E+00 0.  1.
         11    1    1    2    0    0 -0.40205191253E+02 -0.29724052003E+02 -0.71986300724E+01  0.50515313976E+02  0.00000000000E+00 0. -1.
</event>
<event>
 7    1  0.2878477E-009  0.1337798E+03  0.7561462E-02  0.1221953E+00
         -2   -1    0    0    0  501 -0.00000000000E+00  0.00000000000E+00  0.38998633138E+03  0.38998633138E+03  0.00000000000E+00 0.  1.
          2   -1    0    0  501    0  0.00000000000E+00 -0.00000000000E+00 -0.78783897683E+02  0.78783897683E+02  0.00000000000E+00 0. -1.
         25    2    1    2    0    0 -0.54305684559E+02  0.51348822469E+02  0.31418252403E+03  0.34632901494E+03  0.12508924508E+03 0.  0.
          5    1    3    3  502    0  0.19024225775E+02 -0.30022806883E+02  0.87403830649E+02  0.94446768667E+02  0.41800000000E+01 0. -1.
         -5    1    3    3    0  502 -0.73329910334E+02  0.81371629353E+02  0.22677869339E+03  0.25188224627E+03  0.41800000000E+01 0. -1.
        -11    1    1    2    0    0  0.54045461253E+02  0.14775783025E+02  0.25373753849E+01  0.56086307776E+02  0.00000000000E+00 0. -1.
         11    1    1    2    0    0  0.26022330572E+00 -0.66124605495E+02 -0.55174657259E+01  0.66354906345E+02  0.00000000000E+00 0.  1.
</event>
<event>
 7    1  0.2878477E-009  0.2754454E+03  0.7561462E-02  0.1098203E+00
          2   -1    0    0  501    0  0.00000000000E+00  0.00000000000E+00  0.28674972351E+03  0.28674972351E+03  0.00000000000E+00 0. -1.
         -2   -1    0    0    0  501 -0.00000000000E+00 -0.00000000000E+00 -0.28437538776E+03  0.28437538776E+03  0.00000000000E+00 0.  1.
         25    2    1    2    0    0 -0.25805585796E+03  0.41374964308E+02 -0.35161709939E+02  0.29187214695E+03  0.12509312859E+03 0.  0.
          5    1    3    3  502    0 -0.19381013734E+03 -0.26844963812E+02 -0.18215369009E+02  0.19655099462E+03  0.41800000000E+01 0. -1.
         -5    1    3    3    0  502 -0.64245720619E+02  0.68219928120E+02 -0.16946340930E+02  0.95321152330E+02  0.41800000000E+01 0. -1.
        -11    1    1    2    0    0  0.13011433758E+03 -0.18815314113E+02 -0.26968629077E+02  0.13420530483E+03  0.00000000000E+00 0.  1.
         11    1    1    2    0    0  0.12794152038E+03 -0.22559650196E+02  0.64504674763E+02  0.14504765948E+03  0.00000000000E+00 0. -1.
</event>
<event>
 7    1  0.2878477E-009  0.1302173E+03  0.7561462E-02  0.1227134E+00
          2   -1    0    0  501    0  0.00000000000E+00  0.00000000000E+00  0.37319240211E+03  0.37319240211E+03  0.00000000000E+00 0. -1.
         -2   -1    0    0    0  501 -0.00000000000E+00 -0.00000000000E+00 -0.69744360719E+02  0.69744360719E+02  0.00000000000E+00 0.  1.
         25    2    1    2    0    0 -0.56544279193E+02  0.76353050976E+02  0.25880890161E+03  0.30274728041E+03  0.12508726691E+03 0.  0.
          5    1    3    3  502    0 -0.87640430972E+02  0.53871032096E+02  0.23703621832E+03  0.25843098583E+03  0.41800000000E+01 0.  1.
         -5    1    3    3    0  502  0.31096151779E+02  0.22482018880E+02  0.21772683286E+02  0.44316294586E+02  0.41800000000E+01 0.  1.
        -11    1    1    2    0    0 -0.11651689009E+02 -0.39866373524E+02 -0.13233318699E+02  0.43591401888E+02  0.00000000000E+00 0.  1.
         11    1    1    2    0    0  0.68195968202E+02 -0.36486677451E+02  0.57872458477E+02  0.96598080523E+02  0.00000000000E+00 0. -1.
</event>
<event>
 7    1  0.2878477E-009  0.1122466E+03  0.7561462E-02  0.1256465E+00
          2   -1    0    0  501    0  0.00000000000E+00  0.00000000000E+00  0.23246836165E+03  0.23246836165E+03  0.00000000000E+00 0. -1.
         -2   -1    0    0    0  501 -0.00000000000E+00 -0.00000000000E+00 -0.65083410080E+02  0.65083410080E+02  0.00000000000E+00 0.  1.
         25    2    1    2    0    0  0.28630808875E+02 -0.49037023003E+02  0.11389349152E+03  0.17844874275E+03  0.12509146069E+03 0.  0.
          5    1    3    3  502    0  0.23415071563E+02 -0.88337025102E+02  0.10163161041E+03  0.13674118697E+03  0.41800000000E+01 0.  1.
         -5    1    3    3    0  502  0.52157373124E+01  0.39300002099E+02  0.12261881108E+02  0.41707555778E+02  0.41800000000E+01 0.  1.
        -11    1    1    2    0    0 -0.43394365453E+02  0.15558890724E+01  0.54106447525E+02  0.69375784015E+02  0.00000000000E+00 0. -1.
         11    1    1    2    0    0  0.14763556578E+02  0.47481133930E+02 -0.61498747260E+00  0.49727244964E+02  0.00000000000E+00 0.  1.
</event>
<event>
 7    1  0.2878477E-009  0.2182136E+03  0.7561462E-02  0.1135222E+00
          2   -1    0    0  501    0  0.00000000000E+00  0.00000000000E+00  0.32762754376E+03  0.32762754376E+03  0.00000000000E+00 0. -1.
         -2   -1    0    0    0  501 -0.00000000000E+00 -0.00000000000E+00 -0.17662323830E+03  0.17662323830E+03  0.00000000000E+00 0.  1.
         25    2    1    2    0    0  0.14196054746E+03  0.15834477665E+03  0.10673317296E+03  0.26882349905E+03  0.12509291788E+03 0.  0.
          5    1    3    3  502    0  0.10602852202E+03  0.13514613836E+03  0.13402610677E+03  0.21791511166E+03  0.41800000000E+01 0. -1.
         -5    1    3    3    0  502  0.35932025436E+02  0.23198638289E+02 -0.27292933806E+02  0.50908387385E+02  0.41800000000E+01 0. -1.
        -11    1    1    2    0    0 -0.31636823695E+02 -0.80813577027E+02  0.50558767455E+02  0.10043859722E+03  0.00000000000E+00 0.  1.
         11    1    1    2    0    0 -0.11032372376E+03 -0.77531199623E+02 -0.62876349591E+01  0.13498868580E+03  0.00000000000E+00 0. -1.
</event>
<event>
 7    1  0.2878477E-009  0.1010402E+03  0.7561462E-02  0.1278124E+00
         -2   -1    0    0    0  501 -0.00000000000E+00  0.00000000000E+00  0.10146765995E+02  0.10146765995E+02  0.00000000000E+00 0.  1.
          2   -1    0    0  501    0  0.00000000000E+00 -0.00000000000E+00 -0.12329152274E+04  0.12329152274E+04  0.00000000000E+00 0. -1.
         25    2    1    2    0    0  0.20233561548E+02  0.24684207932E+02 -0.88360749399E+03  0.89298617431E+03  0.12507356607E+03 0.  0.
          5    1    3    3  502    0  0.63927534135E+01  0.68925560570E+02 -0.31834522761E+03  0.32581092145E+03  0.41800000000E+01 0.  1.
         -5    1    3    3    0  502  0.13840808135E+02 -0.44241352638E+02 -0.56526226638E+03  0.56717525285E+03  0.41800000000E+01 0.  1.
        -11    1    1    2    0    0  0.12527329641E+01 -0.51675056807E+02 -0.22219640288E+03  0.22812961730E+03  0.00000000000E+00 0.  1.
         11    1    1    2    0    0 -0.21486294513E+02  0.26990848875E+02 -0.11696456454E+03  0.12194620180E+03  0.00000000000E+00 0. -1.
</event>
<event>
 7    1  0.2878477E-009  0.1170037E+03  0.7561462E-02  0.1248123E+00
          2   -1    0    0  501    0  0.00000000000E+00  0.00000000000E+00  0.54988290123E+03  0.54988290123E+03  0.00000000000E+00 0. -1.
         -2   -1    0    0    0  501 -0.00000000000E+00 -0.00000000000E+00 -0.36085031170E+02  0.36085031170E+02  0.00000000000E+00 0.  1.
         25    2    1    2    0    0  0.84186114057E+02  0.26786987178E+02  0.25091855489E+03  0.29396279965E+03  0.12509661029E+03 0.  0.
          5    1    3    3  502    0 -0.92093693101E+01 -0.69204585299E-01 -0.10774111003E+02  0.14777386111E+02  0.41800000000E+01 0. -1.
         -5    1    3    3    0  502  0.93395483368E+02  0.26856191764E+02  0.26169266589E+03  0.27918541354E+03  0.41800000000E+01 0. -1.
        -11    1    1    2    0    0  0.10600800800E+02 -0.29963493440E+02  0.77782251844E+02  0.84025392701E+02  0.00000000000E+00 0.  1.
         11    1    1    2    0    0 -0.94786914858E+02  0.31765062622E+01  0.18509706333E+03  0.20797974006E+03  0.00000000000E+00 0. -1.
</event>
<event>
 7    1  0.2878477E-009  0.1601872E+03  0.7561462E-02  0.1188486E+00
         -2   -1    0    0    0  501 -0.00000000000E+00  0.00000000000E+00  0.66415076952E+02  0.66415076952E+02  0.00000000000E+00 0.  1.
          2   -1    0    0  501    0  0.00000000000E+00 -0.00000000000E+00 -0.43722997686E+03  0.43722997686E+03  0.00000000000E+00 0. -1.
         25    2    1    2    0    0 -0.73117574672E+02  0.10838197601E+03 -0.19424983215E+03  0.26546973020E+03  0.12509335678E+03 0.  0.
          5    1    3    3  502    0  0.11452170300E+02 -0.11166314806E+02 -0.74339896774E+02  0.76155967877E+02  0.41800000000E+01 0.  1.
         -5    1    3    3    0  502 -0.84569744972E+02  0.11954829082E+03 -0.11990993538E+03  0.18931376232E+03  0.41800000000E+01 0.  1.
        -11    1    1    2    0    0 -0.19510416189E+02 -0.31093937298E+02 -0.60529604860E+02  0.70790693888E+02  0.00000000000E+00 0. -1.
         11    1    1    2    0    0  0.92627990861E+02 -0.77288038713E+02 -0.11603546290E+03  0.16738462973E+03  0.00000000000E+00 0.  1.
</event>
<event>
 7    1  0.2878477E-009  0.1048016E+03  0.7561462E-02  0.1270511E+00
         -2   -1    0    0    0  501 -0.00000000000E+00  0.00000000000E+00  0.12399347573E+02  0.12399347573E+02  0.00000000000E+00 0.  1.
          2   -1    0    0  501    0  0.00000000000E+00 -0.00000000000E+00 -0.13781387917E+04  0.13781387917E+04  0.00000000000E+00 0. -1.
         25    2    1    2    0    0  0.28261817473E+01  0.47792945460E+02 -0.10498412149E+04  0.10583506755E+04  0.12508965943E+03 0.  0.
          5    1    3    3  502    0  0.23530986833E+02 -0.23082829719E+02 -0.69949200957E+03  0.70028070673E+03  0.41800000000E+01 0. -1.
         -5    1    3    3    0  502 -0.20704805086E+02  0.70875775179E+02 -0.35034920536E+03  0.35806996881E+03  0.41800000000E+01 0. -1.
        -11    1    1    2    0    0  0.43710707011E+02 -0.27571614376E+02 -0.14616798179E+03  0.15503515320E+03  0.00000000000E+00 0.  1.
         11    1    1    2    0    0 -0.46536888759E+02 -0.20221331084E+02 -0.16973024745E+03  0.17715231058E+03  0.00000000000E+00 0. -1.
</event>
<event>
 7    1  0.2878477E-009  0.1821187E+03  0.7561462E-02  0.1165768E+00
         -3   -1    0    0    0  501 -0.00000000000E+00  0.00000000000E+00  0.28168487735E+03  0.28168487735E+03  0.00000000000E+00 0.  1.
          3   -1    0    0  501    0  0.00000000000E+00 -0.00000000000E+00 -0.13626416045E+03  0.13626416045E+03  0.00000000000E+00 0. -1.
         25    2    1    2    0    0 -0.24918511899E+02  0.15517080788E+03  0.12404000272E+03  0.23607508025E+03  0.12508640768E+03 0.  0.
          5    1    3    3  502    0  0.40756911471E+02  0.77737483721E+02  0.97071382091E+02  0.13093726677E+03  0.41800000000E+01 0.  1.
         -5    1    3    3    0  502 -0.65675423370E+02  0.77433324156E+02  0.26968620630E+02  0.10513781348E+03  0.41800000000E+01 0.  1.
        -11    1    1    2    0    0  0.39953174812E+02 -0.33476046832E+02  0.27823018355E+02  0.59084873186E+02  0.00000000000E+00 0. -1.
         11    1    1    2    0    0 -0.15034662913E+02 -0.12169476105E+03 -0.64423041742E+01  0.12278908436E+03  0.00000000000E+00 0.  1.
</event>
<event>
 7    1  0.2878477E-009  0.1700142E+03  0.7561462E-02  0.1177833E+00
         -2   -1    0    0    0  501 -0.00000000000E+00  0.00000000000E+00  0.51307015471E+02  0.51307015471E+02  0.00000000000E+00 0.  1.
          2   -1    0    0  501    0  0.00000000000E+00 -0.00000000000E+00 -0.66718451129E+03  0.66718451129E+03  0.00000000000E+00 0. -1.
         25    2    1    2    0    0 -0.13623851058E+03  0.38281813701E+02 -0.23212049725E+03  0.29925701356E+03  0.12509358856E+03 0.  0.
          5    1    3    3  502    0 -0.13527444236E+03  0.24715602120E+01 -0.11800276885E+03  0.17957563649E+03  0.41800000000E+01 0. -1.
         -5    1    3    3    0  502 -0.96406821822E+00  0.35810253489E+02 -0.11411772839E+03  0.11968137707E+03  0.41800000000E+01 0. -1.
        -11    1    1    2    0    0  0.12788891700E+03  0.15547767780E+01 -0.28252533197E+03  0.31012667675E+03  0.00000000000E+00 0.  1.
         11    1    1    2    0    0  0.83495935798E+01 -0.39836590479E+02 -0.10123166660E+03  0.10910783646E+03  0.00000000000E+00 0. -1.
</event>
<event>
 7    1  0.2878477E-009  0.1233192E+03  0.7561462E-02  0.1237720E+00
          2   -1    0    0  501    0  0.00000000000E+00  0.00000000000E+00  0.44522971941E+03  0.44522971941E+03  0.00000000000E+00 0. -1.
         -2   -1    0    0    0  501 -0.00000000000E+00 -0.00000000000E+00 -0.48014296550E+02  0.48014296550E+02  0.00000000000E+00 0.  1.
         25    2    1    2    0    0 -0.61270811685E+02  0.13487996326E+01  0.88068600233E+02  0.16480249468E+03  0.12509137572E+03 0.  0.
          5    1    3    3  502    0  0.33874407091E+02  0.18802674158E+02  0.42918379129E+02  0.57969609955E+02  0.41800000000E+01 0. -1.
         -5    1    3    3    0  502 -0.95145218776E+02 -0.17453874526E+02  0.45150221103E+02  0.10683288472E+03  0.41800000000E+01 0. -1.
        -11    1    1    2    0    0 -0.77793373185E+01  0.32873948060E+02  0.89027311390E+02  0.95221198919E+02  0.00000000000E+00 0.  1.
         11    1    1    2    0    0  0.69050149003E+02 -0.34222747693E+02  0.22011951123E+03  0.23322032236E+03  0.00000000000E+00 0. -1.
</event>
<event>
 7    1  0.2878477E-009  0.1034969E+03  0.7561462E-02  0.1273110E+00
         -2   -1    0    0    0  501 -0.00000000000E+00  0.00000000000E+00  0.11468159408E+03  0.11468159408E+03  0.00000000000E+00 0.  1.
          2   -1    0    0  501    0  0.00000000000E+00 -0.00000000000E+00 -0.14342065340E+03  0.14342065340E+03  0.00000000000E+00 0. -1.
         25    2    1    2    0    0  0.41110340778E+02  0.42805254220E+02  0.12746874075E+02  0.13904301810E+03  0.12509247850E+03 0.  0.
          5    1    3    3  502    0 -0.27623838162E+02  0.72277519830E+01 -0.37015057993E+02  0.46935101489E+02  0.41800000000E+01 0. -1.
         -5    1    3    3    0  502  0.68734178940E+02  0.35577502237E+02  0.49761932068E+02  0.92107916615E+02  0.41800000000E+01 0. -1.
        -11    1    1    2    0    0  0.71125346564E+00 -0.56588203812E+02 -0.48423297713E+02  0.74481853183E+02  0.00000000000E+00 0. -1.
         11    1    1    2    0    0 -0.41821594243E+02  0.13782949592E+02  0.69373643246E+01  0.44577376193E+02  0.00000000000E+00 0.  1.
</event>
<event>
 7    1  0.2878477E-009  0.9422690E+02  0.7561462E-02  0.1292927E+00
          2   -1    0    0  501    0  0.00000000000E+00  0.00000000000E+00  0.16484825497E+02  0.16484825497E+02  0.00000000000E+00 0. -1.
         -2   -1    0    0    0  501 -0.00000000000E+00 -0.00000000000E+00 -0.71241290640E+03  0.71241290640E+03  0.00000000000E+00 0.  1.
         25    2    1    2    0    0 -0.18066657853E+01 -0.51722381650E+01 -0.39282371959E+03  0.41229511950E+03  0.12508706889E+03 0.  0.
          5    1    3    3  502    0 -0.44983952829E+02 -0.23786062357E+02 -0.73452660962E+02  0.89454449733E+02  0.41800000000E+01 0. -1.
         -5    1    3    3    0  502  0.43177287044E+02  0.18613824192E+02 -0.31937105863E+03  0.32284066977E+03  0.41800000000E+01 0. -1.
        -11    1    1    2    0    0  0.34031547252E+02  0.33156450644E+02 -0.18567483310E+03  0.19165761157E+03  0.00000000000E+00 0.  1.
         11    1    1    2    0    0 -0.32224881467E+02 -0.27984212479E+02 -0.11742952821E+03  0.12494500082E+03  0.00000000000E+00 0. -1.
</event>
<event>
 7    1  0.2878477E-009  0.1076671E+03  0.7561462E-02  0.1264952E+00
          2   -1    0    0  501    0  0.00000000000E+00  0.00000000000E+00  0.74943643512E+03  0.74943643512E+03  0.00000000000E+00 0. -1.
         -2   -1    0    0    0  501 -0.00000000000E+00 -0.00000000000E+00 -0.17869668456E+02  0.17869668456E+02  0.00000000000E+00 0.  1.
         25    2    1    2    0    0  0.23898226320E+01 -0.15650318654E+02  0.29078343861E+03  0.31694350251E+03  0.12509009507E+03 0.  0.
          5    1    3    3  502    0 -0.57583270143E+02  0.91004247039E+01  0.10584617296E+03  0.12091127102E+03  0.41800000000E+01 0. -1.
         -5    1    3    3    0  502  0.59973092775E+02 -0.24750743358E+02  0.18493726566E+03  0.19603223149E+03  0.41800000000E+01 0. -1.
        -11    1    1    2    0    0 -0.46402322806E+02  0.57208253085E+01  0.20039299173E+03  0.20577476653E+03  0.00000000000E+00 0. -1.
         11    1    1    2    0    0  0.44012500174E+02  0.99294933451E+01  0.24039033632E+03  0.24458783454E+03  0.00000000000E+00 0.  1.
</event>
<event>
 7    1  0.2878477E-009  0.1357781E+03  0.7561462E-02  0.1219125E+00
          2   -1    0    0  501    0  0.00000000000E+00  0.00000000000E+00  0.64752169610E+03  0.64752169610E+03  0.00000000000E+00 0. -1.
         -2   -1    0    0    0  501 -0.00000000000E+00 -0.00000000000E+00 -0.36672244221E+02  0.36672244221E+02  0.00000000000E+00 0.  1.
         25    2    1    2    0    0 -0.66083561317E+02 -0.69314742189E+02  0.21196306964E+03  0.26409707724E+03  0.12508937907E+03 0.  0.
          5    1    3    3  502    0  0.14282884861E+02  0.16801916599E+02  0.10319049456E+01  0.22468698876E+02  0.41800000000E+01 0.  1.
         -5    1    3    3    0  502 -0.80366446178E+02 -0.86116658788E+02  0.21093116469E+03  0.24162837837E+03  0.41800000000E+01 0.  1.
        -11    1    1    2    0    0 -0.15479870588E+02 -0.92209978013E+01  0.42675468390E+02  0.46323307267E+02  0.00000000000E+00 0.  1.
         11    1    1    2    0    0  0.81563431905E+02  0.78535739990E+02  0.35621091385E+03  0.37377355581E+03  0.00000000000E+00 0. -1.
</event>
<event>
 7    1  0.2878477E-009  0.9477057E+02  0.7561462E-02  0.1291694E+00
         -2   -1    0    0    0  501 -0.00000000000E+00  0.00000000000E+00  0.32034914006E+02  0.32034914006E+02  0.00000000000E+00 0.  1.
          2   -1    0    0  501    0  0.00000000000E+00 -0.00000000000E+00 -0.41507915188E+03  0.41507915188E+03  0.00000000000E+00 0. -1.
         25    2    1    2    0    0 -0.18010232412E+02 -0.22890303207E+02 -0.26628944944E+03  0.29563817838E+03  0.12507408677E+03 0.  0.
          5    1    3    3  502    0 -0.32923193674E+02  0.38309330409E+02 -0.53565640827E+02  0.73744774427E+02  0.41800000000E+01 0. -1.
         -5    1    3    3    0  502  0.14912961262E+02 -0.61199633615E+02 -0.21272380861E+03  0.22189340396E+03  0.41800000000E+01 0. -1.
        -11    1    1    2    0    0 -0.10708661668E+02  0.40598617134E+02 -0.15515033910E+02  0.44762031066E+02  0.00000000000E+00 0.  1.
         11    1    1    2    0    0  0.28718894080E+02 -0.17708313928E+02 -0.10123975452E+03  0.10671385643E+03  0.00000000000E+00 0. -1.
</event>
<event>
 7    1  0.2878477E-009  0.1110873E+03  0.7561462E-02  0.1258570E+00
          2   -1    0    0  501    0  0.00000000000E+00  0.00000000000E+00  0.10415492086E+03  0.10415492086E+03  0.00000000000E+00 0. -1.
         -2   -1    0    0    0  501 -0.00000000000E+00 -0.00000000000E+00 -0.17109114535E+03  0.17109114535E+03  0.00000000000E+00 0.  1.
         25    2    1    2    0    0 -0.65749492767E+02 -0.41062901988E+02 -0.46504447435E+02  0.15433733045E+03  0.12509272648E+03 0.  0.
          5    1    3    3  502    0 -0.96751027908E+02 -0.50703296275E+02 -0.17701836889E+02  0.11073578050E+03  0.41800000000E+01 0.  1.
         -5    1    3    3    0  502  0.31001535141E+02  0.96403942872E+01 -0.28802610546E+02  0.43601549942E+02  0.41800000000E+01 0.  1.
        -11    1    1    2    0    0  0.96148207880E+01  0.15970431524E+02  0.34009494277E+02  0.38783310365E+02  0.00000000000E+00 0. -1.
         11    1    1    2    0    0  0.56134671979E+02  0.25092470465E+02 -0.54441271339E+02  0.82125425401E+02  0.00000000000E+00 0.  1.
</event>
<event>
 7    1  0.3016424E-009  0.1046654E+03  0.7561462E-02  0.1270780E+00
         -1   -1    0    0    0  501 -0.00000000000E+00  0.00000000000E+00  0.43281138184E+02  0.43281138184E+02  0.00000000000E+00 0.  1.
          1   -1    0    0  501    0  0.00000000000E+00 -0.00000000000E+00 -0.47643586195E+03  0.47643586195E+03  0.00000000000E+00 0. -1.
         25    2    1    2    0    0  0.36498969292E+02 -0.73552588687E+02 -0.31765964503E+03  0.35113815840E+03  0.12509275814E+03 0.  0.
          5    1    3    3  502    0 -0.12755160594E+01 -0.28361169879E+02 -0.27919773215E+03  0.28066853927E+03  0.41800000000E+01 0.  1.
         -5    1    3    3    0  502  0.37774485352E+02 -0.45191418808E+02 -0.38461912881E+02  0.70469619127E+02  0.41800000000E+01 0.  1.
        -11    1    1    2    0    0 -0.66375893383E+02  0.44493125586E+02 -0.64319902985E+02  0.10257898112E+03  0.00000000000E+00 0. -1.
         11    1    1    2    0    0  0.29876924091E+02  0.29059463102E+02 -0.51175175752E+02  0.65999860622E+02  0.00000000000E+00 0.  1.
</event>
<event>
 7    1  0.2878477E-009  0.1634805E+03  0.7561462E-02  0.1184822E+00
          2   -1    0    0  501    0  0.00000000000E+00  0.00000000000E+00  0.43572631276E+03  0.43572631276E+03  0.00000000000E+00 0. -1.
         -2   -1    0    0    0  501 -0.00000000000E+00 -0.00000000000E+00 -0.74134963483E+02  0.74134963483E+02  0.00000000000E+00 0.  1.
         25    2    1    2    0    0  0.12451775035E+03 -0.35841535894E+02  0.10660035386E+03  0.20928607523E+03  0.12509092691E+03 0.  0.
          5    1    3    3  502    0  0.11055264167E+03  0.28406497152E+02  0.67198535969E+02  0.13252143712E+03  0.41800000000E+01 0. -1.
         -5    1    3    3    0  502  0.13965108678E+02 -0.64248033046E+02  0.39401817886E+02  0.76764638106E+02  0.41800000000E+01 0. -1.
        -11    1    1    2    0    0 -0.18409085248E+02  0.36354516415E+02  0.26392050334E+02  0.48549825997E+02  0.00000000000E+00 0.  1.
         11    1    1    2    0    0 -0.10610866510E+03 -0.51298052075E+00  0.22859894509E+03  0.25202537502E+03  0.00000000000E+00 0. -1.
</event>
<event>
 7    1  0.2878477E-009  0.8711485E+02  0.7561462E-02  0.1309993E+00
         -2   -1    0    0    0  501 -0.00000000000E+00  0.00000000000E+00  0.20421701116E+03  0.20421701116E+03  0.00000000000E+00 0.  1.
          2   -1    0    0  501    0  0.00000000000E+00 -0.00000000000E+00 -0.19947945663E+03  0.19947945663E+03  0.00000000000E+00 0. -1.
         25    2    1    2    0    0 -0.68229174908E+01  0.11411096060E+02  0.17191362645E+03  0.21302209414E+03  0.12508937730E+03 0.  0.
          5    1    3    3  502    0  0.11157854038E+02  0.49433605940E+02  0.16174431912E+03  0.16954903795E+03  0.41800000000E+01 0. -1.
         -5    1    3    3    0  502 -0.17980771529E+02 -0.38022509880E+02  0.10169307336E+02  0.43473056185E+02  0.41800000000E+01 0. -1.
        -11    1    1    2    0    0  0.30498328566E+02  0.23798083034E+02 -0.36137069137E+02  0.52937553469E+02  0.00000000000E+00 0.  1.
         11    1    1    2    0    0 -0.23675411075E+02 -0.35209179095E+02 -0.13103900279E+03  0.13773682018E+03  0.00000000000E+00 0. -1.
</event>
<event>
 7    1  0.2878477E-009  0.9493911E+02  0.7561462E-02  0.1291313E+00
         -1   -1    0    0    0  501 -0.00000000000E+00  0.00000000000E+00  0.24547564907E+03  0.24547564907E+03  0.00000000000E+00 0.  1.
          1   -1    0    0  501    0  0.00000000000E+00 -0.00000000000E+00 -0.76078828810E+02  0.76078828810E+02  0.00000000000E+00 0. -1.
         25    2    1    2    0    0  0.11540461057E+02  0.76341441556E+02  0.56258096784E+02  0.15741305791E+03  0.12511074856E+03 0.  0.
          5    1    3    3  502    0  0.27956494566E+02  0.38095201767E+02  0.91271809730E+02  0.10286314032E+03  0.41800000000E+01 0.  1.
         -5    1    3    3    0  502 -0.16416033509E+02  0.38246239789E+02 -0.35013712946E+02  0.54549917584E+02  0.41800000000E+01 0.  1.
        -11    1    1    2    0    0 -0.35502346757E+02 -0.23457574381E+02  0.93708386939E+02  0.10291713270E+03  0.00000000000E+00 0.  1.
         11    1    1    2    0    0  0.23961885700E+02 -0.52883867175E+02  0.19430336539E+02  0.61224287270E+02  0.00000000000E+00 0. -1.
</event>
<event>
 7    1  0.2878477E-009  0.1250628E+03  0.7561462E-02  0.1234971E+00
         -1   -1    0    0    0  501 -0.00000000000E+00  0.00000000000E+00  0.97571132575E+02  0.97571132575E+02  0.00000000000E+00 0.  1.
          1   -1    0    0  501    0  0.00000000000E+00 -0.00000000000E+00 -0.38478440117E+03  0.38478440117E+03  0.00000000000E+00 0. -1.
         25    2    1    2    0    0 -0.75601227151E+02 -0.28298611486E+02 -0.32375252183E+03  0.35634440580E+03  0.12509709506E+03 0.  0.
          5    1    3    3  502    0 -0.85826627984E+02 -0.63262585551E+02 -0.19283296872E+03  0.22038691210E+03  0.41800000000E+01 0. -1.
         -5    1    3    3    0  502  0.10225400833E+02  0.34963974065E+02 -0.13091955312E+03  0.13595749370E+03  0.41800000000E+01 0. -1.
        -11    1    1    2    0    0  0.19156685680E+02 -0.23379243674E+02 -0.15003171468E+02  0.33744077926E+02  0.00000000000E+00 0.  1.
         11    1    1    2    0    0  0.56444541471E+02  0.51677855160E+02  0.51542424702E+02  0.92267050023E+02  0.00000000000E+00 0. -1.
</event>
<event>
 7    1  0.2878477E-009  0.8058028E+02  0.7561462E-02  0.1327413E+00
          1   -1    0    0  501    0  0.00000000000E+00  0.00000000000E+00  0.37590408459E+02  0.37590408459E+02  0.00000000000E+00 0. -1.
         -1   -1    0    0    0  501 -0.00000000000E+00 -0.00000000000E+00 -0.27731745689E+03  0.27731745689E+03  0.00000000000E+00 0.  1.
         25    2    1    2    0    0  0.82692716689E+01  0.97709151102E+01 -0.15805083689E+03  0.20196922643E+03  0.12509056617E+03 0.  0.
          5    1    3    3  502    0 -0.33376553649E+02  0.35026914332E+02 -0.14269065962E+03  0.15072815199E+03  0.41800000000E+01 0.  1.
         -5    1    3    3    0  502  0.41645825317E+02 -0.25255999222E+02 -0.15360177275E+02  0.51241074432E+02  0.41800000000E+01 0.  1.
        -11    1    1    2    0    0 -0.27353585923E+02 -0.26683607011E+02 -0.14134124150E+02  0.40743183619E+02  0.00000000000E+00 0. -1.
         11    1    1    2    0    0  0.19084314254E+02  0.16912691901E+02 -0.67542087390E+02  0.72195455307E+02  0.00000000000E+00 0.  1.
</event>
<event>
 7    1  0.2878477E-009  0.1067439E+03  0.7561462E-02  0.1266721E+00
         -1   -1    0    0    0  501 -0.00000000000E+00  0.00000000000E+00  0.73596904563E+02  0.73596904563E+02  0.00000000000E+00 0.  1.
          1   -1    0    0  501    0  0.00000000000E+00 -0.00000000000E+00 -0.18757793070E+03  0.18757793070E+03  0.00000000000E+00 0. -1.
         25    2    1    2    0    0  0.29696453222E+02  0.28536182044E+02 -0.90831142925E+02  0.15997776297E+03  0.12508555112E+03 0.  0.
          5    1    3    3  502    0 -0.24969075879E+02  0.50572096242E+02 -0.82909032542E+02  0.10036120638E+03  0.41800000000E+01 0.  1.
         -5    1    3    3    0  502  0.54665529101E+02 -0.22035914198E+02 -0.79221103835E+01  0.59616556587E+02  0.41800000000E+01 0.  1.
        -11    1    1    2    0    0 -0.29259457546E+02  0.28477322837E+02 -0.15491256079E+02  0.43669815511E+02  0.00000000000E+00 0. -1.
         11    1    1    2    0    0 -0.43699567637E+00 -0.57013504881E+02 -0.76586271345E+01  0.57527256789E+02  0.00000000000E+00 0.  1.
</event>
<event>
 7    1  0.3524562E-009  0.3475477E+03  0.7561462E-02  0.1063626E+00
         -1   -1    0    0    0  501 -0.00000000000E+00  0.00000000000E+00  0.14808918036E+03  0.14808918036E+03  0.00000000000E+00 0.  1.
          1   -1    0    0  501    0  0.00000000000E+00 -0.00000000000E+00 -0.89636153598E+03  0.89636153598E+03  0.00000000000E+00 0. -1.
         25    2    1    2    0    0 -0.55734318684E+02  0.32975844701E+03 -0.24377368495E+03  0.43234160895E+03  0.12508680869E+03 0.  0.
          5    1    3    3  502    0 -0.85711155100E+02  0.27741636141E+03 -0.16828586887E+03  0.33562456070E+03  0.41800000000E+01 0.  1.
         -5    1    3    3    0  502  0.29976836416E+02  0.52342085599E+02 -0.75487816076E+02  0.96717048251E+02  0.41800000000E+01 0.  1.
        -11    1    1    2    0    0  0.85758720753E+01 -0.25942559964E+03 -0.34764596782E+03  0.43385816377E+03  0.00000000000E+00 0.  1.
         11    1    1    2    0    0  0.47158446609E+02 -0.70332847372E+02 -0.15685270286E+03  0.17825094362E+03  0.00000000000E+00 0. -1.
</event>
<event>
 7    1  0.2878477E-009  0.1265384E+03  0.7561462E-02  0.1232684E+00
         -2   -1    0    0    0  501 -0.00000000000E+00  0.00000000000E+00  0.20081311325E+02  0.20081311325E+02  0.00000000000E+00 0.  1.
          2   -1    0    0  501    0  0.00000000000E+00 -0.00000000000E+00 -0.12421470239E+04  0.12421470239E+04  0.00000000000E+00 0. -1.
         25    2    1    2    0    0  0.81026546271E+02 -0.93567069637E+01 -0.93587197609E+03  0.94771015511E+03  0.12508130677E+03 0.  0.
          5    1    3    3  502    0  0.55862902129E+02 -0.50572946035E+02 -0.27822144413E+03  0.28827578996E+03  0.41800000000E+01 0. -1.
         -5    1    3    3    0  502  0.25163644142E+02  0.41216239071E+02 -0.65765053196E+03  0.65943436515E+03  0.41800000000E+01 0. -1.
        -11    1    1    2    0    0 -0.80975888322E+02 -0.32517551703E+02 -0.17158150342E+03  0.19249596872E+03  0.00000000000E+00 0.  1.
         11    1    1    2    0    0 -0.50657949438E-01  0.41874258667E+02 -0.11461223308E+03  0.12202221141E+03  0.00000000000E+00 0. -1.
</event>
<event>
 7    1  0.2878477E-009  0.1072937E+03  0.7561462E-02  0.1265665E+00
          1   -1    0    0  501    0  0.00000000000E+00  0.00000000000E+00  0.53732857446E+03  0.53732857446E+03  0.00000000000E+00 0. -1.
         -1   -1    0    0    0  501 -0.00000000000E+00 -0.00000000000E+00 -0.23935128893E+02  0.23935128893E+02  0.00000000000E+00 0.  1.
         25    2    1    2    0    0 -0.64539175353E+01  0.47318791628E+02  0.32738191823E+03  0.35370623708E+03  0.12509380749E+03 0.  0.
          5    1    3    3  502    0 -0.61285329935E+02  0.40741521594E+02  0.13877318068E+03  0.15713443710E+03  0.41800000000E+01 0. -1.
         -5    1    3    3    0  502  0.54831412400E+02  0.65772700343E+01  0.18860873755E+03  0.19657179998E+03  0.41800000000E+01 0. -1.
        -11    1    1    2    0    0  0.34043776609E+02 -0.46834438105E+02  0.85014468608E+02  0.10285865637E+03  0.00000000000E+00 0.  1.
         11    1    1    2    0    0 -0.27589859074E+02 -0.48435352304E+00  0.10099705873E+03  0.10469880990E+03  0.00000000000E+00 0. -1.
</event>
<event>
 7    1  0.2878477E-009  0.1459843E+03  0.7561462E-02  0.1205496E+00
          2   -1    0    0  501    0  0.00000000000E+00  0.00000000000E+00  0.46644211050E+03  0.46644211050E+03  0.00000000000E+00 0.  1.
         -2   -1    0    0    0  501 -0.00000000000E+00 -0.00000000000E+00 -0.58683057022E+02  0.58683057022E+02  0.00000000000E+00 0. -1.
         25    2    1    2    0    0  0.10733397101E+03 -0.25319577303E+02  0.30387507672E+03  0.34661868089E+03  0.12507112122E+03 0.  0.
          5    1    3    3  502    0  0.37652188976E+02 -0.58358983138E+02  0.22789151103E+03  0.23827604044E+03  0.41800000000E+01 0. -1.
         -5    1    3    3    0  502  0.69681782029E+02  0.33039405835E+02  0.75983565694E+02  0.10834264045E+03  0.41800000000E+01 0. -1.
        -11    1    1    2    0    0 -0.40012475349E+02  0.57891653152E+02  0.49737895738E+02  0.86175982504E+02  0.00000000000E+00 0. -1.
         11    1    1    2    0    0 -0.67321495657E+02 -0.32572075849E+02  0.54146081014E+02  0.92330504124E+02  0.00000000000E+00 0.  1.
</event>
<event>
 7    1  0.2878477E-009  0.1897590E+03  0.7561462E-02  0.1158679E+00
          1   -1    0    0  501    0  0.00000000000E+00  0.00000000000E+00  0.46665643545E+03  0.46665643545E+03  0.00000000000E+00 0. -1.
         -1   -1    0    0    0  501 -0.00000000000E+00 -0.00000000000E+00 -0.84220250320E+02  0.84220250320E+02  0.00000000000E+00 0.  1.
         25    2    1    2    0    0 -0.13531479525E+03  0.95014382777E+02  0.22628506313E+03  0.30690378734E+03  0.12508868110E+03 0.  0.
          5    1    3    3  502    0  0.10369866185E+02 -0.18835934392E+02  0.17914759259E+02  0.28297306381E+02  0.41800000000E+01 0. -1.
         -5    1    3    3    0  502 -0.14568466144E+03  0.11385031717E+03  0.20837030387E+03  0.27860648096E+03  0.41800000000E+01 0. -1.
        -11    1    1    2    0    0  0.52862802084E+01 -0.23879199355E+02 -0.50680313429E+01  0.24976906573E+02  0.00000000000E+00 0.  1.
         11    1    1    2    0    0  0.13002851504E+03 -0.71135183423E+02  0.16121915335E+03  0.21899599186E+03  0.00000000000E+00 0. -1.
</event>
<event>
 7    1  0.2878477E-009  0.1337994E+03  0.7561462E-02  0.1221925E+00
         -2   -1    0    0    0  501 -0.00000000000E+00  0.00000000000E+00  0.17141585407E+03  0.17141585407E+03  0.00000000000E+00 0.  1.
          2   -1    0    0  501    0  0.00000000000E+00 -0.00000000000E+00 -0.12337943349E+03  0.12337943349E+03  0.00000000000E+00 0. -1.
         25    2    1    2    0    0 -0.88662212476E+02  0.30021068600E+02  0.70108053962E+01  0.15637399320E+03  0.12506567026E+03 0.  0.
          5    1    3    3  502    0 -0.12871632116E+02 -0.40189014852E+02 -0.23611597016E+02  0.48536746304E+02  0.41800000000E+01 0. -1.
         -5    1    3    3    0  502 -0.75790580360E+02  0.70210083452E+02  0.30622402412E+02  0.10783724690E+03  0.41800000000E+01 0. -1.
        -11    1    1    2    0    0  0.37040348523E+02 -0.53510462006E+02  0.48571347794E+02  0.81206728720E+02  0.00000000000E+00 0.  1.
         11    1    1    2    0    0  0.51621863953E+02  0.23489393405E+02 -0.75457326039E+01  0.57214565638E+02  0.00000000000E+00 0. -1.
</event>
<event>
 7    1  0.3917085E-009  0.1500650E+03  0.7561462E-02  0.1200393E+00
          1   -1    0    0  501    0  0.00000000000E+00  0.00000000000E+00  0.52643517754E+03  0.52643517754E+03  0.00000000000E+00 0. -1.
         -1   -1    0    0    0  501 -0.00000000000E+00 -0.00000000000E+00 -0.56278009393E+02  0.56278009393E+02  0.00000000000E+00 0.  1.
         25    2    1    2    0    0 -0.85576576173E+02  0.95959894057E+02  0.19083719230E+03  0.26191178460E+03  0.12508915737E+03 0.  0.
          5    1    3    3  502    0  0.11137433541E+02  0.57718283368E+02  0.12648706544E+03  0.13954172417E+03  0.41800000000E+01 0.  1.
         -5    1    3    3    0  502 -0.96714009713E+02  0.38241610689E+02  0.64350126858E+02  0.12237006043E+03  0.41800000000E+01 0.  1.
        -11    1    1    2    0    0  0.37526822334E+02 -0.76624220986E+02  0.87903177066E+02  0.12250102928E+03  0.00000000000E+00 0.  1.
         11    1    1    2    0    0  0.48049753838E+02 -0.19335673071E+02  0.19141679878E+03  0.19830037305E+03  0.00000000000E+00 0. -1.
</event>
<event>
 7    1  0.2878477E-009  0.6951146E+02  0.7561462E-02  0.1361762E+00
          1   -1    0    0  501    0  0.00000000000E+00  0.00000000000E+00  0.11049099909E+04  0.11049099909E+04  0.00000000000E+00 0. -1.
         -1   -1    0    0    0  501 -0.00000000000E+00 -0.00000000000E+00 -0.11364976588E+02  0.11364976588E+02  0.00000000000E+00 0.  1.
         25    2    1    2    0    0  0.21158244145E+02  0.20959549511E+02  0.65910836429E+03  0.67153541645E+03  0.12509598576E+03 0.  0.
          5    1    3    3  502    0  0.15768260204E+02 -0.55623428755E+01  0.63445216099E+03  0.63468621749E+03  0.41800000000E+01 0. -1.
         -5    1    3    3    0  502  0.53899839413E+01  0.26521892387E+02  0.24656203308E+02  0.36849198964E+02  0.41800000000E+01 0. -1.
        -11    1    1    2    0    0 -0.77293546097E+01  0.35518724463E+02  0.14058271622E+03  0.14520613902E+03  0.00000000000E+00 0.  1.
         11    1    1    2    0    0 -0.13428889536E+02 -0.56478273975E+02  0.29385393385E+03  0.29953341206E+03  0.00000000000E+00 0. -1.
</event>
<event>
 7    1  0.2878477E-009  0.7071061E+02  0.7561462E-02  0.1357693E+00
          2   -1    0    0  501    0  0.00000000000E+00  0.00000000000E+00  0.28776014099E+03  0.28776014099E+03  0.00000000000E+00 0. -1.
         -2   -1    0    0    0  501 -0.00000000000E+00 -0.00000000000E+00 -0.53719711713E+02  0.53719711713E+02  0.00000000000E+00 0.  1.
         25    2    1    2    0    0 -0.12158951692E+02 -0.25974446634E+02  0.18749820421E+03  0.22721297423E+03  0.12509055558E+03 0.  0.
          5    1    3    3  502    0  0.17444202121E+02 -0.83325726238E+01  0.19127438497E+03  0.19229429190E+03  0.41800000000E+01 0.  1.
         -5    1    3    3    0  502 -0.29603153813E+02 -0.17641874010E+02 -0.37761807630E+01  0.34918682326E+02  0.41800000000E+01 0.  1.
        -11    1    1    2    0    0  0.40555306646E+02  0.38475141267E+02 -0.28092875508E+01  0.55972863865E+02  0.00000000000E+00 0.  1.
         11    1    1    2    0    0 -0.28396354954E+02 -0.12500694634E+02  0.49351512626E+02  0.58294014611E+02  0.00000000000E+00 0. -1.
</event>
<event>
 7    1  0.2878477E-009  0.1320567E+03  0.7561462E-02  0.1224436E+00
         -2   -1    0    0    0  501 -0.00000000000E+00  0.00000000000E+00  0.36302899290E+02  0.36302899290E+02  0.00000000000E+00 0.  1.
          2   -1    0    0  501    0  0.00000000000E+00 -0.00000000000E+00 -0.61394863811E+03  0.61394863811E+03  0.00000000000E+00 0. -1.
         25    2    1    2    0    0  0.85168169173E+01  0.88240811952E+02 -0.19380201771E+03  0.24710864207E+03  0.12507790312E+03 0.  0.
          5    1    3    3  502    0  0.63385077260E+02  0.57869186216E+02 -0.81597084800E+02  0.11849922945E+03  0.41800000000E+01 0.  1.
         -5    1    3    3    0  502 -0.54868260343E+02  0.30371625735E+02 -0.11220493291E+03  0.12860941262E+03  0.41800000000E+01 0.  1.
        -11    1    1    2    0    0  0.27427315647E+02 -0.69666544075E+02 -0.17384757949E+03  0.18928461612E+03  0.00000000000E+00 0.  1.
         11    1    1    2    0    0 -0.35944132564E+02 -0.18574267877E+02 -0.20999614162E+03  0.21385827921E+03  0.00000000000E+00 0. -1.
</event>
<event>
 7    1  0.2878477E-009  0.1040829E+03  0.7561462E-02  0.1271937E+00
          3   -1    0    0  501    0  0.00000000000E+00  0.00000000000E+00  0.92277713014E+03  0.92277713014E+03  0.00000000000E+00 0. -1.
         -3   -1    0    0    0  501 -0.00000000000E+00 -0.00000000000E+00 -0.14308655513E+02  0.14308655513E+02  0.00000000000E+00 0.  1.
         25    2    1    2    0    0 -0.23127122622E+02 -0.67040013740E+01  0.56310621557E+03  0.57733515979E+03  0.12508984486E+03 0.  0.
          5    1    3    3  502    0 -0.46944959802E+02 -0.49993235181E+02  0.21490028992E+03  0.22561639972E+03  0.41800000000E+01 0.  1.
         -5    1    3    3    0  502  0.23817837180E+02  0.43289233807E+02  0.34820592565E+03  0.35171876007E+03  0.41800000000E+01 0.  1.
        -11    1    1    2    0    0 -0.15057393529E+01 -0.38427649299E+02  0.72318525051E+02  0.81908000508E+02  0.00000000000E+00 0.  1.
         11    1    1    2    0    0  0.24632861975E+02  0.45131650673E+02  0.27304373401E+03  0.27784262535E+03  0.00000000000E+00 0. -1.
</event>
<event>
 7    1  0.2878477E-009  0.1194359E+03  0.7561462E-02  0.1244030E+00
         -2   -1    0    0    0  501 -0.00000000000E+00  0.00000000000E+00  0.12843868247E+02  0.12843868247E+02  0.00000000000E+00 0.  1.
          2   -1    0    0  501    0  0.00000000000E+00 -0.00000000000E+00 -0.13686363339E+04  0.13686363339E+04  0.00000000000E+00 0. -1.
         25    2    1    2    0    0 -0.53480151950E+01  0.71668347190E+02 -0.86452163285E+03  0.87647578595E+03  0.12508875423E+03 0.  0.
          5    1    3    3  502    0 -0.50503142554E+02  0.72528494880E+02 -0.39600718387E+03  0.40577100938E+03  0.41800000000E+01 0. -1.
         -5    1    3    3    0  502  0.45155127359E+02 -0.86014769063E+00 -0.46851444899E+03  0.47070477657E+03  0.41800000000E+01 0. -1.
        -11    1    1    2    0    0 -0.20575295842E+02 -0.76016397694E+02 -0.44388198611E+03  0.45081376766E+03  0.00000000000E+00 0. -1.
         11    1    1    2    0    0  0.25923311037E+02  0.43480505039E+01 -0.47388846700E+02  0.54190648546E+02  0.00000000000E+00 0.  1.
</event>
<event>
 7    1  0.2878477E-009  0.2834511E+03  0.7561462E-02  0.1093819E+00
          2   -1    0    0  501    0  0.00000000000E+00  0.00000000000E+00  0.30748045371E+03  0.30748045371E+03  0.00000000000E+00 0.  1.
         -2   -1    0    0    0  501 -0.00000000000E+00 -0.00000000000E+00 -0.34548653050E+03  0.34548653050E+03  0.00000000000E+00 0. -1.
         25    2    1    2    0    0  0.26896852783E+03  0.14495709066E+02  0.12859431257E+03  0.32363266592E+03  0.12508961059E+03 0.  0.
          5    1    3    3  502    0  0.17226113285E+02  0.25333568216E+02 -0.14150120080E+02  0.34003337421E+02  0.41800000000E+01 0. -1.
         -5    1    3    3    0  502  0.25174241455E+03 -0.10837859150E+02  0.14274443266E+03  0.28962932850E+03  0.41800000000E+01 0. -1.
        -11    1    1    2    0    0 -0.14809960635E+03 -0.52720298871E+02 -0.96865882141E+02  0.18465081217E+03  0.00000000000E+00 0. -1.
         11    1    1    2    0    0 -0.12086892148E+03  0.38224589804E+02 -0.69734507225E+02  0.14468350612E+03  0.00000000000E+00 0.  1.
</event>
<event>
 7    1  0.2878477E-009  0.1350882E+03  0.7561462E-02  0.1220095E+00
          1   -1    0    0  501    0  0.00000000000E+00  0.00000000000E+00  0.86465366875E+02  0.86465366875E+02  0.00000000000E+00 0. -1.
         -1   -1    0    0    0  501 -0.00000000000E+00 -0.00000000000E+00 -0.30593811302E+03  0.30593811302E+03  0.00000000000E+00 0.  1.
         25    2    1    2    0    0  0.16808670890E+02  0.11210183936E+03 -0.65403280073E+02  0.18103861885E+03  0.12509212072E+03 0.  0.
          5    1    3    3  502    0  0.37135182278E+02  0.52110597248E+02 -0.92058094794E+02  0.11219046896E+03  0.41800000000E+01 0. -1.
         -5    1    3    3    0  502 -0.20326511389E+02  0.59991242117E+02  0.26654814721E+02  0.68848149893E+02  0.41800000000E+01 0. -1.
        -11    1    1    2    0    0 -0.46145388830E+02 -0.29138973372E+02 -0.41940877289E+02  0.68829600226E+02  0.00000000000E+00 0. -1.
         11    1    1    2    0    0  0.29336717941E+02 -0.82962865992E+02 -0.11212858878E+03  0.14253526081E+03  0.00000000000E+00 0.  1.
</event>
<event>
 7    1  0.2878477E-009  0.1171353E+03  0.7561462E-02  0.1247899E+00
         -1   -1    0    0    0  501 -0.00000000000E+00  0.00000000000E+00  0.76899781666E+02  0.76899781666E+02  0.00000000000E+00 0.  1.
          1   -1    0    0  501    0  0.00000000000E+00 -0.00000000000E+00 -0.26899080747E+03  0.26899080747E+03  0.00000000000E+00 0. -1.
         25    2    1    2    0    0 -0.34989336598E+02 -0.81941939931E+02 -0.12436704430E+03  0.19761687074E+03  0.12508609314E+03 0.  0.
          5    1    3    3  502    0 -0.85525107678E+01 -0.87585031689E+02 -0.20833176817E+02  0.90530530059E+02  0.41800000000E+01 0.  1.
         -5    1    3    3    0  502 -0.26436825831E+02  0.56430917585E+01 -0.10353386748E+03  0.10708634068E+03  0.41800000000E+01 0.  1.
        -11    1    1    2    0    0  0.28004808799E+02  0.97670667887E+02 -0.28635338511E+02  0.10556425197E+03  0.00000000000E+00 0.  1.
         11    1    1    2    0    0  0.69845277990E+01 -0.15728727957E+02 -0.39088643000E+02  0.42709466437E+02  0.00000000000E+00 0. -1.
</event>
<event>
 7    1  0.2878477E-009  0.1421363E+03  0.7561462E-02  0.1210483E+00
          1   -1    0    0  501    0  0.00000000000E+00  0.00000000000E+00  0.29547322275E+03  0.29547322275E+03  0.00000000000E+00 0. -1.
         -1   -1    0    0    0  501 -0.00000000000E+00 -0.00000000000E+00 -0.92953661817E+02  0.92953661817E+02  0.00000000000E+00 0.  1.
         25    2    1    2    0    0  0.60870729518E+02  0.85450398367E+02  0.28817285164E+02  0.16578458518E+03  0.12508827469E+03 0.  0.
          5    1    3    3  502    0  0.84112901359E+02  0.10936933747E+02  0.11216041933E+02  0.85661360551E+02  0.41800000000E+01 0.  1.
         -5    1    3    3    0  502 -0.23242171841E+02  0.74513464621E+02  0.17601243231E+02  0.80123224629E+02  0.41800000000E+01 0.  1.
        -11    1    1    2    0    0  0.12123153448E+02 -0.18601967092E+02 -0.58408538992E+00  0.22211375126E+02  0.00000000000E+00 0.  1.
         11    1    1    2    0    0 -0.72993882967E+02 -0.66848431275E+02  0.17428636116E+03  0.20043092426E+03  0.00000000000E+00 0. -1.
</event>
<event>
 7    1  0.3272637E-009  0.1113574E+03  0.7561462E-02  0.1258077E+00
         -2   -1    0    0    0  501 -0.00000000000E+00  0.00000000000E+00  0.12099687562E+03  0.12099687562E+03  0.00000000000E+00 0. -1.
          2   -1    0    0  501    0  0.00000000000E+00 -0.00000000000E+00 -0.17764424919E+03  0.17764424919E+03  0.00000000000E+00 0.  1.
         25    2    1    2    0    0  0.57471512829E+02 -0.62138219060E+02  0.19826492415E+02  0.15232302760E+03  0.12508030173E+03 0.  0.
          5    1    3    3  502    0  0.39755802460E+02 -0.77952143013E+02  0.59497895329E+02  0.10589868922E+03  0.41800000000E+01 0. -1.
         -5    1    3    3    0  502  0.17715710369E+02  0.15813923953E+02 -0.39671402914E+02  0.46424338379E+02  0.41800000000E+01 0. -1.
        -11    1    1    2    0    0 -0.25187901478E+02 -0.13629785176E+02 -0.53714087859E+02  0.60872035117E+02  0.00000000000E+00 0.  1.
         11    1    1    2    0    0 -0.32283611351E+02  0.75768004236E+02 -0.22759778131E+02  0.85446062100E+02  0.00000000000E+00 0. -1.
</event>
<event>
 7    1  0.2878477E-009  0.9331719E+02  0.7561462E-02  0.1295012E+00
          4   -1    0    0  501    0  0.00000000000E+00  0.00000000000E+00  0.35264583105E+03  0.35264583105E+03  0.00000000000E+00 0.  1.
         -4   -1    0    0    0  501 -0.00000000000E+00 -0.00000000000E+00 -0.40090127202E+02  0.40090127202E+02  0.00000000000E+00 0. -1.
         25    2    1    2    0    0  0.23346333639E+02  0.16113686722E+02  0.11034339476E+03  0.16919734465E+03  0.12508946589E+03 0.  0.
          5    1    3    3  502    0  0.28211597047E+02 -0.49049591097E+02  0.77203748791E+02  0.95810478666E+02  0.41800000000E+01 0.  1.
         -5    1    3    3    0  502 -0.48652634083E+01  0.65163277819E+02  0.33139645968E+02  0.73386865985E+02  0.41800000000E+01 0.  1.
        -11    1    1    2    0    0 -0.41346629884E+02 -0.20112403888E+02  0.19970527216E+03  0.20492986195E+03  0.00000000000E+00 0.  1.
         11    1    1    2    0    0  0.18000296245E+02  0.39987171653E+01  0.25070369366E+01  0.18608751653E+02  0.00000000000E+00 0. -1.
</event>
<event>
 7    1  0.2878477E-009  0.1148027E+03  0.7561462E-02  0.1251926E+00
          1   -1    0    0  501    0  0.00000000000E+00  0.00000000000E+00  0.21701202203E+02  0.21701202203E+02  0.00000000000E+00 0. -1.
         -1   -1    0    0    0  501 -0.00000000000E+00 -0.00000000000E+00 -0.66792672301E+03  0.66792672301E+03  0.00000000000E+00 0.  1.
         25    2    1    2    0    0 -0.27958201066E+02 -0.37953856964E+02 -0.44213116861E+03  0.46189684766E+03  0.12508625569E+03 0.  0.
          5    1    3    3  502    0  0.47631630533E+02 -0.89132754626E+01 -0.11492317324E+03  0.12479193425E+03  0.41800000000E+01 0.  1.
         -5    1    3    3    0  502 -0.75589831598E+02 -0.29040581501E+02 -0.32720799537E+03  0.33710491341E+03  0.41800000000E+01 0.  1.
        -11    1    1    2    0    0 -0.31602601185E+02  0.21043868084E+02 -0.94752754298E+02  0.10207670269E+03  0.00000000000E+00 0.  1.
         11    1    1    2    0    0  0.59560802251E+02  0.16909988880E+02 -0.10934159791E+03  0.12565437486E+03  0.00000000000E+00 0. -1.
</event>
<event>
 7    1  0.2878477E-009  0.1700453E+03  0.7561462E-02  0.1177801E+00
         -2   -1    0    0    0  501 -0.00000000000E+00  0.00000000000E+00  0.31555145615E+03  0.31555145615E+03  0.00000000000E+00 0.  1.
          2   -1    0    0  501    0  0.00000000000E+00 -0.00000000000E+00 -0.10019616304E+03  0.10019616304E+03  0.00000000000E+00 0. -1.
         25    2    1    2    0    0 -0.14029127875E+03 -0.25580232163E+01  0.12040602480E+03  0.22323559793E+03  0.12509330519E+03 0.  0.
          5    1    3    3  502    0 -0.13360934139E+03  0.35391880802E+02  0.12205299155E+03  0.18444090240E+03  0.41800000000E+01 0.  1.
         -5    1    3    3    0  502 -0.66819373552E+01 -0.37949904018E+02 -0.16469667523E+01  0.38794695530E+02  0.41800000000E+01 0.  1.
        -11    1    1    2    0    0  0.11977517020E+03  0.34894545492E+02  0.52528433052E+02  0.13536231743E+03  0.00000000000E+00 0. -1.
         11    1    1    2    0    0  0.20516108544E+02 -0.32336522275E+02  0.42420835265E+02  0.57149703825E+02  0.00000000000E+00 0.  1.
</event>
<event>
 7    1  0.2878477E-009  0.2954394E+03  0.7561462E-02  0.1087543E+00
          2   -1    0    0  501    0  0.00000000000E+00  0.00000000000E+00  0.13676681264E+04  0.13676681264E+04  0.00000000000E+00 0. -1.
         -2   -1    0    0    0  501 -0.00000000000E+00 -0.00000000000E+00 -0.72668177062E+02  0.72668177062E+02  0.00000000000E+00 0.  1.
         25    2    1    2    0    0 -0.78127961384E+01 -0.27446929226E+03  0.42778996947E+03  0.52349078424E+03  0.12507562123E+03 0.  0.
          5    1    3    3  502    0  0.33341331519E+02 -0.22771937813E+02  0.28189571152E+02  0.49419933842E+02  0.41800000000E+01 0. -1.
         -5    1    3    3    0  502 -0.41154127657E+02 -0.25169735444E+03  0.39960039832E+03  0.47407085040E+03  0.41800000000E+01 0. -1.
        -11    1    1    2    0    0  0.57227702277E+02  0.17547646828E+03  0.48461027216E+03  0.51856929789E+03  0.00000000000E+00 0.  1.
         11    1    1    2    0    0 -0.49414906138E+02  0.98992823974E+02  0.38259970773E+03  0.39827622136E+03  0.00000000000E+00 0. -1.
</event>
<event>
 7    1  0.2878477E-009  0.2347138E+03  0.7561462E-02  0.1123365E+00
         -1   -1    0    0    0  501 -0.00000000000E+00  0.00000000000E+00  0.56210569091E+02  0.56210569091E+02  0.00000000000E+00 0.  1.
          1   -1    0    0  501    0  0.00000000000E+00 -0.00000000000E+00 -0.11178105684E+04  0.11178105684E+04  0.00000000000E+00 0. -1.
         25    2    1    2    0    0 -0.48475275215E+02  0.21323224300E+03 -0.41439707374E+03  0.48496546715E+03  0.12509487535E+03 0.  0.
          5    1    3    3  502    0 -0.76075916181E+02  0.71084864438E+02 -0.13817346265E+03  0.17306062855E+03  0.41800000000E+01 0.  1.
         -5    1    3    3    0  502  0.27600640966E+02  0.14214737857E+03 -0.27622361110E+03  0.31190483860E+03  0.41800000000E+01 0.  1.
        -11    1    1    2    0    0  0.61242457803E+01 -0.87011578302E+02 -0.14240534228E+03  0.16699641510E+03  0.00000000000E+00 0.  1.
         11    1    1    2    0    0  0.42351029435E+02 -0.12622066470E+03 -0.50479758325E+03  0.52205925520E+03  0.00000000000E+00 0. -1.
</event>
<event>
 7    1  0.2878477E-009  0.1208475E+03  0.7561462E-02  0.1241705E+00
         -2   -1    0    0    0  501 -0.00000000000E+00  0.00000000000E+00  0.11073322697E+03  0.11073322697E+03  0.00000000000E+00 0. -1.
          2   -1    0    0  501    0  0.00000000000E+00 -0.00000000000E+00 -0.19278485288E+03  0.19278485288E+03  0.00000000000E+00 0.  1.
         25    2    1    2    0    0  0.40142510576E+02 -0.77287000668E+02 -0.91590805309E+02  0.17782892520E+03  0.12509815903E+03 0.  0.
          5    1    3    3  502    0 -0.40158926399E+02 -0.51785817998E+01 -0.85633682218E+01  0.41597605151E+02  0.41800000000E+01 0.  1.
         -5    1    3    3    0  502  0.80301436976E+02 -0.72108418868E+02 -0.83027437088E+02  0.13623132005E+03  0.41800000000E+01 0.  1.
        -11    1    1    2    0    0 -0.33357100596E+02  0.28940990815E+02  0.46745822825E+02  0.64307457274E+02  0.00000000000E+00 0. -1.
         11    1    1    2    0    0 -0.67854099809E+01  0.48346009853E+02 -0.37206643433E+02  0.61381697377E+02  0.00000000000E+00 0.  1.
</event>
<event>
 7    1  0.2878477E-009  0.2645239E+03  0.7561462E-02  0.1104455E+00
          2   -1    0    0  501    0  0.00000000000E+00  0.00000000000E+00  0.22005307616E+04  0.22005307616E+04  0.00000000000E+00 0. -1.
         -2   -1    0    0    0  501 -0.00000000000E+00 -0.00000000000E+00 -0.37319887359E+02  0.37319887359E+02  0.00000000000E+00 0.  1.
         25    2    1    2    0    0  0.23338284773E+03 -0.10283356214E+03  0.13883667863E+04  0.14171275827E+04  0.12508380143E+03 0.  0.
          5    1    3    3  502    0  0.81188911099E+01 -0.28429166772E+02  0.52888761014E+02  0.60735717316E+02  0.41800000000E+01 0. -1.
         -5    1    3    3    0  502  0.22526395662E+03 -0.74404395367E+02  0.13354780253E+04  0.13563918654E+04  0.41800000000E+01 0. -1.
        -11    1    1    2    0    0 -0.19225910000E+03  0.10792475356E+03  0.71274882441E+03  0.74607117667E+03  0.00000000000E+00 0. -1.
         11    1    1    2    0    0 -0.41123747737E+02 -0.50911914218E+01  0.62095263529E+02  0.74651889532E+02  0.00000000000E+00 0.  1.
</event>
<event>
 7    1  0.2878477E-009  0.1461849E+03  0.7561462E-02  0.1205241E+00
         -2   -1    0    0    0  501 -0.00000000000E+00  0.00000000000E+00  0.18433164428E+02  0.18433164428E+02  0.00000000000E+00 0.  1.
          2   -1    0    0  501    0  0.00000000000E+00 -0.00000000000E+00 -0.18627733455E+04  0.18627733455E+04  0.00000000000E+00 0. -1.
         25    2    1    2    0    0  0.12809938584E+02 -0.96576188211E+02 -0.15330819363E+04  0.15412596755E+04  0.12510039628E+03 0.  0.
          5    1    3    3  502    0 -0.25225502845E+02 -0.11168096379E+03 -0.12441023098E+04  0.12493666369E+04  0.41800000000E+01 0.  1.
         -5    1    3    3    0  502  0.38035441429E+02  0.15104775578E+02 -0.28897962655E+03  0.29189303865E+03  0.41800000000E+01 0.  1.
        -11    1    1    2    0    0  0.41778824046E+02  0.36367970713E+02 -0.12911445092E+03  0.14049427344E+03  0.00000000000E+00 0.  1.
         11    1    1    2    0    0 -0.54588762630E+02  0.60208217499E+02 -0.18214379382E+03  0.19945256099E+03  0.00000000000E+00 0. -1.
</event>
<event>
 7    1  0.2878477E-009  0.1135923E+03  0.7561462E-02  0.1254058E+00
         -1   -1    0    0    0  501 -0.00000000000E+00  0.00000000000E+00  0.22044422897E+03  0.22044422897E+03  0.00000000000E+00 0.  1.
          1   -1    0    0  501    0  0.00000000000E+00 -0.00000000000E+00 -0.11843471301E+03  0.11843471301E+03  0.00000000000E+00 0. -1.
         25    2    1    2    0    0  0.30024993471E+01 -0.43047992873E+02  0.14586728990E+03  0.19694601281E+03  0.12509324924E+03 0.  0.
          5    1    3    3  502    0  0.13207893370E+02  0.22122359174E+02  0.12490723547E+03  0.12760539603E+03  0.41800000000E+01 0.  1.
         -5    1    3    3    0  502 -0.10205394023E+02 -0.65170352048E+02  0.20960054422E+02  0.69340616774E+02  0.41800000000E+01 0.  1.
        -11    1    1    2    0    0  0.23678915989E+02 -0.40701737437E+02 -0.15011981183E+02  0.49423497164E+02  0.00000000000E+00 0.  1.
         11    1    1    2    0    0 -0.26681415337E+02  0.83749730310E+02 -0.28845792758E+02  0.92509432013E+02  0.00000000000E+00 0. -1.
</event>
<event>
 7    1  0.2878477E-009  0.9446531E+02  0.7561462E-02  0.1292385E+00
          1   -1    0    0  501    0  0.00000000000E+00  0.00000000000E+00  0.24855273271E+03  0.24855273271E+03  0.00000000000E+00 0. -1.
         -1   -1    0    0    0  501 -0.00000000000E+00 -0.00000000000E+00 -0.58529418996E+02  0.58529418996E+02  0.00000000000E+00 0.  1.
         25    2    1    2    0    0  0.55019742571E+01  0.28844053613E+02  0.50308821919E+02  0.13798514004E+03  0.12508665060E+03 0.  0.
          5    1    3    3  502    0 -0.84428000076E+01 -0.45924276370E+02  0.33296755382E+00  0.46881801367E+02  0.41800000000E+01 0. -1.
         -5    1    3    3    0  502  0.13944774265E+02  0.74768329982E+02  0.49975854365E+02  0.91103338672E+02  0.41800000000E+01 0. -1.
        -11    1    1    2    0    0  0.19208701005E+02  0.85748774361E+01 -0.13478085035E+01  0.21078882919E+02  0.00000000000E+00 0.  1.
         11    1    1    2    0    0 -0.24710675262E+02 -0.37418931049E+02  0.14106230029E+03  0.14801812875E+03  0.00000000000E+00 0. -1.
</event>
<event>
 7    1  0.2878477E-009  0.1191420E+03  0.7561462E-02  0.1244519E+00
         -2   -1    0    0    0  501 -0.00000000000E+00  0.00000000000E+00  0.15492587318E+02  0.15492587318E+02  0.00000000000E+00 0. -1.
          2   -1    0    0  501    0  0.00000000000E+00 -0.00000000000E+00 -0.13196099717E+04  0.13196099717E+04  0.00000000000E+00 0.  1.
         25    2    1    2    0    0  0.13533303144E+02  0.19092555990E+02 -0.10443452699E+04  0.10520705729E+04  0.12509105306E+03 0.  0.
          5    1    3    3  502    0 -0.54110113790E+02  0.23861820227E+02 -0.49912749871E+03  0.50263607436E+03  0.41800000000E+01 0.  1.
         -5    1    3    3    0  502  0.67643416934E+02 -0.47692642373E+01 -0.54521777119E+03  0.54943449852E+03  0.41800000000E+01 0.  1.
        -11    1    1    2    0    0  0.23948328571E+02 -0.54479818485E+02 -0.16043620897E+03  0.17111794240E+03  0.00000000000E+00 0.  1.
         11    1    1    2    0    0 -0.37481631715E+02  0.35387262495E+02 -0.99335905509E+02  0.11191404374E+03  0.00000000000E+00 0. -1.
</event>
<event>
 7    1  0.2878477E-009  0.8886020E+02  0.7561462E-02  0.1305636E+00
          1   -1    0    0  501    0  0.00000000000E+00  0.00000000000E+00  0.61029126524E+02  0.61029126524E+02  0.00000000000E+00 0. -1.
         -1   -1    0    0    0  501 -0.00000000000E+00 -0.00000000000E+00 -0.24495606574E+03  0.24495606574E+03  0.00000000000E+00 0.  1.
         25    2    1    2    0    0 -0.48859701701E+02  0.23849035310E+02 -0.12497219917E+03  0.18499069484E+03  0.12508980645E+03 0.  0.
          5    1    3    3  502    0 -0.38733708384E+02 -0.33907804911E+02 -0.11404807152E+03  0.12519774126E+03  0.41800000000E+01 0.  1.
         -5    1    3    3    0  502 -0.10125993317E+02  0.57756840221E+02 -0.10924127648E+02  0.59792953580E+02  0.41800000000E+01 0.  1.
        -11    1    1    2    0    0  0.32640168328E+02 -0.34802880274E+02 -0.79436557802E+02  0.92664922054E+02  0.00000000000E+00 0.  1.
         11    1    1    2    0    0  0.16219533373E+02  0.10953844964E+02  0.20481817753E+02  0.28329575372E+02  0.00000000000E+00 0. -1.
</event>
<event>
 7    1  0.2878477E-009  0.1892454E+03  0.7561462E-02  0.1159144E+00
         -2   -1    0    0    0  501 -0.00000000000E+00  0.00000000000E+00  0.68649144498E+02  0.68649144498E+02  0.00000000000E+00 0.  1.
          2   -1    0    0  501    0  0.00000000000E+00 -0.00000000000E+00 -0.59858568347E+03  0.59858568347E+03  0.00000000000E+00 0. -1.
         25    2    1    2    0    0 -0.36767832144E+02 -0.16375164629E+03 -0.33273233756E+03  0.39309826560E+03  0.12509581455E+03 0.  0.
          5    1    3    3  502    0 -0.34903483458E+02 -0.17431644325E+03 -0.33682037409E+03  0.38088044364E+03  0.41800000000E+01 0. -1.
         -5    1    3    3    0  502 -0.18643486857E+01  0.10564796965E+02  0.40880365237E+01  0.12217821964E+02  0.41800000000E+01 0. -1.
        -11    1    1    2    0    0  0.58810172202E+00  0.15068262356E+03 -0.16910073152E+03  0.22649648189E+03  0.00000000000E+00 0. -1.
         11    1    1    2    0    0  0.36179730421E+02  0.13069022725E+02 -0.28103469892E+02  0.47640080482E+02  0.00000000000E+00 0.  1.
</event>
<event>
 7    1  0.2878477E-009  0.1029748E+03  0.7561462E-02  0.1274162E+00
          2   -1    0    0  501    0  0.00000000000E+00  0.00000000000E+00  0.92856529498E+03  0.92856529498E+03  0.00000000000E+00 0. -1.
         -2   -1    0    0    0  501 -0.00000000000E+00 -0.00000000000E+00 -0.19820299722E+02  0.19820299722E+02  0.00000000000E+00 0.  1.
         25    2    1    2    0    0  0.71786467381E+02  0.14972657383E+02  0.62186777073E+03  0.63854870626E+03  0.12508976228E+03 0.  0.
          5    1    3    3  502    0  0.57405660476E+02  0.35454210225E+02  0.60337949789E+03  0.60715459461E+03  0.41800000000E+01 0. -1.
         -5    1    3    3    0  502  0.14380806905E+02 -0.20481552842E+02  0.18488272841E+02  0.31394111656E+02  0.41800000000E+01 0. -1.
        -11    1    1    2    0    0 -0.75634373291E+02  0.19645852022E+02  0.23230395306E+03  0.24509517443E+03  0.00000000000E+00 0. -1.
         11    1    1    2    0    0  0.38479059099E+01 -0.34618509406E+02  0.54573271466E+02  0.64741714002E+02  0.00000000000E+00 0.  1.
</event>
<event>
 7    1  0.2878477E-009  0.8118431E+02  0.7561462E-02  0.1325724E+00
          1   -1    0    0  501    0  0.00000000000E+00  0.00000000000E+00  0.25309454278E+02  0.25309454278E+02  0.00000000000E+00 0. -1.
         -1   -1    0    0    0  501 -0.00000000000E+00 -0.00000000000E+00 -0.53061945967E+03  0.53061945967E+03  0.00000000000E+00 0.  1.
         25    2    1    2    0    0 -0.23499568908E+02 -0.33594899400E+02 -0.29276675927E+03  0.32100007827E+03  0.12509127829E+03 0.  0.
          5    1    3    3  502    0 -0.55716617573E+02 -0.17797355074E+02 -0.27416837012E+03  0.28036914042E+03  0.41800000000E+01 0.  1.
         -5    1    3    3    0  502  0.32217048665E+02 -0.15797544326E+02 -0.18598389150E+02  0.40630937848E+02  0.41800000000E+01 0.  1.
        -11    1    1    2    0    0 -0.16610254441E+02  0.18205170440E+02 -0.79811293720E+01  0.25904192892E+02  0.00000000000E+00 0. -1.
         11    1    1    2    0    0  0.40109823349E+02  0.15389728960E+02 -0.20456211674E+03  0.20902464279E+03  0.00000000000E+00 0.  1.
</event>
