<event>
 7    1  0.1538147E-010  0.2052051E+03  0.7561462E-02  0.1145420E+00
         -2   -1    0    0    0  501 -0.00000000000E+00  0.00000000000E+00  0.81927447027E+02  0.81927447027E+02  0.00000000000E+00 0.  1.
          2   -1    0    0  501    0  0.00000000000E+00 -0.00000000000E+00 -0.59660187943E+03  0.59660187943E+03  0.00000000000E+00 0. -1.
         25    2    1    2    0    0 -0.15263670405E+03  0.99106166252E+02 -0.17670155560E+03  0.28284382389E+03  0.12512870713E+03 0.  0.
          5    1    3    3  502    0  0.31005357878E+01 -0.13439455460E+02  0.78323553048E+01  0.16402758148E+02  0.41800000000E+01 0. -1.
         -5    1    3    3    0  502 -0.15573723984E+03  0.11254562171E+03 -0.18453391091E+03  0.26644106574E+03  0.41800000000E+01 0. -1.
        -11    1    1    2    0    0  0.28190273131E+02  0.17570148231E+02 -0.77555538822E+02  0.84369800344E+02  0.00000000000E+00 0. -1.
         11    1    1    2    0    0  0.12444643092E+03 -0.11667631448E+03 -0.26041733798E+03  0.31131570222E+03  0.00000000000E+00 0.  1.
</event>
<event>
 7    1  0.1538147E-010  0.7265337E+02  0.7561462E-02  0.1351296E+00
         -4   -1    0    0    0  501 -0.00000000000E+00  0.00000000000E+00  0.86073737680E+02  0.86073737680E+02  0.00000000000E+00 0.  1.
          4   -1    0    0  501    0  0.00000000000E+00 -0.00000000000E+00 -0.16946135437E+03  0.16946135437E+03  0.00000000000E+00 0. -1.
         25    2    1    2    0    0  0.43574849381E+02 -0.94365270939E+01 -0.15246686056E+02  0.13369757024E+03  0.12511899660E+03 0.  0.
          5    1    3    3  502    0  0.20462247857E+02  0.25645038559E+01 -0.69907617511E+02  0.73005668639E+02  0.41800000000E+01 0.  1.
         -5    1    3    3    0  502  0.23112601524E+02 -0.12001030950E+02  0.54660931454E+02  0.60691901606E+02  0.41800000000E+01 0.  1.
        -11    1    1    2    0    0 -0.53978187096E+02 -0.26745690216E+02 -0.56081801496E+02  0.82305194771E+02  0.00000000000E+00 0. -1.
         11    1    1    2    0    0  0.10403337715E+02  0.36182217310E+02 -0.12059129137E+02  0.39532327033E+02  0.00000000000E+00 0.  1.
</event>
<event>
 7    1  0.1538147E-010  0.1354938E+03  0.7561462E-02  0.1219524E+00
          2   -1    0    0  501    0  0.00000000000E+00  0.00000000000E+00  0.96503325727E+02  0.96503325727E+02  0.00000000000E+00 0. -1.
         -2   -1    0    0    0  501 -0.00000000000E+00 -0.00000000000E+00 -0.57657380512E+03  0.57657380512E+03  0.00000000000E+00 0.  1.
         25    2    1    2    0    0 -0.10805130920E+02 -0.43437480085E+02 -0.46531812852E+03  0.48392351738E+03  0.12512971038E+03 0.  0.
          5    1    3    3  502    0  0.12977693584E+02 -0.80592895704E+02 -0.36835040327E+03  0.37731038597E+03  0.41800000000E+01 0.  1.
         -5    1    3    3    0  502 -0.23782824504E+02  0.37155415619E+02 -0.96967725247E+02  0.10661313142E+03  0.41800000000E+01 0.  1.
        -11    1    1    2    0    0  0.67797416446E+02 -0.78689455764E+01 -0.67568102516E+02  0.96040920752E+02  0.00000000000E+00 0.  1.
         11    1    1    2    0    0 -0.56992285527E+02  0.51306425661E+02  0.52815751637E+02  0.93112692715E+02  0.00000000000E+00 0. -1.
</event>
<event>
 7    1  0.1538147E-010  0.1536546E+03  0.7561462E-02  0.1196053E+00
         -2   -1    0    0    0  501 -0.00000000000E+00  0.00000000000E+00  0.57794288296E+03  0.57794288296E+03  0.00000000000E+00 0.  1.
          2   -1    0    0  501    0  0.00000000000E+00 -0.00000000000E+00 -0.56432468429E+02  0.56432468429E+02  0.00000000000E+00 0. -1.
         25    2    1    2    0    0 -0.11280115138E+03  0.68361866808E+02  0.37245523336E+03  0.41443323099E+03  0.12503822418E+03 0.  0.
          5    1    3    3  502    0 -0.67074199252E+01 -0.29759061035E+02  0.31284908786E+02  0.43895433857E+02  0.41800000000E+01 0. -1.
         -5    1    3    3    0  502 -0.10609373145E+03  0.98120927843E+02  0.34117032457E+03  0.37053779713E+03  0.41800000000E+01 0. -1.
        -11    1    1    2    0    0  0.85612948380E+02 -0.50102779409E+02  0.41528161316E+02  0.10753814959E+03  0.00000000000E+00 0. -1.
         11    1    1    2    0    0  0.27188202996E+02 -0.18259087398E+02  0.10752701986E+03  0.11240397081E+03  0.00000000000E+00 0.  1.
</event>
<event>
 7    1  0.1538147E-010  0.1255064E+03  0.7561462E-02  0.1234280E+00
          2   -1    0    0  501    0  0.00000000000E+00  0.00000000000E+00  0.10867261196E+04  0.10867261196E+04  0.00000000000E+00 0. -1.
         -2   -1    0    0    0  501 -0.00000000000E+00 -0.00000000000E+00 -0.15932171910E+02  0.15932171910E+02  0.00000000000E+00 0.  1.
         25    2    1    2    0    0  0.55057367393E+02  0.44880485392E+02  0.51060821403E+03  0.53047613630E+03  0.12505443322E+03 0.  0.
          5    1    3    3  502    0 -0.32317145073E+02  0.34801180960E+02  0.27184110362E+03  0.27599017750E+03  0.41800000000E+01 0. -1.
         -5    1    3    3    0  502  0.87374512466E+02  0.10079304432E+02  0.23876711042E+03  0.25448595880E+03  0.41800000000E+01 0. -1.
        -11    1    1    2    0    0 -0.73746712328E+02 -0.56827697292E+02  0.48207331197E+03  0.49098130603E+03  0.00000000000E+00 0. -1.
         11    1    1    2    0    0  0.18689344935E+02  0.11947211900E+02  0.78112421685E+02  0.81200849181E+02  0.00000000000E+00 0.  1.
</event>
<event>
 6    1  0.1538147E-010  0.1898924E+03  0.7561462E-02  0.1158558E+00
         -1   -1    0    0    0  501 -0.00000000000E+00  0.00000000000E+00  0.87028695661E+02  0.87028695661E+02  0.00000000000E+00 0.  1.
          1   -1    0    0  501    0  0.00000000000E+00 -0.00000000000E+00 -0.48715618469E+03  0.48715618469E+03  0.00000000000E+00 0. -1.
          5    1    1    2  502    0 -0.23374447307E+02 -0.93077285732E+01 -0.53962095231E+02  0.59685665950E+02  0.41800000000E+01 0.  1.
         -5    1    1    2    0  502  0.68854970161E+02  0.15975550709E+03 -0.26355462819E+03  0.31581852923E+03  0.41800000000E+01 0.  1.
        -11    1    1    2    0    0  0.10553961354E+02 -0.11156848349E+03 -0.57903075959E+02  0.12614150314E+03  0.00000000000E+00 0. -1.
         11    1    1    2    0    0 -0.56034484207E+02 -0.38879295034E+02 -0.24707689644E+02  0.72539182035E+02  0.00000000000E+00 0.  1.
</event>
<event>
 7    1  0.1538147E-010  0.8353434E+02  0.7561462E-02  0.1319310E+00
         -4   -1    0    0    0  501 -0.00000000000E+00  0.00000000000E+00  0.71717832935E+02  0.71717832935E+02  0.00000000000E+00 0. -1.
          4   -1    0    0  501    0  0.00000000000E+00 -0.00000000000E+00 -0.17819626102E+03  0.17819626102E+03  0.00000000000E+00 0.  1.
         25    2    1    2    0    0  0.22108246023E+02 -0.57709208128E+01 -0.82179883886E+02  0.15142778308E+03  0.12511899178E+03 0.  0.
          5    1    3    3  502    0  0.38508865822E+02  0.48715315336E+02 -0.68900066135E+02  0.92848296745E+02  0.41800000000E+01 0. -1.
         -5    1    3    3    0  502 -0.16400619798E+02 -0.54486236149E+02 -0.13279817752E+02  0.58579486332E+02  0.41800000000E+01 0. -1.
        -11    1    1    2    0    0 -0.32374892702E+02 -0.51558544600E+01 -0.55165137361E+02  0.64170934953E+02  0.00000000000E+00 0.  1.
         11    1    1    2    0    0  0.10266646678E+02  0.10926775273E+02  0.30866593159E+02  0.34315375928E+02  0.00000000000E+00 0. -1.
</event>
<event>
 6    1  0.1538147E-010  0.1302705E+03  0.7561462E-02  0.1227055E+00
         -1   -1    0    0    0  501 -0.00000000000E+00  0.00000000000E+00  0.75821283961E+02  0.75821283961E+02  0.00000000000E+00 0.  1.
          1   -1    0    0  501    0  0.00000000000E+00 -0.00000000000E+00 -0.27007032720E+03  0.27007032720E+03  0.00000000000E+00 0. -1.
          5    1    1    2  502    0 -0.23015554313E+02  0.57688680459E+02  0.14166982616E+01  0.62266997900E+02  0.41800000000E+01 0.  1.
         -5    1    1    2    0  502  0.68467232655E+02  0.24063165709E+02 -0.95487802728E+02  0.12000912782E+03  0.41800000000E+01 0.  1.
        -11    1    1    2    0    0  0.18385581538E+02 -0.52024178868E+02 -0.63814296281E+02  0.84361183048E+02  0.00000000000E+00 0.  1.
         11    1    1    2    0    0 -0.63837259880E+02 -0.29727667300E+02 -0.36363642493E+02  0.79254302391E+02  0.00000000000E+00 0. -1.
</event>
<event>
 7    1  0.1538147E-010  0.5547805E+02  0.7561462E-02  0.1417852E+00
         -1   -1    0    0    0  501 -0.00000000000E+00  0.00000000000E+00  0.13907918461E+03  0.13907918461E+03  0.00000000000E+00 0.  1.
          1   -1    0    0  501    0  0.00000000000E+00 -0.00000000000E+00 -0.94820444801E+02  0.94820444801E+02  0.00000000000E+00 0. -1.
         25    2    1    2    0    0  0.23225842082E+02  0.27172982076E+02  0.12647114749E+02  0.13074252674E+03  0.12512333152E+03 0.  0.
          5    1    3    3  502    0  0.21637014403E+02  0.11441293716E+02  0.68333088324E+02  0.72704518114E+02  0.41800000000E+01 0.  1.
         -5    1    3    3    0  502  0.15888276784E+01  0.15731688360E+02 -0.55685973576E+02  0.58038008625E+02  0.41800000000E+01 0.  1.
        -11    1    1    2    0    0 -0.28446105242E+02 -0.43865355596E+02  0.53724011361E+02  0.74964122897E+02  0.00000000000E+00 0.  1.
         11    1    1    2    0    0  0.52202631600E+01  0.16692373520E+02 -0.22112386296E+02  0.28192979780E+02  0.00000000000E+00 0. -1.
</event>
<event>
 6    1  0.1538147E-010  0.8258207E+02  0.7561462E-02  0.1321880E+00
         -3   -1    0    0    0  501 -0.00000000000E+00  0.00000000000E+00  0.75422904392E+02  0.75422904392E+02  0.00000000000E+00 0. -1.
          3   -1    0    0  501    0  0.00000000000E+00 -0.00000000000E+00 -0.20198514404E+03  0.20198514404E+03  0.00000000000E+00 0.  1.
          5    1    1    2  502    0 -0.22265954953E+02 -0.55576832293E+02 -0.13261361575E+03  0.14556235956E+03  0.41800000000E+01 0. -1.
         -5    1    1    2    0  502  0.21671758612E+02  0.12218087507E+02  0.16889732887E+02  0.30359220357E+02  0.41800000000E+01 0. -1.
        -11    1    1    2    0    0  0.21964969660E+02  0.52322030865E+02 -0.36060760949E+02  0.67234167550E+02  0.00000000000E+00 0.  1.
         11    1    1    2    0    0 -0.21370773319E+02 -0.89632860785E+01  0.25222404164E+02  0.34252300965E+02  0.00000000000E+00 0. -1.
</event>
<event>
 6    1  0.1538147E-010  0.1042706E+03  0.7561462E-02  0.1271563E+00
         -2   -1    0    0    0  501 -0.00000000000E+00  0.00000000000E+00  0.40392631047E+02  0.40392631047E+02  0.00000000000E+00 0.  1.
          2   -1    0    0  501    0  0.00000000000E+00 -0.00000000000E+00 -0.55282658412E+03  0.55282658412E+03  0.00000000000E+00 0. -1.
          5    1    1    2  502    0 -0.11838289035E+02 -0.28847521771E+01 -0.13195893250E+03  0.13258619517E+03  0.41800000000E+01 0. -1.
         -5    1    1    2    0  502 -0.54480230820E+02 -0.68129075710E+02 -0.40992463495E+02  0.96475494146E+02  0.41800000000E+01 0. -1.
        -11    1    1    2    0    0  0.54195952585E+02  0.23119325029E+02 -0.76427146370E+02  0.96502917928E+02  0.00000000000E+00 0.  1.
         11    1    1    2    0    0  0.12122567270E+02  0.47894502858E+02 -0.26305541070E+03  0.26765460792E+03  0.00000000000E+00 0. -1.
</event>
<event>
 6    1  0.1538147E-010  0.9240284E+02  0.7561462E-02  0.1297135E+00
         -1   -1    0    0    0  501 -0.00000000000E+00  0.00000000000E+00  0.33824233476E+02  0.33824233476E+02  0.00000000000E+00 0.  1.
          1   -1    0    0  501    0  0.00000000000E+00 -0.00000000000E+00 -0.36813058934E+03  0.36813058934E+03  0.00000000000E+00 0. -1.
          5    1    1    2  502    0 -0.39620275232E+02  0.95134391891E+01 -0.13200291895E+03  0.13821184734E+03  0.41800000000E+01 0.  1.
         -5    1    1    2    0  502  0.59698418916E+02 -0.30710472992E+01 -0.27760354459E+02  0.66041216163E+02  0.41800000000E+01 0.  1.
        -11    1    1    2    0    0 -0.50188088087E+02  0.74918709438E+01 -0.60669811271E+02  0.79093604771E+02  0.00000000000E+00 0.  1.
         11    1    1    2    0    0  0.30109944402E+02 -0.13934262834E+02 -0.11387327118E+03  0.11860815453E+03  0.00000000000E+00 0. -1.
</event>
<event>
 7    1  0.1538147E-010  0.1099770E+03  0.7561462E-02  0.1260612E+00
          1   -1    0    0  501    0  0.00000000000E+00  0.00000000000E+00  0.92939397789E+02  0.92939397789E+02  0.00000000000E+00 0. -1.
         -1   -1    0    0    0  501 -0.00000000000E+00 -0.00000000000E+00 -0.21766141818E+03  0.21766141818E+03  0.00000000000E+00 0.  1.
         25    2    1    2    0    0 -0.77992766259E+02  0.26716686147E+02 -0.25243382553E+02  0.15195745486E+03  0.12512868104E+03 0.  0.
          5    1    3    3  502    0 -0.35474047316E+00 -0.35049871532E+02  0.22413676249E+02  0.41814645978E+02  0.41800000000E+01 0. -1.
         -5    1    3    3    0  502 -0.77638025786E+02  0.61766557679E+02 -0.47657058802E+02  0.11014280889E+03  0.41800000000E+01 0. -1.
        -11    1    1    2    0    0  0.35831347774E+02 -0.75019716916E+00 -0.10294592585E+03  0.10900601785E+03  0.00000000000E+00 0.  1.
         11    1    1    2    0    0  0.42161418485E+02 -0.25966488978E+02  0.34672880176E+01  0.49637343248E+02  0.00000000000E+00 0. -1.
</event>
<event>
 7    1  0.1538147E-010  0.7987003E+02  0.7561462E-02  0.1329421E+00
         -2   -1    0    0    0  501 -0.00000000000E+00  0.00000000000E+00  0.10816789388E+03  0.10816789388E+03  0.00000000000E+00 0.  1.
          2   -1    0    0  501    0  0.00000000000E+00 -0.00000000000E+00 -0.12860608366E+03  0.12860608366E+03  0.00000000000E+00 0. -1.
         25    2    1    2    0    0  0.56400981531E+02  0.26207714057E+02  0.22047685912E+02  0.14140597929E+03  0.12506652443E+03 0.  0.
          5    1    3    3  502    0  0.18514415790E+02  0.31083808935E+02  0.70627659197E+02  0.79465246577E+02  0.41800000000E+01 0.  1.
         -5    1    3    3    0  502  0.37886565741E+02 -0.48760948778E+01 -0.48579973286E+02  0.61940732715E+02  0.41800000000E+01 0.  1.
        -11    1    1    2    0    0 -0.26327245704E+02  0.17663002125E+02 -0.20860716175E+02  0.37950955057E+02  0.00000000000E+00 0. -1.
         11    1    1    2    0    0 -0.30073735827E+02 -0.43870716181E+02 -0.21625159511E+02  0.57417043190E+02  0.00000000000E+00 0.  1.
</event>
<event>
 6    1  0.1538147E-010  0.1217686E+03  0.7561462E-02  0.1240208E+00
          3   -1    0    0  501    0  0.00000000000E+00  0.00000000000E+00  0.15134315188E+04  0.15134315188E+04  0.00000000000E+00 0. -1.
         -3   -1    0    0    0  501 -0.00000000000E+00 -0.00000000000E+00 -0.11413356669E+02  0.11413356669E+02  0.00000000000E+00 0.  1.
          5    1    1    2  502    0  0.45832337190E+02 -0.95974337783E+01  0.31874355528E+03  0.32219193084E+03  0.41800000000E+01 0. -1.
         -5    1    1    2    0  502 -0.52019784014E+02  0.83078429379E+02  0.68118817415E+03  0.68821717820E+03  0.41800000000E+01 0. -1.
        -11    1    1    2    0    0 -0.58193888768E+00 -0.85027797493E+02  0.48657104557E+03  0.49394478172E+03  0.00000000000E+00 0. -1.
         11    1    1    2    0    0  0.67693857125E+01  0.11546801893E+02  0.15515387134E+02  0.20490984720E+02  0.00000000000E+00 0.  1.
</event>
<event>
 7    1  0.1538147E-010  0.3011893E+03  0.7561462E-02  0.1084648E+00
          1   -1    0    0  501    0  0.00000000000E+00  0.00000000000E+00  0.16673068909E+03  0.16673068909E+03  0.00000000000E+00 0. -1.
         -1   -1    0    0    0  501 -0.00000000000E+00 -0.00000000000E+00 -0.67396328212E+03  0.67396328212E+03  0.00000000000E+00 0.  1.
         25    2    1    2    0    0  0.76800389794E+01 -0.29551949482E+03 -0.40088305024E+03  0.51356674224E+03  0.12511124628E+03 0.  0.
          5    1    3    3  502    0 -0.79796333884E+01 -0.15323118423E+02 -0.10209740501E+03  0.10363312703E+03  0.41800000000E+01 0.  1.
         -5    1    3    3    0  502  0.15659672368E+02 -0.28019637640E+03 -0.29878564523E+03  0.40993361521E+03  0.41800000000E+01 0.  1.
        -11    1    1    2    0    0 -0.20106602982E+02  0.20767409536E+02  0.68548243109E+01  0.29707732977E+02  0.00000000000E+00 0.  1.
         11    1    1    2    0    0  0.12426564002E+02  0.27475208529E+03 -0.11320436710E+03  0.29741949599E+03  0.00000000000E+00 0. -1.
</event>
<event>
 7    1  0.1538147E-010  0.2251401E+03  0.7561462E-02  0.1130108E+00
          1   -1    0    0  501    0  0.00000000000E+00  0.00000000000E+00  0.76091659747E+03  0.76091659747E+03  0.00000000000E+00 0. -1.
         -1   -1    0    0    0  501 -0.00000000000E+00 -0.00000000000E+00 -0.80023987736E+02  0.80023987736E+02  0.00000000000E+00 0.  1.
         25    2    1    2    0    0  0.14410922256E+03 -0.16272231219E+03  0.28206436412E+03  0.37743918548E+03  0.12511600344E+03 0.  0.
          5    1    3    3  502    0  0.85703294660E+02 -0.89867946229E+02  0.63094461937E+02  0.13935453348E+03  0.41800000000E+01 0.  1.
         -5    1    3    3    0  502  0.58405927896E+02 -0.72854365958E+02  0.21896990219E+03  0.23808465200E+03  0.41800000000E+01 0.  1.
        -11    1    1    2    0    0 -0.13119350260E+03  0.17224021871E+03  0.34481546603E+03  0.40715615392E+03  0.00000000000E+00 0. -1.
         11    1    1    2    0    0 -0.12915719959E+02 -0.95179065215E+01  0.54012779585E+02  0.56345245808E+02  0.00000000000E+00 0.  1.
</event>
<event>
 7    1  0.1538147E-010  0.9745224E+02  0.7561462E-02  0.1285747E+00
          2   -1    0    0  501    0  0.00000000000E+00  0.00000000000E+00  0.30150139470E+03  0.30150139470E+03  0.00000000000E+00 0. -1.
         -2   -1    0    0    0  501 -0.00000000000E+00 -0.00000000000E+00 -0.43541188494E+02  0.43541188494E+02  0.00000000000E+00 0.  1.
         25    2    1    2    0    0 -0.59219835937E+01  0.35073557981E+02  0.13485119825E+03  0.18736519738E+03  0.12512252859E+03 0.  0.
          5    1    3    3  502    0  0.58078554047E+02  0.84022791305E+01  0.46568656966E+02  0.75032186070E+02  0.41800000000E+01 0.  1.
         -5    1    3    3    0  502 -0.64000537641E+02  0.26671278851E+02  0.88282541282E+02  0.11233301131E+03  0.41800000000E+01 0.  1.
        -11    1    1    2    0    0  0.31018617808E+02 -0.23807206791E+02  0.12413603820E+03  0.13014873693E+03  0.00000000000E+00 0. -1.
         11    1    1    2    0    0 -0.25096634215E+02 -0.11266351190E+02 -0.10270302435E+01  0.27528648880E+02  0.00000000000E+00 0.  1.
</event>
<event>
 7    1  0.1538147E-010  0.8685847E+02  0.7561462E-02  0.1310643E+00
          2   -1    0    0  501    0  0.00000000000E+00  0.00000000000E+00  0.11415543425E+03  0.11415543425E+03  0.00000000000E+00 0. -1.
         -2   -1    0    0    0  501 -0.00000000000E+00 -0.00000000000E+00 -0.13756260404E+03  0.13756260404E+03  0.00000000000E+00 0.  1.
         25    2    1    2    0    0 -0.19742826986E+02 -0.42157700119E+02 -0.57750051558E+02  0.14540084003E+03  0.12505712666E+03 0.  0.
          5    1    3    3  502    0 -0.12994198536E+01 -0.75534326382E+02  0.48899265710E+00  0.75662635876E+02  0.41800000000E+01 0. -1.
         -5    1    3    3    0  502 -0.18443407133E+02  0.33376626263E+02 -0.58239044215E+02  0.69738204153E+02  0.41800000000E+01 0. -1.
        -11    1    1    2    0    0  0.21031388826E+02  0.38697907989E+01 -0.26725073498E+02  0.34227534972E+02  0.00000000000E+00 0.  1.
         11    1    1    2    0    0 -0.12885618397E+01  0.38287909320E+02  0.61067955268E+02  0.72089663284E+02  0.00000000000E+00 0. -1.
</event>
<event>
 7    1  0.2627840E-010  0.1167374E+03  0.7561462E-02  0.1248579E+00
         -2   -1    0    0    0  501 -0.00000000000E+00  0.00000000000E+00  0.96211339323E+01  0.96211339323E+01  0.00000000000E+00 0. -1.
          2   -1    0    0  501    0  0.00000000000E+00 -0.00000000000E+00 -0.20247496068E+04  0.20247496068E+04  0.00000000000E+00 0.  1.
         25    2    1    2    0    0 -0.24989670731E+02  0.41996294659E+02 -0.16450200408E+04  0.16504912769E+04  0.12506937277E+03 0.  0.
          5    1    3    3  502    0  0.50169281245E+02  0.55753106070E+01 -0.62651960817E+03  0.62856370615E+03  0.41800000000E+01 0.  1.
         -5    1    3    3    0  502 -0.75158951976E+02  0.36420984052E+02 -0.10185004326E+04  0.10219275707E+04  0.41800000000E+01 0.  1.
        -11    1    1    2    0    0  0.24273717289E+02  0.23449818951E+02 -0.87316743311E+02  0.93612611449E+02  0.00000000000E+00 0. -1.
         11    1    1    2    0    0  0.71595344193E+00 -0.65446113610E+02 -0.28279168875E+03  0.29026685239E+03  0.00000000000E+00 0.  1.
</event>
<event>
 7    1  0.1538147E-010  0.2055368E+03  0.7561462E-02  0.1145150E+00
          1   -1    0    0  501    0  0.00000000000E+00  0.00000000000E+00  0.22039951356E+03  0.22039951356E+03  0.00000000000E+00 0. -1.
         -1   -1    0    0    0  501 -0.00000000000E+00 -0.00000000000E+00 -0.24496281340E+03  0.24496281340E+03  0.00000000000E+00 0.  1.
         25    2    1    2    0    0 -0.60972707276E+02 -0.17522447192E+03 -0.99905003980E+02  0.24506277314E+03  0.12511381366E+03 0.  0.
          5    1    3    3  502    0 -0.69846670296E+02 -0.65141316494E+02  0.71165907272E+00  0.95602967133E+02  0.41800000000E+01 0.  1.
         -5    1    3    3    0  502  0.88739630198E+01 -0.11008315543E+03 -0.10061666305E+03  0.14945980601E+03  0.41800000000E+01 0.  1.
        -11    1    1    2    0    0  0.62009098582E+02  0.49815294128E+02  0.44528174190E+02  0.91156185378E+02  0.00000000000E+00 0. -1.
         11    1    1    2    0    0 -0.10363913055E+01  0.12540917779E+03  0.30813529954E+02  0.12914336843E+03  0.00000000000E+00 0.  1.
</event>
<event>
 7    1  0.1538147E-010  0.9561331E+02  0.7561462E-02  0.1289801E+00
          1   -1    0    0  501    0  0.00000000000E+00  0.00000000000E+00  0.24106353484E+02  0.24106353484E+02  0.00000000000E+00 0. -1.
         -1   -1    0    0    0  501 -0.00000000000E+00 -0.00000000000E+00 -0.57320941314E+03  0.57320941314E+03  0.00000000000E+00 0.  1.
         25    2    1    2    0    0  0.15441979907E+02 -0.41444167206E+02 -0.26374359875E+03  0.29524487010E+03  0.12511104548E+03 0.  0.
          5    1    3    3  502    0  0.48272372498E+02 -0.32379742194E+02 -0.25249649398E+03  0.25913436963E+03  0.41800000000E+01 0.  1.
         -5    1    3    3    0  502 -0.32830392591E+02 -0.90644250122E+01 -0.11247104768E+02  0.36110500469E+02  0.41800000000E+01 0.  1.
        -11    1    1    2    0    0  0.46967399318E+01 -0.26940850816E+02 -0.92484969528E+02  0.96443446627E+02  0.00000000000E+00 0. -1.
         11    1    1    2    0    0 -0.20138719838E+02  0.68385018022E+02 -0.19287449138E+03  0.20562744990E+03  0.00000000000E+00 0.  1.
</event>
<event>
 7    1  0.1538147E-010  0.9501108E+02  0.7561462E-02  0.1291151E+00
          1   -1    0    0  501    0  0.00000000000E+00  0.00000000000E+00  0.61875210005E+03  0.61875210005E+03  0.00000000000E+00 0. -1.
         -1   -1    0    0    0  501 -0.00000000000E+00 -0.00000000000E+00 -0.22881065180E+02  0.22881065180E+02  0.00000000000E+00 0.  1.
         25    2    1    2    0    0 -0.31593507124E+01  0.80592846082E+02  0.33931081752E+03  0.37052730571E+03  0.12511380841E+03 0.  0.
          5    1    3    3  502    0 -0.35774890579E+02  0.22321284423E+02  0.27319908075E+03  0.27646571696E+03  0.41800000000E+01 0.  1.
         -5    1    3    3    0  502  0.32615539867E+02  0.58271561659E+02  0.66111736774E+02  0.94061588750E+02  0.41800000000E+01 0.  1.
        -11    1    1    2    0    0  0.39962852508E+01 -0.63281055299E+02  0.23520764064E+03  0.24360438516E+03  0.00000000000E+00 0. -1.
         11    1    1    2    0    0 -0.83693453846E+00 -0.17311790783E+02  0.21352576708E+02  0.27501474354E+02  0.00000000000E+00 0.  1.
</event>
<event>
 7    1  0.1538147E-010  0.1929150E+03  0.7561462E-02  0.1155858E+00
          4   -1    0    0  501    0  0.00000000000E+00  0.00000000000E+00  0.22378731510E+03  0.22378731510E+03  0.00000000000E+00 0. -1.
         -4   -1    0    0    0  501 -0.00000000000E+00 -0.00000000000E+00 -0.23719140916E+03  0.23719140916E+03  0.00000000000E+00 0.  1.
         25    2    1    2    0    0  0.15103966057E+03  0.80624266303E+02  0.99682675949E+02  0.23432297123E+03  0.12512940334E+03 0.  0.
          5    1    3    3  502    0  0.10017073704E+03 -0.60998939758E+01  0.87028315881E+02  0.13290141245E+03  0.41800000000E+01 0. -1.
         -5    1    3    3    0  502  0.50868923530E+02  0.86724160279E+02  0.12654360067E+02  0.10142155878E+03  0.41800000000E+01 0. -1.
        -11    1    1    2    0    0 -0.80963830039E+02 -0.42049771084E+01 -0.88646953556E+02  0.12012953834E+03  0.00000000000E+00 0.  1.
         11    1    1    2    0    0 -0.70075830534E+02 -0.76419289195E+02 -0.24439816455E+02  0.10652621468E+03  0.00000000000E+00 0. -1.
</event>
<event>
 7    1  0.1538147E-010  0.1270460E+03  0.7561462E-02  0.1231906E+00
         -2   -1    0    0    0  501 -0.00000000000E+00  0.00000000000E+00  0.69678376472E+03  0.69678376472E+03  0.00000000000E+00 0.  1.
          2   -1    0    0  501    0  0.00000000000E+00 -0.00000000000E+00 -0.48389274813E+02  0.48389274813E+02  0.00000000000E+00 0. -1.
         25    2    1    2    0    0  0.20486835795E+02 -0.10838868203E+03  0.54425020206E+03  0.56923739830E+03  0.12512040738E+03 0.  0.
          5    1    3    3  502    0  0.10497294993E+02 -0.93575598164E+02  0.16874853616E+03  0.19328767842E+03  0.41800000000E+01 0.  1.
         -5    1    3    3    0  502  0.99895408023E+01 -0.14813083870E+02  0.37550166590E+03  0.37594971987E+03  0.41800000000E+01 0.  1.
        -11    1    1    2    0    0 -0.15006450061E+02 -0.13073118553E+02  0.10745077510E+02  0.22617618416E+02  0.00000000000E+00 0.  1.
         11    1    1    2    0    0 -0.54803857339E+01  0.12146180059E+03  0.93399210333E+02  0.15331802282E+03  0.00000000000E+00 0. -1.
</event>
<event>
 7    1  0.1538147E-010  0.1230473E+03  0.7561462E-02  0.1238153E+00
          2   -1    0    0  501    0  0.00000000000E+00  0.00000000000E+00  0.45098442413E+03  0.45098442413E+03  0.00000000000E+00 0. -1.
         -2   -1    0    0    0  501 -0.00000000000E+00 -0.00000000000E+00 -0.38150888203E+02  0.38150888203E+02  0.00000000000E+00 0.  1.
         25    2    1    2    0    0 -0.44003663432E+02 -0.47520015218E+02  0.29331787931E+03  0.32537869270E+03  0.12506574711E+03 0.  0.
          5    1    3    3  502    0  0.41106102668E+02 -0.34871127092E+02  0.98464973455E+02  0.11233223303E+03  0.41800000000E+01 0. -1.
         -5    1    3    3    0  502 -0.85109766100E+02 -0.12648888126E+02  0.19485290586E+03  0.21304645967E+03  0.41800000000E+01 0. -1.
        -11    1    1    2    0    0 -0.23263398640E+02 -0.44156612897E+00  0.72527096393E+01  0.24371756073E+02  0.00000000000E+00 0. -1.
         11    1    1    2    0    0  0.67267062072E+02  0.47961581347E+02  0.11226294697E+03  0.13938486356E+03  0.00000000000E+00 0.  1.
</event>
<event>
 7    1  0.1538147E-010  0.8679062E+02  0.7561462E-02  0.1310815E+00
         -2   -1    0    0    0  501 -0.00000000000E+00  0.00000000000E+00  0.13943623420E+03  0.13943623420E+03  0.00000000000E+00 0.  1.
          2   -1    0    0  501    0  0.00000000000E+00 -0.00000000000E+00 -0.14232402186E+03  0.14232402186E+03  0.00000000000E+00 0. -1.
         25    2    1    2    0    0 -0.26180721234E+02 -0.44317538649E+02  0.75525265621E+02  0.15487783469E+03  0.12503440940E+03 0.  0.
          5    1    3    3  502    0 -0.35844869328E+02  0.61847641007E+01  0.93368549782E+02  0.10029089915E+03  0.41800000000E+01 0.  1.
         -5    1    3    3    0  502  0.96641480936E+01 -0.50502302749E+02 -0.17843284161E+02  0.54586935534E+02  0.41800000000E+01 0.  1.
        -11    1    1    2    0    0  0.29768409159E+02  0.61233948746E+02 -0.84529181944E+02  0.10854002609E+03  0.00000000000E+00 0.  1.
         11    1    1    2    0    0 -0.35876879251E+01 -0.16916410097E+02  0.61161286639E+01  0.18342395292E+02  0.00000000000E+00 0. -1.
</event>
<event>
 7    1  0.1538147E-010  0.1746691E+03  0.7561462E-02  0.1173064E+00
          2   -1    0    0  501    0  0.00000000000E+00  0.00000000000E+00  0.12096465742E+04  0.12096465742E+04  0.00000000000E+00 0. -1.
         -2   -1    0    0    0  501 -0.00000000000E+00 -0.00000000000E+00 -0.34104608771E+02  0.34104608771E+02  0.00000000000E+00 0.  1.
         25    2    1    2    0    0 -0.69737789985E+02  0.15008487564E+03  0.75116259554E+03  0.77929096119E+03  0.12514123224E+03 0.  0.
          5    1    3    3  502    0 -0.37199929777E+02  0.70652904236E+02  0.13300831384E+03  0.15519133869E+03  0.41800000000E+01 0.  1.
         -5    1    3    3    0  502 -0.32537860208E+02  0.79431971408E+02  0.61815428170E+03  0.62409962250E+03  0.41800000000E+01 0.  1.
        -11    1    1    2    0    0  0.59187076689E+02 -0.36860780038E+02  0.11095915893E+03  0.13104870127E+03  0.00000000000E+00 0.  1.
         11    1    1    2    0    0  0.10550713296E+02 -0.11322409561E+03  0.31342021097E+03  0.33341152053E+03  0.00000000000E+00 0. -1.
</event>
<event>
 7    1  0.1538147E-010  0.1340441E+03  0.7561462E-02  0.1221575E+00
          1   -1    0    0  501    0  0.00000000000E+00  0.00000000000E+00  0.11422510955E+03  0.11422510955E+03  0.00000000000E+00 0. -1.
         -1   -1    0    0    0  501 -0.00000000000E+00 -0.00000000000E+00 -0.18105734694E+03  0.18105734694E+03  0.00000000000E+00 0.  1.
         25    2    1    2    0    0  0.80129638722E+02  0.36742001374E+02 -0.32373464074E+01  0.15308758852E+03  0.12511832671E+03 0.  0.
          5    1    3    3  502    0 -0.13565541067E+02  0.45050394862E+02 -0.29057174319E+02  0.55455872196E+02  0.41800000000E+01 0. -1.
         -5    1    3    3    0  502  0.93695179789E+02 -0.83083934880E+01  0.25819827911E+02  0.97631716319E+02  0.41800000000E+01 0. -1.
        -11    1    1    2    0    0  0.13119547426E+02 -0.30545609813E+02 -0.22250799512E+02  0.40003185903E+02  0.00000000000E+00 0.  1.
         11    1    1    2    0    0 -0.93249186148E+02 -0.61963915615E+01 -0.41344091473E+02  0.10219168208E+03  0.00000000000E+00 0. -1.
</event>
<event>
 7    1  0.1538147E-010  0.1801895E+03  0.7561462E-02  0.1167620E+00
          2   -1    0    0  501    0  0.00000000000E+00  0.00000000000E+00  0.41807359709E+03  0.41807359709E+03  0.00000000000E+00 0. -1.
         -2   -1    0    0    0  501 -0.00000000000E+00 -0.00000000000E+00 -0.93074981648E+02  0.93074981648E+02  0.00000000000E+00 0.  1.
         25    2    1    2    0    0  0.15806070607E+03 -0.33676329015E+02  0.22516072245E+03  0.30410054071E+03  0.12514993402E+03 0.  0.
          5    1    3    3  502    0 -0.16093466691E+02 -0.48677909428E+01 -0.78765913306E+00  0.17343236887E+02  0.41800000000E+01 0. -1.
         -5    1    3    3    0  502  0.17415417276E+03 -0.28808538072E+02  0.22594838158E+03  0.28675730382E+03  0.41800000000E+01 0. -1.
        -11    1    1    2    0    0 -0.69964604049E+02 -0.52688681190E+01  0.83977384585E+02  0.10943037930E+03  0.00000000000E+00 0. -1.
         11    1    1    2    0    0 -0.88096102017E+02  0.38945197134E+02  0.15860508409E+02  0.97617658737E+02  0.00000000000E+00 0.  1.
</event>
<event>
 6    1  0.1538147E-010  0.1006768E+03  0.7561462E-02  0.1278879E+00
          2   -1    0    0  501    0  0.00000000000E+00  0.00000000000E+00  0.65191501883E+03  0.65191501883E+03  0.00000000000E+00 0. -1.
         -2   -1    0    0    0  501 -0.00000000000E+00 -0.00000000000E+00 -0.19321152360E+02  0.19321152360E+02  0.00000000000E+00 0.  1.
          5    1    1    2  502    0  0.25088937402E+02  0.55462249055E+02  0.21584393479E+03  0.22430245749E+03  0.41800000000E+01 0.  1.
         -5    1    1    2    0  502 -0.39309877782E+02 -0.40281088624E+02  0.84155294129E+02  0.10132827109E+03  0.41800000000E+01 0.  1.
        -11    1    1    2    0    0 -0.21578486529E+02  0.23014875082E+02  0.57616622570E+02  0.65688589210E+02  0.00000000000E+00 0.  1.
         11    1    1    2    0    0  0.35799426910E+02 -0.38196035513E+02  0.27497801498E+03  0.27991685340E+03  0.00000000000E+00 0. -1.
</event>
<event>
 7    1  0.1538147E-010  0.1273484E+03  0.7561462E-02  0.1231444E+00
         -1   -1    0    0    0  501 -0.00000000000E+00  0.00000000000E+00  0.58446108523E+03  0.58446108523E+03  0.00000000000E+00 0.  1.
          1   -1    0    0  501    0  0.00000000000E+00 -0.00000000000E+00 -0.69568311328E+02  0.69568311328E+02  0.00000000000E+00 0. -1.
         25    2    1    2    0    0  0.75320701196E+02 -0.26155623927E+02  0.26364280818E+02  0.15062407492E+03  0.12504084113E+03 0.  0.
          5    1    3    3  502    0  0.22184840752E+01  0.40678600733E+02 -0.14430945940E+02  0.43421133448E+02  0.41800000000E+01 0.  1.
         -5    1    3    3    0  502  0.73102217121E+02 -0.66834224660E+02  0.40795226758E+02  0.10720294147E+03  0.41800000000E+01 0.  1.
        -11    1    1    2    0    0 -0.20263930130E+02  0.50495304728E+02  0.31664350686E+03  0.32128416254E+03  0.00000000000E+00 0. -1.
         11    1    1    2    0    0 -0.55056771066E+02 -0.24339680800E+02  0.17188498623E+03  0.18212115910E+03  0.00000000000E+00 0.  1.
</event>
<event>
 7    1  0.1538147E-010  0.1363308E+03  0.7561462E-02  0.1218353E+00
         -1   -1    0    0    0  501 -0.00000000000E+00  0.00000000000E+00  0.21176863967E+03  0.21176863967E+03  0.00000000000E+00 0.  1.
          1   -1    0    0  501    0  0.00000000000E+00 -0.00000000000E+00 -0.11624522073E+03  0.11624522073E+03  0.00000000000E+00 0. -1.
         25    2    1    2    0    0 -0.96256846389E+02  0.54555447447E+02  0.28417923605E+02  0.16937405318E+03  0.12505324540E+03 0.  0.
          5    1    3    3  502    0 -0.62115009209E+02 -0.31189770978E+02  0.32615534984E+02  0.76891623113E+02  0.41800000000E+01 0. -1.
         -5    1    3    3    0  502 -0.34141837180E+02  0.85745218426E+02 -0.41976113786E+01  0.92482430062E+02  0.41800000000E+01 0. -1.
        -11    1    1    2    0    0  0.55160805471E+02 -0.31013309552E+02  0.86739495478E+02  0.10736982772E+03  0.00000000000E+00 0.  1.
         11    1    1    2    0    0  0.41096040918E+02 -0.23542137895E+02 -0.19634000141E+02  0.51269979494E+02  0.00000000000E+00 0. -1.
</event>
<event>
 7    1  0.1538147E-010  0.4142873E+03  0.7561462E-02  0.1038942E+00
          2   -1    0    0  501    0  0.00000000000E+00  0.00000000000E+00  0.28080985128E+03  0.28080985128E+03  0.00000000000E+00 0. -1.
         -2   -1    0    0    0  501 -0.00000000000E+00 -0.00000000000E+00 -0.74163107651E+03  0.74163107651E+03  0.00000000000E+00 0.  1.
         25    2    1    2    0    0 -0.14115690472E+03 -0.37745526840E+03 -0.26169733620E+02  0.42277106202E+03  0.12511100883E+03 0.  0.
          5    1    3    3  502    0  0.42574565925E+00 -0.17007957802E+03  0.13317981244E+01  0.17013668095E+03  0.41800000000E+01 0.  1.
         -5    1    3    3    0  502 -0.14158265038E+03 -0.20737569038E+03 -0.27501531745E+02  0.25263438107E+03  0.41800000000E+01 0.  1.
        -11    1    1    2    0    0  0.56109043760E+02  0.23315895353E+03 -0.30423676901E+03  0.38739041550E+03  0.00000000000E+00 0. -1.
         11    1    1    2    0    0  0.85047860961E+02  0.14429631487E+03 -0.13041472260E+03  0.21227945028E+03  0.00000000000E+00 0.  1.
</event>
<event>
 7    1  0.1538147E-010  0.1136096E+03  0.7561462E-02  0.1254028E+00
          2   -1    0    0  501    0  0.00000000000E+00  0.00000000000E+00  0.33949866162E+03  0.33949866162E+03  0.00000000000E+00 0. -1.
         -2   -1    0    0    0  501 -0.00000000000E+00 -0.00000000000E+00 -0.80336047159E+02  0.80336047159E+02  0.00000000000E+00 0.  1.
         25    2    1    2    0    0  0.33578529725E+01 -0.63243868136E+02  0.27401617217E+03  0.30781655712E+03  0.12512037481E+03 0.  0.
          5    1    3    3  502    0  0.51813011132E+02 -0.48029635961E+02  0.22945568358E+03  0.24012250453E+03  0.41800000000E+01 0.  1.
         -5    1    3    3    0  502 -0.48455158160E+02 -0.15214232175E+02  0.44560488586E+02  0.67694052590E+02  0.41800000000E+01 0.  1.
        -11    1    1    2    0    0 -0.43510510333E+02  0.39931594021E+02  0.91328736610E+01  0.59758732347E+02  0.00000000000E+00 0.  1.
         11    1    1    2    0    0  0.40152657360E+02  0.23312274115E+02 -0.23986431366E+02  0.52259419315E+02  0.00000000000E+00 0. -1.
</event>
<event>
 7    1  0.1538147E-010  0.9820723E+02  0.7561462E-02  0.1284112E+00
          1   -1    0    0  501    0  0.00000000000E+00  0.00000000000E+00  0.10371910523E+03  0.10371910523E+03  0.00000000000E+00 0. -1.
         -1   -1    0    0    0  501 -0.00000000000E+00 -0.00000000000E+00 -0.18600761315E+03  0.18600761315E+03  0.00000000000E+00 0.  1.
         25    2    1    2    0    0 -0.72021145411E+02 -0.14537268190E+02 -0.93088208043E+02  0.17235266798E+03  0.12506658279E+03 0.  0.
          5    1    3    3  502    0 -0.74169988213E+02 -0.10374504168E+02 -0.12175549780E+03  0.14300591293E+03  0.41800000000E+01 0. -1.
         -5    1    3    3    0  502  0.21488428022E+01 -0.41627640226E+01  0.28667289759E+02  0.29346755048E+02  0.41800000000E+01 0. -1.
        -11    1    1    2    0    0  0.47740019305E+01  0.42159040769E+02 -0.57466135082E+01  0.42815877660E+02  0.00000000000E+00 0.  1.
         11    1    1    2    0    0  0.67247143480E+02 -0.27621772578E+02  0.16546313633E+02  0.74558172734E+02  0.00000000000E+00 0. -1.
</event>
<event>
 6    1  0.1538147E-010  0.6599598E+02  0.7561462E-02  0.1374264E+00
         -1   -1    0    0    0  501 -0.00000000000E+00  0.00000000000E+00  0.59202829425E+03  0.59202829425E+03  0.00000000000E+00 0.  1.
          1   -1    0    0  501    0  0.00000000000E+00 -0.00000000000E+00 -0.21875024566E+02  0.21875024566E+02  0.00000000000E+00 0. -1.
          5    1    1    2  502    0 -0.59624819259E+01  0.72936134231E+00  0.34374062368E+03  0.34381851597E+03  0.41800000000E+01 0. -1.
         -5    1    1    2    0  502  0.36942145164E+02 -0.13128925872E+01  0.20298828372E+02  0.42378775461E+02  0.41800000000E+01 0. -1.
        -11    1    1    2    0    0 -0.32806824677E+02 -0.37225951053E+02  0.66015723953E+02  0.82584108558E+02  0.00000000000E+00 0. -1.
         11    1    1    2    0    0  0.18271614393E+01  0.37809482298E+02  0.14009809368E+03  0.14512191882E+03  0.00000000000E+00 0.  1.
</event>
<event>
 7    1  0.1538147E-010  0.1019339E+03  0.7561462E-02  0.1276281E+00
         -2   -1    0    0    0  501 -0.00000000000E+00  0.00000000000E+00  0.88635482900E+02  0.88635482900E+02  0.00000000000E+00 0.  1.
          2   -1    0    0  501    0  0.00000000000E+00 -0.00000000000E+00 -0.20152089244E+03  0.20152089244E+03  0.00000000000E+00 0. -1.
         25    2    1    2    0    0 -0.46974816354E+02 -0.53124938288E+02 -0.10848675542E+03  0.18011139762E+03  0.12506736989E+03 0.  0.
          5    1    3    3  502    0 -0.65550824732E+02 -0.58196553682E+02 -0.20732832075E+02  0.90172458153E+02  0.41800000000E+01 0. -1.
         -5    1    3    3    0  502  0.18576008378E+02  0.50716153939E+01 -0.87753923340E+02  0.89938939462E+02  0.41800000000E+01 0. -1.
        -11    1    1    2    0    0  0.59410202885E+02  0.22806498087E+02 -0.28137565642E+02  0.69580393518E+02  0.00000000000E+00 0. -1.
         11    1    1    2    0    0 -0.12435386531E+02  0.30318440201E+02  0.23738911522E+02  0.40464584202E+02  0.00000000000E+00 0.  1.
</event>
<event>
 7    1  0.1538147E-010  0.1048347E+03  0.7561462E-02  0.1270446E+00
          2   -1    0    0  501    0  0.00000000000E+00  0.00000000000E+00  0.14710573140E+03  0.14710573140E+03  0.00000000000E+00 0. -1.
         -2   -1    0    0    0  501 -0.00000000000E+00 -0.00000000000E+00 -0.12232559339E+03  0.12232559339E+03  0.00000000000E+00 0.  1.
         25    2    1    2    0    0 -0.40705783999E+02 -0.12455277991E+02 -0.55287707456E+02  0.14325334452E+03  0.12511073223E+03 0.  0.
          5    1    3    3  502    0 -0.75348192660E+02 -0.16256338924E+02 -0.70922218008E+02  0.10482867976E+03  0.41800000000E+01 0.  1.
         -5    1    3    3    0  502  0.34642408661E+02  0.38010609330E+01  0.15634510553E+02  0.38424664765E+02  0.41800000000E+01 0.  1.
        -11    1    1    2    0    0  0.53828581670E+01 -0.36561678122E+02  0.33757231648E+02  0.50052793705E+02  0.00000000000E+00 0. -1.
         11    1    1    2    0    0  0.35322925832E+02  0.49016956114E+02  0.46310613821E+02  0.76125186558E+02  0.00000000000E+00 0.  1.
</event>
<event>
 6    1  0.1538147E-010  0.1078495E+03  0.7561462E-02  0.1264605E+00
          2   -1    0    0  501    0  0.00000000000E+00  0.00000000000E+00  0.20269828035E+03  0.20269828035E+03  0.00000000000E+00 0. -1.
         -2   -1    0    0    0  501 -0.00000000000E+00 -0.00000000000E+00 -0.88750335244E+02  0.88750335244E+02  0.00000000000E+00 0.  1.
          5    1    1    2  502    0 -0.58307580725E+02 -0.14942747286E+02  0.98868327319E+02  0.11582520543E+03  0.41800000000E+01 0.  1.
         -5    1    1    2    0  502 -0.19226938258E+02  0.30153675902E+02 -0.30520442250E+02  0.47200520340E+02  0.41800000000E+01 0.  1.
        -11    1    1    2    0    0  0.74966034878E+02  0.25029803297E+02  0.36652470433E+02  0.87119464112E+02  0.00000000000E+00 0.  1.
         11    1    1    2    0    0  0.25684841052E+01 -0.40240731913E+02  0.89475896024E+01  0.41303425708E+02  0.00000000000E+00 0. -1.
</event>
<event>
 6    1  0.1538147E-010  0.8768301E+02  0.7561462E-02  0.1308562E+00
         -2   -1    0    0    0  501 -0.00000000000E+00  0.00000000000E+00  0.20342837669E+03  0.20342837669E+03  0.00000000000E+00 0.  1.
          2   -1    0    0  501    0  0.00000000000E+00 -0.00000000000E+00 -0.64148549657E+02  0.64148549657E+02  0.00000000000E+00 0. -1.
          5    1    1    2  502    0 -0.11974563974E+02 -0.49597343169E+02  0.11540525285E+03  0.12625027294E+03  0.41800000000E+01 0. -1.
         -5    1    1    2    0  502  0.46444884878E+01  0.46691231732E+02 -0.10750772879E+01  0.47119747295E+02  0.41800000000E+01 0. -1.
        -11    1    1    2    0    0  0.36066770839E+02  0.22293018974E+02 -0.11472937495E+02  0.43925151662E+02  0.00000000000E+00 0. -1.
         11    1    1    2    0    0 -0.28736695353E+02 -0.19386907537E+02  0.36422588964E+02  0.50281754449E+02  0.00000000000E+00 0.  1.
</event>
<event>
 6    1  0.1538147E-010  0.9696461E+02  0.7561462E-02  0.1286812E+00
         -3   -1    0    0    0  501 -0.00000000000E+00  0.00000000000E+00  0.37154961190E+03  0.37154961190E+03  0.00000000000E+00 0.  1.
          3   -1    0    0  501    0  0.00000000000E+00 -0.00000000000E+00 -0.42072821584E+02  0.42072821584E+02  0.00000000000E+00 0. -1.
          5    1    1    2  502    0 -0.30684459417E+02 -0.15460309427E+02  0.16257784705E+03  0.16622149671E+03  0.41800000000E+01 0. -1.
         -5    1    1    2    0  502 -0.21169292424E+02  0.49830081632E+02  0.89453019973E+01  0.55033324495E+02  0.41800000000E+01 0. -1.
        -11    1    1    2    0    0 -0.22504035641E+02 -0.18144682387E+02  0.21150309214E+02  0.35818943297E+02  0.00000000000E+00 0. -1.
         11    1    1    2    0    0  0.74357787482E+02 -0.16225089818E+02  0.13680333205E+03  0.15654866898E+03  0.00000000000E+00 0.  1.
</event>
<event>
 6    1  0.1538147E-010  0.1059243E+03  0.7561462E-02  0.1268309E+00
         -2   -1    0    0    0  501 -0.00000000000E+00  0.00000000000E+00  0.11296996995E+03  0.11296996995E+03  0.00000000000E+00 0.  1.
          2   -1    0    0  501    0  0.00000000000E+00 -0.00000000000E+00 -0.19279536141E+03  0.19279536141E+03  0.00000000000E+00 0. -1.
          5    1    1    2  502    0 -0.63778743908E+02  0.24901930758E+02 -0.39389022913E+02  0.79099948521E+02  0.41800000000E+01 0.  1.
         -5    1    1    2    0  502 -0.11705221071E+02 -0.22659925866E+02  0.63899687866E+02  0.68928419030E+02  0.41800000000E+01 0.  1.
        -11    1    1    2    0    0  0.11668930180E+02  0.39477705040E+02 -0.46047424576E+02  0.61765835515E+02  0.00000000000E+00 0. -1.
         11    1    1    2    0    0  0.63815034800E+02 -0.41719709932E+02 -0.58288631839E+02  0.95971128288E+02  0.00000000000E+00 0.  1.
</event>
<event>
 6    1  0.1538147E-010  0.1356653E+03  0.7561462E-02  0.1219283E+00
          1   -1    0    0  501    0  0.00000000000E+00  0.00000000000E+00  0.52272375975E+03  0.52272375975E+03  0.00000000000E+00 0. -1.
         -1   -1    0    0    0  501 -0.00000000000E+00 -0.00000000000E+00 -0.46896705201E+02  0.46896705201E+02  0.00000000000E+00 0.  1.
          5    1    1    2  502    0 -0.96826870112E+02  0.80145562083E+02  0.12852223399E+03  0.17981710410E+03  0.41800000000E+01 0. -1.
         -5    1    1    2    0  502  0.31437832649E+02  0.79566232586E+01  0.83379947420E+02  0.89561895956E+02  0.41800000000E+01 0. -1.
        -11    1    1    2    0    0  0.51804235400E+02 -0.48351613276E+02  0.62513514246E+02  0.94496014599E+02  0.00000000000E+00 0.  1.
         11    1    1    2    0    0  0.13584802063E+02 -0.39750572066E+02  0.20141135889E+03  0.20574545030E+03  0.00000000000E+00 0. -1.
</event>
<event>
 6    1  0.1538147E-010  0.1747990E+03  0.7561462E-02  0.1172934E+00
         -2   -1    0    0    0  501 -0.00000000000E+00  0.00000000000E+00  0.17631385398E+02  0.17631385398E+02  0.00000000000E+00 0.  1.
          2   -1    0    0  501    0  0.00000000000E+00 -0.00000000000E+00 -0.27922761249E+04  0.27922761249E+04  0.00000000000E+00 0. -1.
          5    1    1    2  502    0 -0.73963619689E+01 -0.11057800667E+02 -0.18353547578E+02  0.23050081012E+02  0.41800000000E+01 0. -1.
         -5    1    1    2    0  502  0.27985251883E+01 -0.15910862098E+03 -0.19995207245E+04  0.20058474481E+04  0.41800000000E+01 0. -1.
        -11    1    1    2    0    0 -0.21061383376E+02  0.75293551182E+02 -0.18481817461E+03  0.20067500687E+03  0.00000000000E+00 0.  1.
         11    1    1    2    0    0  0.25659220157E+02  0.94872870469E+02 -0.57195229283E+03  0.58033497431E+03  0.00000000000E+00 0. -1.
</event>
<event>
 7    1  0.1538147E-010  0.1590457E+03  0.7561462E-02  0.1189778E+00
         -2   -1    0    0    0  501 -0.00000000000E+00  0.00000000000E+00  0.34828561366E+02  0.34828561366E+02  0.00000000000E+00 0.  1.
          2   -1    0    0  501    0  0.00000000000E+00 -0.00000000000E+00 -0.11098787029E+04  0.11098787029E+04  0.00000000000E+00 0. -1.
         25    2    1    2    0    0  0.73756911494E+01 -0.14464793721E+03 -0.77906914193E+03  0.80223642730E+03  0.12512845727E+03 0.  0.
          5    1    3    3  502    0  0.20553655170E+02 -0.15022492423E+03 -0.49364206048E+03  0.51642031028E+03  0.41800000000E+01 0. -1.
         -5    1    3    3    0  502 -0.13177964021E+02  0.55769870126E+01 -0.28542708145E+03  0.28581611702E+03  0.41800000000E+01 0. -1.
        -11    1    1    2    0    0 -0.18803819398E+02  0.13567535487E+03 -0.29783665830E+03  0.32782321542E+03  0.00000000000E+00 0. -1.
         11    1    1    2    0    0  0.11428128248E+02  0.89725823450E+01  0.18556586506E+01  0.14647621589E+02  0.00000000000E+00 0.  1.
</event>
<event>
 7    1  0.1538147E-010  0.1026352E+03  0.7561462E-02  0.1274850E+00
         -2   -1    0    0    0  501 -0.00000000000E+00  0.00000000000E+00  0.24951402310E+02  0.24951402310E+02  0.00000000000E+00 0.  1.
          2   -1    0    0  501    0  0.00000000000E+00 -0.00000000000E+00 -0.49644553783E+03  0.49644553783E+03  0.00000000000E+00 0. -1.
         25    2    1    2    0    0  0.24887282208E+01  0.23861863845E+02 -0.30333244656E+03  0.32900335009E+03  0.12512813002E+03 0.  0.
          5    1    3    3  502    0 -0.12656459910E+02  0.66277269794E+02 -0.10004711609E+03  0.12074667824E+03  0.41800000000E+01 0. -1.
         -5    1    3    3    0  502  0.15145188131E+02 -0.42415405949E+02 -0.20328533047E+03  0.20825667185E+03  0.41800000000E+01 0. -1.
        -11    1    1    2    0    0 -0.44098699067E+02 -0.25222218623E+02 -0.78015502753E+02  0.93098196768E+02  0.00000000000E+00 0. -1.
         11    1    1    2    0    0  0.41609970847E+02  0.13603547778E+01 -0.90146186211E+02  0.99295393283E+02  0.00000000000E+00 0.  1.
</event>
<event>
 6    1  0.1538147E-010  0.1729251E+03  0.7561462E-02  0.1174831E+00
          2   -1    0    0  501    0  0.00000000000E+00  0.00000000000E+00  0.37899125587E+03  0.37899125587E+03  0.00000000000E+00 0. -1.
         -2   -1    0    0    0  501 -0.00000000000E+00 -0.00000000000E+00 -0.10341209566E+03  0.10341209566E+03  0.00000000000E+00 0.  1.
          5    1    1    2  502    0 -0.75736535443E+02  0.50325989480E+01  0.61431081319E+02  0.97737403306E+02  0.41800000000E+01 0. -1.
         -5    1    1    2    0  502 -0.27661904715E+02  0.10889485592E+03  0.10715276943E+02  0.11294051610E+03  0.41800000000E+01 0. -1.
        -11    1    1    2    0    0  0.10216021793E+03 -0.98461118719E+02  0.11697685601E+03  0.18388824560E+03  0.00000000000E+00 0.  1.
         11    1    1    2    0    0  0.12382222307E+01 -0.15466336147E+02  0.86455945940E+02  0.87837186524E+02  0.00000000000E+00 0. -1.
</event>
<event>
 7    1  0.1538147E-010  0.1084910E+03  0.7561462E-02  0.1263390E+00
          2   -1    0    0  501    0  0.00000000000E+00  0.00000000000E+00  0.10304042489E+04  0.10304042489E+04  0.00000000000E+00 0. -1.
         -2   -1    0    0    0  501 -0.00000000000E+00 -0.00000000000E+00 -0.22822385622E+02  0.22822385622E+02  0.00000000000E+00 0.  1.
         25    2    1    2    0    0  0.92674127867E+01 -0.71907590510E+02  0.68623609765E+03  0.70130697045E+03  0.12511953712E+03 0.  0.
          5    1    3    3  502    0 -0.40753345155E+02  0.14190930821E+02  0.16321266911E+03  0.16887292683E+03  0.41800000000E+01 0.  1.
         -5    1    3    3    0  502  0.50020757941E+02 -0.86098521331E+02  0.52302342854E+03  0.53243404361E+03  0.41800000000E+01 0.  1.
        -11    1    1    2    0    0  0.40168982392E+01  0.18304916732E+02 -0.62089753522E+01  0.19742259824E+02  0.00000000000E+00 0.  1.
         11    1    1    2    0    0 -0.13284311026E+02  0.53602673777E+02  0.32755474099E+03  0.33217740426E+03  0.00000000000E+00 0. -1.
</event>
<event>
 7    1  0.1538147E-010  0.1118448E+03  0.7561462E-02  0.1257191E+00
         -2   -1    0    0    0  501 -0.00000000000E+00  0.00000000000E+00  0.15261551352E+02  0.15261551352E+02  0.00000000000E+00 0. -1.
          2   -1    0    0  501    0  0.00000000000E+00 -0.00000000000E+00 -0.10669179903E+04  0.10669179903E+04  0.00000000000E+00 0.  1.
         25    2    1    2    0    0  0.55026950273E+02 -0.92720092115E+01 -0.43965777388E+03  0.46050947708E+03  0.12512427797E+03 0.  0.
          5    1    3    3  502    0  0.10325468772E+02  0.44040075630E+02 -0.64254976133E+02  0.78691282394E+02  0.41800000000E+01 0.  1.
         -5    1    3    3    0  502  0.44701481501E+02 -0.53312084841E+02 -0.37540279775E+03  0.38181819469E+03  0.41800000000E+01 0.  1.
        -11    1    1    2    0    0  0.10782340593E+02 -0.30033621699E+02 -0.15014709221E+03  0.15350057524E+03  0.00000000000E+00 0. -1.
         11    1    1    2    0    0 -0.65809290866E+02  0.39305630911E+02 -0.46185157284E+03  0.46816948931E+03  0.00000000000E+00 0.  1.
</event>
<event>
 7    1  0.1538147E-010  0.4149776E+03  0.7561462E-02  0.1038713E+00
         -2   -1    0    0    0  501 -0.00000000000E+00  0.00000000000E+00  0.25685558728E+03  0.25685558728E+03  0.00000000000E+00 0.  1.
          2   -1    0    0  501    0  0.00000000000E+00 -0.00000000000E+00 -0.93953275365E+03  0.93953275365E+03  0.00000000000E+00 0. -1.
         25    2    1    2    0    0 -0.11506219166E+03  0.39336180290E+03 -0.64475090449E+03  0.77415690208E+03  0.12506943778E+03 0.  0.
          5    1    3    3  502    0 -0.54235607076E+02  0.21518541500E+03 -0.23524689722E+03  0.32342671342E+03  0.41800000000E+01 0.  1.
         -5    1    3    3    0  502 -0.60826584580E+02  0.17817638790E+03 -0.40950400728E+03  0.45073018866E+03  0.41800000000E+01 0.  1.
        -11    1    1    2    0    0  0.67673587752E+02 -0.34645934023E+03 -0.22063009316E+02  0.35369558280E+03  0.00000000000E+00 0.  1.
         11    1    1    2    0    0  0.47388603904E+02 -0.46902462669E+02 -0.15863252560E+02  0.68535856062E+02  0.00000000000E+00 0. -1.
</event>
<event>
 6    1  0.1538147E-010  0.1112996E+03  0.7561462E-02  0.1258182E+00
         -1   -1    0    0    0  501 -0.00000000000E+00  0.00000000000E+00  0.15565436607E+03  0.15565436607E+03  0.00000000000E+00 0.  1.
          1   -1    0    0  501    0  0.00000000000E+00 -0.00000000000E+00 -0.13016877867E+03  0.13016877867E+03  0.00000000000E+00 0. -1.
          5    1    1    2  502    0  0.34102167494E+02 -0.27690168971E+02 -0.34776880153E+01  0.44263641958E+02  0.41800000000E+01 0.  1.
         -5    1    1    2    0  502 -0.90018921391E+02 -0.23906264356E+02  0.70443645625E+02  0.11685330673E+03  0.41800000000E+01 0.  1.
        -11    1    1    2    0    0  0.38470159222E+02  0.94341705636E+01 -0.62873745390E+02  0.74310595369E+02  0.00000000000E+00 0. -1.
         11    1    1    2    0    0  0.17446594674E+02  0.42162262764E+02  0.21393375180E+02  0.50395600687E+02  0.00000000000E+00 0.  1.
</event>
<event>
 7    1  0.1538147E-010  0.8520802E+02  0.7561462E-02  0.1314889E+00
         -1   -1    0    0    0  501 -0.00000000000E+00  0.00000000000E+00  0.14612680488E+02  0.14612680488E+02  0.00000000000E+00 0.  1.
          1   -1    0    0  501    0  0.00000000000E+00 -0.00000000000E+00 -0.96491252593E+03  0.96491252593E+03  0.00000000000E+00 0. -1.
         25    2    1    2    0    0 -0.16139800657E+02  0.24351005407E+02 -0.70171105613E+03  0.71336685070E+03  0.12506155584E+03 0.  0.
          5    1    3    3  502    0  0.22331482044E+02  0.36660053286E+02 -0.62573321098E+03  0.62721780772E+03  0.41800000000E+01 0. -1.
         -5    1    3    3    0  502 -0.38471282702E+02 -0.12309047879E+02 -0.75977845148E+02  0.86149042976E+02  0.41800000000E+01 0. -1.
        -11    1    1    2    0    0  0.27437983024E+01  0.30292787840E+02 -0.14619451734E+03  0.14932520994E+03  0.00000000000E+00 0.  1.
         11    1    1    2    0    0  0.13396002355E+02 -0.54643793246E+02 -0.10239427198E+03  0.11683314578E+03  0.00000000000E+00 0. -1.
</event>
<event>
 6    1  0.1538147E-010  0.1730451E+03  0.7561462E-02  0.1174709E+00
         -2   -1    0    0    0  501 -0.00000000000E+00  0.00000000000E+00  0.59869083652E+02  0.59869083652E+02  0.00000000000E+00 0.  1.
          2   -1    0    0  501    0  0.00000000000E+00 -0.00000000000E+00 -0.57005450042E+03  0.57005450042E+03  0.00000000000E+00 0. -1.
          5    1    1    2  502    0 -0.14889464706E+03 -0.50723798636E+02 -0.22456805779E+03  0.27420941751E+03  0.41800000000E+01 0. -1.
         -5    1    1    2    0  502  0.20911759752E+02 -0.23410012335E+02 -0.18530852867E+02  0.36690533948E+02  0.41800000000E+01 0. -1.
        -11    1    1    2    0    0  0.86457775790E+02  0.76547483037E+02 -0.24736351969E+03  0.27298933135E+03  0.00000000000E+00 0. -1.
         11    1    1    2    0    0  0.41525111521E+02 -0.24136720663E+01 -0.19722986414E+02  0.46034301263E+02  0.00000000000E+00 0.  1.
</event>
<event>
 6    1  0.1538147E-010  0.2892131E+03  0.7561462E-02  0.1090761E+00
          1   -1    0    0  501    0  0.00000000000E+00  0.00000000000E+00  0.37950767145E+03  0.37950767145E+03  0.00000000000E+00 0. -1.
         -1   -1    0    0    0  501 -0.00000000000E+00 -0.00000000000E+00 -0.37957498510E+03  0.37957498510E+03  0.00000000000E+00 0.  1.
          5    1    1    2  502    0 -0.11127199571E+03 -0.66266743616E+02 -0.53043113422E+02  0.14001350870E+03  0.41800000000E+01 0. -1.
         -5    1    1    2    0  502 -0.61158357748E+02 -0.14862175784E+03 -0.18393899405E+03  0.24429448941E+03  0.41800000000E+01 0. -1.
        -11    1    1    2    0    0  0.54542410228E+02  0.13519848822E+03  0.14345841821E+03  0.20453318431E+03  0.00000000000E+00 0.  1.
         11    1    1    2    0    0  0.11788794323E+03  0.79690013231E+02  0.93456375615E+02  0.17024147412E+03  0.00000000000E+00 0. -1.
</event>
<event>
 7    1  0.1538147E-010  0.1005011E+03  0.7561462E-02  0.1279246E+00
         -2   -1    0    0    0  501 -0.00000000000E+00  0.00000000000E+00  0.17350422852E+02  0.17350422852E+02  0.00000000000E+00 0.  1.
          2   -1    0    0  501    0  0.00000000000E+00 -0.00000000000E+00 -0.10122597503E+04  0.10122597503E+04  0.00000000000E+00 0. -1.
         25    2    1    2    0    0 -0.65415723384E+02 -0.29111469078E+02 -0.44536583609E+03  0.46810150342E+03  0.12506636257E+03 0.  0.
          5    1    3    3  502    0 -0.17647141565E+02 -0.33601160602E+02 -0.26504127556E+02  0.46480111625E+02  0.41800000000E+01 0.  1.
         -5    1    3    3    0  502 -0.47768581820E+02  0.44896915240E+01 -0.41886170854E+03  0.42162139179E+03  0.41800000000E+01 0.  1.
        -11    1    1    2    0    0  0.38985517152E+02 -0.30468441907E+02 -0.20827861042E+03  0.21407516450E+03  0.00000000000E+00 0.  1.
         11    1    1    2    0    0  0.26430206233E+02  0.59579910985E+02 -0.34126488095E+03  0.34743350524E+03  0.00000000000E+00 0. -1.
</event>
<event>
 7    1  0.1538147E-010  0.2129476E+03  0.7561462E-02  0.1139253E+00
         -4   -1    0    0    0  501 -0.00000000000E+00  0.00000000000E+00  0.28435990884E+03  0.28435990884E+03  0.00000000000E+00 0.  1.
          4   -1    0    0  501    0  0.00000000000E+00 -0.00000000000E+00 -0.19620410001E+03  0.19620410001E+03  0.00000000000E+00 0. -1.
         25    2    1    2    0    0  0.12044442091E+03 -0.16823435013E+03  0.12154633151E+02  0.24205624890E+03  0.12503534474E+03 0.  0.
          5    1    3    3  502    0  0.26605928064E+02 -0.63024036308E+02  0.62047349191E+02  0.92451341269E+02  0.41800000000E+01 0. -1.
         -5    1    3    3    0  502  0.93838492844E+02 -0.10521031383E+03 -0.49892716040E+02  0.14960490763E+03  0.41800000000E+01 0. -1.
        -11    1    1    2    0    0 -0.78370530900E+02  0.55623919871E+02  0.68581870501E+02  0.11806537823E+03  0.00000000000E+00 0. -1.
         11    1    1    2    0    0 -0.42073890009E+02  0.11261043026E+03  0.74193051856E+01  0.12044238172E+03  0.00000000000E+00 0.  1.
</event>
<event>
 7    1  0.1538147E-010  0.1669325E+03  0.7561462E-02  0.1181085E+00
          1   -1    0    0  501    0  0.00000000000E+00  0.00000000000E+00  0.34358733502E+02  0.34358733502E+02  0.00000000000E+00 0. -1.
         -1   -1    0    0    0  501 -0.00000000000E+00 -0.00000000000E+00 -0.11674961710E+04  0.11674961710E+04  0.00000000000E+00 0.  1.
         25    2    1    2    0    0 -0.12918246534E+03  0.81064628678E+02 -0.82420125247E+03  0.84746775860E+03  0.12503725016E+03 0.  0.
          5    1    3    3  502    0 -0.89153962294E+02  0.12582003636E+02 -0.21528058451E+03  0.23338795657E+03  0.41800000000E+01 0. -1.
         -5    1    3    3    0  502 -0.40028503043E+02  0.68482625042E+02 -0.60892066796E+03  0.61407980203E+03  0.41800000000E+01 0. -1.
        -11    1    1    2    0    0  0.65773147093E+02 -0.76260509214E+02 -0.12971472520E+03  0.16421839750E+03  0.00000000000E+00 0. -1.
         11    1    1    2    0    0  0.63409318244E+02 -0.48041194646E+01 -0.17922145982E+03  0.19016874839E+03  0.00000000000E+00 0.  1.
</event>
<event>
 7    1  0.1538147E-010  0.1601689E+03  0.7561462E-02  0.1188506E+00
          2   -1    0    0  501    0  0.00000000000E+00  0.00000000000E+00  0.45372021140E+02  0.45372021140E+02  0.00000000000E+00 0. -1.
         -2   -1    0    0    0  501 -0.00000000000E+00 -0.00000000000E+00 -0.87575226737E+03  0.87575226737E+03  0.00000000000E+00 0.  1.
         25    2    1    2    0    0 -0.20755531207E+02 -0.15563789953E+03 -0.30289774185E+03  0.36340317030E+03  0.12514341501E+03 0.  0.
          5    1    3    3  502    0 -0.61431660433E+01 -0.11711517098E+02  0.11029797554E+02  0.17720805733E+02  0.41800000000E+01 0. -1.
         -5    1    3    3    0  502 -0.14612365163E+02 -0.14392638243E+03 -0.31392753941E+03  0.34568236457E+03  0.41800000000E+01 0. -1.
        -11    1    1    2    0    0  0.16964546482E+02  0.20758935780E+02 -0.22430167932E+02  0.34954852103E+02  0.00000000000E+00 0. -1.
         11    1    1    2    0    0  0.37909847250E+01  0.13487896375E+03 -0.50505233645E+03  0.52276626610E+03  0.00000000000E+00 0.  1.
</event>
<event>
 7    1  0.1538147E-010  0.9876051E+02  0.7561462E-02  0.1282924E+00
         -3   -1    0    0    0  501 -0.00000000000E+00  0.00000000000E+00  0.50079201844E+02  0.50079201844E+02  0.00000000000E+00 0.  1.
          3   -1    0    0  501    0  0.00000000000E+00 -0.00000000000E+00 -0.26655581223E+03  0.26655581223E+03  0.00000000000E+00 0. -1.
         25    2    1    2    0    0 -0.31969501963E+02 -0.23704581297E+02 -0.11909576258E+03  0.17726569172E+03  0.12512141529E+03 0.  0.
          5    1    3    3  502    0 -0.62172405127E+02 -0.59369575989E+01 -0.12656154471E+03  0.14119473229E+03  0.41800000000E+01 0. -1.
         -5    1    3    3    0  502  0.30202903164E+02 -0.17767623698E+02  0.74657821322E+01  0.36070959431E+02  0.41800000000E+01 0. -1.
        -11    1    1    2    0    0 -0.13858765640E+02  0.46450336153E+02 -0.49936807449E+02  0.69594424001E+02  0.00000000000E+00 0.  1.
         11    1    1    2    0    0  0.45828267602E+02 -0.22745754856E+02 -0.47444040352E+02  0.69774898355E+02  0.00000000000E+00 0. -1.
</event>
<event>
 6    1  0.1538147E-010  0.1071193E+03  0.7561462E-02  0.1265999E+00
          1   -1    0    0  501    0  0.00000000000E+00  0.00000000000E+00  0.37152951375E+02  0.37152951375E+02  0.00000000000E+00 0. -1.
         -1   -1    0    0    0  501 -0.00000000000E+00 -0.00000000000E+00 -0.37055296000E+03  0.37055296000E+03  0.00000000000E+00 0.  1.
          5    1    1    2  502    0  0.15449399417E+02 -0.42758586687E+02 -0.89856389701E+02  0.10078999875E+03  0.41800000000E+01 0. -1.
         -5    1    1    2    0  502 -0.56392842753E+02  0.64173415468E+02 -0.10781128279E+03  0.13761949376E+03  0.41800000000E+01 0. -1.
        -11    1    1    2    0    0  0.44217826002E+01 -0.41252243272E+02 -0.11617965796E+03  0.12336536248E+03  0.00000000000E+00 0.  1.
         11    1    1    2    0    0  0.36521660737E+02  0.19837414491E+02 -0.19552678176E+02  0.45931056384E+02  0.00000000000E+00 0. -1.
</event>
<event>
 6    1  0.1538147E-010  0.6040404E+02  0.7561462E-02  0.1396144E+00
         -1   -1    0    0    0  501 -0.00000000000E+00  0.00000000000E+00  0.79450706958E+02  0.79450706958E+02  0.00000000000E+00 0. -1.
          1   -1    0    0  501    0  0.00000000000E+00 -0.00000000000E+00 -0.33741224520E+03  0.33741224520E+03  0.00000000000E+00 0.  1.
          5    1    1    2  502    0 -0.71397044613E+01  0.11882875979E+02 -0.26428232075E+03  0.26467866476E+03  0.41800000000E+01 0.  1.
         -5    1    1    2    0  502 -0.18610542663E+02  0.38047618446E+02 -0.12790365248E+02  0.44441415490E+02  0.41800000000E+01 0.  1.
        -11    1    1    2    0    0 -0.52967872710E+01 -0.19827958947E+02  0.50365442409E+02  0.54386410990E+02  0.00000000000E+00 0. -1.
         11    1    1    2    0    0  0.31047034396E+02 -0.30102535477E+02 -0.31254294655E+02  0.53356460914E+02  0.00000000000E+00 0.  1.
</event>
<event>
 6    1  0.1538147E-010  0.1297146E+03  0.7561462E-02  0.1227880E+00
         -1   -1    0    0    0  501 -0.00000000000E+00  0.00000000000E+00  0.62934193709E+03  0.62934193709E+03  0.00000000000E+00 0.  1.
          1   -1    0    0  501    0  0.00000000000E+00 -0.00000000000E+00 -0.39995005153E+02  0.39995005153E+02  0.00000000000E+00 0. -1.
          5    1    1    2  502    0 -0.11071198571E+03 -0.11450506758E+02  0.11395580935E+03  0.15934759731E+03  0.41800000000E+01 0.  1.
         -5    1    1    2    0  502 -0.32543981617E+01  0.14409636870E+02  0.17453048477E+03  0.17520442705E+03  0.41800000000E+01 0.  1.
        -11    1    1    2    0    0  0.65539673254E+02  0.32033534265E+02  0.91248374270E+02  0.11682406385E+03  0.00000000000E+00 0. -1.
         11    1    1    2    0    0  0.48426710619E+02 -0.34992664377E+02  0.20961226355E+03  0.21796085403E+03  0.00000000000E+00 0.  1.
</event>
<event>
 6    1  0.1538147E-010  0.1107562E+03  0.7561462E-02  0.1259176E+00
          1   -1    0    0  501    0  0.00000000000E+00  0.00000000000E+00  0.75026764604E+03  0.75026764604E+03  0.00000000000E+00 0. -1.
         -1   -1    0    0    0  501 -0.00000000000E+00 -0.00000000000E+00 -0.19436844043E+02  0.19436844043E+02  0.00000000000E+00 0.  1.
          5    1    1    2  502    0  0.29555041284E+02  0.57177207534E+02  0.12343608690E+03  0.13927194074E+03  0.41800000000E+01 0. -1.
         -5    1    1    2    0  502  0.13693416199E+02 -0.63481693947E+02  0.19855703005E+03  0.20894928020E+03  0.41800000000E+01 0. -1.
        -11    1    1    2    0    0  0.15351019222E+02  0.25934026116E+02  0.59237511163E+02  0.66462848498E+02  0.00000000000E+00 0.  1.
         11    1    1    2    0    0 -0.58599476705E+02 -0.19629539703E+02  0.34960017388E+03  0.35502042065E+03  0.00000000000E+00 0. -1.
</event>
<event>
 7    1  0.1538147E-010  0.1133550E+03  0.7561462E-02  0.1254480E+00
          1   -1    0    0  501    0  0.00000000000E+00  0.00000000000E+00  0.56509276743E+03  0.56509276743E+03  0.00000000000E+00 0. -1.
         -1   -1    0    0    0  501 -0.00000000000E+00 -0.00000000000E+00 -0.25491008390E+02  0.25491008390E+02  0.00000000000E+00 0.  1.
         25    2    1    2    0    0 -0.49256128457E+02 -0.65399795881E+00  0.33750881769E+03  0.36329000771E+03  0.12506331908E+03 0.  0.
          5    1    3    3  502    0 -0.66941830930E+02 -0.45805625579E+02  0.25357594817E+03  0.26626602853E+03  0.41800000000E+01 0. -1.
         -5    1    3    3    0  502  0.17685702473E+02  0.45151627621E+02  0.83932869521E+02  0.97023979175E+02  0.41800000000E+01 0. -1.
        -11    1    1    2    0    0  0.27003938046E+01 -0.36902779568E+02  0.39869361407E+02  0.54393687552E+02  0.00000000000E+00 0.  1.
         11    1    1    2    0    0  0.46555734652E+02  0.37556777527E+02  0.16222357994E+03  0.17290008056E+03  0.00000000000E+00 0. -1.
</event>
<event>
 7    1  0.1538147E-010  0.9853888E+02  0.7561462E-02  0.1283399E+00
          1   -1    0    0  501    0  0.00000000000E+00  0.00000000000E+00  0.55861366070E+03  0.55861366070E+03  0.00000000000E+00 0. -1.
         -1   -1    0    0    0  501 -0.00000000000E+00 -0.00000000000E+00 -0.28214215878E+02  0.28214215878E+02  0.00000000000E+00 0.  1.
         25    2    1    2    0    0  0.47441102428E+02 -0.19507931823E+02  0.20867065963E+03  0.24866748953E+03  0.12514335201E+03 0.  0.
          5    1    3    3  502    0  0.68879603022E+02 -0.30395813193E+02  0.21107936714E+03  0.22414342909E+03  0.41800000000E+01 0. -1.
         -5    1    3    3    0  502 -0.21438500594E+02  0.10887881370E+02 -0.24087075085E+01  0.24524060437E+02  0.41800000000E+01 0. -1.
        -11    1    1    2    0    0 -0.71243485264E+02  0.11568741882E+02  0.17497203018E+03  0.18927409048E+03  0.00000000000E+00 0.  1.
         11    1    1    2    0    0  0.23802382836E+02  0.79391899410E+01  0.14675675501E+03  0.14888629657E+03  0.00000000000E+00 0. -1.
</event>
<event>
 7    1  0.1538147E-010  0.1208854E+03  0.7561462E-02  0.1241644E+00
          1   -1    0    0  501    0  0.00000000000E+00  0.00000000000E+00  0.12645995196E+03  0.12645995196E+03  0.00000000000E+00 0. -1.
         -1   -1    0    0    0  501 -0.00000000000E+00 -0.00000000000E+00 -0.13757566483E+03  0.13757566483E+03  0.00000000000E+00 0.  1.
         25    2    1    2    0    0  0.61941414618E+02  0.23856188442E+01  0.37107364852E+02  0.14442681545E+03  0.12505886003E+03 0.  0.
          5    1    3    3  502    0 -0.14944055036E+02  0.44253451638E+02 -0.50555638769E+01  0.47166978798E+02  0.41800000000E+01 0. -1.
         -5    1    3    3    0  502  0.76885469654E+02 -0.41867832794E+02  0.42162928729E+02  0.97259836653E+02  0.41800000000E+01 0. -1.
        -11    1    1    2    0    0 -0.22945425906E+02  0.42176736590E+02 -0.33633466787E+02  0.58622348704E+02  0.00000000000E+00 0.  1.
         11    1    1    2    0    0 -0.38995988713E+02 -0.44562355435E+02 -0.14589610937E+02  0.60986452634E+02  0.00000000000E+00 0. -1.
</event>
<event>
 6    1  0.1538147E-010  0.9274364E+02  0.7561462E-02  0.1296340E+00
         -1   -1    0    0    0  501 -0.00000000000E+00  0.00000000000E+00  0.34472236606E+02  0.34472236606E+02  0.00000000000E+00 0.  1.
          1   -1    0    0  501    0  0.00000000000E+00 -0.00000000000E+00 -0.34282758713E+03  0.34282758713E+03  0.00000000000E+00 0. -1.
          5    1    1    2  502    0  0.51484402850E+02 -0.40952573938E+02 -0.10269760330E+03  0.12203289382E+03  0.41800000000E+01 0.  1.
         -5    1    1    2    0  502 -0.35734786660E+02  0.45153016206E+02 -0.53637306692E+02  0.78804840710E+02  0.41800000000E+01 0.  1.
        -11    1    1    2    0    0 -0.23015309568E+02 -0.28407482544E+02 -0.19272080235E+02  0.41329198100E+02  0.00000000000E+00 0.  1.
         11    1    1    2    0    0  0.72656933781E+01  0.24207040276E+02 -0.13274836029E+03  0.13513289111E+03  0.00000000000E+00 0. -1.
</event>
<event>
 6    1  0.1538147E-010  0.1283151E+03  0.7561462E-02  0.1229977E+00
         -2   -1    0    0    0  501 -0.00000000000E+00  0.00000000000E+00  0.64322530612E+02  0.64322530612E+02  0.00000000000E+00 0.  1.
          2   -1    0    0  501    0  0.00000000000E+00 -0.00000000000E+00 -0.35184925390E+03  0.35184925390E+03  0.00000000000E+00 0. -1.
          5    1    1    2  502    0  0.51394275491E+02  0.10029232368E+03 -0.36144157405E+02  0.11842210206E+03  0.41800000000E+01 0. -1.
         -5    1    1    2    0  502 -0.22626580010E-01 -0.19767936811E+02 -0.66268414516E+02  0.69280206410E+02  0.41800000000E+01 0. -1.
        -11    1    1    2    0    0 -0.72108957038E+02 -0.54557625695E+02 -0.16870099302E+03  0.19140601153E+03  0.00000000000E+00 0. -1.
         11    1    1    2    0    0  0.20737308126E+02 -0.25966761173E+02 -0.16413158346E+02  0.37063464503E+02  0.00000000000E+00 0.  1.
</event>
<event>
 7    1  0.1538147E-010  0.1480777E+03  0.7561462E-02  0.1202855E+00
          1   -1    0    0  501    0  0.00000000000E+00  0.00000000000E+00  0.22095033795E+03  0.22095033795E+03  0.00000000000E+00 0. -1.
         -1   -1    0    0    0  501 -0.00000000000E+00 -0.00000000000E+00 -0.13574361743E+03  0.13574361743E+03  0.00000000000E+00 0.  1.
         25    2    1    2    0    0 -0.12375319516E+03 -0.25378449144E+02 -0.19721785013E+01  0.17777849613E+03  0.12506952149E+03 0.  0.
          5    1    3    3  502    0 -0.11942988869E+03  0.47192384388E+01  0.39708959425E+02  0.12601604414E+03  0.41800000000E+01 0. -1.
         -5    1    3    3    0  502 -0.43233064693E+01 -0.30097687583E+02 -0.41681137926E+02  0.51762451985E+02  0.41800000000E+01 0. -1.
        -11    1    1    2    0    0  0.52275449487E+02 -0.25467397832E+02  0.67359755472E+02  0.88986783449E+02  0.00000000000E+00 0. -1.
         11    1    1    2    0    0  0.71477745668E+02  0.50845846976E+02  0.19819143544E+02  0.89928675801E+02  0.00000000000E+00 0.  1.
</event>
<event>
 7    1  0.1538147E-010  0.1247936E+03  0.7561462E-02  0.1235392E+00
         -2   -1    0    0    0  501 -0.00000000000E+00  0.00000000000E+00  0.33365831059E+03  0.33365831059E+03  0.00000000000E+00 0. -1.
          2   -1    0    0  501    0  0.00000000000E+00 -0.00000000000E+00 -0.48607075095E+02  0.48607075095E+02  0.00000000000E+00 0.  1.
         25    2    1    2    0    0 -0.37414591844E+02  0.51276274686E+02  0.12295077772E+03  0.18654533928E+03  0.12511259662E+03 0.  0.
          5    1    3    3  502    0  0.12530172815E+02 -0.36541303140E+02  0.28572627648E+02  0.48230068595E+02  0.41800000000E+01 0.  1.
         -5    1    3    3    0  502 -0.49944764658E+02  0.87817577826E+02  0.94378150075E+02  0.13831527068E+03  0.41800000000E+01 0.  1.
        -11    1    1    2    0    0  0.45104990689E+01 -0.71074480905E+02  0.10215418813E+03  0.12452872998E+03  0.00000000000E+00 0.  1.
         11    1    1    2    0    0  0.32904092775E+02  0.19798206219E+02  0.59946269639E+02  0.71191316426E+02  0.00000000000E+00 0. -1.
</event>
<event>
 7    1  0.1538147E-010  0.1216107E+03  0.7561462E-02  0.1240463E+00
          1   -1    0    0  501    0  0.00000000000E+00  0.00000000000E+00  0.18612856722E+02  0.18612856722E+02  0.00000000000E+00 0. -1.
         -1   -1    0    0    0  501 -0.00000000000E+00 -0.00000000000E+00 -0.87551934875E+03  0.87551934875E+03  0.00000000000E+00 0.  1.
         25    2    1    2    0    0 -0.37390491319E+02  0.43129452027E+02 -0.59821496940E+03  0.61382191538E+03  0.12513191327E+03 0.  0.
          5    1    3    3  502    0 -0.11656980633E+02 -0.43646441653E+02 -0.15832113738E+03  0.16469350930E+03  0.41800000000E+01 0.  1.
         -5    1    3    3    0  502 -0.25733510687E+02  0.86775893680E+02 -0.43989383202E+03  0.44912840608E+03  0.41800000000E+01 0.  1.
        -11    1    1    2    0    0 -0.20504849082E+02 -0.44859140421E+02 -0.13502351067E+03  0.14375026869E+03  0.00000000000E+00 0.  1.
         11    1    1    2    0    0  0.57895340401E+02  0.17296883941E+01 -0.12366801196E+03  0.13656002140E+03  0.00000000000E+00 0. -1.
</event>
<event>
 7    1  0.1538147E-010  0.1357479E+03  0.7561462E-02  0.1219168E+00
          1   -1    0    0  501    0  0.00000000000E+00  0.00000000000E+00  0.63797506703E+03  0.63797506703E+03  0.00000000000E+00 0. -1.
         -1   -1    0    0    0  501 -0.00000000000E+00 -0.00000000000E+00 -0.33455397385E+02  0.33455397385E+02  0.00000000000E+00 0.  1.
         25    2    1    2    0    0 -0.41715551138E+02  0.56213392665E+02  0.31086427809E+03  0.34233348852E+03  0.12512188159E+03 0.  0.
          5    1    3    3  502    0 -0.65606906373E+02 -0.15606127037E+02  0.14588284324E+03  0.16077031355E+03  0.41800000000E+01 0. -1.
         -5    1    3    3    0  502  0.23891355234E+02  0.71819519702E+02  0.16498143484E+03  0.18156317498E+03  0.41800000000E+01 0. -1.
        -11    1    1    2    0    0 -0.92399734445E+01 -0.73680980450E+02  0.24671397868E+03  0.25764714488E+03  0.00000000000E+00 0. -1.
         11    1    1    2    0    0  0.50955524583E+02  0.17467587785E+02  0.46941412886E+02  0.71449831016E+02  0.00000000000E+00 0.  1.
</event>
<event>
 7    1  0.1538147E-010  0.7566538E+02  0.7561462E-02  0.1341823E+00
         -2   -1    0    0    0  501 -0.00000000000E+00  0.00000000000E+00  0.30122547400E+03  0.30122547400E+03  0.00000000000E+00 0.  1.
          2   -1    0    0  501    0  0.00000000000E+00 -0.00000000000E+00 -0.43442122156E+02  0.43442122156E+02  0.00000000000E+00 0. -1.
         25    2    1    2    0    0  0.28696254851E+00  0.61757717079E+01  0.19914895105E+03  0.23527275997E+03  0.12511892093E+03 0.  0.
          5    1    3    3  502    0  0.41770682806E+02 -0.40254308486E+02  0.64400879771E+02  0.86776408136E+02  0.41800000000E+01 0.  1.
         -5    1    3    3    0  502 -0.41483720257E+02  0.46430080194E+02  0.13474807128E+03  0.14849635183E+03  0.41800000000E+01 0.  1.
        -11    1    1    2    0    0  0.14730012448E+02 -0.55377313048E+01  0.80963250317E+02  0.82478407093E+02  0.00000000000E+00 0.  1.
         11    1    1    2    0    0 -0.15016974997E+02 -0.63804040311E+00 -0.22328849531E+02  0.26916429090E+02  0.00000000000E+00 0. -1.
</event>
<event>
 7    1  0.1538147E-010  0.1002389E+03  0.7561462E-02  0.1279794E+00
         -2   -1    0    0    0  501 -0.00000000000E+00  0.00000000000E+00  0.29580393616E+02  0.29580393616E+02  0.00000000000E+00 0.  1.
          2   -1    0    0  501    0  0.00000000000E+00 -0.00000000000E+00 -0.45913877619E+03  0.45913877619E+03  0.00000000000E+00 0. -1.
         25    2    1    2    0    0 -0.41672144757E+02 -0.87917768514E+01 -0.25857528539E+03  0.29039356797E+03  0.12511348095E+03 0.  0.
          5    1    3    3  502    0 -0.40325711537E+02 -0.49999095221E+02 -0.23292709630E+03  0.24165797550E+03  0.41800000000E+01 0. -1.
         -5    1    3    3    0  502 -0.13464332197E+01  0.41207318369E+02 -0.25648189091E+02  0.48735592468E+02  0.41800000000E+01 0. -1.
        -11    1    1    2    0    0  0.46108655655E+02 -0.30397613301E+02 -0.65297135735E+02  0.85520400817E+02  0.00000000000E+00 0.  1.
         11    1    1    2    0    0 -0.44365108979E+01  0.39189390153E+02 -0.10568596145E+03  0.11280520102E+03  0.00000000000E+00 0. -1.
</event>
<event>
 6    1  0.1538147E-010  0.1254950E+03  0.7561462E-02  0.1234298E+00
          2   -1    0    0  501    0  0.00000000000E+00  0.00000000000E+00  0.11317413052E+04  0.11317413052E+04  0.00000000000E+00 0. -1.
         -2   -1    0    0    0  501 -0.00000000000E+00 -0.00000000000E+00 -0.20121267463E+02  0.20121267463E+02  0.00000000000E+00 0.  1.
          5    1    1    2  502    0  0.18778885571E+02  0.24265059256E+02  0.48779297253E+03  0.48877489307E+03  0.41800000000E+01 0. -1.
         -5    1    1    2    0  502 -0.89983862311E+02  0.36029670020E+02  0.33761051182E+03  0.35127419873E+03  0.41800000000E+01 0. -1.
        -11    1    1    2    0    0  0.20717758897E+01 -0.53497939271E+02  0.14144543181E+03  0.15123865888E+03  0.00000000000E+00 0.  1.
         11    1    1    2    0    0  0.69133200851E+02 -0.67967900052E+01  0.14477112161E+03  0.16057482202E+03  0.00000000000E+00 0. -1.
</event>
<event>
 7    1  0.1538147E-010  0.3152646E+03  0.7561462E-02  0.1077850E+00
          1   -1    0    0  501    0  0.00000000000E+00  0.00000000000E+00  0.34007200798E+03  0.34007200798E+03  0.00000000000E+00 0. -1.
         -1   -1    0    0    0  501 -0.00000000000E+00 -0.00000000000E+00 -0.38345326762E+03  0.38345326762E+03  0.00000000000E+00 0.  1.
         25    2    1    2    0    0  0.30651904301E+03  0.11473227074E+02 -0.17909547662E+03  0.37656582318E+03  0.12506426659E+03 0.  0.
          5    1    3    3  502    0  0.12112226336E+01 -0.38376766251E+01 -0.40471579509E+02  0.40885400452E+02  0.41800000000E+01 0.  1.
         -5    1    3    3    0  502  0.30530782037E+03  0.15310903699E+02 -0.13862389711E+03  0.33568042273E+03  0.41800000000E+01 0.  1.
        -11    1    1    2    0    0 -0.15081090295E+03  0.38188570627E+02  0.73813182203E+02  0.17219373171E+03  0.00000000000E+00 0.  1.
         11    1    1    2    0    0 -0.15570814006E+03 -0.49661797701E+02  0.61901034772E+02  0.17476572071E+03  0.00000000000E+00 0. -1.
</event>
<event>
 7    1  0.1538147E-010  0.1019463E+03  0.7561462E-02  0.1276256E+00
         -2   -1    0    0    0  501 -0.00000000000E+00  0.00000000000E+00  0.50942819618E+02  0.50942819618E+02  0.00000000000E+00 0.  1.
          2   -1    0    0  501    0  0.00000000000E+00 -0.00000000000E+00 -0.27859432731E+03  0.27859432731E+03  0.00000000000E+00 0. -1.
         25    2    1    2    0    0 -0.21568940585E+02 -0.34299939502E+02 -0.90511999056E+02  0.15960697618E+03  0.12506102440E+03 0.  0.
          5    1    3    3  502    0 -0.63211684783E+02  0.81285618088E+00 -0.12833872907E+02  0.64641770721E+02  0.41800000000E+01 0. -1.
         -5    1    3    3    0  502  0.41642744198E+02 -0.35112795683E+02 -0.77678126149E+02  0.94965205455E+02  0.41800000000E+01 0. -1.
        -11    1    1    2    0    0  0.11929585212E+02  0.58580570349E+02 -0.46896923659E+02  0.75982364233E+02  0.00000000000E+00 0.  1.
         11    1    1    2    0    0  0.96393553731E+01 -0.24280630847E+02 -0.90242584978E+02  0.93947806519E+02  0.00000000000E+00 0. -1.
</event>
<event>
 7    1  0.1538147E-010  0.1169457E+03  0.7561462E-02  0.1248222E+00
          1   -1    0    0  501    0  0.00000000000E+00  0.00000000000E+00  0.11148059634E+04  0.11148059634E+04  0.00000000000E+00 0. -1.
         -1   -1    0    0    0  501 -0.00000000000E+00 -0.00000000000E+00 -0.13661055884E+02  0.13661055884E+02  0.00000000000E+00 0.  1.
         25    2    1    2    0    0 -0.10287292424E+02 -0.51563350248E+02  0.68235937226E+03  0.69572459745E+03  0.12511512741E+03 0.  0.
          5    1    3    3  502    0 -0.53905781679E+02  0.45011926257E+01  0.43382966954E+03  0.43720904451E+03  0.41800000000E+01 0.  1.
         -5    1    3    3    0  502  0.43618489255E+02 -0.56064542874E+02  0.24852970272E+03  0.25851555293E+03  0.41800000000E+01 0.  1.
        -11    1    1    2    0    0  0.44983128926E+02  0.57786209077E+02  0.26188423484E+03  0.27193028574E+03  0.00000000000E+00 0. -1.
         11    1    1    2    0    0 -0.34695836502E+02 -0.62228588289E+01  0.15690130038E+03  0.16081213606E+03  0.00000000000E+00 0.  1.
</event>
<event>
 7    1  0.1538147E-010  0.1234523E+03  0.7561462E-02  0.1237508E+00
          4   -1    0    0  501    0  0.00000000000E+00  0.00000000000E+00  0.11092229088E+03  0.11092229088E+03  0.00000000000E+00 0. -1.
         -4   -1    0    0    0  501 -0.00000000000E+00 -0.00000000000E+00 -0.44097265277E+03  0.44097265277E+03  0.00000000000E+00 0.  1.
         25    2    1    2    0    0 -0.90370414937E+02  0.97336745122E+01 -0.38094904012E+03  0.41112208143E+03  0.12505054320E+03 0.  0.
          5    1    3    3  502    0 -0.79901205160E+02  0.38920525357E+02 -0.12593055785E+03  0.15419139950E+03  0.41800000000E+01 0. -1.
         -5    1    3    3    0  502 -0.10469209777E+02 -0.29186850845E+02 -0.25501848227E+03  0.25693068193E+03  0.41800000000E+01 0. -1.
        -11    1    1    2    0    0  0.57034881916E+02  0.37916748200E+02  0.89547541990E+01  0.69071304982E+02  0.00000000000E+00 0.  1.
         11    1    1    2    0    0  0.33335533021E+02 -0.47650422713E+02  0.41943924033E+02  0.71701557234E+02  0.00000000000E+00 0. -1.
</event>
<event>
 7    1  0.1538147E-010  0.1052978E+03  0.7561462E-02  0.1269534E+00
          2   -1    0    0  501    0  0.00000000000E+00  0.00000000000E+00  0.24800444486E+03  0.24800444486E+03  0.00000000000E+00 0. -1.
         -2   -1    0    0    0  501 -0.00000000000E+00 -0.00000000000E+00 -0.92284649413E+02  0.92284649413E+02  0.00000000000E+00 0.  1.
         25    2    1    2    0    0  0.18998252421E+02 -0.52030719038E+02 -0.15786945711E+02  0.13773299148E+03  0.12511202967E+03 0.  0.
          5    1    3    3  502    0 -0.65484399531E+01 -0.87923674244E+02  0.58755361236E+01  0.88461567266E+02  0.41800000000E+01 0.  1.
         -5    1    3    3    0  502  0.25546692374E+02  0.35892955206E+02 -0.21662481834E+02  0.49271424212E+02  0.41800000000E+01 0.  1.
        -11    1    1    2    0    0  0.91360817873E+01 -0.77659781909E+01 -0.58105728845E+01  0.13324457397E+02  0.00000000000E+00 0.  1.
         11    1    1    2    0    0 -0.28134334208E+02  0.59796697229E+02  0.17731731404E+03  0.18923164540E+03  0.00000000000E+00 0. -1.
</event>
<event>
 7    1  0.1538147E-010  0.1131845E+03  0.7561462E-02  0.1254784E+00
         -1   -1    0    0    0  501 -0.00000000000E+00  0.00000000000E+00  0.10655725640E+02  0.10655725640E+02  0.00000000000E+00 0.  1.
          1   -1    0    0  501    0  0.00000000000E+00 -0.00000000000E+00 -0.18441685797E+04  0.18441685797E+04  0.00000000000E+00 0. -1.
         25    2    1    2    0    0 -0.63981237576E+02  0.27054192574E+02 -0.13588775943E+04  0.13663947928E+04  0.12514345941E+03 0.  0.
          5    1    3    3  502    0  0.20905289167E+01  0.47272195300E+02 -0.20454298935E+03  0.20998651779E+03  0.41800000000E+01 0. -1.
         -5    1    3    3    0  502 -0.66071766492E+02 -0.20218002726E+02 -0.11543346049E+04  0.11564082750E+04  0.41800000000E+01 0. -1.
        -11    1    1    2    0    0 -0.76658006887E+01  0.21678814595E+02 -0.49864350968E+02  0.54910736654E+02  0.00000000000E+00 0.  1.
         11    1    1    2    0    0  0.71647038264E+02 -0.48733007169E+02 -0.42477090881E+03  0.43351877589E+03  0.00000000000E+00 0. -1.
</event>
<event>
 7    1  0.1538147E-010  0.9447573E+02  0.7561462E-02  0.1292361E+00
         -3   -1    0    0    0  501 -0.00000000000E+00  0.00000000000E+00  0.82995623476E+02  0.82995623476E+02  0.00000000000E+00 0.  1.
          3   -1    0    0  501    0  0.00000000000E+00 -0.00000000000E+00 -0.15916202388E+03  0.15916202388E+03  0.00000000000E+00 0. -1.
         25    2    1    2    0    0  0.11416876725E+02  0.37140696287E+02 -0.39030109195E+02  0.13670457105E+03  0.12511999811E+03 0.  0.
          5    1    3    3  502    0 -0.33503849124E+02  0.39904373655E+02 -0.65905912603E+02  0.84118539330E+02  0.41800000000E+01 0. -1.
         -5    1    3    3    0  502  0.44920725849E+02 -0.27636773677E+01  0.26875803408E+02  0.52586031721E+02  0.41800000000E+01 0. -1.
        -11    1    1    2    0    0  0.29478526410E+02 -0.40895886721E+02 -0.49447979859E+00  0.50415291135E+02  0.00000000000E+00 0.  1.
         11    1    1    2    0    0 -0.40895403135E+02  0.37551904335E+01 -0.36641811407E+02  0.55037785166E+02  0.00000000000E+00 0. -1.
</event>
<event>
 7    1  0.1538147E-010  0.1070939E+03  0.7561462E-02  0.1266048E+00
          1   -1    0    0  501    0  0.00000000000E+00  0.00000000000E+00  0.24894881244E+03  0.24894881244E+03  0.00000000000E+00 0. -1.
         -1   -1    0    0    0  501 -0.00000000000E+00 -0.00000000000E+00 -0.78796265264E+02  0.78796265264E+02  0.00000000000E+00 0.  1.
         25    2    1    2    0    0  0.24129761405E+02 -0.69239280390E+00 -0.58028514630E+00  0.12737666399E+03  0.12506699407E+03 0.  0.
          5    1    3    3  502    0  0.65260229570E+02  0.11208123748E+02 -0.32429822522E+02  0.73849071696E+02  0.41800000000E+01 0. -1.
         -5    1    3    3    0  502 -0.41130468165E+02 -0.11900516552E+02  0.31849537375E+02  0.53527592293E+02  0.41800000000E+01 0. -1.
        -11    1    1    2    0    0 -0.57862486174E+02 -0.24380360698E+02  0.99191251061E+02  0.11739409517E+03  0.00000000000E+00 0. -1.
         11    1    1    2    0    0  0.33732724768E+02  0.25072753502E+02  0.71541581257E+02  0.82974318540E+02  0.00000000000E+00 0.  1.
</event>
<event>
 7    1  0.1920223E-010  0.8305304E+02  0.7561462E-02  0.1320604E+00
         -2   -1    0    0    0  501 -0.00000000000E+00  0.00000000000E+00  0.13032960988E+02  0.13032960988E+02  0.00000000000E+00 0.  1.
          2   -1    0    0  501    0  0.00000000000E+00 -0.00000000000E+00 -0.10431433027E+04  0.10431433027E+04  0.00000000000E+00 0. -1.
         25    2    1    2    0    0  0.25341160074E+02 -0.18353529993E+02 -0.71827899085E+03  0.72976549853E+03  0.12511573723E+03 0.  0.
          5    1    3    3  502    0  0.42267861127E+02  0.93443925362E+01 -0.67016801610E+03  0.67157764402E+03  0.41800000000E+01 0.  1.
         -5    1    3    3    0  502 -0.16926701053E+02 -0.27697922529E+02 -0.48110974751E+02  0.58187854509E+02  0.41800000000E+01 0.  1.
        -11    1    1    2    0    0 -0.50899240749E+02 -0.98316738454E+01 -0.11807185836E+03  0.12895099169E+03  0.00000000000E+00 0.  1.
         11    1    1    2    0    0  0.25558080675E+02  0.28185203838E+02 -0.19375949247E+03  0.19745977343E+03  0.00000000000E+00 0. -1.
</event>
<event>
 7    1  0.1538147E-010  0.1386764E+03  0.7561462E-02  0.1215121E+00
         -2   -1    0    0    0  501 -0.00000000000E+00  0.00000000000E+00  0.13544179589E+03  0.13544179589E+03  0.00000000000E+00 0.  1.
          2   -1    0    0  501    0  0.00000000000E+00 -0.00000000000E+00 -0.18750540930E+03  0.18750540930E+03  0.00000000000E+00 0. -1.
         25    2    1    2    0    0 -0.22913486670E+02 -0.10980823704E+03  0.27601574856E+01  0.16800508928E+03  0.12504085238E+03 0.  0.
          5    1    3    3  502    0 -0.71518986902E+02 -0.61367971075E+02  0.21493733633E+02  0.96749399723E+02  0.41800000000E+01 0. -1.
         -5    1    3    3    0  502  0.48605500232E+02 -0.48440265965E+02 -0.18733576148E+02  0.71255689561E+02  0.41800000000E+01 0. -1.
        -11    1    1    2    0    0  0.25353106894E+02  0.71065079596E+02 -0.78973243645E+02  0.10922361823E+03  0.00000000000E+00 0. -1.
         11    1    1    2    0    0 -0.24396202235E+01  0.38743157444E+02  0.24149472751E+02  0.45718497676E+02  0.00000000000E+00 0.  1.
</event>
<event>
 7    1  0.1538147E-010  0.1405148E+03  0.7561462E-02  0.1212638E+00
          4   -1    0    0  501    0  0.00000000000E+00  0.00000000000E+00  0.52472639881E+03  0.52472639881E+03  0.00000000000E+00 0.  1.
         -4   -1    0    0    0  501 -0.00000000000E+00 -0.00000000000E+00 -0.55012112500E+02  0.55012112500E+02  0.00000000000E+00 0. -1.
         25    2    1    2    0    0 -0.85430839707E+02 -0.96066874552E+02  0.28267483737E+03  0.33479230341E+03  0.12511414780E+03 0.  0.
          5    1    3    3  502    0 -0.87868239757E+02 -0.10775182419E+03  0.28893945065E+03  0.32067859566E+03  0.41800000000E+01 0. -1.
         -5    1    3    3    0  502  0.24374000508E+01  0.11684949634E+02 -0.62646132752E+01  0.14113707750E+02  0.41800000000E+01 0. -1.
        -11    1    1    2    0    0  0.34993691987E+02  0.29521470860E+02  0.67743324692E+01  0.46281392600E+02  0.00000000000E+00 0. -1.
         11    1    1    2    0    0  0.50437147720E+02  0.66545403693E+02  0.18026511647E+03  0.19866481530E+03  0.00000000000E+00 0.  1.
</event>
<event>
 7    1  0.1538147E-010  0.1231930E+03  0.7561462E-02  0.1237921E+00
          2   -1    0    0  501    0  0.00000000000E+00  0.00000000000E+00  0.13083204844E+03  0.13083204844E+03  0.00000000000E+00 0. -1.
         -2   -1    0    0    0  501 -0.00000000000E+00 -0.00000000000E+00 -0.16971154320E+03  0.16971154320E+03  0.00000000000E+00 0.  1.
         25    2    1    2    0    0  0.91738821731E+02 -0.30758693425E+02 -0.56237062755E+02  0.16787976291E+03  0.12513552227E+03 0.  0.
          5    1    3    3  502    0  0.85473100771E+02 -0.46635131647E+02 -0.88175471250E+02  0.13142630098E+03  0.41800000000E+01 0. -1.
         -5    1    3    3    0  502  0.62657209599E+01  0.15876438222E+02  0.31938408495E+02  0.36453461933E+02  0.41800000000E+01 0. -1.
        -11    1    1    2    0    0 -0.12826340160E+02 -0.29433922426E+02  0.71307769427E+01  0.32889493324E+02  0.00000000000E+00 0. -1.
         11    1    1    2    0    0 -0.78912481571E+02  0.60192615851E+02  0.10226791049E+02  0.99774335407E+02  0.00000000000E+00 0.  1.
</event>
<event>
 7    1  0.1538147E-010  0.1828101E+03  0.7561462E-02  0.1165111E+00
          2   -1    0    0  501    0  0.00000000000E+00  0.00000000000E+00  0.41875687896E+03  0.41875687896E+03  0.00000000000E+00 0. -1.
         -2   -1    0    0    0  501 -0.00000000000E+00 -0.00000000000E+00 -0.90216305422E+02  0.90216305422E+02  0.00000000000E+00 0.  1.
         25    2    1    2    0    0 -0.12177851849E+03  0.10360998669E+03  0.19506178816E+03  0.28151771443E+03  0.12505233076E+03 0.  0.
          5    1    3    3  502    0 -0.12448210382E+03  0.12217507303E+03  0.14158519440E+03  0.22469174955E+03  0.41800000000E+01 0. -1.
         -5    1    3    3    0  502  0.27035853328E+01 -0.18565086335E+02  0.53476593762E+02  0.56825964881E+02  0.41800000000E+01 0. -1.
        -11    1    1    2    0    0  0.69827334837E+02 -0.97057180276E+02  0.51510266445E+02  0.13018932553E+03  0.00000000000E+00 0.  1.
         11    1    1    2    0    0  0.51951183651E+02 -0.65528064188E+01  0.81968518934E+02  0.97266144424E+02  0.00000000000E+00 0. -1.
</event>
<event>
 7    1  0.1538147E-010  0.1333214E+03  0.7561462E-02  0.1222609E+00
         -1   -1    0    0    0  501 -0.00000000000E+00  0.00000000000E+00  0.23677421344E+02  0.23677421344E+02  0.00000000000E+00 0.  1.
          1   -1    0    0  501    0  0.00000000000E+00 -0.00000000000E+00 -0.88094024298E+03  0.88094024298E+03  0.00000000000E+00 0. -1.
         25    2    1    2    0    0 -0.46716216391E+02 -0.83024410404E+02 -0.51381124652E+03  0.53732460010E+03  0.12506106998E+03 0.  0.
          5    1    3    3  502    0  0.38505690271E+02 -0.38524741764E+02 -0.11876620827E+03  0.13072768849E+03  0.41800000000E+01 0. -1.
         -5    1    3    3    0  502 -0.85221906662E+02 -0.44499668640E+02 -0.39504503825E+03  0.40659691161E+03  0.41800000000E+01 0. -1.
        -11    1    1    2    0    0  0.58395397598E+02  0.38965658265E+02 -0.11819740312E+03  0.13747352868E+03  0.00000000000E+00 0.  1.
         11    1    1    2    0    0 -0.11679181207E+02  0.44058752139E+02 -0.22525417200E+03  0.22981953554E+03  0.00000000000E+00 0. -1.
</event>
<event>
 6    1  0.1538147E-010  0.1490255E+03  0.7561462E-02  0.1201676E+00
          3   -1    0    0  501    0  0.00000000000E+00  0.00000000000E+00  0.37081909195E+03  0.37081909195E+03  0.00000000000E+00 0.  1.
         -3   -1    0    0    0  501 -0.00000000000E+00 -0.00000000000E+00 -0.75650632261E+02  0.75650632261E+02  0.00000000000E+00 0. -1.
          5    1    1    2  502    0  0.51088662569E+02 -0.45622321886E+00  0.12640998410E+03  0.13640826977E+03  0.41800000000E+01 0.  1.
         -5    1    1    2    0  502 -0.10571221018E+02 -0.10651488922E+03  0.99612006771E+02  0.14627780635E+03  0.41800000000E+01 0.  1.
        -11    1    1    2    0    0  0.12241916001E+02  0.79022032896E+02  0.11493793447E+02  0.80786468410E+02  0.00000000000E+00 0.  1.
         11    1    1    2    0    0 -0.52759357552E+02  0.27949079540E+02  0.57652675377E+02  0.82997179678E+02  0.00000000000E+00 0. -1.
</event>
<event>
 7    1  0.1538147E-010  0.4605765E+03  0.7561462E-02  0.1024614E+00
          1   -1    0    0  501    0  0.00000000000E+00  0.00000000000E+00  0.11417058026E+04  0.11417058026E+04  0.00000000000E+00 0. -1.
         -1   -1    0    0    0  501 -0.00000000000E+00 -0.00000000000E+00 -0.19784525685E+03  0.19784525685E+03  0.00000000000E+00 0.  1.
         25    2    1    2    0    0  0.33621354841E+03  0.31035201169E+03  0.37974277250E+03  0.60763150269E+03  0.12511414190E+03 0.  0.
          5    1    3    3  502    0  0.15710940963E+03  0.16678853170E+03  0.26699914168E+03  0.35186331858E+03  0.41800000000E+01 0.  1.
         -5    1    3    3    0  502  0.17910413878E+03  0.14356348000E+03  0.11274363081E+03  0.25576818412E+03  0.41800000000E+01 0.  1.
        -11    1    1    2    0    0 -0.22748767440E+03 -0.25016075583E+03  0.36812133467E+03  0.49984433857E+03  0.00000000000E+00 0.  1.
         11    1    1    2    0    0 -0.10872587401E+03 -0.60191255865E+02  0.19599643861E+03  0.23207521821E+03  0.00000000000E+00 0. -1.
</event>
<event>
 7    1  0.1538147E-010  0.1577468E+03  0.7561462E-02  0.1191264E+00
          3   -1    0    0  501    0  0.00000000000E+00  0.00000000000E+00  0.65823471540E+03  0.65823471540E+03  0.00000000000E+00 0. -1.
         -3   -1    0    0    0  501 -0.00000000000E+00 -0.00000000000E+00 -0.54222690350E+02  0.54222690350E+02  0.00000000000E+00 0.  1.
         25    2    1    2    0    0  0.13062109496E+03  0.39455921959E+02  0.45131364409E+03  0.48781039414E+03  0.12512527749E+03 0.  0.
          5    1    3    3  502    0  0.68703733595E+02  0.73969391930E+02  0.17079968310E+03  0.19844817485E+03  0.41800000000E+01 0.  1.
         -5    1    3    3    0  502  0.61917361361E+02 -0.34513469971E+02  0.28051396098E+03  0.28936221929E+03  0.41800000000E+01 0.  1.
        -11    1    1    2    0    0 -0.76776122639E+02 -0.14662586634E+00  0.25261447301E+02  0.80825337775E+02  0.00000000000E+00 0.  1.
         11    1    1    2    0    0 -0.53844972317E+02 -0.39309296093E+02  0.12743693367E+03  0.14382167384E+03  0.00000000000E+00 0. -1.
</event>
<event>
 7    1  0.1538147E-010  0.2364112E+03  0.7561462E-02  0.1122207E+00
          1   -1    0    0  501    0  0.00000000000E+00  0.00000000000E+00  0.22677503958E+03  0.22677503958E+03  0.00000000000E+00 0. -1.
         -1   -1    0    0    0  501 -0.00000000000E+00 -0.00000000000E+00 -0.25213583062E+03  0.25213583062E+03  0.00000000000E+00 0.  1.
         25    2    1    2    0    0  0.67636127163E+02  0.20035925697E+03  0.15710324111E+02  0.24618618816E+03  0.12506937038E+03 0.  0.
          5    1    3    3  502    0 -0.18116612741E+02 -0.67045042738E+01  0.95344550766E+01  0.21944025801E+02  0.41800000000E+01 0.  1.
         -5    1    3    3    0  502  0.85752739904E+02  0.20706376124E+03  0.61758690342E+01  0.22424216236E+03  0.41800000000E+01 0.  1.
        -11    1    1    2    0    0  0.16579036891E+02 -0.81875506603E+02 -0.19326375430E+02  0.85743640190E+02  0.00000000000E+00 0. -1.
         11    1    1    2    0    0 -0.84215164054E+02 -0.11848375037E+03 -0.21744739728E+02  0.14698104185E+03  0.00000000000E+00 0.  1.
</event>
<event>
 7    1  0.1538147E-010  0.2466238E+03  0.7561462E-02  0.1115457E+00
          1   -1    0    0  501    0  0.00000000000E+00  0.00000000000E+00  0.63680358829E+03  0.63680358829E+03  0.00000000000E+00 0. -1.
         -1   -1    0    0    0  501 -0.00000000000E+00 -0.00000000000E+00 -0.10495916363E+03  0.10495916363E+03  0.00000000000E+00 0.  1.
         25    2    1    2    0    0  0.12116344086E+03 -0.19967425562E+03  0.24701406013E+03  0.36224184612E+03  0.12511123621E+03 0.  0.
          5    1    3    3  502    0  0.26576901070E+02 -0.23220477723E+01  0.87022433569E+02  0.91115859875E+02  0.41800000000E+01 0.  1.
         -5    1    3    3    0  502  0.94586539791E+02 -0.19735220785E+03  0.15999162656E+03  0.27112598625E+03  0.41800000000E+01 0.  1.
        -11    1    1    2    0    0 -0.47858365529E+02  0.17451093872E+02  0.86533441707E+02  0.10041414423E+03  0.00000000000E+00 0.  1.
         11    1    1    2    0    0 -0.73305075332E+02  0.18222316175E+03  0.19829692284E+03  0.27910676157E+03  0.00000000000E+00 0. -1.
</event>
<event>
 7    1  0.1538147E-010  0.1625643E+03  0.7561462E-02  0.1185832E+00
          1   -1    0    0  501    0  0.00000000000E+00  0.00000000000E+00  0.26473311079E+03  0.26473311079E+03  0.00000000000E+00 0. -1.
         -1   -1    0    0    0  501 -0.00000000000E+00 -0.00000000000E+00 -0.11675509287E+03  0.11675509287E+03  0.00000000000E+00 0.  1.
         25    2    1    2    0    0 -0.87099324631E+02  0.99078573931E+02  0.41242024730E+02  0.18640175012E+03  0.12506738856E+03 0.  0.
          5    1    3    3  502    0 -0.11083061390E+03  0.65179087508E+02  0.58564901081E+02  0.14134729734E+03  0.41800000000E+01 0. -1.
         -5    1    3    3    0  502  0.23731289274E+02  0.33899486423E+02 -0.17322876351E+02  0.45054452781E+02  0.41800000000E+01 0. -1.
        -11    1    1    2    0    0  0.55213760359E+02 -0.10841876052E+03  0.10675114642E+03  0.16186103369E+03  0.00000000000E+00 0.  1.
         11    1    1    2    0    0  0.31885564272E+02  0.93401865927E+01 -0.15153228994E-01  0.33225419850E+02  0.00000000000E+00 0. -1.
</event>
<event>
 6    1  0.1538147E-010  0.1144296E+03  0.7561462E-02  0.1252580E+00
         -3   -1    0    0    0  501 -0.00000000000E+00  0.00000000000E+00  0.16396611137E+03  0.16396611137E+03  0.00000000000E+00 0.  1.
          3   -1    0    0  501    0  0.00000000000E+00 -0.00000000000E+00 -0.18745397810E+03  0.18745397810E+03  0.00000000000E+00 0. -1.
          5    1    1    2  502    0 -0.37824894345E+02 -0.10099204490E+02 -0.15386442522E+02  0.42272113468E+02  0.41800000000E+01 0. -1.
         -5    1    1    2    0  502  0.85059630447E+02 -0.22902253198E+02 -0.12356430270E+03  0.15180666400E+03  0.41800000000E+01 0. -1.
        -11    1    1    2    0    0 -0.55251529400E+02  0.54954558867E+02  0.10724436969E+03  0.13256730317E+03  0.00000000000E+00 0.  1.
         11    1    1    2    0    0  0.80167932980E+01 -0.21953101178E+02  0.82185088083E+01  0.24774008823E+02  0.00000000000E+00 0. -1.
</event>
<event>
 7    1  0.1538147E-010  0.1503141E+03  0.7561462E-02  0.1200088E+00
          1   -1    0    0  501    0  0.00000000000E+00  0.00000000000E+00  0.37291791401E+03  0.37291791401E+03  0.00000000000E+00 0. -1.
         -1   -1    0    0    0  501 -0.00000000000E+00 -0.00000000000E+00 -0.85380582053E+02  0.85380582053E+02  0.00000000000E+00 0.  1.
         25    2    1    2    0    0 -0.10194509577E+03 -0.47719898935E+02  0.43061501771E+02  0.17371844675E+03  0.12511520491E+03 0.  0.
          5    1    3    3  502    0  0.12986675232E+02  0.17947636944E+02 -0.17063921064E+02  0.28274037694E+02  0.41800000000E+01 0.  1.
         -5    1    3    3    0  502 -0.11493177100E+03 -0.65667535879E+02  0.60125422835E+02  0.14544440905E+03  0.41800000000E+01 0.  1.
        -11    1    1    2    0    0  0.11396177359E+03  0.59724453688E+02  0.21473923832E+03  0.25033424992E+03  0.00000000000E+00 0.  1.
         11    1    1    2    0    0 -0.12016677818E+02 -0.12004554752E+02  0.29736591866E+02  0.34245799398E+02  0.00000000000E+00 0. -1.
</event>
<event>
 7    1  0.1538147E-010  0.1297365E+03  0.7561462E-02  0.1227847E+00
          2   -1    0    0  501    0  0.00000000000E+00  0.00000000000E+00  0.10576729663E+03  0.10576729663E+03  0.00000000000E+00 0. -1.
         -2   -1    0    0    0  501 -0.00000000000E+00 -0.00000000000E+00 -0.20013068057E+03  0.20013068057E+03  0.00000000000E+00 0.  1.
         25    2    1    2    0    0  0.14925701370E+02  0.91146683129E+02 -0.76403476167E+02  0.17327124763E+03  0.12511970140E+03 0.  0.
          5    1    3    3  502    0 -0.48411017339E+02  0.68930963616E+02 -0.23054895937E+02  0.87430572293E+02  0.41800000000E+01 0. -1.
         -5    1    3    3    0  502  0.63336718709E+02  0.22215719513E+02 -0.53348580231E+02  0.85840675341E+02  0.41800000000E+01 0. -1.
        -11    1    1    2    0    0 -0.34351289044E+02 -0.75487117429E+02  0.21739304462E+02  0.85737467394E+02  0.00000000000E+00 0. -1.
         11    1    1    2    0    0  0.19425587675E+02 -0.15659565700E+02 -0.39699212233E+02  0.46889262165E+02  0.00000000000E+00 0.  1.
</event>
<event>
 6    1  0.1538147E-010  0.1656956E+03  0.7561462E-02  0.1182412E+00
          2   -1    0    0  501    0  0.00000000000E+00  0.00000000000E+00  0.98061945209E+03  0.98061945209E+03  0.00000000000E+00 0.  1.
         -2   -1    0    0    0  501 -0.00000000000E+00 -0.00000000000E+00 -0.32390466746E+02  0.32390466746E+02  0.00000000000E+00 0. -1.
          5    1    1    2  502    0  0.29948523781E+02 -0.56468456104E+02  0.16635949234E+03  0.17826540243E+03  0.41800000000E+01 0. -1.
         -5    1    1    2    0  502  0.11076733801E+03  0.55937831484E+02  0.31999693086E+03  0.34324037105E+03  0.41800000000E+01 0. -1.
        -11    1    1    2    0    0 -0.53839131289E+02 -0.12647213200E+02  0.66534493732E+02  0.86518454192E+02  0.00000000000E+00 0. -1.
         11    1    1    2    0    0 -0.86876730498E+02  0.13177837819E+02  0.39533806842E+03  0.40498569117E+03  0.00000000000E+00 0.  1.
</event>
<event>
 6    1  0.1538147E-010  0.1330995E+03  0.7561462E-02  0.1222928E+00
          2   -1    0    0  501    0  0.00000000000E+00  0.00000000000E+00  0.46481741601E+03  0.46481741601E+03  0.00000000000E+00 0. -1.
         -2   -1    0    0    0  501 -0.00000000000E+00 -0.00000000000E+00 -0.50585041229E+02  0.50585041229E+02  0.00000000000E+00 0.  1.
          5    1    1    2  502    0  0.60006437405E+01 -0.87587224131E+02  0.20118688950E+03  0.21954764053E+03  0.41800000000E+01 0.  1.
         -5    1    1    2    0  502  0.50547186164E+02 -0.65190968580E+01  0.14645471257E+02  0.53192846147E+02  0.41800000000E+01 0.  1.
        -11    1    1    2    0    0 -0.78430069137E+01  0.74104031344E+02  0.16297137119E+03  0.17919985504E+03  0.00000000000E+00 0.  1.
         11    1    1    2    0    0 -0.48704822990E+02  0.20002289645E+02  0.35428642842E+02  0.63462115527E+02  0.00000000000E+00 0. -1.
</event>
<event>
 7    1  0.1538147E-010  0.1338817E+03  0.7561462E-02  0.1221807E+00
          1   -1    0    0  501    0  0.00000000000E+00  0.00000000000E+00  0.16760237338E+03  0.16760237338E+03  0.00000000000E+00 0. -1.
         -1   -1    0    0    0  501 -0.00000000000E+00 -0.00000000000E+00 -0.12582293585E+03  0.12582293585E+03  0.00000000000E+00 0.  1.
         25    2    1    2    0    0  0.78649192429E+02 -0.57609393358E+02  0.25579704178E+02  0.16067352858E+03  0.12512842941E+03 0.  0.
          5    1    3    3  502    0  0.40509702630E+02 -0.94959982067E+02  0.28071630194E+02  0.10706971104E+03  0.41800000000E+01 0.  1.
         -5    1    3    3    0  502  0.38139489799E+02  0.37350588709E+02 -0.24919260161E+01  0.53603817535E+02  0.41800000000E+01 0.  1.
        -11    1    1    2    0    0 -0.37728511034E+02 -0.29068888000E+01  0.40820530840E+02  0.55661533265E+02  0.00000000000E+00 0. -1.
         11    1    1    2    0    0 -0.40920681395E+02  0.60516282158E+02 -0.24620797488E+02  0.77090247379E+02  0.00000000000E+00 0.  1.
</event>
<event>
 7    1  0.1538147E-010  0.1423173E+03  0.7561462E-02  0.1210245E+00
          2   -1    0    0  501    0  0.00000000000E+00  0.00000000000E+00  0.11499951649E+04  0.11499951649E+04  0.00000000000E+00 0. -1.
         -2   -1    0    0    0  501 -0.00000000000E+00 -0.00000000000E+00 -0.20294495539E+02  0.20294495539E+02  0.00000000000E+00 0.  1.
         25    2    1    2    0    0  0.44910333971E+02  0.61532277129E+02  0.38197004044E+03  0.40907847665E+03  0.12506369992E+03 0.  0.
          5    1    3    3  502    0  0.27393356726E+02  0.99600246585E+02  0.24934160085E+03  0.26992464027E+03  0.41800000000E+01 0. -1.
         -5    1    3    3    0  502  0.17516977245E+02 -0.38067969456E+02  0.13262843959E+03  0.13915383637E+03  0.41800000000E+01 0. -1.
        -11    1    1    2    0    0 -0.27901137040E+02 -0.96392893462E+02  0.60672344155E+03  0.61496617621E+03  0.00000000000E+00 0. -1.
         11    1    1    2    0    0 -0.17009196931E+02  0.34860616334E+02  0.14100718742E+03  0.14624500763E+03  0.00000000000E+00 0.  1.
</event>
<event>
 7    1  0.1538147E-010  0.1064424E+03  0.7561462E-02  0.1267303E+00
         -4   -1    0    0    0  501 -0.00000000000E+00  0.00000000000E+00  0.96975425745E+02  0.96975425745E+02  0.00000000000E+00 0.  1.
          4   -1    0    0  501    0  0.00000000000E+00 -0.00000000000E+00 -0.13550286909E+03  0.13550286909E+03  0.00000000000E+00 0. -1.
         25    2    1    2    0    0  0.60500446347E+01  0.18699682694E+02 -0.61059201162E+02  0.14053495207E+03  0.12504225500E+03 0.  0.
          5    1    3    3  502    0  0.54421345199E+02  0.42996664836E+02 -0.48711271580E+02  0.84856681405E+02  0.41800000000E+01 0. -1.
         -5    1    3    3    0  502 -0.48371300564E+02 -0.24296982142E+02 -0.12347929582E+02  0.55678270667E+02  0.41800000000E+01 0. -1.
        -11    1    1    2    0    0  0.28240645628E+02  0.22066815644E+02  0.10223939999E+02  0.37269389145E+02  0.00000000000E+00 0.  1.
         11    1    1    2    0    0 -0.34290690263E+02 -0.40766498338E+02  0.12307817813E+02  0.54673953623E+02  0.00000000000E+00 0. -1.
</event>
<event>
 7    1  0.1538147E-010  0.8731489E+02  0.7561462E-02  0.1309488E+00
         -3   -1    0    0    0  501 -0.00000000000E+00  0.00000000000E+00  0.19839005181E+03  0.19839005181E+03  0.00000000000E+00 0.  1.
          3   -1    0    0  501    0  0.00000000000E+00 -0.00000000000E+00 -0.75371898214E+02  0.75371898214E+02  0.00000000000E+00 0. -1.
         25    2    1    2    0    0 -0.14752792574E+02  0.49831993196E+02  0.38054989438E+02  0.14072432043E+03  0.12511706401E+03 0.  0.
          5    1    3    3  502    0  0.32719867180E+02  0.54876709650E+02 -0.18451156223E+02  0.66633028869E+02  0.41800000000E+01 0. -1.
         -5    1    3    3    0  502 -0.47472659754E+02 -0.50447164544E+01  0.56506145662E+02  0.74091291565E+02  0.41800000000E+01 0. -1.
        -11    1    1    2    0    0  0.14305805316E+02 -0.15431287231E+01  0.83493571665E+02  0.84724340195E+02  0.00000000000E+00 0.  1.
         11    1    1    2    0    0  0.44698725778E+00 -0.48288864473E+02  0.14695924884E+01  0.48313289391E+02  0.00000000000E+00 0. -1.
</event>
<event>
 7    1  0.1614171E-010  0.1446410E+03  0.7561462E-02  0.1207217E+00
          2   -1    0    0  501    0  0.00000000000E+00  0.00000000000E+00  0.73216742527E+02  0.73216742527E+02  0.00000000000E+00 0. -1.
         -2   -1    0    0    0  501 -0.00000000000E+00 -0.00000000000E+00 -0.36705063965E+03  0.36705063965E+03  0.00000000000E+00 0.  1.
         25    2    1    2    0    0  0.76201448719E+02 -0.73163084978E+02 -0.24001640298E+03  0.29055851262E+03  0.12512744610E+03 0.  0.
          5    1    3    3  502    0  0.76639788323E+02  0.11917460205E+02 -0.12972335614E+03  0.15119955205E+03  0.41800000000E+01 0. -1.
         -5    1    3    3    0  502 -0.43833960333E+00 -0.85080545183E+02 -0.11029304685E+03  0.13935896058E+03  0.41800000000E+01 0. -1.
        -11    1    1    2    0    0 -0.15616574387E+02  0.63107111471E+02 -0.59374999277E+02  0.88044167626E+02  0.00000000000E+00 0.  1.
         11    1    1    2    0    0 -0.60584874333E+02  0.10055973508E+02  0.55575051314E+01  0.61664701932E+02  0.00000000000E+00 0. -1.
</event>
<event>
 6    1  0.1538147E-010  0.1264625E+03  0.7561462E-02  0.1232801E+00
          1   -1    0    0  501    0  0.00000000000E+00  0.00000000000E+00  0.46903493046E+03  0.46903493046E+03  0.00000000000E+00 0. -1.
         -1   -1    0    0    0  501 -0.00000000000E+00 -0.00000000000E+00 -0.40620673290E+02  0.40620673290E+02  0.00000000000E+00 0.  1.
          5    1    1    2  502    0 -0.26253317256E+02  0.10559773058E+03  0.23795014804E+03  0.26168275205E+03  0.41800000000E+01 0. -1.
         -5    1    1    2    0  502 -0.74869224358E+01 -0.35036516085E+02  0.47106314022E+02  0.59330335307E+02  0.41800000000E+01 0. -1.
        -11    1    1    2    0    0  0.52057871995E+02 -0.22843963488E+02  0.11929703942E+03  0.13215011282E+03  0.00000000000E+00 0.  1.
         11    1    1    2    0    0 -0.18317632303E+02 -0.47717251003E+02  0.24060755689E+02  0.56492403567E+02  0.00000000000E+00 0. -1.
</event>
<event>
 6    1  0.1538147E-010  0.9082187E+02  0.7561462E-02  0.1300874E+00
         -1   -1    0    0    0  501 -0.00000000000E+00  0.00000000000E+00  0.25074627004E+02  0.25074627004E+02  0.00000000000E+00 0.  1.
          1   -1    0    0  501    0  0.00000000000E+00 -0.00000000000E+00 -0.59271876006E+03  0.59271876006E+03  0.00000000000E+00 0. -1.
          5    1    1    2  502    0 -0.35464548561E+02  0.13975277864E+02 -0.49548632801E+02  0.62654465192E+02  0.41800000000E+01 0. -1.
         -5    1    1    2    0  502  0.54780588998E+02 -0.54689306050E+02 -0.34911165206E+03  0.35761466851E+03  0.41800000000E+01 0. -1.
        -11    1    1    2    0    0  0.13760095208E+02  0.58409856221E+00  0.59657414421E+01  0.15009046013E+02  0.00000000000E+00 0.  1.
         11    1    1    2    0    0 -0.33076135645E+02  0.40129929624E+02 -0.17494958964E+03  0.18251520735E+03  0.00000000000E+00 0. -1.
</event>
<event>
 6    1  0.1538147E-010  0.1435261E+03  0.7561462E-02  0.1208662E+00
          1   -1    0    0  501    0  0.00000000000E+00  0.00000000000E+00  0.48040454770E+02  0.48040454770E+02  0.00000000000E+00 0. -1.
         -1   -1    0    0    0  501 -0.00000000000E+00 -0.00000000000E+00 -0.56379049390E+03  0.56379049390E+03  0.00000000000E+00 0.  1.
          5    1    1    2  502    0 -0.92030012441E+01 -0.25291192470E+02 -0.33845160355E+02  0.43443145925E+02  0.41800000000E+01 0. -1.
         -5    1    1    2    0  502  0.26648760826E+02  0.12186104823E+03 -0.37785350744E+03  0.39793343289E+03  0.41800000000E+01 0. -1.
        -11    1    1    2    0    0  0.28502806919E+02 -0.81983552961E+02 -0.66127691491E+02  0.10911729716E+03  0.00000000000E+00 0.  1.
         11    1    1    2    0    0 -0.45948566501E+02 -0.14586302800E+02 -0.37923679845E+02  0.61337072687E+02  0.00000000000E+00 0. -1.
</event>
<event>
 6    1  0.1538147E-010  0.9527409E+02  0.7561462E-02  0.1290560E+00
         -1   -1    0    0    0  501 -0.00000000000E+00  0.00000000000E+00  0.43970782063E+03  0.43970782063E+03  0.00000000000E+00 0.  1.
          1   -1    0    0  501    0  0.00000000000E+00 -0.00000000000E+00 -0.27677118746E+02  0.27677118746E+02  0.00000000000E+00 0. -1.
          5    1    1    2  502    0 -0.40028589160E+02 -0.31345255220E+02  0.65914848730E+02  0.83348981145E+02  0.41800000000E+01 0. -1.
         -5    1    1    2    0  502  0.58916961027E+02  0.41765796063E+02  0.16744135001E+03  0.18239974811E+03  0.41800000000E+01 0. -1.
        -11    1    1    2    0    0 -0.92825513821E+00 -0.35960788471E+02  0.16257440849E+03  0.16650669134E+03  0.00000000000E+00 0.  1.
         11    1    1    2    0    0 -0.17960116729E+02  0.25540247628E+02  0.16100094654E+02  0.35129518780E+02  0.00000000000E+00 0. -1.
</event>
<event>
 7    1  0.1538147E-010  0.1492592E+03  0.7561462E-02  0.1201386E+00
          1   -1    0    0  501    0  0.00000000000E+00  0.00000000000E+00  0.95324726547E+03  0.95324726547E+03  0.00000000000E+00 0. -1.
         -1   -1    0    0    0  501 -0.00000000000E+00 -0.00000000000E+00 -0.31179815979E+02  0.31179815979E+02  0.00000000000E+00 0.  1.
         25    2    1    2    0    0  0.34423609016E+02  0.11780657347E+03  0.62880749772E+03  0.65276426612E+03  0.12505576485E+03 0.  0.
          5    1    3    3  502    0 -0.89583780598E+01 -0.17827911931E+02  0.19723002459E+03  0.19828071510E+03  0.41800000000E+01 0.  1.
         -5    1    3    3    0  502  0.43381987076E+02  0.13563448540E+03  0.43157747313E+03  0.45448355102E+03  0.41800000000E+01 0.  1.
        -11    1    1    2    0    0 -0.49888128344E+02 -0.10204682382E+03  0.28707905597E+03  0.30873413154E+03  0.00000000000E+00 0. -1.
         11    1    1    2    0    0  0.15464519328E+02 -0.15759749652E+02  0.61808957937E+01  0.22928683781E+02  0.00000000000E+00 0.  1.
</event>
<event>
 6    1  0.1538147E-010  0.9875265E+02  0.7561462E-02  0.1282941E+00
          2   -1    0    0  501    0  0.00000000000E+00  0.00000000000E+00  0.12098647832E+04  0.12098647832E+04  0.00000000000E+00 0. -1.
         -2   -1    0    0    0  501 -0.00000000000E+00 -0.00000000000E+00 -0.11127608849E+02  0.11127608849E+02  0.00000000000E+00 0.  1.
          5    1    1    2  502    0 -0.61355252688E+02  0.35296151574E+02  0.19812618588E+03  0.21043227718E+03  0.41800000000E+01 0.  1.
         -5    1    1    2    0  502  0.27056720017E+02 -0.49386401869E+01  0.47053425897E+03  0.47135593508E+03  0.41800000000E+01 0.  1.
        -11    1    1    2    0    0  0.51460842959E+02 -0.50647692583E+02  0.38360035097E+03  0.39033656809E+03  0.00000000000E+00 0. -1.
         11    1    1    2    0    0 -0.17162310288E+02  0.20290181196E+02  0.14647637850E+03  0.14886761168E+03  0.00000000000E+00 0.  1.
</event>
<event>
 7    1  0.1538147E-010  0.2446544E+03  0.7561462E-02  0.1116730E+00
         -2   -1    0    0    0  501 -0.00000000000E+00  0.00000000000E+00  0.67879420342E+02  0.67879420342E+02  0.00000000000E+00 0.  1.
          2   -1    0    0  501    0  0.00000000000E+00 -0.00000000000E+00 -0.96286271961E+03  0.96286271961E+03  0.00000000000E+00 0. -1.
         25    2    1    2    0    0 -0.12264774169E+03 -0.19439755619E+03 -0.50782562193E+03  0.57127943017E+03  0.12506177133E+03 0.  0.
          5    1    3    3  502    0 -0.13095758535E+03 -0.10946851304E+03 -0.27986099274E+03  0.32783058455E+03  0.41800000000E+01 0.  1.
         -5    1    3    3    0  502  0.83098436538E+01 -0.84929043149E+02 -0.22796462919E+03  0.24344884562E+03  0.41800000000E+01 0.  1.
        -11    1    1    2    0    0  0.59448912897E+02  0.12979345910E+03 -0.30737378444E+03  0.33890877626E+03  0.00000000000E+00 0.  1.
         11    1    1    2    0    0  0.63198828795E+02  0.64604097090E+02 -0.79783892903E+02  0.12055393353E+03  0.00000000000E+00 0. -1.
</event>
<event>
 7    1  0.1538147E-010  0.1980695E+03  0.7561462E-02  0.1151378E+00
          1   -1    0    0  501    0  0.00000000000E+00  0.00000000000E+00  0.10162514094E+04  0.10162514094E+04  0.00000000000E+00 0. -1.
         -1   -1    0    0    0  501 -0.00000000000E+00 -0.00000000000E+00 -0.44706539436E+02  0.44706539436E+02  0.00000000000E+00 0.  1.
         25    2    1    2    0    0  0.16566090078E+03  0.47642041575E+02  0.35085874801E+03  0.41044981637E+03  0.12511551672E+03 0.  0.
          5    1    3    3  502    0  0.13345833578E+03  0.82615945338E+02  0.31052067047E+03  0.34796132113E+03  0.41800000000E+01 0.  1.
         -5    1    3    3    0  502  0.32202565000E+02 -0.34973903763E+02  0.40338077546E+02  0.62488495238E+02  0.41800000000E+01 0.  1.
        -11    1    1    2    0    0 -0.47583162476E+02 -0.55444291542E+02  0.18136593556E+03  0.19552961259E+03  0.00000000000E+00 0.  1.
         11    1    1    2    0    0 -0.11807773830E+03  0.78022499670E+01  0.43932018638E+03  0.45497851988E+03  0.00000000000E+00 0. -1.
</event>
<event>
 7    1  0.1538147E-010  0.2076141E+03  0.7561462E-02  0.1143469E+00
          2   -1    0    0  501    0  0.00000000000E+00  0.00000000000E+00  0.43412515551E+03  0.43412515551E+03  0.00000000000E+00 0. -1.
         -2   -1    0    0    0  501 -0.00000000000E+00 -0.00000000000E+00 -0.12751790631E+03  0.12751790631E+03  0.00000000000E+00 0.  1.
         25    2    1    2    0    0 -0.19805507540E+03  0.53372100740E+02  0.11444871294E+03  0.26609591836E+03  0.12503653803E+03 0.  0.
          5    1    3    3  502    0 -0.27263707923E+01  0.81291306378E+01  0.56568167266E+02  0.57366765731E+02  0.41800000000E+01 0.  1.
         -5    1    3    3    0  502 -0.19532870461E+03  0.45242970102E+02  0.57880545677E+02  0.20872915263E+03  0.41800000000E+01 0.  1.
        -11    1    1    2    0    0  0.85442479764E+02 -0.21367443168E+02  0.14433340336E+03  0.16908316386E+03  0.00000000000E+00 0. -1.
         11    1    1    2    0    0  0.11261259564E+03 -0.32004657572E+02  0.47825132901E+02  0.12646397961E+03  0.00000000000E+00 0.  1.
</event>
<event>
 7    1  0.1538147E-010  0.1033779E+03  0.7561462E-02  0.1273349E+00
         -2   -1    0    0    0  501 -0.00000000000E+00  0.00000000000E+00  0.70604649911E+02  0.70604649911E+02  0.00000000000E+00 0.  1.
          2   -1    0    0  501    0  0.00000000000E+00 -0.00000000000E+00 -0.17258238831E+03  0.17258238831E+03  0.00000000000E+00 0. -1.
         25    2    1    2    0    0  0.63424806559E+01  0.24608729211E+01 -0.35805508469E+02  0.13031293759E+03  0.12511252659E+03 0.  0.
          5    1    3    3  502    0  0.16335347946E+00 -0.58517665483E+02 -0.36090347194E+02  0.68879092753E+02  0.41800000000E+01 0. -1.
         -5    1    3    3    0  502  0.61791271765E+01  0.60978538404E+02  0.28483872412E+00  0.61433844839E+02  0.41800000000E+01 0. -1.
        -11    1    1    2    0    0 -0.30045738051E+02 -0.35172720199E+02 -0.53080362319E+02  0.70408745800E+02  0.00000000000E+00 0.  1.
         11    1    1    2    0    0  0.23703257395E+02  0.32711847277E+02 -0.13091867614E+02  0.42465354833E+02  0.00000000000E+00 0. -1.
</event>
<event>
 7    1  0.1538147E-010  0.9076449E+02  0.7561462E-02  0.1301011E+00
         -2   -1    0    0    0  501 -0.00000000000E+00  0.00000000000E+00  0.76460773348E+02  0.76460773348E+02  0.00000000000E+00 0.  1.
          2   -1    0    0  501    0  0.00000000000E+00 -0.00000000000E+00 -0.24237531737E+03  0.24237531737E+03  0.00000000000E+00 0. -1.
         25    2    1    2    0    0 -0.54331667120E+02  0.47073131128E+02 -0.14447940828E+03  0.20416206752E+03  0.12506014822E+03 0.  0.
          5    1    3    3  502    0 -0.36574461914E+02  0.24482408968E+02 -0.16355179255E+03  0.16942178390E+03  0.41800000000E+01 0.  1.
         -5    1    3    3    0  502 -0.17757205205E+02  0.22590722159E+02  0.19072384272E+02  0.34740283623E+02  0.41800000000E+01 0.  1.
        -11    1    1    2    0    0  0.53420166384E+01 -0.57870493777E+02  0.43324042420E+01  0.58277790952E+02  0.00000000000E+00 0.  1.
         11    1    1    2    0    0  0.48989650481E+02  0.10797362649E+02 -0.25767539988E+02  0.56396232246E+02  0.00000000000E+00 0. -1.
</event>
<event>
 7    1  0.1538147E-010  0.1818140E+03  0.7561462E-02  0.1166059E+00
         -3   -1    0    0    0  501 -0.00000000000E+00  0.00000000000E+00  0.50642356112E+02  0.50642356112E+02  0.00000000000E+00 0.  1.
          3   -1    0    0  501    0  0.00000000000E+00 -0.00000000000E+00 -0.89105384680E+03  0.89105384680E+03  0.00000000000E+00 0. -1.
         25    2    1    2    0    0 -0.82117630128E+02  0.14863713463E+03 -0.58617515036E+03  0.62297438827E+03  0.12513783829E+03 0.  0.
          5    1    3    3  502    0 -0.52542456045E+02  0.14216517733E+03 -0.56693599746E+03  0.58686075431E+03  0.41800000000E+01 0. -1.
         -5    1    3    3    0  502 -0.29575174083E+02  0.64719572982E+01 -0.19239152895E+02  0.36113633955E+02  0.41800000000E+01 0. -1.
        -11    1    1    2    0    0 -0.60714738605E+01 -0.44806626797E+02 -0.11663449548E+03  0.12509237441E+03  0.00000000000E+00 0.  1.
         11    1    1    2    0    0  0.88189103988E+02 -0.10383050783E+03 -0.13760184485E+03  0.19362944024E+03  0.00000000000E+00 0. -1.
</event>
<event>
 7    1  0.1538147E-010  0.8216611E+02  0.7561462E-02  0.1323014E+00
          1   -1    0    0  501    0  0.00000000000E+00  0.00000000000E+00  0.16313271393E+03  0.16313271393E+03  0.00000000000E+00 0. -1.
         -1   -1    0    0    0  501 -0.00000000000E+00 -0.00000000000E+00 -0.77191648432E+02  0.77191648432E+02  0.00000000000E+00 0.  1.
         25    2    1    2    0    0  0.69681106580E+01 -0.29183893499E+01  0.79264998535E+02  0.14824674100E+03  0.12504832930E+03 0.  0.
          5    1    3    3  502    0  0.31742755990E+02  0.28210571507E+02  0.95866971511E+02  0.10493515869E+03  0.41800000000E+01 0.  1.
         -5    1    3    3    0  502 -0.24774645332E+02 -0.31128960857E+02 -0.16601972976E+02  0.43311582308E+02  0.41800000000E+01 0.  1.
        -11    1    1    2    0    0  0.33977111525E+02  0.17466619513E+02  0.24200659868E+02  0.45223874700E+02  0.00000000000E+00 0. -1.
         11    1    1    2    0    0 -0.40945222183E+02 -0.14548230163E+02 -0.17524592901E+02  0.46853746668E+02  0.00000000000E+00 0.  1.
</event>
<event>
 7    1  0.1538147E-010  0.7975528E+02  0.7561462E-02  0.1329747E+00
         -2   -1    0    0    0  501 -0.00000000000E+00  0.00000000000E+00  0.18377195874E+03  0.18377195874E+03  0.00000000000E+00 0. -1.
          2   -1    0    0  501    0  0.00000000000E+00 -0.00000000000E+00 -0.66494065983E+02  0.66494065983E+02  0.00000000000E+00 0.  1.
         25    2    1    2    0    0  0.80012408698E+01  0.27188402656E+02  0.70654444205E+02  0.14640799589E+03  0.12506007228E+03 0.  0.
          5    1    3    3  502    0 -0.32577696362E+02  0.13759566934E+02 -0.23674803785E+02  0.42762141162E+02  0.41800000000E+01 0.  1.
         -5    1    3    3    0  502  0.40578937232E+02  0.13428835722E+02  0.94329247989E+02  0.10364585473E+03  0.41800000000E+01 0.  1.
        -11    1    1    2    0    0  0.25715290613E+02  0.12735924270E+02 -0.64112140498E+01  0.29403802542E+02  0.00000000000E+00 0.  1.
         11    1    1    2    0    0 -0.33716531483E+02 -0.39924326926E+02  0.53034662600E+02  0.74454226293E+02  0.00000000000E+00 0. -1.
</event>
<event>
 6    1  0.1538147E-010  0.1487898E+03  0.7561462E-02  0.1201968E+00
         -3   -1    0    0    0  501 -0.00000000000E+00  0.00000000000E+00  0.22963961267E+03  0.22963961267E+03  0.00000000000E+00 0.  1.
          3   -1    0    0  501    0  0.00000000000E+00 -0.00000000000E+00 -0.10411398845E+03  0.10411398845E+03  0.00000000000E+00 0. -1.
          5    1    1    2  502    0 -0.14258317868E+02  0.36299695867E+02  0.34251237464E+02  0.52072902899E+02  0.41800000000E+01 0.  1.
         -5    1    1    2    0  502 -0.80069847823E+02 -0.87423460614E+02  0.12145434972E+02  0.11924355742E+03  0.41800000000E+01 0.  1.
        -11    1    1    2    0    0  0.32860836672E+02  0.68400170099E+02  0.56832749847E+02  0.94807063616E+02  0.00000000000E+00 0.  1.
         11    1    1    2    0    0  0.61467329018E+02 -0.17276405352E+02  0.22296201941E+02  0.67630077181E+02  0.00000000000E+00 0. -1.
</event>
<event>
 7    1  0.1538147E-010  0.1133174E+03  0.7561462E-02  0.1254547E+00
          2   -1    0    0  501    0  0.00000000000E+00  0.00000000000E+00  0.43525737154E+03  0.43525737154E+03  0.00000000000E+00 0.  1.
         -2   -1    0    0    0  501 -0.00000000000E+00 -0.00000000000E+00 -0.60985929650E+02  0.60985929650E+02  0.00000000000E+00 0. -1.
         25    2    1    2    0    0  0.37754993112E+02  0.31200544274E+02  0.36870988656E+03  0.39243344375E+03  0.12513238533E+03 0.  0.
          5    1    3    3  502    0  0.24253226383E+02 -0.46776020411E+02  0.11351555583E+03  0.12521768601E+03  0.41800000000E+01 0. -1.
         -5    1    3    3    0  502  0.13501766729E+02  0.77976564685E+02  0.25519433073E+03  0.26721575773E+03  0.41800000000E+01 0. -1.
        -11    1    1    2    0    0  0.22338179833E+02 -0.25905045578E+02  0.22752564355E+02  0.41082171917E+02  0.00000000000E+00 0.  1.
         11    1    1    2    0    0 -0.60093172945E+02 -0.52954986958E+01 -0.17191009017E+02  0.62727685531E+02  0.00000000000E+00 0. -1.
</event>
<event>
 7    1  0.1538147E-010  0.1504657E+03  0.7561462E-02  0.1199902E+00
         -1   -1    0    0    0  501 -0.00000000000E+00  0.00000000000E+00  0.44327088363E+03  0.44327088363E+03  0.00000000000E+00 0.  1.
          1   -1    0    0  501    0  0.00000000000E+00 -0.00000000000E+00 -0.58771390127E+02  0.58771390127E+02  0.00000000000E+00 0. -1.
         25    2    1    2    0    0 -0.22617970767E+02 -0.10253910807E+03  0.11816878685E+03  0.20156986446E+03  0.12506281136E+03 0.  0.
          5    1    3    3  502    0 -0.71935385760E+02 -0.79759221162E+02  0.90229388132E+02  0.14033904648E+03  0.41800000000E+01 0.  1.
         -5    1    3    3    0  502  0.49317414992E+02 -0.22779886907E+02  0.27939398718E+02  0.61230817974E+02  0.41800000000E+01 0.  1.
        -11    1    1    2    0    0 -0.25654504093E+02  0.32984063214E-01  0.54802877255E+02  0.60510412522E+02  0.00000000000E+00 0.  1.
         11    1    1    2    0    0  0.48272474861E+02  0.10250612401E+03  0.21152782939E+03  0.23996199678E+03  0.00000000000E+00 0. -1.
</event>
<event>
 7    1  0.1538147E-010  0.1271871E+03  0.7561462E-02  0.1231690E+00
         -1   -1    0    0    0  501 -0.00000000000E+00  0.00000000000E+00  0.12592138751E+03  0.12592138751E+03  0.00000000000E+00 0.  1.
          1   -1    0    0  501    0  0.00000000000E+00 -0.00000000000E+00 -0.20620191730E+03  0.20620191730E+03  0.00000000000E+00 0. -1.
         25    2    1    2    0    0 -0.36044482762E+02 -0.11270124426E+03 -0.45772256705E+02  0.17819574388E+03  0.12513132484E+03 0.  0.
          5    1    3    3  502    0  0.11090427221E+01 -0.72074763153E+02  0.35092175842E+02  0.80280350426E+02  0.41800000000E+01 0. -1.
         -5    1    3    3    0  502 -0.37153525484E+02 -0.40626481107E+02 -0.80864432547E+02  0.97915393449E+02  0.41800000000E+01 0. -1.
        -11    1    1    2    0    0  0.25851632184E+02  0.11380599432E+03  0.12670688434E+01  0.11671211031E+03  0.00000000000E+00 0.  1.
         11    1    1    2    0    0  0.10192850577E+02 -0.11047500586E+01 -0.35775341927E+02  0.37215450629E+02  0.00000000000E+00 0. -1.
</event>
<event>
 7    1  0.1538147E-010  0.7638255E+02  0.7561462E-02  0.1339642E+00
          1   -1    0    0  501    0  0.00000000000E+00  0.00000000000E+00  0.10378337245E+04  0.10378337245E+04  0.00000000000E+00 0. -1.
         -1   -1    0    0    0  501 -0.00000000000E+00 -0.00000000000E+00 -0.16235951774E+02  0.16235951774E+02  0.00000000000E+00 0.  1.
         25    2    1    2    0    0  0.12142863984E+02 -0.42413454890E+02  0.80233935062E+03  0.81323543265E+03  0.12512827442E+03 0.  0.
          5    1    3    3  502    0  0.14273834763E+02  0.13739684101E+02  0.65763833970E+03  0.65794998253E+03  0.41800000000E+01 0.  1.
         -5    1    3    3    0  502 -0.21309707783E+01 -0.56153138991E+02  0.14470101093E+03  0.15528545012E+03  0.41800000000E+01 0.  1.
        -11    1    1    2    0    0 -0.23788212017E+02  0.54450335538E+02  0.21567029238E+03  0.22370604168E+03  0.00000000000E+00 0.  1.
         11    1    1    2    0    0  0.11645348033E+02 -0.12036880648E+02  0.35881297173E+01  0.17128201932E+02  0.00000000000E+00 0. -1.
</event>
<event>
 7    1  0.1538147E-010  0.1108240E+03  0.7561462E-02  0.1259051E+00
          2   -1    0    0  501    0  0.00000000000E+00  0.00000000000E+00  0.16820851137E+04  0.16820851137E+04  0.00000000000E+00 0. -1.
         -2   -1    0    0    0  501 -0.00000000000E+00 -0.00000000000E+00 -0.10904643059E+02  0.10904643059E+02  0.00000000000E+00 0.  1.
         25    2    1    2    0    0 -0.39325458409E+02 -0.49508832467E+02  0.12394328296E+04  0.12473292308E+04  0.12505540687E+03 0.  0.
          5    1    3    3  502    0 -0.50288346778E+02 -0.70753760881E+02  0.11790962375E+04  0.11822945582E+04  0.41800000000E+01 0.  1.
         -5    1    3    3    0  502  0.10962888369E+02  0.21244928415E+02  0.60336592078E+02  0.65034672662E+02  0.41800000000E+01 0.  1.
        -11    1    1    2    0    0  0.69007161109E+02  0.36511030525E+02  0.30819427646E+03  0.31792885317E+03  0.00000000000E+00 0. -1.
         11    1    1    2    0    0 -0.29681702700E+02  0.12997801942E+02  0.12355336457E+03  0.12773167276E+03  0.00000000000E+00 0.  1.
</event>
<event>
 7    1  0.1538147E-010  0.1199984E+03  0.7561462E-02  0.1243100E+00
         -2   -1    0    0    0  501 -0.00000000000E+00  0.00000000000E+00  0.31863658542E+02  0.31863658542E+02  0.00000000000E+00 0.  1.
          2   -1    0    0  501    0  0.00000000000E+00 -0.00000000000E+00 -0.55428094755E+03  0.55428094755E+03  0.00000000000E+00 0. -1.
         25    2    1    2    0    0  0.77476825669E+01 -0.75471372006E+02 -0.31731933409E+03  0.34943502648E+03  0.12512922667E+03 0.  0.
          5    1    3    3  502    0 -0.53622330883E+02 -0.59838940495E+02 -0.14543268349E+03  0.16620526766E+03  0.41800000000E+01 0. -1.
         -5    1    3    3    0  502  0.61370013450E+02 -0.15632431511E+02 -0.17188665060E+03  0.18322975883E+03  0.41800000000E+01 0. -1.
        -11    1    1    2    0    0 -0.32816988904E+02  0.31689932119E+02 -0.16800925586E+03  0.17409283906E+03  0.00000000000E+00 0. -1.
         11    1    1    2    0    0  0.25069306337E+02  0.43781439887E+02 -0.37088699058E+02  0.62616740547E+02  0.00000000000E+00 0.  1.
</event>
<event>
 7    1  0.1538147E-010  0.1243386E+03  0.7561462E-02  0.1236107E+00
         -2   -1    0    0    0  501 -0.00000000000E+00  0.00000000000E+00  0.86274547448E+03  0.86274547448E+03  0.00000000000E+00 0.  1.
          2   -1    0    0  501    0  0.00000000000E+00 -0.00000000000E+00 -0.27762318724E+02  0.27762318724E+02  0.00000000000E+00 0. -1.
         25    2    1    2    0    0  0.97767868142E+02  0.14273810057E+02  0.57915800378E+03  0.60069889408E+03  0.12511143158E+03 0.  0.
          5    1    3    3  502    0  0.58660934207E+02 -0.45489506043E+02  0.41530508285E+03  0.42190779159E+03  0.41800000000E+01 0.  1.
         -5    1    3    3    0  502  0.39106933935E+02  0.59763316099E+02  0.16385292094E+03  0.17879110250E+03  0.41800000000E+01 0.  1.
        -11    1    1    2    0    0 -0.80971785391E+01  0.69102186498E+01 -0.60174321368E+01  0.12228037929E+02  0.00000000000E+00 0. -1.
         11    1    1    2    0    0 -0.89670689603E+02 -0.21184028707E+02  0.26184258411E+03  0.27758086119E+03  0.00000000000E+00 0.  1.
</event>
<event>
 7    1  0.1538147E-010  0.1083632E+03  0.7561462E-02  0.1263631E+00
         -3   -1    0    0    0  501 -0.00000000000E+00  0.00000000000E+00  0.23046065754E+03  0.23046065754E+03  0.00000000000E+00 0.  1.
          3   -1    0    0  501    0  0.00000000000E+00 -0.00000000000E+00 -0.11147856760E+03  0.11147856760E+03  0.00000000000E+00 0. -1.
         25    2    1    2    0    0 -0.41145884729E+02  0.28147945262E+02 -0.50064313009E+02  0.14364427380E+03  0.12506778685E+03 0.  0.
          5    1    3    3  502    0 -0.28965245725E+02  0.77903814262E+02 -0.32229050874E+02  0.89242220147E+02  0.41800000000E+01 0.  1.
         -5    1    3    3    0  502 -0.12180639004E+02 -0.49755869000E+02 -0.17835262135E+02  0.54402053656E+02  0.41800000000E+01 0.  1.
        -11    1    1    2    0    0  0.79928032608E+01 -0.44453116041E+02  0.15015247474E+03  0.15679837404E+03  0.00000000000E+00 0.  1.
         11    1    1    2    0    0  0.33153081468E+02  0.16305170779E+02  0.18893928211E+02  0.41496577307E+02  0.00000000000E+00 0. -1.
</event>
<event>
 6    1  0.1538147E-010  0.1028090E+03  0.7561462E-02  0.1274497E+00
         -2   -1    0    0    0  501 -0.00000000000E+00  0.00000000000E+00  0.61455901321E+03  0.61455901321E+03  0.00000000000E+00 0.  1.
          2   -1    0    0  501    0  0.00000000000E+00 -0.00000000000E+00 -0.22043039290E+02  0.22043039290E+02  0.00000000000E+00 0. -1.
          5    1    1    2  502    0 -0.58830162441E+02 -0.35515918019E+02  0.20628617729E+03  0.21747144131E+03  0.41800000000E+01 0. -1.
         -5    1    1    2    0  502  0.50743654662E+02  0.17463288757E+01  0.59271047624E+02  0.78156878389E+02  0.41800000000E+01 0. -1.
        -11    1    1    2    0    0 -0.29340605762E+02  0.38167208188E+02  0.10091037861E+03  0.11180568608E+03  0.00000000000E+00 0.  1.
         11    1    1    2    0    0  0.37427113542E+02 -0.43976190445E+01  0.22604837039E+03  0.22916804672E+03  0.00000000000E+00 0. -1.
</event>
<event>
 7    1  0.1538147E-010  0.1331634E+03  0.7561462E-02  0.1222836E+00
         -1   -1    0    0    0  501 -0.00000000000E+00  0.00000000000E+00  0.10541526236E+03  0.10541526236E+03  0.00000000000E+00 0.  1.
          1   -1    0    0  501    0  0.00000000000E+00 -0.00000000000E+00 -0.20842226375E+03  0.20842226375E+03  0.00000000000E+00 0. -1.
         25    2    1    2    0    0 -0.15245792870E+02 -0.82694363445E+02 -0.11141258072E+03  0.18741082524E+03  0.12505703631E+03 0.  0.
          5    1    3    3  502    0  0.32096005150E+02 -0.89594373770E+02 -0.44744538076E+02  0.10524662201E+03  0.41800000000E+01 0.  1.
         -5    1    3    3    0  502 -0.47341798020E+02  0.69000103247E+01 -0.66668042641E+02  0.82164203226E+02  0.41800000000E+01 0.  1.
        -11    1    1    2    0    0 -0.33632250885E+02  0.93600415205E+01  0.15113017666E+02  0.38041319375E+02  0.00000000000E+00 0.  1.
         11    1    1    2    0    0  0.48878043755E+02  0.73334321925E+02 -0.67074383408E+01  0.88385381498E+02  0.00000000000E+00 0. -1.
</event>
<event>
 7    1  0.1538147E-010  0.1094487E+03  0.7561462E-02  0.1261594E+00
         -1   -1    0    0    0  501 -0.00000000000E+00  0.00000000000E+00  0.10299261397E+03  0.10299261397E+03  0.00000000000E+00 0.  1.
          1   -1    0    0  501    0  0.00000000000E+00 -0.00000000000E+00 -0.21327969172E+03  0.21327969172E+03  0.00000000000E+00 0. -1.
         25    2    1    2    0    0 -0.32852064671E+02 -0.72022023303E+02 -0.13488313144E+03  0.20023468777E+03  0.12503615896E+03 0.  0.
          5    1    3    3  502    0 -0.51845670936E+02 -0.32066084255E+02 -0.31239373900E+01  0.61183647644E+02  0.41800000000E+01 0. -1.
         -5    1    3    3    0  502  0.18993606265E+02 -0.39955939048E+02 -0.13175919405E+03  0.13905104013E+03  0.41800000000E+01 0. -1.
        -11    1    1    2    0    0 -0.11288539526E+02  0.68113514366E+02  0.13384229323E+02  0.70327942942E+02  0.00000000000E+00 0.  1.
         11    1    1    2    0    0  0.44140604197E+02  0.39085089372E+01  0.11211824365E+02  0.45709674978E+02  0.00000000000E+00 0. -1.
</event>
<event>
 7    1  0.1538147E-010  0.1050618E+03  0.7561462E-02  0.1269998E+00
          2   -1    0    0  501    0  0.00000000000E+00  0.00000000000E+00  0.11347293604E+04  0.11347293604E+04  0.00000000000E+00 0. -1.
         -2   -1    0    0    0  501 -0.00000000000E+00 -0.00000000000E+00 -0.16880929252E+02  0.16880929252E+02  0.00000000000E+00 0.  1.
         25    2    1    2    0    0  0.68730460400E+02  0.43235750476E+01  0.82370155195E+03  0.83598283737E+03  0.12506193746E+03 0.  0.
          5    1    3    3  502    0 -0.39393757481E+01  0.47971795543E+02  0.16794077915E+03  0.17475236636E+03  0.41800000000E+01 0. -1.
         -5    1    3    3    0  502  0.72669836148E+02 -0.43648220495E+02  0.65576077280E+03  0.66123047100E+03  0.41800000000E+01 0. -1.
        -11    1    1    2    0    0 -0.62684198144E+02  0.80156371819E+01  0.29515994183E+03  0.30184921798E+03  0.00000000000E+00 0. -1.
         11    1    1    2    0    0 -0.60462622560E+01 -0.12339212229E+02 -0.10130625920E+01  0.13778234340E+02  0.00000000000E+00 0.  1.
</event>
<event>
 7    1  0.1538147E-010  0.2847922E+03  0.7561462E-02  0.1093100E+00
         -2   -1    0    0    0  501 -0.00000000000E+00  0.00000000000E+00  0.77706648833E+02  0.77706648833E+02  0.00000000000E+00 0.  1.
          2   -1    0    0  501    0  0.00000000000E+00 -0.00000000000E+00 -0.10943279622E+04  0.10943279622E+04  0.00000000000E+00 0. -1.
         25    2    1    2    0    0 -0.21133281867E+03  0.16426850858E+03 -0.44125778820E+03  0.53102815293E+03  0.12504703274E+03 0.  0.
          5    1    3    3  502    0  0.12369737538E+02  0.60081329731E+01 -0.58711581342E+02  0.60445266583E+02  0.41800000000E+01 0. -1.
         -5    1    3    3    0  502 -0.22370255620E+03  0.15826037561E+03 -0.38254620686E+03  0.47058288634E+03  0.41800000000E+01 0. -1.
        -11    1    1    2    0    0  0.69988237808E+02 -0.79952447379E+01 -0.17339870334E+03  0.18716139477E+03  0.00000000000E+00 0. -1.
         11    1    1    2    0    0  0.14134458086E+03 -0.15627326384E+03 -0.40196482179E+03  0.45384506330E+03  0.00000000000E+00 0.  1.
</event>
<event>
 7    1  0.1538147E-010  0.1157050E+03  0.7561462E-02  0.1250355E+00
          2   -1    0    0  501    0  0.00000000000E+00  0.00000000000E+00  0.98357373129E+03  0.98357373129E+03  0.00000000000E+00 0. -1.
         -2   -1    0    0    0  501 -0.00000000000E+00 -0.00000000000E+00 -0.15637782368E+02  0.15637782368E+02  0.00000000000E+00 0.  1.
         25    2    1    2    0    0 -0.31272465714E+02 -0.49200310978E+02  0.62974949275E+03  0.64469954206E+03  0.12511769740E+03 0.  0.
          5    1    3    3  502    0 -0.52389516056E+02  0.23397240290E+02  0.19143100206E+03  0.19988845188E+03  0.41800000000E+01 0.  1.
         -5    1    3    3    0  502  0.21117050342E+02 -0.72597551268E+02  0.43831849069E+03  0.44481109018E+03  0.41800000000E+01 0.  1.
        -11    1    1    2    0    0  0.29026801023E+02 -0.15848643003E+02  0.57079891281E+02  0.65968542892E+02  0.00000000000E+00 0.  1.
         11    1    1    2    0    0  0.22456646914E+01  0.65048953981E+02  0.28110656489E+03  0.28854342871E+03  0.00000000000E+00 0. -1.
</event>
<event>
 6    1  0.1538147E-010  0.1881108E+03  0.7561462E-02  0.1160176E+00
         -2   -1    0    0    0  501 -0.00000000000E+00  0.00000000000E+00  0.38005611364E+03  0.38005611364E+03  0.00000000000E+00 0.  1.
          2   -1    0    0  501    0  0.00000000000E+00 -0.00000000000E+00 -0.22271834284E+03  0.22271834284E+03  0.00000000000E+00 0. -1.
          5    1    1    2  502    0 -0.75879512100E+02  0.13368943748E+03 -0.13539454035E+03  0.20488953123E+03  0.41800000000E+01 0.  1.
         -5    1    1    2    0  502 -0.46858490517E+02 -0.98119465220E+01  0.13924213985E+01  0.48077059659E+02  0.41800000000E+01 0.  1.
        -11    1    1    2    0    0  0.86832554975E+02 -0.87493638473E+02  0.12404482225E+03  0.17487752086E+03  0.00000000000E+00 0. -1.
         11    1    1    2    0    0  0.35905447643E+02 -0.36383852488E+02  0.16729506751E+03  0.17493034473E+03  0.00000000000E+00 0.  1.
</event>
<event>
 7    1  0.1538147E-010  0.1212399E+03  0.7561462E-02  0.1241065E+00
          1   -1    0    0  501    0  0.00000000000E+00  0.00000000000E+00  0.48056444804E+02  0.48056444804E+02  0.00000000000E+00 0. -1.
         -1   -1    0    0    0  501 -0.00000000000E+00 -0.00000000000E+00 -0.38499361486E+03  0.38499361486E+03  0.00000000000E+00 0.  1.
         25    2    1    2    0    0  0.52364283089E+02  0.59715547046E+02 -0.21561520039E+03  0.26163577965E+03  0.12512154831E+03 0.  0.
          5    1    3    3  502    0  0.74986643725E+01 -0.28860829156E+02 -0.12003030267E+03  0.12374943792E+03  0.41800000000E+01 0.  1.
         -5    1    3    3    0  502  0.44865618717E+02  0.88576376202E+02 -0.95584897722E+02  0.13788634173E+03  0.41800000000E+01 0.  1.
        -11    1    1    2    0    0 -0.70683868222E+02 -0.62631650021E+02 -0.12015523836E+03  0.15282739975E+03  0.00000000000E+00 0.  1.
         11    1    1    2    0    0  0.18319585132E+02  0.29161029745E+01 -0.11667313160E+01  0.18586880264E+02  0.00000000000E+00 0. -1.
</event>
<event>
 7    1  0.1538147E-010  0.1432084E+03  0.7561462E-02  0.1209076E+00
         -2   -1    0    0    0  501 -0.00000000000E+00  0.00000000000E+00  0.17042421757E+02  0.17042421757E+02  0.00000000000E+00 0.  1.
          2   -1    0    0  501    0  0.00000000000E+00 -0.00000000000E+00 -0.25193712499E+04  0.25193712499E+04  0.00000000000E+00 0. -1.
         25    2    1    2    0    0  0.69697308797E+01 -0.10705777189E+03 -0.21603779238E+04  0.21666522626E+04  0.12505722495E+03 0.  0.
          5    1    3    3  502    0 -0.21080255478E+02 -0.12760919764E+03 -0.16405756903E+04  0.16456714595E+04  0.41800000000E+01 0.  1.
         -5    1    3    3    0  502  0.28049986358E+02  0.20551425746E+02 -0.51980223346E+03  0.52098080305E+03  0.41800000000E+01 0.  1.
        -11    1    1    2    0    0  0.23394214817E+02  0.71495578718E+02 -0.11077137114E+03  0.13389997658E+03  0.00000000000E+00 0.  1.
         11    1    1    2    0    0 -0.30363945696E+02  0.35562193177E+02 -0.23117953322E+03  0.23586143254E+03  0.00000000000E+00 0. -1.
</event>
<event>
 7    1  0.1538147E-010  0.2237481E+03  0.7561462E-02  0.1131119E+00
          2   -1    0    0  501    0  0.00000000000E+00  0.00000000000E+00  0.10137316104E+04  0.10137316104E+04  0.00000000000E+00 0. -1.
         -2   -1    0    0    0  501 -0.00000000000E+00 -0.00000000000E+00 -0.52123839545E+02  0.52123839545E+02  0.00000000000E+00 0.  1.
         25    2    1    2    0    0 -0.60870860457E+02  0.18868269843E+03  0.58309488358E+03  0.62844918384E+03  0.12506922514E+03 0.  0.
          5    1    3    3  502    0 -0.11282193586E+02 -0.17947845822E+02  0.63016787363E+02  0.66618322940E+02  0.41800000000E+01 0.  1.
         -5    1    3    3    0  502 -0.49588666871E+02  0.20663054425E+03  0.52007809622E+03  0.56183086090E+03  0.41800000000E+01 0.  1.
        -11    1    1    2    0    0  0.28888204424E+02 -0.81636666985E+01  0.96327851888E+02  0.10089712017E+03  0.00000000000E+00 0. -1.
         11    1    1    2    0    0  0.31982656033E+02 -0.18051903173E+03  0.28218503542E+03  0.33650914596E+03  0.00000000000E+00 0.  1.
</event>
<event>
 7    1  0.2151481E-010  0.1110857E+03  0.7561462E-02  0.1258573E+00
         -1   -1    0    0    0  501 -0.00000000000E+00  0.00000000000E+00  0.13311430862E+03  0.13311430862E+03  0.00000000000E+00 0.  1.
          1   -1    0    0  501    0  0.00000000000E+00 -0.00000000000E+00 -0.19620137230E+03  0.19620137230E+03  0.00000000000E+00 0. -1.
         25    2    1    2    0    0  0.68478506818E+02 -0.80041852986E+02  0.23033227384E+02  0.16512883236E+03  0.12506397398E+03 0.  0.
          5    1    3    3  502    0  0.19765836200E+02 -0.16328377195E+02 -0.50148079580E+02  0.56476601066E+02  0.41800000000E+01 0. -1.
         -5    1    3    3    0  502  0.48712670618E+02 -0.63713475792E+02  0.73181306963E+02  0.10865223129E+03  0.41800000000E+01 0. -1.
        -11    1    1    2    0    0 -0.26044211715E+01  0.37228977222E+02 -0.76394473881E+02  0.85022910996E+02  0.00000000000E+00 0. -1.
         11    1    1    2    0    0 -0.65874085646E+02  0.42812875764E+02 -0.97258171734E+01  0.79163937564E+02  0.00000000000E+00 0.  1.
</event>
<event>
 7    1  0.1538147E-010  0.3846295E+03  0.7561462E-02  0.1049236E+00
         -1   -1    0    0    0  501 -0.00000000000E+00  0.00000000000E+00  0.60460076495E+02  0.60460076495E+02  0.00000000000E+00 0.  1.
          1   -1    0    0  501    0  0.00000000000E+00 -0.00000000000E+00 -0.26606344885E+04  0.26606344885E+04  0.00000000000E+00 0. -1.
         25    2    1    2    0    0 -0.37962821695E+03 -0.59251549518E+02 -0.11991701339E+04  0.12654226046E+04  0.12512804986E+03 0.  0.
          5    1    3    3  502    0 -0.34252876213E+03 -0.51399839558E+02 -0.90912308732E+03  0.97287725675E+03  0.41800000000E+01 0. -1.
         -5    1    3    3    0  502 -0.37099454823E+02 -0.78517099599E+01 -0.29004704657E+03  0.29254534780E+03  0.41800000000E+01 0. -1.
        -11    1    1    2    0    0  0.13270636638E+03  0.30149248228E+02 -0.34681319890E+03  0.37255785024E+03  0.00000000000E+00 0.  1.
         11    1    1    2    0    0  0.24692185058E+03  0.29102301291E+02 -0.10541910793E+04  0.10831141102E+04  0.00000000000E+00 0. -1.
</event>
<event>
 7    1  0.1538147E-010  0.9267909E+02  0.7561462E-02  0.1296491E+00
          1   -1    0    0  501    0  0.00000000000E+00  0.00000000000E+00  0.39366412137E+03  0.39366412137E+03  0.00000000000E+00 0. -1.
         -1   -1    0    0    0  501 -0.00000000000E+00 -0.00000000000E+00 -0.53939318406E+02  0.53939318406E+02  0.00000000000E+00 0.  1.
         25    2    1    2    0    0 -0.11994624085E+02  0.74738105057E+02  0.27793564712E+03  0.31403650848E+03  0.12506418099E+03 0.  0.
          5    1    3    3  502    0 -0.10663943513E+02  0.44725394452E+02  0.13831180524E+02  0.48196001440E+02  0.41800000000E+01 0.  1.
         -5    1    3    3    0  502 -0.13306805714E+01  0.30012710605E+02  0.26410446660E+03  0.26584050704E+03  0.41800000000E+01 0.  1.
        -11    1    1    2    0    0  0.45290699124E+02 -0.49381903407E+02  0.62612900634E+02  0.91707116066E+02  0.00000000000E+00 0.  1.
         11    1    1    2    0    0 -0.33296075039E+02 -0.25356201650E+02 -0.82374479428E+00  0.41859815224E+02  0.00000000000E+00 0. -1.
</event>
<event>
 7    1  0.1538147E-010  0.1052822E+03  0.7561462E-02  0.1269565E+00
          1   -1    0    0  501    0  0.00000000000E+00  0.00000000000E+00  0.29002753644E+03  0.29002753644E+03  0.00000000000E+00 0. -1.
         -1   -1    0    0    0  501 -0.00000000000E+00 -0.00000000000E+00 -0.43425651841E+02  0.43425651841E+02  0.00000000000E+00 0.  1.
         25    2    1    2    0    0 -0.12085799523E+02 -0.98261956091E+01  0.10222518530E+03  0.16231572277E+03  0.12511508573E+03 0.  0.
          5    1    3    3  502    0  0.40435411330E+02  0.31739600741E+02  0.72365691787E+02  0.88863324788E+02  0.41800000000E+01 0. -1.
         -5    1    3    3    0  502 -0.52521210853E+02 -0.41565796350E+02  0.29859493517E+02  0.73452397978E+02  0.41800000000E+01 0. -1.
        -11    1    1    2    0    0 -0.29578290732E+02 -0.24098163611E+02  0.58901714534E+02  0.70178406559E+02  0.00000000000E+00 0.  1.
         11    1    1    2    0    0  0.41664090255E+02  0.33924359220E+02  0.85474984760E+02  0.10095905895E+03  0.00000000000E+00 0. -1.
</event>
<event>
 6    1  0.1538147E-010  0.1056781E+03  0.7561462E-02  0.1268789E+00
          2   -1    0    0  501    0  0.00000000000E+00  0.00000000000E+00  0.36809390363E+03  0.36809390363E+03  0.00000000000E+00 0. -1.
         -2   -1    0    0    0  501 -0.00000000000E+00 -0.00000000000E+00 -0.74517800280E+02  0.74517800280E+02  0.00000000000E+00 0.  1.
          5    1    1    2  502    0  0.50289079798E+02 -0.57046918993E+02  0.26365122382E+03  0.27443174513E+03  0.41800000000E+01 0. -1.
         -5    1    1    2    0  502 -0.34735023901E+02 -0.22320920758E+02  0.20154232105E+02  0.46134703431E+02  0.41800000000E+01 0. -1.
        -11    1    1    2    0    0  0.32593939229E+01  0.74079115049E+02 -0.28206854699E+02  0.79334516997E+02  0.00000000000E+00 0.  1.
         11    1    1    2    0    0 -0.18813449820E+02  0.52887247014E+01  0.37977502130E+02  0.42710738358E+02  0.00000000000E+00 0. -1.
</event>
<event>
 6    1  0.1538147E-010  0.1098353E+03  0.7561462E-02  0.1260875E+00
          1   -1    0    0  501    0  0.00000000000E+00  0.00000000000E+00  0.35269642230E+03  0.35269642230E+03  0.00000000000E+00 0. -1.
         -1   -1    0    0    0  501 -0.00000000000E+00 -0.00000000000E+00 -0.45721838143E+02  0.45721838143E+02  0.00000000000E+00 0.  1.
          5    1    1    2  502    0  0.65465938556E+02  0.25121594447E+02  0.39192506707E+02  0.80438850070E+02  0.41800000000E+01 0. -1.
         -5    1    1    2    0  502 -0.49207182318E+02 -0.26335506895E+02  0.32294532445E+02  0.64616676957E+02  0.41800000000E+01 0. -1.
        -11    1    1    2    0    0  0.35404201741E+02 -0.16206277321E+02  0.95482847994E+02  0.10311680361E+03  0.00000000000E+00 0.  1.
         11    1    1    2    0    0 -0.51662957979E+02  0.17420189769E+02  0.14000469701E+03  0.15024592981E+03  0.00000000000E+00 0. -1.
</event>
<event>
 7    1  0.1538147E-010  0.1103045E+03  0.7561462E-02  0.1260007E+00
          1   -1    0    0  501    0  0.00000000000E+00  0.00000000000E+00  0.19477522802E+03  0.19477522802E+03  0.00000000000E+00 0. -1.
         -1   -1    0    0    0  501 -0.00000000000E+00 -0.00000000000E+00 -0.89270006124E+02  0.89270006124E+02  0.00000000000E+00 0.  1.
         25    2    1    2    0    0  0.67545431054E+02  0.16239896690E+02  0.30409645965E+02  0.14626291347E+03  0.12506787672E+03 0.  0.
          5    1    3    3  502    0  0.57167791085E+02  0.58653854101E+02 -0.14726598277E+02  0.83323322277E+02  0.41800000000E+01 0. -1.
         -5    1    3    3    0  502  0.10377639969E+02 -0.42413957412E+02  0.45136244242E+02  0.62939591188E+02  0.41800000000E+01 0. -1.
        -11    1    1    2    0    0 -0.51361429705E+02  0.19941358601E+02  0.25989008915E+01  0.55158032326E+02  0.00000000000E+00 0.  1.
         11    1    1    2    0    0 -0.16184001349E+02 -0.36181255290E+02  0.72496675044E+02  0.82624288357E+02  0.00000000000E+00 0. -1.
</event>
<event>
 7    1  0.1538147E-010  0.9552266E+02  0.7561462E-02  0.1290003E+00
          2   -1    0    0  501    0  0.00000000000E+00  0.00000000000E+00  0.18656713422E+03  0.18656713422E+03  0.00000000000E+00 0. -1.
         -2   -1    0    0    0  501 -0.00000000000E+00 -0.00000000000E+00 -0.81113298856E+02  0.81113298856E+02  0.00000000000E+00 0.  1.
         25    2    1    2    0    0 -0.62858054833E+01 -0.54891649508E+02  0.82129853289E+02  0.15953682306E+03  0.12511626822E+03 0.  0.
          5    1    3    3  502    0  0.36306163937E+02  0.25584707935E+02  0.18085195210E+02  0.48137942476E+02  0.41800000000E+01 0.  1.
         -5    1    3    3    0  502 -0.42591969421E+02 -0.80476357443E+02  0.64044658079E+02  0.11139888058E+03  0.41800000000E+01 0.  1.
        -11    1    1    2    0    0  0.16440341014E+01  0.22905897254E+02 -0.34766831083E+02  0.41666719582E+02  0.00000000000E+00 0. -1.
         11    1    1    2    0    0  0.46417713819E+01  0.31985752254E+02  0.58090813160E+02  0.66476890438E+02  0.00000000000E+00 0.  1.
</event>
<event>
 7    1  0.1538147E-010  0.1909792E+03  0.7561462E-02  0.1157581E+00
         -1   -1    0    0    0  501 -0.00000000000E+00  0.00000000000E+00  0.51298711817E+02  0.51298711817E+02  0.00000000000E+00 0.  1.
          1   -1    0    0  501    0  0.00000000000E+00 -0.00000000000E+00 -0.86509301323E+03  0.86509301323E+03  0.00000000000E+00 0. -1.
         25    2    1    2    0    0  0.73626791166E+02  0.16357289457E+03 -0.38474204088E+03  0.44253423050E+03  0.12503243953E+03 0.  0.
          5    1    3    3  502    0  0.41432759160E+02  0.11602189956E+03 -0.35879796323E+03  0.37938266371E+03  0.41800000000E+01 0. -1.
         -5    1    3    3    0  502  0.32194032006E+02  0.47550995012E+02 -0.25944077652E+02  0.63151566795E+02  0.41800000000E+01 0. -1.
        -11    1    1    2    0    0  0.18915871929E+02 -0.89829543258E+01 -0.42602071368E+02  0.47470413566E+02  0.00000000000E+00 0.  1.
         11    1    1    2    0    0 -0.92542663095E+02 -0.15458994024E+03 -0.38645018917E+03  0.42638708098E+03  0.00000000000E+00 0. -1.
</event>
<event>
 7    1  0.1538147E-010  0.8358562E+02  0.7561462E-02  0.1319173E+00
          2   -1    0    0  501    0  0.00000000000E+00  0.00000000000E+00  0.47794044024E+03  0.47794044024E+03  0.00000000000E+00 0.  1.
         -2   -1    0    0    0  501 -0.00000000000E+00 -0.00000000000E+00 -0.31603306010E+02  0.31603306010E+02  0.00000000000E+00 0. -1.
         25    2    1    2    0    0  0.40860131615E+02 -0.22117325656E+02  0.32486572843E+03  0.35121572679E+03  0.12512401361E+03 0.  0.
          5    1    3    3  502    0  0.32871252718E+02 -0.36175989701E+02  0.33576502095E+02  0.59448089785E+02  0.41800000000E+01 0.  1.
         -5    1    3    3    0  502  0.79888788971E+01  0.14058664045E+02  0.29128922634E+03  0.29176763700E+03  0.41800000000E+01 0.  1.
        -11    1    1    2    0    0 -0.45443088427E+02  0.53215090948E+02  0.79931406214E+02  0.10623535141E+03  0.00000000000E+00 0.  1.
         11    1    1    2    0    0  0.45829568114E+01 -0.31097765292E+02  0.41539999584E+02  0.52092668052E+02  0.00000000000E+00 0. -1.
</event>
<event>
 7    1  0.1538147E-010  0.1159892E+03  0.7561462E-02  0.1249864E+00
          4   -1    0    0  501    0  0.00000000000E+00  0.00000000000E+00  0.22092083128E+03  0.22092083128E+03  0.00000000000E+00 0. -1.
         -4   -1    0    0    0  501 -0.00000000000E+00 -0.00000000000E+00 -0.67112520641E+02  0.67112520641E+02  0.00000000000E+00 0.  1.
         25    2    1    2    0    0 -0.56416744469E+02 -0.82640404550E+01  0.89790456949E+02  0.16417023736E+03  0.12505357753E+03 0.  0.
          5    1    3    3  502    0  0.33180285613E+02  0.23794514792E+02  0.17623023558E+02  0.44667142811E+02  0.41800000000E+01 0. -1.
         -5    1    3    3    0  502 -0.89597030081E+02 -0.32058555247E+02  0.72167433391E+02  0.11950309455E+03  0.41800000000E+01 0. -1.
        -11    1    1    2    0    0  0.41526154323E+01 -0.30393566170E+02 -0.25964775213E+01  0.30785626110E+02  0.00000000000E+00 0.  1.
         11    1    1    2    0    0  0.52264129037E+02  0.38657606625E+02  0.66614331208E+02  0.93077488450E+02  0.00000000000E+00 0. -1.
</event>
<event>
 7    1  0.1538147E-010  0.9396338E+02  0.7561462E-02  0.1293528E+00
          2   -1    0    0  501    0  0.00000000000E+00  0.00000000000E+00  0.41830621586E+02  0.41830621586E+02  0.00000000000E+00 0. -1.
         -2   -1    0    0    0  501 -0.00000000000E+00 -0.00000000000E+00 -0.36799350681E+03  0.36799350681E+03  0.00000000000E+00 0.  1.
         25    2    1    2    0    0 -0.31357549605E+02 -0.34106534397E+02 -0.88527669656E+02  0.16012443898E+03  0.12512448224E+03 0.  0.
          5    1    3    3  502    0  0.51579085043E+01  0.37661149919E+02 -0.66211302021E+02  0.76461592637E+02  0.41800000000E+01 0.  1.
         -5    1    3    3    0  502 -0.36515458109E+02 -0.71767684316E+02 -0.22316367635E+02  0.83662846338E+02  0.41800000000E+01 0.  1.
        -11    1    1    2    0    0 -0.14045481271E+02  0.12366768495E+02 -0.25241761351E+02  0.31422269544E+02  0.00000000000E+00 0. -1.
         11    1    1    2    0    0  0.45403030876E+02  0.21739765902E+02 -0.21239345421E+03  0.21827741987E+03  0.00000000000E+00 0.  1.
</event>
<event>
 6    1  0.1538147E-010  0.1490968E+03  0.7561462E-02  0.1201587E+00
          2   -1    0    0  501    0  0.00000000000E+00  0.00000000000E+00  0.31730836655E+03  0.31730836655E+03  0.00000000000E+00 0. -1.
         -2   -1    0    0    0  501 -0.00000000000E+00 -0.00000000000E+00 -0.23636505986E+03  0.23636505986E+03  0.00000000000E+00 0.  1.
          5    1    1    2  502    0 -0.10061019243E+02 -0.23673036757E+02 -0.85310073818E+00  0.26073683253E+02  0.41800000000E+01 0.  1.
         -5    1    1    2    0  502  0.12748690562E+03  0.38879437386E+02 -0.18125628100E+03  0.22502407329E+03  0.41800000000E+01 0.  1.
        -11    1    1    2    0    0 -0.38250733141E+02 -0.40460921396E+02  0.53803790247E+02  0.77427724950E+02  0.00000000000E+00 0.  1.
         11    1    1    2    0    0 -0.79175153241E+02  0.25254520767E+02  0.20924889818E+03  0.22514794491E+03  0.00000000000E+00 0. -1.
</event>
<event>
 6    1  0.1538147E-010  0.1010126E+03  0.7561462E-02  0.1278181E+00
         -1   -1    0    0    0  501 -0.00000000000E+00  0.00000000000E+00  0.47096181055E+02  0.47096181055E+02  0.00000000000E+00 0.  1.
          1   -1    0    0  501    0  0.00000000000E+00 -0.00000000000E+00 -0.30148879805E+03  0.30148879805E+03  0.00000000000E+00 0. -1.
          5    1    1    2  502    0  0.11984203608E+02 -0.43325011253E+02 -0.78450614047E+02  0.90513253066E+02  0.41800000000E+01 0.  1.
         -5    1    1    2    0  502  0.18442778567E+02  0.81593493283E+02 -0.64680984755E+02  0.10582408240E+03  0.41800000000E+01 0.  1.
        -11    1    1    2    0    0  0.15762443800E+02 -0.13258964992E+02  0.78710620020E+01  0.22050133883E+02  0.00000000000E+00 0.  1.
         11    1    1    2    0    0 -0.46189425975E+02 -0.25009517039E+02 -0.11913208020E+03  0.13019750975E+03  0.00000000000E+00 0. -1.
</event>
<event>
 7    1  0.1538147E-010  0.1177761E+03  0.7561462E-02  0.1246812E+00
          1   -1    0    0  501    0  0.00000000000E+00  0.00000000000E+00  0.13796097957E+03  0.13796097957E+03  0.00000000000E+00 0. -1.
         -1   -1    0    0    0  501 -0.00000000000E+00 -0.00000000000E+00 -0.13549539431E+03  0.13549539431E+03  0.00000000000E+00 0.  1.
         25    2    1    2    0    0 -0.40316313708E+01  0.81087307725E+02 -0.17834201188E+02  0.15017213080E+03  0.12506879951E+03 0.  0.
          5    1    3    3  502    0  0.29090406590E+02  0.10393480564E+03 -0.67200191676E+01  0.10821888299E+03  0.41800000000E+01 0. -1.
         -5    1    3    3    0  502 -0.33122037961E+02 -0.22847497911E+02 -0.11114182020E+02  0.41953247806E+02  0.41800000000E+01 0. -1.
        -11    1    1    2    0    0 -0.12533061825E+02 -0.53160748061E+02 -0.30827847228E+02  0.62717612660E+02  0.00000000000E+00 0.  1.
         11    1    1    2    0    0  0.16564693196E+02 -0.27926559664E+02  0.51127633674E+02  0.60566630420E+02  0.00000000000E+00 0. -1.
</event>
<event>
 7    1  0.1538147E-010  0.1086900E+03  0.7561462E-02  0.1263015E+00
         -1   -1    0    0    0  501 -0.00000000000E+00  0.00000000000E+00  0.11577408535E+03  0.11577408535E+03  0.00000000000E+00 0.  1.
          1   -1    0    0  501    0  0.00000000000E+00 -0.00000000000E+00 -0.11220346593E+03  0.11220346593E+03  0.00000000000E+00 0. -1.
         25    2    1    2    0    0 -0.18441175596E+02 -0.19575732239E+02  0.23895618209E+02  0.13018939322E+03  0.12511990763E+03 0.  0.
          5    1    3    3  502    0 -0.65162377482E+02 -0.33899385317E+02  0.32437669862E+02  0.80405090573E+02  0.41800000000E+01 0. -1.
         -5    1    3    3    0  502  0.46721201886E+02  0.14323653078E+02 -0.85420516528E+01  0.49784302643E+02  0.41800000000E+01 0. -1.
        -11    1    1    2    0    0  0.55501668750E+02  0.90360335935E+01 -0.54859588807E+01  0.56499388333E+02  0.00000000000E+00 0.  1.
         11    1    1    2    0    0 -0.37060493154E+02  0.10539698646E+02 -0.14839039903E+02  0.41288769728E+02  0.00000000000E+00 0. -1.
</event>
<event>
 7    1  0.1538147E-010  0.1034433E+03  0.7561462E-02  0.1273217E+00
         -1   -1    0    0    0  501 -0.00000000000E+00  0.00000000000E+00  0.51606529598E+02  0.51606529598E+02  0.00000000000E+00 0. -1.
          1   -1    0    0  501    0  0.00000000000E+00 -0.00000000000E+00 -0.33194172461E+03  0.33194172461E+03  0.00000000000E+00 0.  1.
         25    2    1    2    0    0  0.62350006619E+02  0.28888830894E+02 -0.18876942992E+03  0.23663936431E+03  0.12506879383E+03 0.  0.
          5    1    3    3  502    0 -0.35496407315E+02 -0.95980821772E+00 -0.25471304014E+02  0.43899611528E+02  0.41800000000E+01 0. -1.
         -5    1    3    3    0  502  0.97846413934E+02  0.29848639112E+02 -0.16329812591E+03  0.19273975278E+03  0.41800000000E+01 0. -1.
        -11    1    1    2    0    0 -0.19013068050E+02 -0.98690343530E+01  0.17729392263E+02  0.27806940604E+02  0.00000000000E+00 0. -1.
         11    1    1    2    0    0 -0.43336938570E+02 -0.19019796541E+02 -0.10929515736E+03  0.11910194930E+03  0.00000000000E+00 0.  1.
</event>
<event>
 7    1  0.1538147E-010  0.1001457E+03  0.7561462E-02  0.1279990E+00
          1   -1    0    0  501    0  0.00000000000E+00  0.00000000000E+00  0.58367224013E+03  0.58367224013E+03  0.00000000000E+00 0. -1.
         -1   -1    0    0    0  501 -0.00000000000E+00 -0.00000000000E+00 -0.20045452528E+02  0.20045452528E+02  0.00000000000E+00 0.  1.
         25    2    1    2    0    0 -0.93931050376E+01 -0.62502096447E+01  0.33182547701E+03  0.35481803530E+03  0.12514150167E+03 0.  0.
          5    1    3    3  502    0  0.54347404802E+02 -0.23553673457E+02  0.16365540600E+03  0.17409474506E+03  0.41800000000E+01 0. -1.
         -5    1    3    3    0  502 -0.63740509840E+02  0.17303463812E+02  0.16817007101E+03  0.18072329024E+03  0.41800000000E+01 0. -1.
        -11    1    1    2    0    0  0.22876812596E+02  0.35666822949E+02  0.56429939977E+02  0.70567761333E+02  0.00000000000E+00 0.  1.
         11    1    1    2    0    0 -0.13483707558E+02 -0.29416613304E+02  0.17537137062E+03  0.17833189603E+03  0.00000000000E+00 0. -1.
</event>
<event>
 7    1  0.1538147E-010  0.1211441E+03  0.7561462E-02  0.1241221E+00
          2   -1    0    0  501    0  0.00000000000E+00  0.00000000000E+00  0.12977032176E+04  0.12977032176E+04  0.00000000000E+00 0. -1.
         -2   -1    0    0    0  501 -0.00000000000E+00 -0.00000000000E+00 -0.11890400021E+02  0.11890400021E+02  0.00000000000E+00 0.  1.
         25    2    1    2    0    0 -0.31442238238E+02  0.43957933923E+02  0.84757358330E+03  0.85844897934E+03  0.12503102301E+03 0.  0.
          5    1    3    3  502    0  0.48163814708E+02  0.91781545008E+01  0.29753493429E+03  0.30157669189E+03  0.41800000000E+01 0.  1.
         -5    1    3    3    0  502 -0.79606052945E+02  0.34779779422E+02  0.55003864901E+03  0.55687228745E+03  0.41800000000E+01 0.  1.
        -11    1    1    2    0    0 -0.10516971315E+02 -0.60201832937E+02  0.28258308824E+03  0.28911601328E+03  0.00000000000E+00 0. -1.
         11    1    1    2    0    0  0.41959209553E+02  0.16243899015E+02  0.15565614601E+03  0.16202862498E+03  0.00000000000E+00 0.  1.
</event>
<event>
 7    1  0.1538147E-010  0.8492783E+02  0.7561462E-02  0.1315621E+00
         -2   -1    0    0    0  501 -0.00000000000E+00  0.00000000000E+00  0.51629053131E+02  0.51629053131E+02  0.00000000000E+00 0.  1.
          2   -1    0    0  501    0  0.00000000000E+00 -0.00000000000E+00 -0.31677071193E+03  0.31677071193E+03  0.00000000000E+00 0. -1.
         25    2    1    2    0    0  0.48969419027E+02  0.11135607723E+02 -0.79810656131E+02  0.15662916122E+03  0.12506377394E+03 0.  0.
          5    1    3    3  502    0  0.42551716659E+02 -0.12775621989E+02 -0.10920537110E+03  0.11797097349E+03  0.41800000000E+01 0. -1.
         -5    1    3    3    0  502  0.64177023677E+01  0.23911229712E+02  0.29394714973E+02  0.38658187728E+02  0.41800000000E+01 0. -1.
        -11    1    1    2    0    0  0.16048364908E+02  0.21934534468E+02 -0.72362870554E+02  0.77298504859E+02  0.00000000000E+00 0.  1.
         11    1    1    2    0    0 -0.65017783934E+02 -0.33070142191E+02 -0.11296813212E+03  0.13447209899E+03  0.00000000000E+00 0. -1.
</event>
<event>
 7    1  0.1538147E-010  0.1253837E+03  0.7561462E-02  0.1234471E+00
          2   -1    0    0  501    0  0.00000000000E+00  0.00000000000E+00  0.98356165381E+03  0.98356165381E+03  0.00000000000E+00 0. -1.
         -2   -1    0    0    0  501 -0.00000000000E+00 -0.00000000000E+00 -0.25639589956E+02  0.25639589956E+02  0.00000000000E+00 0.  1.
         25    2    1    2    0    0 -0.22230426608E-02  0.10712128871E+03  0.38290489158E+03  0.41680363145E+03  0.12503655742E+03 0.  0.
          5    1    3    3  502    0 -0.10168273187E+02  0.84050480943E+02  0.38193638522E+03  0.39122979421E+03  0.41800000000E+01 0.  1.
         -5    1    3    3    0  502  0.10166050145E+02  0.23070807772E+02  0.96850636976E+00  0.25573837244E+02  0.41800000000E+01 0.  1.
        -11    1    1    2    0    0  0.31332030796E+02 -0.10439714572E+03  0.40037063867E+03  0.41494229538E+03  0.00000000000E+00 0. -1.
         11    1    1    2    0    0 -0.31329807753E+02 -0.27241429984E+01  0.17464653359E+03  0.17745531693E+03  0.00000000000E+00 0.  1.
</event>
<event>
 7    1  0.1538147E-010  0.1358916E+03  0.7561462E-02  0.1218966E+00
          4   -1    0    0  501    0  0.00000000000E+00  0.00000000000E+00  0.17230590968E+03  0.17230590968E+03  0.00000000000E+00 0. -1.
         -4   -1    0    0    0  501 -0.00000000000E+00 -0.00000000000E+00 -0.21374620280E+03  0.21374620280E+03  0.00000000000E+00 0.  1.
         25    2    1    2    0    0  0.57646698607E+02  0.10135540333E+03 -0.12896016452E+03  0.21416834406E+03  0.12506516669E+03 0.  0.
          5    1    3    3  502    0 -0.24028812375E+01 -0.18068031297E+02  0.10084909770E+02  0.21246303167E+02  0.41800000000E+01 0. -1.
         -5    1    3    3    0  502  0.60049579845E+02  0.11942343463E+03 -0.13904507429E+03  0.19292204089E+03  0.41800000000E+01 0. -1.
        -11    1    1    2    0    0 -0.49868027826E+02 -0.63709620092E+02  0.10253813297E+03  0.13061318695E+03  0.00000000000E+00 0. -1.
         11    1    1    2    0    0 -0.77786707816E+01 -0.37645783238E+02 -0.15018261570E+02  0.41270581476E+02  0.00000000000E+00 0.  1.
</event>
<event>
 7    1  0.1538147E-010  0.1285868E+03  0.7561462E-02  0.1229568E+00
          1   -1    0    0  501    0  0.00000000000E+00  0.00000000000E+00  0.16011747335E+03  0.16011747335E+03  0.00000000000E+00 0. -1.
         -1   -1    0    0    0  501 -0.00000000000E+00 -0.00000000000E+00 -0.11867019848E+03  0.11867019848E+03  0.00000000000E+00 0.  1.
         25    2    1    2    0    0  0.76516763499E+02 -0.12341614718E+02 -0.11600564534E+02  0.14762911686E+03  0.12511056110E+03 0.  0.
          5    1    3    3  502    0  0.98936529084E+02  0.16830805635E+02  0.15645790566E+02  0.10165616542E+03  0.41800000000E+01 0. -1.
         -5    1    3    3    0  502 -0.22419765585E+02 -0.29172420353E+02 -0.27246355100E+02  0.45972951443E+02  0.41800000000E+01 0. -1.
        -11    1    1    2    0    0 -0.72043486977E+02 -0.29332627799E+02  0.38496612166E+02  0.86790876350E+02  0.00000000000E+00 0.  1.
         11    1    1    2    0    0 -0.44732765217E+01  0.41674242517E+02  0.14551227234E+02  0.44367678621E+02  0.00000000000E+00 0. -1.
</event>
<event>
 6    1  0.1538147E-010  0.1414162E+03  0.7561462E-02  0.1211436E+00
         -3   -1    0    0    0  501 -0.00000000000E+00  0.00000000000E+00  0.22401626278E+03  0.22401626278E+03  0.00000000000E+00 0.  1.
          3   -1    0    0  501    0  0.00000000000E+00 -0.00000000000E+00 -0.96347943359E+02  0.96347943359E+02  0.00000000000E+00 0. -1.
          5    1    1    2  502    0  0.33152412993E+02 -0.70581128296E+01  0.41972565315E+02  0.54111626136E+02  0.41800000000E+01 0.  1.
         -5    1    1    2    0  502 -0.95119163709E+02 -0.71795002655E+02  0.37781301432E+02  0.12508827622E+03  0.41800000000E+01 0.  1.
        -11    1    1    2    0    0  0.69853463767E+01  0.73900734255E+02  0.42894729020E+02  0.85732557207E+02  0.00000000000E+00 0.  1.
         11    1    1    2    0    0  0.54981404339E+02  0.49523812298E+01  0.50197236587E+01  0.55431746577E+02  0.00000000000E+00 0. -1.
</event>
<event>
 7    1  0.1538147E-010  0.1467668E+03  0.7561462E-02  0.1204503E+00
          2   -1    0    0  501    0  0.00000000000E+00  0.00000000000E+00  0.11617611091E+04  0.11617611091E+04  0.00000000000E+00 0. -1.
         -2   -1    0    0    0  501 -0.00000000000E+00 -0.00000000000E+00 -0.19780416779E+02  0.19780416779E+02  0.00000000000E+00 0.  1.
         25    2    1    2    0    0  0.26434646599E+02  0.95317504103E+02  0.47201754586E+03  0.49821714601E+03  0.12504216828E+03 0.  0.
          5    1    3    3  502    0 -0.16877662468E+02  0.11155056124E+03  0.34215074270E+03  0.36029569291E+03  0.41800000000E+01 0.  1.
         -5    1    3    3    0  502  0.43312309068E+02 -0.16233057136E+02  0.12986680316E+03  0.13792145309E+03  0.41800000000E+01 0.  1.
        -11    1    1    2    0    0  0.30887015437E+02 -0.12162252553E+02  0.14757145685E+03  0.15125892697E+03  0.00000000000E+00 0.  1.
         11    1    1    2    0    0 -0.57321662037E+02 -0.83155251550E+02  0.52239168961E+03  0.53206545290E+03  0.00000000000E+00 0. -1.
</event>
<event>
 7    1  0.1538147E-010  0.1035337E+03  0.7561462E-02  0.1273036E+00
          2   -1    0    0  501    0  0.00000000000E+00  0.00000000000E+00  0.77329903353E+02  0.77329903353E+02  0.00000000000E+00 0. -1.
         -2   -1    0    0    0  501 -0.00000000000E+00 -0.00000000000E+00 -0.34476319786E+03  0.34476319786E+03  0.00000000000E+00 0.  1.
         25    2    1    2    0    0 -0.68645456597E+02 -0.25093209131E+02 -0.26839167290E+03  0.30501453065E+03  0.12513155465E+03 0.  0.
          5    1    3    3  502    0 -0.61847177293E+02  0.13415990908E+02 -0.43973337933E+02  0.77176350005E+02  0.41800000000E+01 0. -1.
         -5    1    3    3    0  502 -0.67982793042E+01 -0.38509200038E+02 -0.22441833497E+03  0.22783818064E+03  0.41800000000E+01 0. -1.
        -11    1    1    2    0    0  0.26840120729E+02 -0.26631098612E+02 -0.25388957205E+02  0.45543458828E+02  0.00000000000E+00 0.  1.
         11    1    1    2    0    0  0.41805335868E+02  0.51724307743E+02  0.26347335597E+02  0.71535111739E+02  0.00000000000E+00 0. -1.
</event>
<event>
 6    1  0.1538147E-010  0.1263304E+03  0.7561462E-02  0.1233005E+00
          2   -1    0    0  501    0  0.00000000000E+00  0.00000000000E+00  0.10767899311E+04  0.10767899311E+04  0.00000000000E+00 0. -1.
         -2   -1    0    0    0  501 -0.00000000000E+00 -0.00000000000E+00 -0.16249831132E+02  0.16249831132E+02  0.00000000000E+00 0.  1.
          5    1    1    2  502    0 -0.23404540501E+02  0.18211129531E+02  0.50497295591E+02  0.58710024841E+02  0.41800000000E+01 0.  1.
         -5    1    1    2    0  502  0.79700719340E+02 -0.68504264688E+02  0.49026546165E+03  0.50142071580E+03  0.41800000000E+01 0.  1.
        -11    1    1    2    0    0  0.13113135235E+02  0.46177127440E+02  0.21909597241E+03  0.22429294804E+03  0.00000000000E+00 0.  1.
         11    1    1    2    0    0 -0.69409314074E+02  0.41160077167E+01  0.30068137030E+03  0.30861607353E+03  0.00000000000E+00 0. -1.
</event>
<event>
 7    1  0.1538147E-010  0.5675732E+02  0.7561462E-02  0.1411967E+00
         -1   -1    0    0    0  501 -0.00000000000E+00  0.00000000000E+00  0.35434559912E+03  0.35434559912E+03  0.00000000000E+00 0.  1.
          1   -1    0    0  501    0  0.00000000000E+00 -0.00000000000E+00 -0.44419756109E+02  0.44419756109E+02  0.00000000000E+00 0. -1.
         25    2    1    2    0    0 -0.38083255719E+01  0.34382798803E+02  0.25605557121E+03  0.28705859293E+03  0.12506598270E+03 0.  0.
          5    1    3    3  502    0  0.65374725181E+01  0.62512649048E+01  0.25659666226E+03  0.25679006279E+03  0.41800000000E+01 0.  1.
         -5    1    3    3    0  502 -0.10345798090E+02  0.28131533898E+02 -0.54109105271E+00  0.30268530145E+02  0.41800000000E+01 0.  1.
        -11    1    1    2    0    0 -0.29815128387E+02 -0.89554567769E+01 -0.12114860196E+02  0.33405267914E+02  0.00000000000E+00 0.  1.
         11    1    1    2    0    0  0.33623453959E+02 -0.25427342026E+02  0.65985131995E+02  0.78301494386E+02  0.00000000000E+00 0. -1.
</event>
<event>
 7    1  0.1538147E-010  0.1359241E+03  0.7561462E-02  0.1218921E+00
          2   -1    0    0  501    0  0.00000000000E+00  0.00000000000E+00  0.28641894512E+03  0.28641894512E+03  0.00000000000E+00 0. -1.
         -2   -1    0    0    0  501 -0.00000000000E+00 -0.00000000000E+00 -0.14988058693E+03  0.14988058693E+03  0.00000000000E+00 0.  1.
         25    2    1    2    0    0  0.33300697199E+02  0.10166297936E+03  0.21845431515E+03  0.27353746648E+03  0.12512457774E+03 0.  0.
          5    1    3    3  502    0  0.53427809314E+02  0.36182964278E+02  0.26854926482E+02  0.70017120680E+02  0.41800000000E+01 0. -1.
         -5    1    3    3    0  502 -0.20127112115E+02  0.65480015079E+02  0.19159938866E+03  0.20352034580E+03  0.41800000000E+01 0. -1.
        -11    1    1    2    0    0 -0.57786568283E+02 -0.35052816326E+02 -0.26011559636E+02  0.72419532179E+02  0.00000000000E+00 0. -1.
         11    1    1    2    0    0  0.24485871084E+02 -0.66610163031E+02 -0.55904397315E+02  0.90342533399E+02  0.00000000000E+00 0.  1.
</event>
<event>
 7    1  0.1538147E-010  0.1193441E+03  0.7561462E-02  0.1244183E+00
          1   -1    0    0  501    0  0.00000000000E+00  0.00000000000E+00  0.63864500207E+03  0.63864500207E+03  0.00000000000E+00 0. -1.
         -1   -1    0    0    0  501 -0.00000000000E+00 -0.00000000000E+00 -0.22491787379E+02  0.22491787379E+02  0.00000000000E+00 0.  1.
         25    2    1    2    0    0  0.41304840707E+02  0.33516932263E+02  0.32318167621E+03  0.35059313468E+03  0.12505868875E+03 0.  0.
          5    1    3    3  502    0  0.82608001683E+02  0.42460523675E+00  0.20324299995E+03  0.21942983311E+03  0.41800000000E+01 0. -1.
         -5    1    3    3    0  502 -0.41303160976E+02  0.33092327026E+02  0.11993867626E+03  0.13116330157E+03  0.41800000000E+01 0. -1.
        -11    1    1    2    0    0 -0.23639602297E+01 -0.57237865483E+02  0.16980061687E+03  0.17920382541E+03  0.00000000000E+00 0.  1.
         11    1    1    2    0    0 -0.38940880478E+02  0.23720933219E+02  0.12317092162E+03  0.13133982936E+03  0.00000000000E+00 0. -1.
</event>
<event>
 6    1  0.1538147E-010  0.1193846E+03  0.7561462E-02  0.1244116E+00
         -1   -1    0    0    0  501 -0.00000000000E+00  0.00000000000E+00  0.19681350538E+02  0.19681350538E+02  0.00000000000E+00 0. -1.
          1   -1    0    0  501    0  0.00000000000E+00 -0.00000000000E+00 -0.19692861119E+04  0.19692861119E+04  0.00000000000E+00 0.  1.
          5    1    1    2  502    0 -0.64900708059E+02 -0.47573505973E+02 -0.73599331946E+03  0.74039109872E+03  0.41800000000E+01 0.  1.
         -5    1    1    2    0  502  0.55686746291E+02 -0.40384637391E+02 -0.98069619835E+03  0.98311466193E+03  0.41800000000E+01 0.  1.
        -11    1    1    2    0    0  0.75104643948E+01  0.21124699998E+02  0.73774723165E+00  0.22432215593E+02  0.00000000000E+00 0. -1.
         11    1    1    2    0    0  0.17034973727E+01  0.66833443365E+02 -0.23365299076E+03  0.24302948617E+03  0.00000000000E+00 0.  1.
</event>
<event>
 6    1  0.2737158E-010  0.1147726E+03  0.7561462E-02  0.1251978E+00
         -2   -1    0    0    0  501 -0.00000000000E+00  0.00000000000E+00  0.31806502811E+02  0.31806502811E+02  0.00000000000E+00 0.  1.
          2   -1    0    0  501    0  0.00000000000E+00 -0.00000000000E+00 -0.58797231468E+03  0.58797231468E+03  0.00000000000E+00 0. -1.
          5    1    1    2  502    0  0.91876354358E+01 -0.31864842423E+02 -0.57167259013E+02  0.66221965620E+02  0.41800000000E+01 0.  1.
         -5    1    1    2    0  502 -0.33620096136E+02  0.10864964108E+03 -0.28812737265E+03  0.30979010740E+03  0.41800000000E+01 0.  1.
        -11    1    1    2    0    0  0.18026203210E+02 -0.29338161373E+02 -0.80375685910E+01  0.35359216957E+02  0.00000000000E+00 0.  1.
         11    1    1    2    0    0  0.64062574899E+01 -0.47446637287E+02 -0.20283361162E+03  0.20840752752E+03  0.00000000000E+00 0. -1.
</event>
<event>
 7    1  0.1538147E-010  0.1044216E+03  0.7561462E-02  0.1271263E+00
          1   -1    0    0  501    0  0.00000000000E+00  0.00000000000E+00  0.66869967022E+03  0.66869967022E+03  0.00000000000E+00 0. -1.
         -1   -1    0    0    0  501 -0.00000000000E+00 -0.00000000000E+00 -0.23596756131E+02  0.23596756131E+02  0.00000000000E+00 0.  1.
         25    2    1    2    0    0  0.69780516658E+01  0.61689622641E+02  0.32254877844E+03  0.35146829904E+03  0.12505178133E+03 0.  0.
          5    1    3    3  502    0 -0.37746082594E+02  0.18423464327E+01  0.27100657839E+02  0.46691316611E+02  0.41800000000E+01 0. -1.
         -5    1    3    3    0  502  0.44724134260E+02  0.59847276208E+02  0.29544812060E+03  0.30477698243E+03  0.41800000000E+01 0. -1.
        -11    1    1    2    0    0  0.33132162702E+02 -0.23595968945E+02  0.22530405984E+03  0.22894634598E+03  0.00000000000E+00 0. -1.
         11    1    1    2    0    0 -0.40110214368E+02 -0.38093653696E+02  0.97250075817E+02  0.11188178134E+03  0.00000000000E+00 0.  1.
</event>
<event>
 7    1  0.1538147E-010  0.1044915E+03  0.7561462E-02  0.1271125E+00
         -1   -1    0    0    0  501 -0.00000000000E+00  0.00000000000E+00  0.13033285049E+02  0.13033285049E+02  0.00000000000E+00 0.  1.
          1   -1    0    0  501    0  0.00000000000E+00 -0.00000000000E+00 -0.86965947198E+03  0.86965947198E+03  0.00000000000E+00 0. -1.
         25    2    1    2    0    0 -0.75017015963E+01  0.53337813224E+01 -0.52909563668E+03  0.54376444200E+03  0.12511135392E+03 0.  0.
          5    1    3    3  502    0  0.38556980955E+02 -0.43257666799E+02 -0.26341693805E+03  0.26974770095E+03  0.41800000000E+01 0. -1.
         -5    1    3    3    0  502 -0.46058682551E+02  0.48591448122E+02 -0.26567869862E+03  0.27401674104E+03  0.41800000000E+01 0. -1.
        -11    1    1    2    0    0  0.69038801309E+01 -0.44298823616E+02 -0.22080441611E+03  0.22531009633E+03  0.00000000000E+00 0.  1.
         11    1    1    2    0    0  0.59782146545E+00  0.38965042294E+02 -0.10672613414E+03  0.11361821870E+03  0.00000000000E+00 0. -1.
</event>
<event>
 7    1  0.1538147E-010  0.1920452E+03  0.7561462E-02  0.1156630E+00
         -1   -1    0    0    0  501 -0.00000000000E+00  0.00000000000E+00  0.44972819154E+03  0.44972819154E+03  0.00000000000E+00 0.  1.
          1   -1    0    0  501    0  0.00000000000E+00 -0.00000000000E+00 -0.10574600671E+03  0.10574600671E+03  0.00000000000E+00 0. -1.
         25    2    1    2    0    0 -0.13468636813E+03 -0.13361335033E+03  0.21060383324E+03  0.30982015758E+03  0.12506642365E+03 0.  0.
          5    1    3    3  502    0 -0.63024871844E+02 -0.65708187534E+02  0.18729653135E+03  0.20829585554E+03  0.41800000000E+01 0. -1.
         -5    1    3    3    0  502 -0.71661496284E+02 -0.67905162793E+02  0.23307301891E+02  0.10152430204E+03  0.41800000000E+01 0. -1.
        -11    1    1    2    0    0  0.88947817757E+01  0.29605432572E+02  0.58310515266E+02  0.65997840656E+02  0.00000000000E+00 0.  1.
         11    1    1    2    0    0  0.12579158635E+03  0.10400791775E+03  0.75067836314E+02  0.17965620001E+03  0.00000000000E+00 0. -1.
</event>
<event>
 6    1  0.1538147E-010  0.2093611E+03  0.7561462E-02  0.1142073E+00
          2   -1    0    0  501    0  0.00000000000E+00  0.00000000000E+00  0.16627841818E+03  0.16627841818E+03  0.00000000000E+00 0. -1.
         -2   -1    0    0    0  501 -0.00000000000E+00 -0.00000000000E+00 -0.62095392179E+03  0.62095392179E+03  0.00000000000E+00 0.  1.
          5    1    1    2  502    0  0.83494392182E+02 -0.80601629317E+02 -0.32222012319E+03  0.34250725009E+03  0.41800000000E+01 0. -1.
         -5    1    1    2    0  502  0.94161501916E+02  0.39971314699E+02 -0.20457452266E+03  0.22876254537E+03  0.41800000000E+01 0. -1.
        -11    1    1    2    0    0 -0.15471607985E+02  0.34620672298E+02 -0.10514425940E+01  0.37935038362E+02  0.00000000000E+00 0.  1.
         11    1    1    2    0    0 -0.16218428611E+03  0.60096423202E+01  0.73170584835E+02  0.17802750616E+03  0.00000000000E+00 0. -1.
</event>
<event>
 6    1  0.1538147E-010  0.1131471E+03  0.7561462E-02  0.1254851E+00
         -1   -1    0    0    0  501 -0.00000000000E+00  0.00000000000E+00  0.13522052150E+03  0.13522052150E+03  0.00000000000E+00 0.  1.
          1   -1    0    0  501    0  0.00000000000E+00 -0.00000000000E+00 -0.12771586765E+03  0.12771586765E+03  0.00000000000E+00 0. -1.
          5    1    1    2  502    0 -0.87849182525E+02  0.18963110573E+02 -0.18578837487E+02  0.91867970672E+02  0.41800000000E+01 0.  1.
         -5    1    1    2    0  502  0.24027705757E+02 -0.47102258735E+02 -0.58323681638E+01  0.53361431206E+02  0.41800000000E+01 0.  1.
        -11    1    1    2    0    0  0.11534735493E+02  0.28765702601E+02  0.52942934500E+02  0.61347127744E+02  0.00000000000E+00 0.  1.
         11    1    1    2    0    0  0.52286741275E+02 -0.62655443865E+00 -0.21027074995E+02  0.56359859533E+02  0.00000000000E+00 0. -1.
</event>
<event>
 6    1  0.1538147E-010  0.1042615E+03  0.7561462E-02  0.1271582E+00
          1   -1    0    0  501    0  0.00000000000E+00  0.00000000000E+00  0.49466685362E+03  0.49466685362E+03  0.00000000000E+00 0. -1.
         -1   -1    0    0    0  501 -0.00000000000E+00 -0.00000000000E+00 -0.27880716654E+02  0.27880716654E+02  0.00000000000E+00 0.  1.
          5    1    1    2  502    0 -0.60274292609E+02 -0.55094337677E+02  0.21365569513E+03  0.22876757824E+03  0.41800000000E+01 0. -1.
         -5    1    1    2    0  502  0.45154087683E+02  0.16972187865E+02  0.89441059828E+02  0.10170605871E+03  0.41800000000E+01 0. -1.
        -11    1    1    2    0    0  0.13682047396E+01  0.55868708707E+02  0.46347529791E+02  0.72603568194E+02  0.00000000000E+00 0.  1.
         11    1    1    2    0    0  0.13752000187E+02 -0.17746558895E+02  0.11734185222E+03  0.11947036513E+03  0.00000000000E+00 0. -1.
</event>
<event>
 7    1  0.1538147E-010  0.1036532E+03  0.7561462E-02  0.1272796E+00
         -1   -1    0    0    0  501 -0.00000000000E+00  0.00000000000E+00  0.61956325391E+03  0.61956325391E+03  0.00000000000E+00 0. -1.
          1   -1    0    0  501    0  0.00000000000E+00 -0.00000000000E+00 -0.33723868720E+02  0.33723868720E+02  0.00000000000E+00 0.  1.
         25    2    1    2    0    0  0.67456832716E+02  0.29683715499E+02  0.45366877904E+03  0.47634140173E+03  0.12511683610E+03 0.  0.
          5    1    3    3  502    0  0.28312906098E+02  0.57887618572E+02  0.97821098837E+02  0.11721363749E+03  0.41800000000E+01 0. -1.
         -5    1    3    3    0  502  0.39143926618E+02 -0.28203903073E+02  0.35584768021E+03  0.35912776424E+03  0.41800000000E+01 0. -1.
        -11    1    1    2    0    0 -0.67821643383E+02 -0.32841450902E+01  0.13426762681E+03  0.15046048162E+03  0.00000000000E+00 0. -1.
         11    1    1    2    0    0  0.36481066715E+00 -0.26399570409E+02 -0.20970206555E+01  0.26485239289E+02  0.00000000000E+00 0.  1.
</event>
<event>
 6    1  0.1538147E-010  0.4629347E+03  0.7561462E-02  0.1023933E+00
          2   -1    0    0  501    0  0.00000000000E+00  0.00000000000E+00  0.13130204539E+04  0.13130204539E+04  0.00000000000E+00 0. -1.
         -2   -1    0    0    0  501 -0.00000000000E+00 -0.00000000000E+00 -0.17249401347E+03  0.17249401347E+03  0.00000000000E+00 0.  1.
          5    1    1    2  502    0 -0.22335746598E+03  0.32195458091E+03  0.33344079429E+03  0.51453235610E+03  0.41800000000E+01 0.  1.
         -5    1    1    2    0  502 -0.72374420318E+02  0.22643427431E+02  0.99742554293E+02  0.12536678611E+03  0.41800000000E+01 0.  1.
        -11    1    1    2    0    0  0.13327254030E+03 -0.11060292853E+03  0.20731255400E+03  0.27013528619E+03  0.00000000000E+00 0.  1.
         11    1    1    2    0    0  0.16245934600E+03 -0.23399507981E+03  0.50003053780E+03  0.57548003893E+03  0.00000000000E+00 0. -1.
</event>
<event>
 6    1  0.1538147E-010  0.1335432E+03  0.7561462E-02  0.1222291E+00
         -2   -1    0    0    0  501 -0.00000000000E+00  0.00000000000E+00  0.65042809735E+02  0.65042809735E+02  0.00000000000E+00 0.  1.
          2   -1    0    0  501    0  0.00000000000E+00 -0.00000000000E+00 -0.40728302630E+03  0.40728302630E+03  0.00000000000E+00 0. -1.
          5    1    1    2  502    0 -0.62283464019E+02 -0.10919233268E+03 -0.11636423133E+03  0.17134848158E+03  0.41800000000E+01 0. -1.
         -5    1    1    2    0  502  0.24476075445E+02  0.15905191557E+02 -0.12814018753E+03  0.13148929024E+03  0.41800000000E+01 0. -1.
        -11    1    1    2    0    0  0.26833760915E+02  0.96681107059E+02 -0.35854415908E+02  0.10654964255E+03  0.00000000000E+00 0.  1.
         11    1    1    2    0    0  0.10973627659E+02 -0.33939659361E+01 -0.61881381806E+02  0.62938421675E+02  0.00000000000E+00 0. -1.
</event>
<event>
 6    1  0.1538147E-010  0.1048415E+03  0.7561462E-02  0.1270432E+00
         -2   -1    0    0    0  501 -0.00000000000E+00  0.00000000000E+00  0.94933468536E+02  0.94933468536E+02  0.00000000000E+00 0. -1.
          2   -1    0    0  501    0  0.00000000000E+00 -0.00000000000E+00 -0.18047643586E+03  0.18047643586E+03  0.00000000000E+00 0.  1.
          5    1    1    2  502    0 -0.57330971605E+01  0.54954789556E+02 -0.11995439955E+02  0.56694446623E+02  0.41800000000E+01 0.  1.
         -5    1    1    2    0  502  0.52052427903E+02 -0.40598457263E+02 -0.91021531882E+02  0.11251702826E+03  0.41800000000E+01 0.  1.
        -11    1    1    2    0    0  0.28136743433E+01  0.25010592538E+02 -0.20685438496E+02  0.32578119469E+02  0.00000000000E+00 0.  1.
         11    1    1    2    0    0 -0.49133005085E+02 -0.39366924830E+02  0.38159443012E+02  0.73620310039E+02  0.00000000000E+00 0. -1.
</event>
<event>
 6    1  0.1538147E-010  0.1186416E+03  0.7561462E-02  0.1245355E+00
          1   -1    0    0  501    0  0.00000000000E+00  0.00000000000E+00  0.13153756346E+03  0.13153756346E+03  0.00000000000E+00 0. -1.
         -1   -1    0    0    0  501 -0.00000000000E+00 -0.00000000000E+00 -0.12404566897E+03  0.12404566897E+03  0.00000000000E+00 0.  1.
          5    1    1    2  502    0  0.91710927911E+02  0.45059388101E+02  0.14802892684E+02  0.10333363821E+03  0.41800000000E+01 0.  1.
         -5    1    1    2    0  502 -0.35243392710E+02 -0.66796718580E+01 -0.14558375932E+02  0.38937558419E+02  0.41800000000E+01 0.  1.
        -11    1    1    2    0    0  0.17325917889E+02 -0.62783421380E+01  0.24848469657E+02  0.30936248237E+02  0.00000000000E+00 0. -1.
         11    1    1    2    0    0 -0.73793453090E+02 -0.32101374105E+02 -0.17601091920E+02  0.82375787554E+02  0.00000000000E+00 0.  1.
</event>
<event>
 7    1  0.1538147E-010  0.1247800E+03  0.7561462E-02  0.1235413E+00
         -1   -1    0    0    0  501 -0.00000000000E+00  0.00000000000E+00  0.22553702086E+03  0.22553702086E+03  0.00000000000E+00 0.  1.
          1   -1    0    0  501    0  0.00000000000E+00 -0.00000000000E+00 -0.92669866963E+02  0.92669866963E+02  0.00000000000E+00 0. -1.
         25    2    1    2    0    0 -0.64182208618E+01 -0.78384947435E+02  0.34120874790E+02  0.15161633400E+03  0.12505152976E+03 0.  0.
          5    1    3    3  502    0  0.58866312953E+02 -0.30928150071E+02  0.20071262103E+02  0.69585352122E+02  0.41800000000E+01 0. -1.
         -5    1    3    3    0  502 -0.65284533815E+02 -0.47456797363E+02  0.14049612687E+02  0.82030981879E+02  0.41800000000E+01 0. -1.
        -11    1    1    2    0    0 -0.29512962326E+02  0.35286450864E+02  0.10041866830E+03  0.11045387047E+03  0.00000000000E+00 0.  1.
         11    1    1    2    0    0  0.35931183188E+02  0.43098496570E+02 -0.16723891891E+01  0.56136683350E+02  0.00000000000E+00 0. -1.
</event>
<event>
 7    1  0.1538147E-010  0.1425882E+03  0.7561462E-02  0.1209888E+00
         -3   -1    0    0    0  501 -0.00000000000E+00  0.00000000000E+00  0.50143850627E+03  0.50143850627E+03  0.00000000000E+00 0.  1.
          3   -1    0    0  501    0  0.00000000000E+00 -0.00000000000E+00 -0.44394556756E+02  0.44394556756E+02  0.00000000000E+00 0. -1.
         25    2    1    2    0    0 -0.43977616490E+02 -0.90393781210E+02  0.22063827974E+03  0.27280936184E+03  0.12505451206E+03 0.  0.
          5    1    3    3  502    0 -0.80703914361E+02 -0.54449722295E+02  0.91135508578E+02  0.13342056579E+03  0.41800000000E+01 0.  1.
         -5    1    3    3    0  502  0.36726297871E+02 -0.35944058915E+02  0.12950277116E+03  0.13938879605E+03  0.41800000000E+01 0.  1.
        -11    1    1    2    0    0 -0.26569446451E+01  0.89491118201E+02  0.14521172588E+03  0.17059356648E+03  0.00000000000E+00 0. -1.
         11    1    1    2    0    0  0.46634561136E+02  0.90266300966E+00  0.91193943898E+02  0.10243013471E+03  0.00000000000E+00 0.  1.
</event>
<event>
 7    1  0.1538147E-010  0.1004514E+03  0.7561462E-02  0.1279350E+00
         -2   -1    0    0    0  501 -0.00000000000E+00  0.00000000000E+00  0.10032520298E+03  0.10032520298E+03  0.00000000000E+00 0.  1.
          2   -1    0    0  501    0  0.00000000000E+00 -0.00000000000E+00 -0.42942229518E+03  0.42942229518E+03  0.00000000000E+00 0. -1.
         25    2    1    2    0    0 -0.15541169217E+02  0.66617189938E+02 -0.37843018849E+03  0.40440817251E+03  0.12512867177E+03 0.  0.
          5    1    3    3  502    0 -0.13149693706E+02  0.78382481271E+02 -0.38278418786E+03  0.39097050360E+03  0.41800000000E+01 0.  1.
         -5    1    3    3    0  502 -0.23914755105E+01 -0.11765291332E+02  0.43539993671E+01  0.13437668910E+02  0.41800000000E+01 0.  1.
        -11    1    1    2    0    0  0.10291289943E+02 -0.86973335432E+02  0.55186690477E+02  0.10351735377E+03  0.00000000000E+00 0.  1.
         11    1    1    2    0    0  0.52498792738E+01  0.20356145493E+02 -0.58535941839E+01  0.21821971877E+02  0.00000000000E+00 0. -1.
</event>
<event>
 7    1  0.1538147E-010  0.1049507E+03  0.7561462E-02  0.1270217E+00
         -1   -1    0    0    0  501 -0.00000000000E+00  0.00000000000E+00  0.16864154057E+03  0.16864154057E+03  0.00000000000E+00 0.  1.
          1   -1    0    0  501    0  0.00000000000E+00 -0.00000000000E+00 -0.18481313079E+03  0.18481313079E+03  0.00000000000E+00 0. -1.
         25    2    1    2    0    0  0.87842269725E+00  0.94752670098E+01 -0.14757505571E+03  0.19370766152E+03  0.12511478232E+03 0.  0.
          5    1    3    3  502    0  0.29539080316E+02  0.56998562448E+02 -0.50405567267E+02  0.81728740347E+02  0.41800000000E+01 0.  1.
         -5    1    3    3    0  502 -0.28660657619E+02 -0.47523295439E+02 -0.97169488438E+02  0.11197892118E+03  0.41800000000E+01 0.  1.
        -11    1    1    2    0    0  0.44258289308E+02 -0.37980518715E+01  0.53544673009E+02  0.69571929527E+02  0.00000000000E+00 0.  1.
         11    1    1    2    0    0 -0.45136712006E+02 -0.56772151383E+01  0.77858792474E+02  0.90175080305E+02  0.00000000000E+00 0. -1.
</event>
<event>
 7    1  0.1538147E-010  0.9621903E+02  0.7561462E-02  0.1288454E+00
         -2   -1    0    0    0  501 -0.00000000000E+00  0.00000000000E+00  0.35247241348E+03  0.35247241348E+03  0.00000000000E+00 0. -1.
          2   -1    0    0  501    0  0.00000000000E+00 -0.00000000000E+00 -0.35538161801E+02  0.35538161801E+02  0.00000000000E+00 0.  1.
         25    2    1    2    0    0 -0.40654499961E+01 -0.24006505339E+02  0.16589148659E+03  0.20920539503E+03  0.12511623318E+03 0.  0.
          5    1    3    3  502    0 -0.31905532159E+02 -0.67951137861E+02  0.10175468242E+03  0.12651801419E+03  0.41800000000E+01 0.  1.
         -5    1    3    3    0  502  0.27840082163E+02  0.43944632522E+02  0.64136804172E+02  0.82687380849E+02  0.41800000000E+01 0.  1.
        -11    1    1    2    0    0 -0.24056438441E+02 -0.51005365151E+01  0.23507153180E+01  0.24703310825E+02  0.00000000000E+00 0.  1.
         11    1    1    2    0    0  0.28121888438E+02  0.29107041854E+02  0.14869204977E+03  0.15410186942E+03  0.00000000000E+00 0. -1.
</event>
<event>
 6    1  0.1538147E-010  0.1931500E+03  0.7561462E-02  0.1155651E+00
         -1   -1    0    0    0  501 -0.00000000000E+00  0.00000000000E+00  0.37460689250E+02  0.37460689250E+02  0.00000000000E+00 0.  1.
          1   -1    0    0  501    0  0.00000000000E+00 -0.00000000000E+00 -0.12250227216E+04  0.12250227216E+04  0.00000000000E+00 0. -1.
          5    1    1    2  502    0  0.93620768294E+02  0.11608893363E+03 -0.24707588628E+03  0.28862684343E+03  0.41800000000E+01 0.  1.
         -5    1    1    2    0  502 -0.24222260238E+02  0.46931547009E+02 -0.22872845899E+03  0.23478387582E+03  0.41800000000E+01 0.  1.
        -11    1    1    2    0    0 -0.24924635981E+02 -0.13948939700E+02 -0.37707278331E+02  0.47303797276E+02  0.00000000000E+00 0.  1.
         11    1    1    2    0    0 -0.44473872074E+02 -0.14907154094E+03 -0.67405040879E+03  0.69176889436E+03  0.00000000000E+00 0. -1.
</event>
<event>
 7    1  0.1538147E-010  0.1722843E+03  0.7561462E-02  0.1175486E+00
          2   -1    0    0  501    0  0.00000000000E+00  0.00000000000E+00  0.21705092897E+03  0.21705092897E+03  0.00000000000E+00 0.  1.
         -2   -1    0    0    0  501 -0.00000000000E+00 -0.00000000000E+00 -0.17290099496E+03  0.17290099496E+03  0.00000000000E+00 0. -1.
         25    2    1    2    0    0 -0.13075611470E+03 -0.48746772080E+02  0.10107004947E+03  0.21290489515E+03  0.12505970638E+03 0.  0.
          5    1    3    3  502    0  0.64693776173E+01  0.25351207612E+02 -0.92801345612E+00  0.26511698986E+02  0.41800000000E+01 0. -1.
         -5    1    3    3    0  502 -0.13722549232E+03 -0.74097979691E+02  0.10199806293E+03  0.18639319617E+03  0.41800000000E+01 0. -1.
        -11    1    1    2    0    0  0.17009394865E+02 -0.22228915321E+02 -0.28594145971E+02  0.40013364940E+02  0.00000000000E+00 0. -1.
         11    1    1    2    0    0  0.11374671984E+03  0.70975687401E+02 -0.28325969492E+02  0.13703366383E+03  0.00000000000E+00 0.  1.
</event>
<event>
 6    1  0.1538147E-010  0.2755164E+03  0.7561462E-02  0.1098163E+00
          2   -1    0    0  501    0  0.00000000000E+00  0.00000000000E+00  0.72729070726E+03  0.72729070726E+03  0.00000000000E+00 0. -1.
         -2   -1    0    0    0  501 -0.00000000000E+00 -0.00000000000E+00 -0.13854979221E+03  0.13854979221E+03  0.00000000000E+00 0.  1.
          5    1    1    2  502    0 -0.13139945092E+03  0.38598863582E+02  0.13397828124E+03  0.19163334840E+03  0.41800000000E+01 0. -1.
         -5    1    1    2    0  502 -0.13322240776E+03  0.20132515160E+02 -0.19736981679E+01  0.13481430183E+03  0.41800000000E+01 0. -1.
        -11    1    1    2    0    0  0.12516835254E+03  0.63414932308E+01  0.26810310745E+03  0.29595034591E+03  0.00000000000E+00 0. -1.
         11    1    1    2    0    0  0.13945350613E+03 -0.65072871973E+02  0.18863322452E+03  0.24344250334E+03  0.00000000000E+00 0.  1.
</event>
<event>
 6    1  0.1538147E-010  0.9798848E+02  0.7561462E-02  0.1284584E+00
          1   -1    0    0  501    0  0.00000000000E+00  0.00000000000E+00  0.86071651943E+03  0.86071651943E+03  0.00000000000E+00 0. -1.
         -1   -1    0    0    0  501 -0.00000000000E+00 -0.00000000000E+00 -0.14416007245E+02  0.14416007245E+02  0.00000000000E+00 0.  1.
          5    1    1    2  502    0  0.61237014170E+01 -0.46524055341E+02  0.10894656263E+03  0.11869630724E+03  0.41800000000E+01 0.  1.
         -5    1    1    2    0  502 -0.49379695375E+01  0.62986942584E+02  0.44298256644E+03  0.44748493276E+03  0.41800000000E+01 0.  1.
        -11    1    1    2    0    0  0.41095991540E+02 -0.13094797204E+02  0.84891755303E+02  0.95220608866E+02  0.00000000000E+00 0.  1.
         11    1    1    2    0    0 -0.42281723419E+02 -0.33680900390E+01  0.20947962782E+03  0.21373067781E+03  0.00000000000E+00 0. -1.
</event>
<event>
 7    1  0.1538147E-010  0.1000208E+03  0.7561462E-02  0.1280252E+00
          1   -1    0    0  501    0  0.00000000000E+00  0.00000000000E+00  0.18510114541E+02  0.18510114541E+02  0.00000000000E+00 0. -1.
         -1   -1    0    0    0  501 -0.00000000000E+00 -0.00000000000E+00 -0.69374698363E+03  0.69374698363E+03  0.00000000000E+00 0.  1.
         25    2    1    2    0    0 -0.32299567635E+02 -0.80609775802E+01 -0.37257515372E+03  0.39440827614E+03  0.12504959691E+03 0.  0.
          5    1    3    3  502    0  0.45628870456E+02 -0.74858421859E+01 -0.19481714843E+03  0.20027287728E+03  0.41800000000E+01 0.  1.
         -5    1    3    3    0  502 -0.77928438091E+02 -0.57513539430E+00 -0.17775800529E+03  0.19413539885E+03  0.41800000000E+01 0.  1.
        -11    1    1    2    0    0  0.37139050664E+02  0.33294454673E+02 -0.27728780533E+03  0.28173809963E+03  0.00000000000E+00 0.  1.
         11    1    1    2    0    0 -0.48394830284E+01 -0.25233477092E+02 -0.25373910041E+02  0.36110722409E+02  0.00000000000E+00 0. -1.
</event>
<event>
 7    1  0.1538147E-010  0.1022212E+03  0.7561462E-02  0.1275693E+00
          1   -1    0    0  501    0  0.00000000000E+00  0.00000000000E+00  0.53085184277E+02  0.53085184277E+02  0.00000000000E+00 0. -1.
         -1   -1    0    0    0  501 -0.00000000000E+00 -0.00000000000E+00 -0.33401426297E+03  0.33401426297E+03  0.00000000000E+00 0.  1.
         25    2    1    2    0    0  0.20159791229E+02 -0.10378058092E+02 -0.26152091850E+03  0.29075736593E+03  0.12503013140E+03 0.  0.
          5    1    3    3  502    0 -0.44794942736E+02 -0.29076113715E+02 -0.73778671449E+02  0.91174404545E+02  0.41800000000E+01 0. -1.
         -5    1    3    3    0  502  0.64954733965E+02  0.18698055622E+02 -0.18774224705E+03  0.19958296138E+03  0.41800000000E+01 0. -1.
        -11    1    1    2    0    0 -0.51320547200E+02  0.73844282291E+01 -0.33794665326E+02  0.61890288008E+02  0.00000000000E+00 0.  1.
         11    1    1    2    0    0  0.31160755971E+02  0.29936298634E+01  0.14386505128E+02  0.34451793310E+02  0.00000000000E+00 0. -1.
</event>
<event>
 6    1  0.1538147E-010  0.8436736E+02  0.7561462E-02  0.1317095E+00
          2   -1    0    0  501    0  0.00000000000E+00  0.00000000000E+00  0.62449920354E+03  0.62449920354E+03  0.00000000000E+00 0. -1.
         -2   -1    0    0    0  501 -0.00000000000E+00 -0.00000000000E+00 -0.23816075958E+02  0.23816075958E+02  0.00000000000E+00 0.  1.
          5    1    1    2  502    0  0.35121310985E+02  0.41477996885E+02  0.89042124983E+02  0.10440260118E+03  0.41800000000E+01 0.  1.
         -5    1    1    2    0  502 -0.85199127890E+01 -0.38412530808E+02  0.36988695286E+03  0.37199723350E+03  0.41800000000E+01 0.  1.
        -11    1    1    2    0    0  0.23047427640E+02 -0.88158195995E+01  0.35232115672E+01  0.24926203397E+02  0.00000000000E+00 0.  1.
         11    1    1    2    0    0 -0.49648825836E+02  0.57503535220E+01  0.13823083817E+03  0.14698924143E+03  0.00000000000E+00 0. -1.
</event>
<event>
 7    1  0.1538147E-010  0.1037703E+03  0.7561462E-02  0.1272562E+00
         -1   -1    0    0    0  501 -0.00000000000E+00  0.00000000000E+00  0.99346795891E+02  0.99346795891E+02  0.00000000000E+00 0.  1.
          1   -1    0    0  501    0  0.00000000000E+00 -0.00000000000E+00 -0.12919648423E+03  0.12919648423E+03  0.00000000000E+00 0. -1.
         25    2    1    2    0    0 -0.28149001536E+02 -0.14919882841E+02 -0.89323760447E+01  0.12943422563E+03  0.12513377734E+03 0.  0.
          5    1    3    3  502    0  0.39836724087E+02 -0.39742518468E+02 -0.30865169415E+00  0.56426944149E+02  0.41800000000E+01 0.  1.
         -5    1    3    3    0  502 -0.67985725623E+02  0.24822635628E+02 -0.86237243506E+01  0.73007281484E+02  0.41800000000E+01 0.  1.
        -11    1    1    2    0    0 -0.17827121517E+02 -0.15389177304E+02  0.19682663302E+02  0.30692674604E+02  0.00000000000E+00 0.  1.
         11    1    1    2    0    0  0.45976123054E+02  0.30309060144E+02 -0.40599975597E+02  0.68416379883E+02  0.00000000000E+00 0. -1.
</event>
<event>
 6    1  0.1538147E-010  0.1805394E+03  0.7561462E-02  0.1167282E+00
         -2   -1    0    0    0  501 -0.00000000000E+00  0.00000000000E+00  0.41972577332E+03  0.41972577332E+03  0.00000000000E+00 0.  1.
          2   -1    0    0  501    0  0.00000000000E+00 -0.00000000000E+00 -0.87432586564E+02  0.87432586564E+02  0.00000000000E+00 0. -1.
          5    1    1    2  502    0 -0.64591329939E+02  0.98430358794E+01  0.11182479028E+03  0.12958079094E+03  0.41800000000E+01 0.  1.
         -5    1    1    2    0  502 -0.52085174973E+02 -0.11378084867E+03  0.86070785507E+02  0.15193616914E+03  0.41800000000E+01 0.  1.
        -11    1    1    2    0    0  0.52630365285E+02  0.54364140233E+01  0.87679352616E+01  0.53631955365E+02  0.00000000000E+00 0. -1.
         11    1    1    2    0    0  0.64046139626E+02  0.98501398764E+02  0.12562967571E+03  0.17200944445E+03  0.00000000000E+00 0.  1.
</event>
<event>
 7    1  0.1538147E-010  0.1003132E+03  0.7561462E-02  0.1279639E+00
          1   -1    0    0  501    0  0.00000000000E+00  0.00000000000E+00  0.29932761245E+03  0.29932761245E+03  0.00000000000E+00 0. -1.
         -1   -1    0    0    0  501 -0.00000000000E+00 -0.00000000000E+00 -0.75025641025E+02  0.75025641025E+02  0.00000000000E+00 0.  1.
         25    2    1    2    0    0 -0.16012165523E+02 -0.52110196236E+02  0.12549956371E+02  0.13706609959E+03  0.12513094044E+03 0.  0.
          5    1    3    3  502    0  0.11344181563E+02  0.28815553726E+02 -0.28413712475E+02  0.42235506963E+02  0.41800000000E+01 0.  1.
         -5    1    3    3    0  502 -0.27356347086E+02 -0.80925749962E+02  0.40963668846E+02  0.94830592627E+02  0.41800000000E+01 0.  1.
        -11    1    1    2    0    0  0.18727781016E+01 -0.15076495638E+02  0.54653372657E+00  0.15202194501E+02  0.00000000000E+00 0.  1.
         11    1    1    2    0    0  0.14139387421E+02  0.67186691874E+02  0.21120548133E+03  0.22208495939E+03  0.00000000000E+00 0. -1.
</event>
<event>
 7    1  0.1538147E-010  0.1107595E+03  0.7561462E-02  0.1259170E+00
          1   -1    0    0  501    0  0.00000000000E+00  0.00000000000E+00  0.24868081969E+03  0.24868081969E+03  0.00000000000E+00 0. -1.
         -1   -1    0    0    0  501 -0.00000000000E+00 -0.00000000000E+00 -0.78318019304E+02  0.78318019304E+02  0.00000000000E+00 0.  1.
         25    2    1    2    0    0  0.66771146883E+02 -0.52730019523E+02  0.64288255119E+02  0.16434470830E+03  0.12504943976E+03 0.  0.
          5    1    3    3  502    0 -0.23823298103E+02 -0.58948144787E+01 -0.20029185255E+02  0.31952136583E+02  0.41800000000E+01 0. -1.
         -5    1    3    3    0  502  0.90594444987E+02 -0.46835205044E+02  0.84317440374E+02  0.13239257171E+03  0.41800000000E+01 0. -1.
        -11    1    1    2    0    0 -0.77727013448E+01  0.30550375759E+02  0.93114276329E+02  0.98305690586E+02  0.00000000000E+00 0. -1.
         11    1    1    2    0    0 -0.58998445539E+02  0.22179643764E+02  0.12960268935E+02  0.64348440108E+02  0.00000000000E+00 0.  1.
</event>
<event>
 6    1  0.1538147E-010  0.1472477E+03  0.7561462E-02  0.1203896E+00
          1   -1    0    0  501    0  0.00000000000E+00  0.00000000000E+00  0.77447750918E+03  0.77447750918E+03  0.00000000000E+00 0. -1.
         -1   -1    0    0    0  501 -0.00000000000E+00 -0.00000000000E+00 -0.37094530775E+02  0.37094530775E+02  0.00000000000E+00 0.  1.
          5    1    1    2  502    0 -0.26566701362E+02  0.38001379895E+02  0.32529185206E+03  0.32860638446E+03  0.41800000000E+01 0. -1.
         -5    1    1    2    0  502 -0.87640426065E+02  0.23247101127E+02  0.11161478081E+03  0.14386314221E+03  0.41800000000E+01 0. -1.
        -11    1    1    2    0    0  0.24584684041E+02 -0.62901439991E+02  0.12795318351E+03  0.14468246270E+03  0.00000000000E+00 0. -1.
         11    1    1    2    0    0  0.89622443386E+02  0.16529589690E+01  0.17252316203E+03  0.19442005058E+03  0.00000000000E+00 0.  1.
</event>
<event>
 7    1  0.1538147E-010  0.1114466E+03  0.7561462E-02  0.1257914E+00
         -1   -1    0    0    0  501 -0.00000000000E+00  0.00000000000E+00  0.19948714893E+03  0.19948714893E+03  0.00000000000E+00 0.  1.
          1   -1    0    0  501    0  0.00000000000E+00 -0.00000000000E+00 -0.94628888633E+02  0.94628888633E+02  0.00000000000E+00 0. -1.
         25    2    1    2    0    0  0.15819357972E+02  0.59540889840E+02 -0.47692567946E+01  0.13955931370E+03  0.12513467378E+03 0.  0.
          5    1    3    3  502    0 -0.36048279591E+02 -0.13822807197E+02  0.23361538446E+02  0.45318675387E+02  0.41800000000E+01 0. -1.
         -5    1    3    3    0  502  0.51867637563E+02  0.73363697037E+02 -0.28130795241E+02  0.94240638316E+02  0.41800000000E+01 0. -1.
        -11    1    1    2    0    0  0.27923783544E+02 -0.31790685567E+02  0.11909924837E+02  0.43957157391E+02  0.00000000000E+00 0.  1.
         11    1    1    2    0    0 -0.43743141517E+02 -0.27750204274E+02  0.97717592260E+02  0.11059956647E+03  0.00000000000E+00 0. -1.
</event>
<event>
 7    1  0.1538147E-010  0.1688922E+03  0.7561462E-02  0.1179008E+00
         -2   -1    0    0    0  501 -0.00000000000E+00  0.00000000000E+00  0.14827348913E+04  0.14827348913E+04  0.00000000000E+00 0.  1.
          2   -1    0    0  501    0  0.00000000000E+00 -0.00000000000E+00 -0.25973827492E+02  0.25973827492E+02  0.00000000000E+00 0. -1.
         25    2    1    2    0    0  0.15295245687E+03 -0.55745139919E+02  0.81019146239E+03  0.83579557832E+03  0.12506825460E+03 0.  0.
          5    1    3    3  502    0  0.87677658800E+02 -0.53836434757E+02  0.23090143905E+03  0.25282143998E+03  0.41800000000E+01 0.  1.
         -5    1    3    3    0  502  0.65274798072E+02 -0.19087051625E+01  0.57929002334E+03  0.58297413833E+03  0.41800000000E+01 0.  1.
        -11    1    1    2    0    0 -0.10100275324E+03  0.12482437877E+02  0.23886973517E+03  0.25964613957E+03  0.00000000000E+00 0. -1.
         11    1    1    2    0    0 -0.51949703629E+02  0.43262702042E+02  0.40769986626E+03  0.41326700091E+03  0.00000000000E+00 0.  1.
</event>
<event>
 7    1  0.1538147E-010  0.1753747E+03  0.7561462E-02  0.1172356E+00
         -2   -1    0    0    0  501 -0.00000000000E+00  0.00000000000E+00  0.84104091653E+02  0.84104091653E+02  0.00000000000E+00 0.  1.
          2   -1    0    0  501    0  0.00000000000E+00 -0.00000000000E+00 -0.72765180963E+03  0.72765180963E+03  0.00000000000E+00 0. -1.
         25    2    1    2    0    0 -0.10533640891E+02 -0.14549155463E+03 -0.56844962699E+02  0.20036877705E+03  0.12505017782E+03 0.  0.
          5    1    3    3  502    0  0.26972621157E+02 -0.14783351526E+03 -0.61191326748E+02  0.16230872249E+03  0.41800000000E+01 0. -1.
         -5    1    3    3    0  502 -0.37506262048E+02  0.23419606332E+01  0.43463640481E+01  0.38060054556E+02  0.41800000000E+01 0. -1.
        -11    1    1    2    0    0 -0.31036860373E+02  0.60989600958E+02 -0.15345210790E+03  0.16801954513E+03  0.00000000000E+00 0.  1.
         11    1    1    2    0    0  0.41570501264E+02  0.84501953672E+02 -0.43325064738E+03  0.44336757911E+03  0.00000000000E+00 0. -1.
</event>
<event>
 7    1  0.2346747E-010  0.1840159E+03  0.7561462E-02  0.1163972E+00
          2   -1    0    0  501    0  0.00000000000E+00  0.00000000000E+00  0.86207783320E+03  0.86207783320E+03  0.00000000000E+00 0. -1.
         -2   -1    0    0    0  501 -0.00000000000E+00 -0.00000000000E+00 -0.47031568004E+02  0.47031568004E+02  0.00000000000E+00 0.  1.
         25    2    1    2    0    0  0.10000184708E+03  0.13303406454E+03  0.35706600247E+03  0.41333838536E+03  0.12511618179E+03 0.  0.
          5    1    3    3  502    0  0.10508364758E+03  0.14308383253E+03  0.25598837081E+03  0.31154947362E+03  0.41800000000E+01 0.  1.
         -5    1    3    3    0  502 -0.50818005003E+01 -0.10049767986E+02  0.10107763166E+03  0.10178891175E+03  0.41800000000E+01 0.  1.
        -11    1    1    2    0    0 -0.37085861353E+02 -0.10150977540E+03  0.35467115584E+03  0.37077112132E+03  0.00000000000E+00 0.  1.
         11    1    1    2    0    0 -0.62915985730E+02 -0.31524289139E+02  0.10330910688E+03  0.12499989452E+03  0.00000000000E+00 0. -1.
</event>
<event>
 6    1  0.1538147E-010  0.1790023E+03  0.7561462E-02  0.1168772E+00
         -2   -1    0    0    0  501 -0.00000000000E+00  0.00000000000E+00  0.22155522756E+03  0.22155522756E+03  0.00000000000E+00 0.  1.
          2   -1    0    0  501    0  0.00000000000E+00 -0.00000000000E+00 -0.26658156410E+03  0.26658156410E+03  0.00000000000E+00 0. -1.
          5    1    1    2  502    0 -0.89592296418E+01  0.13283428677E+02  0.15407466471E+02  0.22618127602E+02  0.41800000000E+01 0. -1.
         -5    1    1    2    0  502 -0.14666665312E+03 -0.58954323715E+02 -0.18400783083E+03  0.24261713383E+03  0.41800000000E+01 0. -1.
        -11    1    1    2    0    0  0.54920732211E+02 -0.24947068024E+02  0.25077939393E+02  0.65326457686E+02  0.00000000000E+00 0. -1.
         11    1    1    2    0    0  0.10070515055E+03  0.70617963062E+02  0.98496088421E+02  0.15757507255E+03  0.00000000000E+00 0.  1.
</event>
<event>
 7    1  0.1538147E-010  0.1626774E+03  0.7561462E-02  0.1185707E+00
          4   -1    0    0  501    0  0.00000000000E+00  0.00000000000E+00  0.12133793861E+03  0.12133793861E+03  0.00000000000E+00 0. -1.
         -4   -1    0    0    0  501 -0.00000000000E+00 -0.00000000000E+00 -0.23816914719E+03  0.23816914719E+03  0.00000000000E+00 0.  1.
         25    2    1    2    0    0  0.10330030151E+03 -0.78211205118E+02 -0.44837011571E+02  0.18561029651E+03  0.12511146896E+03 0.  0.
          5    1    3    3  502    0  0.10228411952E+03 -0.10124396618E+03 -0.10927198414E+02  0.14439272093E+03  0.41800000000E+01 0. -1.
         -5    1    3    3    0  502  0.10161819907E+01  0.23032761063E+02 -0.33909813157E+02  0.41217575576E+02  0.41800000000E+01 0. -1.
        -11    1    1    2    0    0 -0.52744832849E+02  0.91552282541E+02 -0.53537334291E+02  0.11844865552E+03  0.00000000000E+00 0.  1.
         11    1    1    2    0    0 -0.50555468659E+02 -0.13341077423E+02 -0.18456862721E+02  0.55448133780E+02  0.00000000000E+00 0. -1.
</event>
<event>
 7    1  0.1538147E-010  0.6673346E+02  0.7561462E-02  0.1371567E+00
         -1   -1    0    0    0  501 -0.00000000000E+00  0.00000000000E+00  0.17958942550E+03  0.17958942550E+03  0.00000000000E+00 0.  1.
          1   -1    0    0  501    0  0.00000000000E+00 -0.00000000000E+00 -0.67913973606E+02  0.67913973606E+02  0.00000000000E+00 0. -1.
         25    2    1    2    0    0 -0.12748131603E+02 -0.14517549994E+02  0.54694389470E+02  0.13791897726E+03  0.12512751069E+03 0.  0.
          5    1    3    3  502    0 -0.29630606056E+01 -0.26032229321E+02 -0.36646321082E+02  0.45242479379E+02  0.41800000000E+01 0.  1.
         -5    1    3    3    0  502 -0.97850709973E+01  0.11514679327E+02  0.91340710552E+02  0.92676497876E+02  0.41800000000E+01 0.  1.
        -11    1    1    2    0    0  0.18807178957E+02 -0.35872670784E+02  0.13327099622E+02  0.42640005556E+02  0.00000000000E+00 0. -1.
         11    1    1    2    0    0 -0.60590473538E+01  0.50390220778E+02  0.43653962802E+02  0.66944416296E+02  0.00000000000E+00 0.  1.
</event>
<event>
 7    1  0.1538147E-010  0.1118970E+03  0.7561462E-02  0.1257097E+00
          1   -1    0    0  501    0  0.00000000000E+00  0.00000000000E+00  0.86218551498E+02  0.86218551498E+02  0.00000000000E+00 0. -1.
         -1   -1    0    0    0  501 -0.00000000000E+00 -0.00000000000E+00 -0.17069960514E+03  0.17069960514E+03  0.00000000000E+00 0.  1.
         25    2    1    2    0    0  0.52387064726E+01  0.44556539932E+02 -0.17379324255E+02  0.13406116864E+03  0.12513043886E+03 0.  0.
          5    1    3    3  502    0 -0.49834847842E+02  0.53506118859E+02  0.58642719435E+01  0.73472980750E+02  0.41800000000E+01 0.  1.
         -5    1    3    3    0  502  0.55073554315E+02 -0.89495789275E+01 -0.23243596199E+02  0.60588187892E+02  0.41800000000E+01 0.  1.
        -11    1    1    2    0    0 -0.38284143675E+02  0.10312973791E+01 -0.51964575316E+02  0.64552740601E+02  0.00000000000E+00 0.  1.
         11    1    1    2    0    0  0.33045437203E+02 -0.45587837311E+02 -0.15137154066E+02  0.58304247391E+02  0.00000000000E+00 0. -1.
</event>
<event>
 7    1  0.1538147E-010  0.1170940E+03  0.7561462E-02  0.1247969E+00
         -2   -1    0    0    0  501 -0.00000000000E+00  0.00000000000E+00  0.23464878054E+02  0.23464878054E+02  0.00000000000E+00 0.  1.
          2   -1    0    0  501    0  0.00000000000E+00 -0.00000000000E+00 -0.62097215480E+03  0.62097215480E+03  0.00000000000E+00 0. -1.
         25    2    1    2    0    0 -0.51390041267E+02  0.91820884058E+01 -0.34430863629E+03  0.37002139494E+03  0.12506857561E+03 0.  0.
          5    1    3    3  502    0  0.22592389148E+02  0.42754793351E+02 -0.18344292567E+03  0.18975554743E+03  0.41800000000E+01 0. -1.
         -5    1    3    3    0  502 -0.73982430415E+02 -0.33572704945E+02 -0.16086571062E+03  0.18026584752E+03  0.41800000000E+01 0. -1.
        -11    1    1    2    0    0  0.67810602099E+00 -0.43218967516E+02 -0.82822391629E+02  0.93423163809E+02  0.00000000000E+00 0.  1.
         11    1    1    2    0    0  0.50711935246E+02  0.34036879110E+02 -0.17037624883E+03  0.18099247410E+03  0.00000000000E+00 0. -1.
</event>
<event>
 6    1  0.1538147E-010  0.7762002E+02  0.7561462E-02  0.1335944E+00
         -3   -1    0    0    0  501 -0.00000000000E+00  0.00000000000E+00  0.23997633082E+03  0.23997633082E+03  0.00000000000E+00 0.  1.
          3   -1    0    0  501    0  0.00000000000E+00 -0.00000000000E+00 -0.55296399417E+02  0.55296399417E+02  0.00000000000E+00 0. -1.
          5    1    1    2  502    0 -0.20358590051E+02 -0.40845896959E+02  0.13512131288E+02  0.47779803047E+02  0.41800000000E+01 0.  1.
         -5    1    1    2    0  502  0.23275207596E+02  0.64789288712E+02  0.11087290092E+03  0.13057434579E+03  0.41800000000E+01 0.  1.
        -11    1    1    2    0    0  0.13409653825E+02 -0.27512963599E+01  0.81587268168E+02  0.82727690494E+02  0.00000000000E+00 0.  1.
         11    1    1    2    0    0 -0.16326271370E+02 -0.21192095393E+02 -0.21292368976E+02  0.34190890901E+02  0.00000000000E+00 0. -1.
</event>
<event>
 7    1  0.1538147E-010  0.1685199E+03  0.7561462E-02  0.1179400E+00
         -1   -1    0    0    0  501 -0.00000000000E+00  0.00000000000E+00  0.47952379210E+02  0.47952379210E+02  0.00000000000E+00 0.  1.
          1   -1    0    0  501    0  0.00000000000E+00 -0.00000000000E+00 -0.81133138331E+03  0.81133138331E+03  0.00000000000E+00 0. -1.
         25    2    1    2    0    0  0.14194909799E+03 -0.44409420944E+02 -0.54805196936E+03  0.58149612324E+03  0.12512009085E+03 0.  0.
          5    1    3    3  502    0  0.15165856628E+03 -0.14414272772E+02 -0.50791770615E+03  0.53028856353E+03  0.41800000000E+01 0. -1.
         -5    1    3    3    0  502 -0.97094682912E+01 -0.29995148173E+02 -0.40134263209E+02  0.51207559713E+02  0.41800000000E+01 0. -1.
        -11    1    1    2    0    0 -0.44631113704E+02  0.31587115881E+02 -0.15057441381E+03  0.16019468247E+03  0.00000000000E+00 0. -1.
         11    1    1    2    0    0 -0.97317984284E+02  0.12822305064E+02 -0.64752620932E+02  0.11759295680E+03  0.00000000000E+00 0.  1.
</event>
<event>
 7    1  0.1538147E-010  0.4178578E+03  0.7561462E-02  0.1037766E+00
          1   -1    0    0  501    0  0.00000000000E+00  0.00000000000E+00  0.47614898690E+03  0.47614898690E+03  0.00000000000E+00 0.  1.
         -1   -1    0    0    0  501 -0.00000000000E+00 -0.00000000000E+00 -0.39184481438E+03  0.39184481438E+03  0.00000000000E+00 0. -1.
         25    2    1    2    0    0 -0.27589871764E+03 -0.30860660413E+03  0.10234190639E+03  0.44439619470E+03  0.12512383287E+03 0.  0.
          5    1    3    3  502    0 -0.55664939171E+02 -0.43537750686E+02  0.67799085224E+02  0.98021985008E+02  0.41800000000E+01 0. -1.
         -5    1    3    3    0  502 -0.22023377847E+03 -0.26506885345E+03  0.34542821166E+02  0.34637420969E+03  0.41800000000E+01 0. -1.
        -11    1    1    2    0    0  0.77901993654E+02  0.14000706437E+03  0.17303135490E+02  0.16115240361E+03  0.00000000000E+00 0.  1.
         11    1    1    2    0    0  0.19799672398E+03  0.16859953976E+03 -0.35340869356E+02  0.26244520297E+03  0.00000000000E+00 0. -1.
</event>
<event>
 6    1  0.1538147E-010  0.1321336E+03  0.7561462E-02  0.1224324E+00
         -1   -1    0    0    0  501 -0.00000000000E+00  0.00000000000E+00  0.80076158890E+02  0.80076158890E+02  0.00000000000E+00 0.  1.
          1   -1    0    0  501    0  0.00000000000E+00 -0.00000000000E+00 -0.33112293084E+03  0.33112293084E+03  0.00000000000E+00 0. -1.
          5    1    1    2  502    0 -0.15946131137E+02 -0.85136206906E+01 -0.77494328785E+02  0.79684403928E+02  0.41800000000E+01 0.  1.
         -5    1    1    2    0  502  0.66634797800E+02 -0.94686544102E+02 -0.23749650022E+02  0.11826773097E+03  0.41800000000E+01 0.  1.
        -11    1    1    2    0    0 -0.59712435655E+02  0.56212350619E+02 -0.35554196094E+02  0.89384026503E+02  0.00000000000E+00 0.  1.
         11    1    1    2    0    0  0.90237689925E+01  0.46987814174E+02 -0.11424859704E+03  0.12386292833E+03  0.00000000000E+00 0. -1.
</event>
<event>
 7    1  0.1538147E-010  0.1068786E+03  0.7561462E-02  0.1266462E+00
          2   -1    0    0  501    0  0.00000000000E+00  0.00000000000E+00  0.19428347543E+03  0.19428347543E+03  0.00000000000E+00 0. -1.
         -2   -1    0    0    0  501 -0.00000000000E+00 -0.00000000000E+00 -0.87202848836E+02  0.87202848836E+02  0.00000000000E+00 0.  1.
         25    2    1    2    0    0 -0.71245375455E+02  0.19028805508E+02  0.40240736305E+02  0.15070423501E+03  0.12511774706E+03 0.  0.
          5    1    3    3  502    0  0.17618501189E+02  0.40042078926E+02  0.39804661585E+02  0.59293027859E+02  0.41800000000E+01 0.  1.
         -5    1    3    3    0  502 -0.88863876644E+02 -0.21013273418E+02  0.43607471994E+00  0.91411207152E+02  0.41800000000E+01 0.  1.
        -11    1    1    2    0    0  0.25524082165E+02  0.60808854059E+01 -0.17553943610E+02  0.31568922597E+02  0.00000000000E+00 0.  1.
         11    1    1    2    0    0  0.45721293291E+02 -0.25109690914E+02  0.84393833899E+02  0.99213166657E+02  0.00000000000E+00 0. -1.
</event>
<event>
 7    1  0.1538147E-010  0.1482011E+03  0.7561462E-02  0.1202701E+00
         -2   -1    0    0    0  501 -0.00000000000E+00  0.00000000000E+00  0.20256428164E+02  0.20256428164E+02  0.00000000000E+00 0.  1.
          2   -1    0    0  501    0  0.00000000000E+00 -0.00000000000E+00 -0.15238531896E+04  0.15238531896E+04  0.00000000000E+00 0. -1.
         25    2    1    2    0    0  0.97118689684E+02 -0.27968945292E+02 -0.11964379676E+04  0.12072012081E+04  0.12512651456E+03 0.  0.
          5    1    3    3  502    0 -0.23492966697E+02 -0.29936628731E+02 -0.37386499619E+03  0.37581994226E+03  0.41800000000E+01 0. -1.
         -5    1    3    3    0  502  0.12061165638E+03  0.19676834386E+01 -0.82257297142E+03  0.83138126581E+03  0.41800000000E+01 0. -1.
        -11    1    1    2    0    0 -0.52553770768E+02 -0.32883046646E+02 -0.11863378842E+03  0.13385503104E+03  0.00000000000E+00 0.  1.
         11    1    1    2    0    0 -0.44564918916E+02  0.60851991938E+02 -0.18852500542E+03  0.20305337867E+03  0.00000000000E+00 0. -1.
</event>
<event>
 7    1  0.1538147E-010  0.8233108E+02  0.7561462E-02  0.1322563E+00
         -2   -1    0    0    0  501 -0.00000000000E+00  0.00000000000E+00  0.22456609250E+02  0.22456609250E+02  0.00000000000E+00 0.  1.
          2   -1    0    0  501    0  0.00000000000E+00 -0.00000000000E+00 -0.65292829614E+03  0.65292829614E+03  0.00000000000E+00 0. -1.
         25    2    1    2    0    0 -0.39721990180E+02 -0.14214384360E+02 -0.44832876022E+03  0.46736830472E+03  0.12511822328E+03 0.  0.
          5    1    3    3  502    0 -0.61264276949E+02 -0.11612058343E+02 -0.43892671454E+03  0.44335345342E+03  0.41800000000E+01 0.  1.
         -5    1    3    3    0  502  0.21542286769E+02 -0.26023260173E+01 -0.94020456807E+01  0.24014851300E+02  0.41800000000E+01 0.  1.
        -11    1    1    2    0    0  0.56944927959E+02 -0.11974928865E+01 -0.17467730170E+03  0.18372892679E+03  0.00000000000E+00 0. -1.
         11    1    1    2    0    0 -0.17222937780E+02  0.15411877247E+02 -0.74656249673E+01  0.24287673874E+02  0.00000000000E+00 0.  1.
</event>
<event>
 6    1  0.1538147E-010  0.1108026E+03  0.7561462E-02  0.1259091E+00
         -1   -1    0    0    0  501 -0.00000000000E+00  0.00000000000E+00  0.65944351017E+02  0.65944351017E+02  0.00000000000E+00 0.  1.
          1   -1    0    0  501    0  0.00000000000E+00 -0.00000000000E+00 -0.27564587999E+03  0.27564587999E+03  0.00000000000E+00 0. -1.
          5    1    1    2  502    0 -0.66198483572E+02  0.42238002219E+02 -0.68782028380E+00  0.78639897987E+02  0.41800000000E+01 0.  1.
         -5    1    1    2    0  502  0.35934875438E+02  0.22362543761E+02 -0.70439281218E+02  0.82283433173E+02  0.41800000000E+01 0.  1.
        -11    1    1    2    0    0  0.52109141641E+02 -0.31857350127E+02 -0.36227622729E+02  0.71011928916E+02  0.00000000000E+00 0.  1.
         11    1    1    2    0    0 -0.21845533508E+02 -0.32743195853E+02 -0.10234680474E+03  0.10965497093E+03  0.00000000000E+00 0. -1.
</event>
<event>
 7    1  0.1538147E-010  0.1039198E+03  0.7561462E-02  0.1272263E+00
         -3   -1    0    0    0  501 -0.00000000000E+00  0.00000000000E+00  0.77926498455E+03  0.77926498455E+03  0.00000000000E+00 0.  1.
          3   -1    0    0  501    0  0.00000000000E+00 -0.00000000000E+00 -0.21569339585E+02  0.21569339585E+02  0.00000000000E+00 0. -1.
         25    2    1    2    0    0 -0.66760267329E+02  0.12876396741E+02  0.40774226863E+03  0.43187605791E+03  0.12506173231E+03 0.  0.
          5    1    3    3  502    0 -0.85181465582E+02 -0.51520438774E+01  0.39239250523E+03  0.40158657372E+03  0.41800000000E+01 0.  1.
         -5    1    3    3    0  502  0.18421198253E+02  0.18028440618E+02  0.15349763399E+02  0.30289484192E+02  0.41800000000E+01 0.  1.
        -11    1    1    2    0    0  0.74594966609E+01  0.24889148245E+02  0.23544186355E+02  0.35063406878E+02  0.00000000000E+00 0. -1.
         11    1    1    2    0    0  0.59300770668E+02 -0.37765544986E+02  0.32640918998E+03  0.33389485934E+03  0.00000000000E+00 0.  1.
</event>
<event>
 7    1  0.1538147E-010  0.9997512E+02  0.7561462E-02  0.1280348E+00
         -1   -1    0    0    0  501 -0.00000000000E+00  0.00000000000E+00  0.84372774851E+02  0.84372774851E+02  0.00000000000E+00 0.  1.
          1   -1    0    0  501    0  0.00000000000E+00 -0.00000000000E+00 -0.17338254112E+03  0.17338254112E+03  0.00000000000E+00 0. -1.
         25    2    1    2    0    0 -0.10796974399E+02 -0.37318327427E+02 -0.88252706058E+02  0.15796284631E+03  0.12511789828E+03 0.  0.
          5    1    3    3  502    0 -0.34177007093E+02 -0.60542901756E+02 -0.10074177441E+03  0.12247403103E+03  0.41800000000E+01 0.  1.
         -5    1    3    3    0  502  0.23380032694E+02  0.23224574329E+02  0.12489068348E+02  0.35488815277E+02  0.41800000000E+01 0.  1.
        -11    1    1    2    0    0 -0.36373857468E+02 -0.88074061235E+00 -0.11483954155E+02  0.38153825682E+02  0.00000000000E+00 0. -1.
         11    1    1    2    0    0  0.47170831867E+02  0.38199068040E+02  0.10726893942E+02  0.61638643981E+02  0.00000000000E+00 0.  1.
</event>
<event>
 6    1  0.1538147E-010  0.1045842E+03  0.7561462E-02  0.1270941E+00
         -1   -1    0    0    0  501 -0.00000000000E+00  0.00000000000E+00  0.10124837418E+03  0.10124837418E+03  0.00000000000E+00 0.  1.
          1   -1    0    0  501    0  0.00000000000E+00 -0.00000000000E+00 -0.14533208133E+03  0.14533208133E+03  0.00000000000E+00 0. -1.
          5    1    1    2  502    0 -0.43329266583E+02  0.17886093108E+02 -0.20937635816E+02  0.51509170667E+02  0.41800000000E+01 0. -1.
         -5    1    1    2    0  502  0.55701331688E+02 -0.56333179972E+02  0.12532908646E+02  0.80315700313E+02  0.41800000000E+01 0. -1.
        -11    1    1    2    0    0  0.28857742546E+02  0.41697636484E+01 -0.51214445124E+02  0.58932806000E+02  0.00000000000E+00 0. -1.
         11    1    1    2    0    0 -0.41229807652E+02  0.34277323215E+02  0.15535465140E+02  0.55822778531E+02  0.00000000000E+00 0.  1.
</event>
<event>
 7    1  0.1538147E-010  0.2322414E+03  0.7561462E-02  0.1125072E+00
          2   -1    0    0  501    0  0.00000000000E+00  0.00000000000E+00  0.17931928618E+04  0.17931928618E+04  0.00000000000E+00 0. -1.
         -2   -1    0    0    0  501 -0.00000000000E+00 -0.00000000000E+00 -0.57534827487E+02  0.57534827487E+02  0.00000000000E+00 0.  1.
         25    2    1    2    0    0  0.14306473139E+03 -0.17483383578E+03  0.14612334056E+04  0.14838725953E+04  0.12506168770E+03 0.  0.
          5    1    3    3  502    0  0.96156229649E+02 -0.81765566912E+02  0.45351989843E+03  0.47077531701E+03  0.41800000000E+01 0.  1.
         -5    1    3    3    0  502  0.46908501746E+02 -0.93068268872E+02  0.10077135072E+04  0.10130972783E+04  0.41800000000E+01 0.  1.
        -11    1    1    2    0    0 -0.70694902726E+02  0.40956616185E+02  0.14780331244E+03  0.16888171259E+03  0.00000000000E+00 0. -1.
         11    1    1    2    0    0 -0.72369828668E+02  0.13387721960E+03  0.12662131625E+03  0.19797338144E+03  0.00000000000E+00 0.  1.
</event>
<event>
 6    1  0.1538147E-010  0.7616809E+02  0.7561462E-02  0.1340292E+00
          1   -1    0    0  501    0  0.00000000000E+00  0.00000000000E+00  0.69857648930E+02  0.69857648930E+02  0.00000000000E+00 0. -1.
         -1   -1    0    0    0  501 -0.00000000000E+00 -0.00000000000E+00 -0.18202005856E+03  0.18202005856E+03  0.00000000000E+00 0.  1.
          5    1    1    2  502    0  0.99740575215E+01 -0.27279327043E+02 -0.10671620622E+03  0.11067729929E+03  0.41800000000E+01 0. -1.
         -5    1    1    2    0  502  0.94778846804E+01  0.38414068934E+02  0.18574295087E+02  0.43908402705E+02  0.41800000000E+01 0. -1.
        -11    1    1    2    0    0  0.27356522361E+02  0.13282864448E+02 -0.31715676808E+02  0.43939708226E+02  0.00000000000E+00 0.  1.
         11    1    1    2    0    0 -0.46808464563E+02 -0.24417606339E+02  0.76951783183E+01  0.53352297265E+02  0.00000000000E+00 0. -1.
</event>
<event>
 7    1  0.1538147E-010  0.1081726E+03  0.7561462E-02  0.1263992E+00
         -1   -1    0    0    0  501 -0.00000000000E+00  0.00000000000E+00  0.19134998701E+03  0.19134998701E+03  0.00000000000E+00 0.  1.
          1   -1    0    0  501    0  0.00000000000E+00 -0.00000000000E+00 -0.22159208184E+03  0.22159208184E+03  0.00000000000E+00 0. -1.
         25    2    1    2    0    0 -0.76950680032E+02  0.51099999300E+02  0.13212083170E+03  0.20402170122E+03  0.12504528504E+03 0.  0.
          5    1    3    3  502    0 -0.35767895278E+02  0.17428378313E+02  0.14391639739E+03  0.14937366749E+03  0.41800000000E+01 0. -1.
         -5    1    3    3    0  502 -0.41182784754E+02  0.33671620987E+02 -0.11795565684E+02  0.54648033723E+02  0.41800000000E+01 0. -1.
        -11    1    1    2    0    0 -0.11006635295E+02 -0.30801714256E+02 -0.14720617110E+02  0.35869042219E+02  0.00000000000E+00 0. -1.
         11    1    1    2    0    0  0.87957315328E+02 -0.20298285044E+02 -0.14764230942E+03  0.17305132541E+03  0.00000000000E+00 0.  1.
</event>
<event>
 6    1  0.1538147E-010  0.1397428E+03  0.7561462E-02  0.1213676E+00
          1   -1    0    0  501    0  0.00000000000E+00  0.00000000000E+00  0.33699517952E+03  0.33699517952E+03  0.00000000000E+00 0. -1.
         -1   -1    0    0    0  501 -0.00000000000E+00 -0.00000000000E+00 -0.76886391418E+02  0.76886391418E+02  0.00000000000E+00 0.  1.
          5    1    1    2  502    0  0.77911452980E+02 -0.17494272255E+02  0.46278587231E+02  0.92387359002E+02  0.41800000000E+01 0.  1.
         -5    1    1    2    0  502  0.22137927642E+02  0.75211812780E+02  0.13633788259E+03  0.15732893965E+03  0.41800000000E+01 0.  1.
        -11    1    1    2    0    0 -0.93585741897E+02 -0.39318309061E+02  0.20007573133E+02  0.10346266716E+03  0.00000000000E+00 0.  1.
         11    1    1    2    0    0 -0.64636387255E+01 -0.18399231464E+02  0.57484745150E+02  0.60702605126E+02  0.00000000000E+00 0. -1.
</event>
<event>
 7    1  0.1538147E-010  0.1548505E+03  0.7561462E-02  0.1194636E+00
         -1   -1    0    0    0  501 -0.00000000000E+00  0.00000000000E+00  0.19154258862E+02  0.19154258862E+02  0.00000000000E+00 0.  1.
          1   -1    0    0  501    0  0.00000000000E+00 -0.00000000000E+00 -0.13425077133E+04  0.13425077133E+04  0.00000000000E+00 0. -1.
         25    2    1    2    0    0  0.11945066438E+03  0.35763139236E+02 -0.85497920468E+03  0.87302626726E+03  0.12505182747E+03 0.  0.
          5    1    3    3  502    0 -0.15763908938E+02  0.37321506371E+02 -0.22910079184E+03  0.23269301856E+03  0.41800000000E+01 0.  1.
         -5    1    3    3    0  502  0.13521457332E+03 -0.15583671344E+01 -0.62587841283E+03  0.64033324870E+03  0.41800000000E+01 0.  1.
        -11    1    1    2    0    0 -0.10211768886E+03 -0.99640378482E+01 -0.29098840621E+03  0.30854749550E+03  0.00000000000E+00 0.  1.
         11    1    1    2    0    0 -0.17332975524E+02 -0.25799101388E+02 -0.17738584351E+03  0.18008820936E+03  0.00000000000E+00 0. -1.
</event>
<event>
 6    1  0.1538147E-010  0.1016283E+03  0.7561462E-02  0.1276909E+00
         -1   -1    0    0    0  501 -0.00000000000E+00  0.00000000000E+00  0.25759045951E+02  0.25759045951E+02  0.00000000000E+00 0.  1.
          1   -1    0    0  501    0  0.00000000000E+00 -0.00000000000E+00 -0.55107266539E+03  0.55107266539E+03  0.00000000000E+00 0. -1.
          5    1    1    2  502    0 -0.51591070475E+02  0.42760092341E+01 -0.21861323548E+03  0.22469789037E+03  0.41800000000E+01 0.  1.
         -5    1    1    2    0  502  0.59396799978E+02 -0.41009819563E+02 -0.15547665647E+03  0.17146500592E+03  0.41800000000E+01 0.  1.
        -11    1    1    2    0    0  0.18207324059E+02 -0.13354609493E+02 -0.10590592957E+03  0.10828627874E+03  0.00000000000E+00 0. -1.
         11    1    1    2    0    0 -0.26013053562E+02  0.50088419821E+02 -0.45317797917E+02  0.72382536318E+02  0.00000000000E+00 0.  1.
</event>
<event>
 7    1  0.1538147E-010  0.4291764E+02  0.7561462E-02  0.1487776E+00
          1   -1    0    0  501    0  0.00000000000E+00  0.00000000000E+00  0.16130734279E+03  0.16130734279E+03  0.00000000000E+00 0. -1.
         -1   -1    0    0    0  501 -0.00000000000E+00 -0.00000000000E+00 -0.98168216009E+02  0.98168216009E+02  0.00000000000E+00 0.  1.
         25    2    1    2    0    0 -0.31441224327E+01  0.10813543277E+01  0.10040066470E+03  0.16039600500E+03  0.12504211337E+03 0.  0.
          5    1    3    3  502    0  0.77150059424E+01 -0.63438227419E+01 -0.28640405529E+02  0.30618795413E+02  0.41800000000E+01 0.  1.
         -5    1    3    3    0  502 -0.10859128375E+02  0.74251770695E+01  0.12904107023E+03  0.12977720959E+03  0.41800000000E+01 0.  1.
        -11    1    1    2    0    0  0.56781966768E+01  0.29740981807E+02 -0.55466673341E+02  0.63192719263E+02  0.00000000000E+00 0.  1.
         11    1    1    2    0    0 -0.25340742441E+01 -0.30822336135E+02  0.18205135427E+02  0.35886834536E+02  0.00000000000E+00 0. -1.
</event>
<event>
 7    1  0.1538147E-010  0.1599574E+03  0.7561462E-02  0.1188745E+00
          1   -1    0    0  501    0  0.00000000000E+00  0.00000000000E+00  0.48495735280E+03  0.48495735280E+03  0.00000000000E+00 0. -1.
         -1   -1    0    0    0  501 -0.00000000000E+00 -0.00000000000E+00 -0.64670179966E+02  0.64670179966E+02  0.00000000000E+00 0.  1.
         25    2    1    2    0    0  0.84648950948E+02  0.11327910625E+03  0.15662850149E+03  0.24529720458E+03  0.12506250551E+03 0.  0.
          5    1    3    3  502    0  0.36781874447E+02  0.11453282014E+03  0.53907646808E+02  0.13188699693E+03  0.41800000000E+01 0. -1.
         -5    1    3    3    0  502  0.47867076501E+02 -0.12537138805E+01  0.10272085468E+03  0.11341020764E+03  0.41800000000E+01 0. -1.
        -11    1    1    2    0    0 -0.85247275238E+02 -0.76023160020E+02  0.20907544316E+03  0.23824180936E+03  0.00000000000E+00 0. -1.
         11    1    1    2    0    0  0.59832429029E+00 -0.37255946235E+02  0.54583228185E+02  0.66088518828E+02  0.00000000000E+00 0.  1.
</event>
<event>
 7    1  0.1538147E-010  0.1025021E+03  0.7561462E-02  0.1275121E+00
          1   -1    0    0  501    0  0.00000000000E+00  0.00000000000E+00  0.75078711042E+03  0.75078711042E+03  0.00000000000E+00 0. -1.
         -1   -1    0    0    0  501 -0.00000000000E+00 -0.00000000000E+00 -0.17176377984E+02  0.17176377984E+02  0.00000000000E+00 0.  1.
         25    2    1    2    0    0  0.22993266222E+02  0.17015503523E+02  0.49724768684E+03  0.51352622631E+03  0.12504281419E+03 0.  0.
          5    1    3    3  502    0  0.72730301063E+02  0.22513635512E+02  0.34044792543E+03  0.34888224777E+03  0.41800000000E+01 0.  1.
         -5    1    3    3    0  502 -0.49737034842E+02 -0.54981319894E+01  0.15679976141E+03  0.16464397854E+03  0.41800000000E+01 0.  1.
        -11    1    1    2    0    0 -0.48352875188E+02 -0.64811230026E+00  0.20609447595E+03  0.21169164746E+03  0.00000000000E+00 0. -1.
         11    1    1    2    0    0  0.25359608966E+02 -0.16367391223E+02  0.30268569647E+02  0.42745614639E+02  0.00000000000E+00 0.  1.
</event>
<event>
 6    1  0.1538147E-010  0.6748772E+02  0.7561462E-02  0.1368851E+00
          2   -1    0    0  501    0  0.00000000000E+00  0.00000000000E+00  0.70118372650E+02  0.70118372650E+02  0.00000000000E+00 0. -1.
         -2   -1    0    0    0  501 -0.00000000000E+00 -0.00000000000E+00 -0.18878356518E+03  0.18878356518E+03  0.00000000000E+00 0.  1.
          5    1    1    2  502    0 -0.43898213075E+02 -0.10161018422E+00 -0.94581917831E+02  0.10435648047E+03  0.41800000000E+01 0. -1.
         -5    1    1    2    0  502  0.50024245976E+01 -0.20544424893E+02  0.35244208454E+02  0.41312519598E+02  0.41800000000E+01 0. -1.
        -11    1    1    2    0    0 -0.72463242800E+01  0.22000018880E+02  0.13646709637E+02  0.26883874910E+02  0.00000000000E+00 0. -1.
         11    1    1    2    0    0  0.46142112757E+02 -0.13539838022E+01 -0.72974192795E+02  0.86349062855E+02  0.00000000000E+00 0.  1.
</event>
<event>
 7    1  0.1538147E-010  0.7867556E+02  0.7561462E-02  0.1332853E+00
          1   -1    0    0  501    0  0.00000000000E+00  0.00000000000E+00  0.62867398178E+02  0.62867398178E+02  0.00000000000E+00 0. -1.
         -1   -1    0    0    0  501 -0.00000000000E+00 -0.00000000000E+00 -0.24262253166E+03  0.24262253166E+03  0.00000000000E+00 0.  1.
         25    2    1    2    0    0  0.22859913350E+02  0.47184297796E+02 -0.66683008294E+02  0.15112132031E+03  0.12506836635E+03 0.  0.
          5    1    3    3  502    0  0.41632959534E+02 -0.72316363091E+01 -0.81179063771E+02  0.91613932772E+02  0.41800000000E+01 0. -1.
         -5    1    3    3    0  502 -0.18773046184E+02  0.54415934105E+02  0.14496055477E+02  0.59507387541E+02  0.41800000000E+01 0. -1.
        -11    1    1    2    0    0  0.13856009270E+01 -0.22609100318E+02 -0.11740983569E+03  0.11957491720E+03  0.00000000000E+00 0.  1.
         11    1    1    2    0    0 -0.24245514277E+02 -0.24575197478E+02  0.43377104942E+01  0.34793692331E+02  0.00000000000E+00 0. -1.
</event>
<event>
 7    1  0.1538147E-010  0.1239135E+03  0.7561462E-02  0.1236777E+00
          2   -1    0    0  501    0  0.00000000000E+00  0.00000000000E+00  0.27722573701E+03  0.27722573701E+03  0.00000000000E+00 0. -1.
         -2   -1    0    0    0  501 -0.00000000000E+00 -0.00000000000E+00 -0.10457743914E+03  0.10457743914E+03  0.00000000000E+00 0.  1.
         25    2    1    2    0    0  0.24889624716E+02  0.12027040154E+03  0.40185541874E+02  0.17987166218E+03  0.12511784115E+03 0.  0.
          5    1    3    3  502    0  0.50330241867E+01  0.75196015741E+02  0.84628728570E+02  0.11339870465E+03  0.41800000000E+01 0.  1.
         -5    1    3    3    0  502  0.19856600529E+02  0.45074385803E+02 -0.44443186696E+02  0.66472957537E+02  0.41800000000E+01 0.  1.
        -11    1    1    2    0    0 -0.10205045595E+02 -0.61337019899E+02  0.70403960879E+01  0.62577473125E+02  0.00000000000E+00 0.  1.
         11    1    1    2    0    0 -0.14684579120E+02 -0.58933381645E+02  0.12542235990E+03  0.13935404084E+03  0.00000000000E+00 0. -1.
</event>
<event>
 7    1  0.1538147E-010  0.2279543E+03  0.7561462E-02  0.1128088E+00
         -1   -1    0    0    0  501 -0.00000000000E+00  0.00000000000E+00  0.60308298702E+02  0.60308298702E+02  0.00000000000E+00 0.  1.
          1   -1    0    0  501    0  0.00000000000E+00 -0.00000000000E+00 -0.10471790046E+04  0.10471790046E+04  0.00000000000E+00 0. -1.
         25    2    1    2    0    0 -0.85953901182E+02 -0.19906708936E+03 -0.63943652749E+03  0.68668510193E+03  0.12506629173E+03 0.  0.
          5    1    3    3  502    0 -0.32986470426E+02 -0.22873774178E+02 -0.27982414322E+03  0.28271954355E+03  0.41800000000E+01 0. -1.
         -5    1    3    3    0  502 -0.52967430755E+02 -0.17619331519E+03 -0.35961238427E+03  0.40396555838E+03  0.41800000000E+01 0. -1.
        -11    1    1    2    0    0  0.15769055172E+02  0.13676794920E+03 -0.15921235223E+03  0.21048208506E+03  0.00000000000E+00 0.  1.
         11    1    1    2    0    0  0.70184846010E+02  0.62299140165E+02 -0.18822182619E+03  0.21032011632E+03  0.00000000000E+00 0. -1.
</event>
<event>
 7    1  0.1538147E-010  0.1460718E+03  0.7561462E-02  0.1205385E+00
          4   -1    0    0  501    0  0.00000000000E+00  0.00000000000E+00  0.57962273658E+02  0.57962273658E+02  0.00000000000E+00 0. -1.
         -4   -1    0    0    0  501 -0.00000000000E+00 -0.00000000000E+00 -0.41968809234E+03  0.41968809234E+03  0.00000000000E+00 0.  1.
         25    2    1    2    0    0  0.30705378433E+02  0.10536524108E+03 -0.18688847911E+03  0.25022232914E+03  0.12505701134E+03 0.  0.
          5    1    3    3  502    0  0.66179705799E+02  0.44163565192E+02 -0.44702182392E+02  0.91356069644E+02  0.41800000000E+01 0.  1.
         -5    1    3    3    0  502 -0.35474327367E+02  0.61201675891E+02 -0.14218629671E+03  0.15886625950E+03  0.41800000000E+01 0.  1.
        -11    1    1    2    0    0 -0.58769994975E+02 -0.94964234290E+02 -0.11378415658E+03  0.15943322236E+03  0.00000000000E+00 0.  1.
         11    1    1    2    0    0  0.28064616542E+02 -0.10401006793E+02 -0.61053182998E+02  0.67994814495E+02  0.00000000000E+00 0. -1.
</event>
<event>
 7    1  0.1538147E-010  0.9551828E+02  0.7561462E-02  0.1290013E+00
         -2   -1    0    0    0  501 -0.00000000000E+00  0.00000000000E+00  0.17556153892E+03  0.17556153892E+03  0.00000000000E+00 0.  1.
          2   -1    0    0  501    0  0.00000000000E+00 -0.00000000000E+00 -0.78238866294E+02  0.78238866294E+02  0.00000000000E+00 0. -1.
         25    2    1    2    0    0 -0.31301652755E+02 -0.33673956186E+02  0.57370851615E+02  0.14513319384E+03  0.12513393045E+03 0.  0.
          5    1    3    3  502    0 -0.52045286780E+02  0.26182692853E+02 -0.16730648087E+01  0.58433867123E+02  0.41800000000E+01 0.  1.
         -5    1    3    3    0  502  0.20743634025E+02 -0.59856649040E+02  0.59043916423E+02  0.86699326719E+02  0.41800000000E+01 0.  1.
        -11    1    1    2    0    0  0.17649516709E+02 -0.12083130010E+02 -0.21843974952E+02  0.30572319385E+02  0.00000000000E+00 0. -1.
         11    1    1    2    0    0  0.13652136046E+02  0.45757086197E+02  0.61795795962E+02  0.78094891986E+02  0.00000000000E+00 0.  1.
</event>
<event>
 7    1  0.1538147E-010  0.8600111E+02  0.7561462E-02  0.1312835E+00
         -2   -1    0    0    0  501 -0.00000000000E+00  0.00000000000E+00  0.78162848933E+02  0.78162848933E+02  0.00000000000E+00 0.  1.
          2   -1    0    0  501    0  0.00000000000E+00 -0.00000000000E+00 -0.20929434619E+03  0.20929434619E+03  0.00000000000E+00 0. -1.
         25    2    1    2    0    0 -0.50868329910E+02 -0.44067116529E+02 -0.81613706445E+02  0.16380009873E+03  0.12506069533E+03 0.  0.
          5    1    3    3  502    0 -0.50767245375E+02 -0.28237076604E+02 -0.11371619320E+03  0.12776341689E+03  0.41800000000E+01 0. -1.
         -5    1    3    3    0  502 -0.10108453533E+00 -0.15830039925E+02  0.32102486758E+02  0.36036681842E+02  0.41800000000E+01 0. -1.
        -11    1    1    2    0    0  0.11997399387E+02 -0.19489637119E+02  0.13069880228E+02  0.26355365986E+02  0.00000000000E+00 0.  1.
         11    1    1    2    0    0  0.38870930523E+02  0.63556753648E+02 -0.62587671038E+02  0.97301730406E+02  0.00000000000E+00 0. -1.
</event>
<event>
 7    1  0.1538147E-010  0.1085329E+03  0.7561462E-02  0.1263311E+00
         -3   -1    0    0    0  501 -0.00000000000E+00  0.00000000000E+00  0.35680132484E+02  0.35680132484E+02  0.00000000000E+00 0.  1.
          3   -1    0    0  501    0  0.00000000000E+00 -0.00000000000E+00 -0.43378954789E+03  0.43378954789E+03  0.00000000000E+00 0. -1.
         25    2    1    2    0    0 -0.38670124326E+02 -0.12361618992E+02 -0.30048905644E+03  0.32800023590E+03  0.12506915515E+03 0.  0.
          5    1    3    3  502    0 -0.83785524680E+02 -0.60553951339E+00 -0.17511246717E+03  0.19417061926E+03  0.41800000000E+01 0. -1.
         -5    1    3    3    0  502  0.45115400354E+02 -0.11756079478E+02 -0.12537658927E+03  0.13382961664E+03  0.41800000000E+01 0. -1.
        -11    1    1    2    0    0  0.36404579831E+02 -0.28007895750E+02 -0.13080501388E+02  0.47758090138E+02  0.00000000000E+00 0.  1.
         11    1    1    2    0    0  0.22655444948E+01  0.40369514742E+02 -0.84539857578E+02  0.93711354337E+02  0.00000000000E+00 0. -1.
</event>
<event>
 6    1  0.1538147E-010  0.5744066E+02  0.7561462E-02  0.1408897E+00
          1   -1    0    0  501    0  0.00000000000E+00  0.00000000000E+00  0.31889402330E+03  0.31889402330E+03  0.00000000000E+00 0. -1.
         -1   -1    0    0    0  501 -0.00000000000E+00 -0.00000000000E+00 -0.45364153800E+02  0.45364153800E+02  0.00000000000E+00 0.  1.
          5    1    1    2  502    0 -0.29130185609E+01 -0.88418826398E+00  0.17011683471E+03  0.17019540921E+03  0.41800000000E+01 0.  1.
         -5    1    1    2    0  502  0.17709733261E+02  0.48702529911E+02  0.70924384067E+01  0.52472337040E+02  0.41800000000E+01 0.  1.
        -11    1    1    2    0    0  0.86296514268E+01 -0.16362818167E+02 -0.14838675446E+02  0.23714952901E+02  0.00000000000E+00 0.  1.
         11    1    1    2    0    0 -0.23426366127E+02 -0.31455523479E+02  0.11115927184E+03  0.11787547795E+03  0.00000000000E+00 0. -1.
</event>
<event>
 7    1  0.1538147E-010  0.1014493E+03  0.7561462E-02  0.1277277E+00
          2   -1    0    0  501    0  0.00000000000E+00  0.00000000000E+00  0.17375064399E+03  0.17375064399E+03  0.00000000000E+00 0. -1.
         -2   -1    0    0    0  501 -0.00000000000E+00 -0.00000000000E+00 -0.87381304519E+02  0.87381304519E+02  0.00000000000E+00 0.  1.
         25    2    1    2    0    0  0.70654757366E+01  0.55315428681E+02  0.29864352225E+02  0.14014859245E+03  0.12506010888E+03 0.  0.
          5    1    3    3  502    0 -0.66408008941E+01  0.80110646035E+02 -0.19732555506E+02  0.82877391316E+02  0.41800000000E+01 0. -1.
         -5    1    3    3    0  502  0.13706276631E+02 -0.24795217354E+02  0.49596907731E+02  0.57271201132E+02  0.41800000000E+01 0. -1.
        -11    1    1    2    0    0  0.30474798271E+02 -0.45845624197E+02  0.32551085617E+01  0.55146444305E+02  0.00000000000E+00 0.  1.
         11    1    1    2    0    0 -0.37540274008E+02 -0.94698044835E+01  0.53249878680E+02  0.65836911751E+02  0.00000000000E+00 0. -1.
</event>
<event>
 7    1  0.1538147E-010  0.1133560E+03  0.7561462E-02  0.1254478E+00
         -3   -1    0    0    0  501 -0.00000000000E+00  0.00000000000E+00  0.32945954909E+03  0.32945954909E+03  0.00000000000E+00 0.  1.
          3   -1    0    0  501    0  0.00000000000E+00 -0.00000000000E+00 -0.54551979733E+02  0.54551979733E+02  0.00000000000E+00 0. -1.
         25    2    1    2    0    0  0.44434039183E+02 -0.64962929810E+02  0.21619576018E+03  0.26186961141E+03  0.12506206689E+03 0.  0.
          5    1    3    3  502    0 -0.22835455508E+02 -0.71600935588E+02  0.14640010881E+03  0.16461657348E+03  0.41800000000E+01 0. -1.
         -5    1    3    3    0  502  0.67269494691E+02  0.66380057780E+01  0.69795651371E+02  0.97253037932E+02  0.41800000000E+01 0. -1.
        -11    1    1    2    0    0 -0.36910990811E+02  0.28904965128E+02  0.69433286998E+02  0.83778873202E+02  0.00000000000E+00 0.  1.
         11    1    1    2    0    0 -0.75230483721E+01  0.36057964683E+02 -0.10721477825E+02  0.38363044204E+02  0.00000000000E+00 0. -1.
</event>
<event>
 6    1  0.1538147E-010  0.1192821E+03  0.7561462E-02  0.1244286E+00
         -2   -1    0    0    0  501 -0.00000000000E+00  0.00000000000E+00  0.20041026080E+02  0.20041026080E+02  0.00000000000E+00 0.  1.
          2   -1    0    0  501    0  0.00000000000E+00 -0.00000000000E+00 -0.87688213969E+03  0.87688213969E+03  0.00000000000E+00 0. -1.
          5    1    1    2  502    0 -0.76875045980E+02 -0.52714633590E+01 -0.34151510204E+03  0.35012511813E+03  0.41800000000E+01 0. -1.
         -5    1    1    2    0  502  0.24018427896E+02  0.49874434769E+02 -0.10754367429E+03  0.12102668467E+03  0.41800000000E+01 0. -1.
        -11    1    1    2    0    0  0.12519301389E+02  0.23558536818E+02 -0.31666051106E+02  0.41406235725E+02  0.00000000000E+00 0.  1.
         11    1    1    2    0    0  0.40337316695E+02 -0.68161508228E+02 -0.37611628617E+03  0.38436512725E+03  0.00000000000E+00 0. -1.
</event>
<event>
 7    1  0.1538147E-010  0.1047851E+03  0.7561462E-02  0.1270544E+00
          1   -1    0    0  501    0  0.00000000000E+00  0.00000000000E+00  0.76827132942E+02  0.76827132942E+02  0.00000000000E+00 0. -1.
         -1   -1    0    0    0  501 -0.00000000000E+00 -0.00000000000E+00 -0.20039181080E+03  0.20039181080E+03  0.00000000000E+00 0.  1.
         25    2    1    2    0    0 -0.31253670583E+02  0.10620600960E+01 -0.12762159819E+03  0.18140333411E+03  0.12506789119E+03 0.  0.
          5    1    3    3  502    0  0.46492562470E+02 -0.80534455471E+01 -0.68199650807E+02  0.83036625175E+02  0.41800000000E+01 0. -1.
         -5    1    3    3    0  502 -0.77746233053E+02  0.91155056431E+01 -0.59421947379E+02  0.98366708939E+02  0.41800000000E+01 0. -1.
        -11    1    1    2    0    0 -0.26185861246E+02 -0.28670426473E+01 -0.20441992430E+02  0.33343579850E+02  0.00000000000E+00 0.  1.
         11    1    1    2    0    0  0.57439531829E+02  0.18049825512E+01  0.24498912756E+02  0.62472029781E+02  0.00000000000E+00 0. -1.
</event>
<event>
 6    1  0.1538147E-010  0.1158389E+03  0.7561462E-02  0.1250124E+00
          4   -1    0    0  501    0  0.00000000000E+00  0.00000000000E+00  0.35821663607E+03  0.35821663607E+03  0.00000000000E+00 0. -1.
         -4   -1    0    0    0  501 -0.00000000000E+00 -0.00000000000E+00 -0.41518832398E+02  0.41518832398E+02  0.00000000000E+00 0.  1.
          5    1    1    2  502    0  0.65299760097E+01 -0.42973508065E+02  0.24362020217E+02  0.50003433994E+02  0.41800000000E+01 0. -1.
         -5    1    1    2    0  502  0.33971532661E+02  0.78692132586E+02  0.13212888111E+03  0.15755008850E+03  0.41800000000E+01 0. -1.
        -11    1    1    2    0    0 -0.68009104634E+02 -0.22153962122E+02  0.13376253645E+03  0.15168537341E+03  0.00000000000E+00 0. -1.
         11    1    1    2    0    0  0.27507595963E+02 -0.13564662398E+02  0.26444365896E+02  0.40496572562E+02  0.00000000000E+00 0.  1.
</event>
<event>
 7    1  0.1538147E-010  0.1290731E+03  0.7561462E-02  0.1228838E+00
          2   -1    0    0  501    0  0.00000000000E+00  0.00000000000E+00  0.70372844831E+03  0.70372844831E+03  0.00000000000E+00 0. -1.
         -2   -1    0    0    0  501 -0.00000000000E+00 -0.00000000000E+00 -0.26038675904E+02  0.26038675904E+02  0.00000000000E+00 0.  1.
         25    2    1    2    0    0  0.74416949815E+02 -0.23670156616E+02  0.31448517079E+03  0.34732060654E+03  0.12503008578E+03 0.  0.
          5    1    3    3  502    0 -0.18313462479E+02  0.28447863630E+02  0.38005926075E+02  0.51054741894E+02  0.41800000000E+01 0. -1.
         -5    1    3    3    0  502  0.92730412294E+02 -0.52118020246E+02  0.27647924471E+03  0.29626586465E+03  0.41800000000E+01 0. -1.
        -11    1    1    2    0    0 -0.74450713845E+02 -0.17460047359E+02  0.19949686993E+03  0.21365103126E+03  0.00000000000E+00 0.  1.
         11    1    1    2    0    0  0.33764029439E-01  0.41130203976E+02  0.16370773168E+03  0.16879548641E+03  0.00000000000E+00 0. -1.
</event>
<event>
 7    1  0.1538147E-010  0.1445880E+03  0.7561462E-02  0.1207285E+00
         -2   -1    0    0    0  501 -0.00000000000E+00  0.00000000000E+00  0.50511472339E+02  0.50511472339E+02  0.00000000000E+00 0.  1.
          2   -1    0    0  501    0  0.00000000000E+00 -0.00000000000E+00 -0.53030554796E+03  0.53030554796E+03  0.00000000000E+00 0. -1.
         25    2    1    2    0    0 -0.73636562021E+02  0.97005419162E+02 -0.28380062040E+03  0.33321129721E+03  0.12511827138E+03 0.  0.
          5    1    3    3  502    0 -0.87617669593E+02  0.21397697758E+02 -0.19981851753E+03  0.21927067711E+03  0.41800000000E+01 0.  1.
         -5    1    3    3    0  502  0.13981107573E+02  0.75607721404E+02 -0.83982102875E+02  0.11394062010E+03  0.41800000000E+01 0.  1.
        -11    1    1    2    0    0  0.18206835622E+02 -0.27522747572E+02 -0.13701860889E+03  0.14093647392E+03  0.00000000000E+00 0. -1.
         11    1    1    2    0    0  0.55429726398E+02 -0.69482671590E+02 -0.58974846325E+02  0.10666924917E+03  0.00000000000E+00 0.  1.
</event>
<event>
 7    1  0.1538147E-010  0.1172828E+03  0.7561462E-02  0.1247648E+00
         -1   -1    0    0    0  501 -0.00000000000E+00  0.00000000000E+00  0.84529466194E+02  0.84529466194E+02  0.00000000000E+00 0.  1.
          1   -1    0    0  501    0  0.00000000000E+00 -0.00000000000E+00 -0.20463542711E+03  0.20463542711E+03  0.00000000000E+00 0. -1.
         25    2    1    2    0    0  0.57142549979E+02 -0.14542735730E+02 -0.15929556931E+02  0.13924605252E+03  0.12513572703E+03 0.  0.
          5    1    3    3  502    0  0.85812924215E+02 -0.42586390353E+02  0.21841466509E-02  0.95890202891E+02  0.41800000000E+01 0.  1.
         -5    1    3    3    0  502 -0.28670374236E+02  0.28043654623E+02 -0.15931741078E+02  0.43355849631E+02  0.41800000000E+01 0.  1.
        -11    1    1    2    0    0 -0.40294378463E+02 -0.30322092502E+02 -0.22499936649E+02  0.55220588358E+02  0.00000000000E+00 0. -1.
         11    1    1    2    0    0 -0.16848171516E+02  0.44864828232E+02 -0.81676467333E+02  0.94698252421E+02  0.00000000000E+00 0.  1.
</event>
<event>
 7    1  0.1538147E-010  0.8729482E+02  0.7561462E-02  0.1309538E+00
         -3   -1    0    0    0  501 -0.00000000000E+00  0.00000000000E+00  0.13469861528E+03  0.13469861528E+03  0.00000000000E+00 0.  1.
          3   -1    0    0  501    0  0.00000000000E+00 -0.00000000000E+00 -0.10355329048E+03  0.10355329048E+03  0.00000000000E+00 0. -1.
         25    2    1    2    0    0  0.36330321224E+02 -0.23904565539E+02  0.13338741718E+02  0.13307940357E+03  0.12506352438E+03 0.  0.
          5    1    3    3  502    0  0.57221595716E+01 -0.37984993883E+02  0.62413140382E+02  0.73406235176E+02  0.41800000000E+01 0.  1.
         -5    1    3    3    0  502  0.30608161653E+02  0.14080428344E+02 -0.49074398664E+02  0.59673168395E+02  0.41800000000E+01 0.  1.
        -11    1    1    2    0    0 -0.65483325691E+01  0.57058616022E+02  0.19276998954E+02  0.60581919832E+02  0.00000000000E+00 0.  1.
         11    1    1    2    0    0 -0.29781988655E+02 -0.33154050483E+02 -0.14704158695E+01  0.44590582353E+02  0.00000000000E+00 0. -1.
</event>
<event>
 6    1  0.1538147E-010  0.1834796E+03  0.7561462E-02  0.1164477E+00
          1   -1    0    0  501    0  0.00000000000E+00  0.00000000000E+00  0.65419945332E+03  0.65419945332E+03  0.00000000000E+00 0. -1.
         -1   -1    0    0    0  501 -0.00000000000E+00 -0.00000000000E+00 -0.61907865135E+02  0.61907865135E+02  0.00000000000E+00 0.  1.
          5    1    1    2  502    0  0.14954958464E+03 -0.33972695295E+02  0.28165981002E+03  0.32073188690E+03  0.41800000000E+01 0. -1.
         -5    1    1    2    0  502  0.17075587619E+02  0.17810301650E+02 -0.55798980104E+01  0.25639621666E+02  0.41800000000E+01 0. -1.
        -11    1    1    2    0    0 -0.27548853984E+02  0.38825825556E+02  0.11125758382E+03  0.12101501577E+03  0.00000000000E+00 0.  1.
         11    1    1    2    0    0 -0.13907631828E+03 -0.22663431911E+02  0.20495409236E+03  0.24872079412E+03  0.00000000000E+00 0. -1.
</event>
<event>
 7    1  0.1538147E-010  0.1242503E+03  0.7561462E-02  0.1236246E+00
          2   -1    0    0  501    0  0.00000000000E+00  0.00000000000E+00  0.93317894073E+03  0.93317894073E+03  0.00000000000E+00 0.  1.
         -2   -1    0    0    0  501 -0.00000000000E+00 -0.00000000000E+00 -0.20492936348E+02  0.20492936348E+02  0.00000000000E+00 0. -1.
         25    2    1    2    0    0  0.73459065808E+02 -0.44976890427E+02  0.48185917238E+03  0.50521711391E+03  0.12504765156E+03 0.  0.
          5    1    3    3  502    0 -0.35018174086E+01  0.32267393135E+02  0.20559949956E+03  0.20818759330E+03  0.41800000000E+01 0.  1.
         -5    1    3    3    0  502  0.76960883217E+02 -0.77244283562E+02  0.27625967281E+03  0.29702952061E+03  0.41800000000E+01 0.  1.
        -11    1    1    2    0    0 -0.46204882815E+02  0.59847926007E+02  0.38946847116E+03  0.39673965704E+03  0.00000000000E+00 0.  1.
         11    1    1    2    0    0 -0.27254182993E+02 -0.14871035580E+02  0.41358360852E+02  0.51715106132E+02  0.00000000000E+00 0. -1.
</event>
<event>
 6    1  0.1538147E-010  0.1106771E+03  0.7561462E-02  0.1259321E+00
         -1   -1    0    0    0  501 -0.00000000000E+00  0.00000000000E+00  0.12457261728E+03  0.12457261728E+03  0.00000000000E+00 0. -1.
          1   -1    0    0  501    0  0.00000000000E+00 -0.00000000000E+00 -0.15126075443E+03  0.15126075443E+03  0.00000000000E+00 0.  1.
          5    1    1    2  502    0  0.73270905329E+02  0.55382158266E+02 -0.45509053296E+02  0.10258828078E+03  0.41800000000E+01 0. -1.
         -5    1    1    2    0  502 -0.13023937701E+02 -0.45112583440E+02 -0.26164729691E+02  0.53915059285E+02  0.41800000000E+01 0. -1.
        -11    1    1    2    0    0  0.69229645924E+01  0.99528947696E+01  0.47613474222E+02  0.49132784172E+02  0.00000000000E+00 0. -1.
         11    1    1    2    0    0 -0.67169932220E+02 -0.20222469596E+02 -0.26278283868E+01  0.70197247475E+02  0.00000000000E+00 0.  1.
</event>
<event>
 7    1  0.1538147E-010  0.1125718E+03  0.7561462E-02  0.1255880E+00
         -1   -1    0    0    0  501 -0.00000000000E+00  0.00000000000E+00  0.18490899787E+03  0.18490899787E+03  0.00000000000E+00 0.  1.
          1   -1    0    0  501    0  0.00000000000E+00 -0.00000000000E+00 -0.76735192134E+02  0.76735192134E+02  0.00000000000E+00 0. -1.
         25    2    1    2    0    0 -0.14862266326E+02  0.30481317738E+02  0.60779385919E+02  0.14312973001E+03  0.12506793422E+03 0.  0.
          5    1    3    3  502    0 -0.18160318373E+02 -0.42238205645E+02 -0.29909150705E+01  0.46263172745E+02  0.41800000000E+01 0. -1.
         -5    1    3    3    0  502  0.32980520478E+01  0.72719523383E+02  0.63770300990E+02  0.96866557266E+02  0.41800000000E+01 0. -1.
        -11    1    1    2    0    0 -0.49696869737E+01  0.36177181447E+02  0.44730047213E+01  0.36789862969E+02  0.00000000000E+00 0. -1.
         11    1    1    2    0    0  0.19831953299E+02 -0.66658499185E+02  0.42921415100E+02  0.81724597028E+02  0.00000000000E+00 0.  1.
</event>
<event>
 7    1  0.1538147E-010  0.2267016E+03  0.7561462E-02  0.1128983E+00
          1   -1    0    0  501    0  0.00000000000E+00  0.00000000000E+00  0.71773127848E+02  0.71773127848E+02  0.00000000000E+00 0. -1.
         -1   -1    0    0    0  501 -0.00000000000E+00 -0.00000000000E+00 -0.12405582268E+04  0.12405582268E+04  0.00000000000E+00 0.  1.
         25    2    1    2    0    0 -0.20143481524E+03 -0.68212984903E+02 -0.20361279146E+03  0.31987977736E+03  0.12504362046E+03 0.  0.
          5    1    3    3  502    0  0.16494987504E+01 -0.11965598661E+02 -0.68133821903E+02  0.69322337559E+02  0.41800000000E+01 0.  1.
         -5    1    3    3    0  502 -0.20308431399E+03 -0.56247386242E+02 -0.13547896956E+03  0.25055743980E+03  0.41800000000E+01 0.  1.
        -11    1    1    2    0    0  0.66209653290E+02 -0.19071933329E+02 -0.24431800285E+03  0.25384787442E+03  0.00000000000E+00 0. -1.
         11    1    1    2    0    0  0.13522516195E+03  0.87284918232E+02 -0.72085430466E+03  0.73860370289E+03  0.00000000000E+00 0.  1.
</event>
<event>
 6    1  0.1538147E-010  0.1235479E+03  0.7561462E-02  0.1237356E+00
         -3   -1    0    0    0  501 -0.00000000000E+00  0.00000000000E+00  0.26910470434E+02  0.26910470434E+02  0.00000000000E+00 0.  1.
          3   -1    0    0  501    0  0.00000000000E+00 -0.00000000000E+00 -0.59478961644E+03  0.59478961644E+03  0.00000000000E+00 0. -1.
          5    1    1    2  502    0 -0.93485093325E+02  0.23421836263E+02 -0.23101935701E+03  0.25035067566E+03  0.41800000000E+01 0.  1.
         -5    1    1    2    0  502  0.41043186007E+02  0.13493753756E+02 -0.84561154318E+02  0.95050963843E+02  0.41800000000E+01 0.  1.
        -11    1    1    2    0    0  0.30834472060E+02  0.26231557068E+02 -0.13928232354E+03  0.14504628539E+03  0.00000000000E+00 0. -1.
         11    1    1    2    0    0  0.21607435258E+02 -0.63147147088E+02 -0.11301631114E+03  0.13125216199E+03  0.00000000000E+00 0.  1.
</event>
<event>
 7    1  0.1538147E-010  0.1443288E+03  0.7561462E-02  0.1207620E+00
         -2   -1    0    0    0  501 -0.00000000000E+00  0.00000000000E+00  0.55467452958E+02  0.55467452958E+02  0.00000000000E+00 0.  1.
          2   -1    0    0  501    0  0.00000000000E+00 -0.00000000000E+00 -0.40708071910E+03  0.40708071910E+03  0.00000000000E+00 0. -1.
         25    2    1    2    0    0  0.31608650276E+02  0.11489657893E+03 -0.17129700674E+03  0.24330237899E+03  0.12511215961E+03 0.  0.
          5    1    3    3  502    0  0.10533602797E+02  0.13543225117E+03 -0.10877505753E+03  0.17407566455E+03  0.41800000000E+01 0. -1.
         -5    1    3    3    0  502  0.21075047479E+02 -0.20535672240E+02 -0.62521949203E+02  0.69226714444E+02  0.41800000000E+01 0. -1.
        -11    1    1    2    0    0 -0.25685273410E+02 -0.37763619147E+02 -0.84944316582E+02  0.96443564434E+02  0.00000000000E+00 0.  1.
         11    1    1    2    0    0 -0.59233768659E+01 -0.77132959787E+02 -0.95371942821E+02  0.12280222863E+03  0.00000000000E+00 0. -1.
</event>
<event>
 6    1  0.1538147E-010  0.9421671E+02  0.7561462E-02  0.1292950E+00
          1   -1    0    0  501    0  0.00000000000E+00  0.00000000000E+00  0.36665916145E+03  0.36665916145E+03  0.00000000000E+00 0. -1.
         -1   -1    0    0    0  501 -0.00000000000E+00 -0.00000000000E+00 -0.33654123162E+02  0.33654123162E+02  0.00000000000E+00 0.  1.
          5    1    1    2  502    0 -0.54048391657E+02  0.13215985852E+02  0.12576842956E+03  0.13759019295E+03  0.41800000000E+01 0.  1.
         -5    1    1    2    0  502  0.63515054557E+02  0.10457005889E+02  0.61521240540E+02  0.89139478152E+02  0.41800000000E+01 0.  1.
        -11    1    1    2    0    0 -0.31023595801E+02 -0.32414543207E+02  0.14334289890E+03  0.15020104118E+03  0.00000000000E+00 0. -1.
         11    1    1    2    0    0  0.21556932902E+02  0.87415514657E+01  0.23724692937E+01  0.23382572329E+02  0.00000000000E+00 0.  1.
</event>
<event>
 7    1  0.1538147E-010  0.1047806E+03  0.7561462E-02  0.1270552E+00
          1   -1    0    0  501    0  0.00000000000E+00  0.00000000000E+00  0.25800536156E+02  0.25800536156E+02  0.00000000000E+00 0. -1.
         -1   -1    0    0    0  501 -0.00000000000E+00 -0.00000000000E+00 -0.53165117406E+03  0.53165117406E+03  0.00000000000E+00 0.  1.
         25    2    1    2    0    0  0.19450994146E+02 -0.35105720214E+02 -0.32739020759E+03  0.35277233733E+03  0.12511283387E+03 0.  0.
          5    1    3    3  502    0 -0.26753922485E+02  0.32134458404E+02 -0.60520149415E+02  0.73678739610E+02  0.41800000000E+01 0.  1.
         -5    1    3    3    0  502  0.46204916632E+02 -0.67240178619E+02 -0.26687005817E+03  0.27909359772E+03  0.41800000000E+01 0.  1.
        -11    1    1    2    0    0 -0.37467158756E+02 -0.87147647179E+01 -0.13504383866E+03  0.14041571661E+03  0.00000000000E+00 0.  1.
         11    1    1    2    0    0  0.18016164610E+02  0.43820484932E+02 -0.43416591653E+02  0.64263656274E+02  0.00000000000E+00 0. -1.
</event>
<event>
 6    1  0.1538147E-010  0.1299529E+03  0.7561462E-02  0.1227526E+00
          2   -1    0    0  501    0  0.00000000000E+00  0.00000000000E+00  0.77147466760E+02  0.77147466760E+02  0.00000000000E+00 0. -1.
         -2   -1    0    0    0  501 -0.00000000000E+00 -0.00000000000E+00 -0.33407304423E+03  0.33407304423E+03  0.00000000000E+00 0.  1.
          5    1    1    2  502    0  0.65617281137E+02 -0.40762247169E+02 -0.77652588744E+02  0.10961106384E+03  0.41800000000E+01 0.  1.
         -5    1    1    2    0  502 -0.35188426702E+02 -0.60754894297E+02  0.34474127813E+01  0.70418318708E+02  0.41800000000E+01 0.  1.
        -11    1    1    2    0    0  0.84787363476E+01  0.24477170076E+02 -0.12430041096E+03  0.12697091395E+03  0.00000000000E+00 0.  1.
         11    1    1    2    0    0 -0.38907590783E+02  0.77039971390E+02 -0.58419990549E+02  0.10422021449E+03  0.00000000000E+00 0. -1.
</event>
<event>
 7    1  0.1538147E-010  0.1318877E+03  0.7561462E-02  0.1224681E+00
          2   -1    0    0  501    0  0.00000000000E+00  0.00000000000E+00  0.52175959795E+03  0.52175959795E+03  0.00000000000E+00 0. -1.
         -2   -1    0    0    0  501 -0.00000000000E+00 -0.00000000000E+00 -0.45676562844E+02  0.45676562844E+02  0.00000000000E+00 0.  1.
         25    2    1    2    0    0 -0.91005296480E+02 -0.45440934225E+02  0.31792144612E+03  0.35647383723E+03  0.12511078386E+03 0.  0.
          5    1    3    3  502    0 -0.11081088633E+03 -0.14120479400E+02  0.16661975499E+03  0.20064410188E+03  0.41800000000E+01 0.  1.
         -5    1    3    3    0  502  0.19805589851E+02 -0.31320454824E+02  0.15130169113E+03  0.15582973535E+03  0.41800000000E+01 0.  1.
        -11    1    1    2    0    0  0.60318285049E+02  0.55939453868E+02  0.46099164307E+02  0.94300853443E+02  0.00000000000E+00 0.  1.
         11    1    1    2    0    0  0.30687011431E+02 -0.10498519643E+02  0.11206242468E+03  0.11666147012E+03  0.00000000000E+00 0. -1.
</event>
<event>
 6    1  0.1538147E-010  0.1092228E+03  0.7561462E-02  0.1262016E+00
          2   -1    0    0  501    0  0.00000000000E+00  0.00000000000E+00  0.51462291127E+03  0.51462291127E+03  0.00000000000E+00 0.  1.
         -2   -1    0    0    0  501 -0.00000000000E+00 -0.00000000000E+00 -0.53227281303E+02  0.53227281303E+02  0.00000000000E+00 0. -1.
          5    1    1    2  502    0  0.81524864413E+02  0.62190701967E+02  0.17258284266E+03  0.20078918524E+03  0.41800000000E+01 0.  1.
         -5    1    1    2    0  502 -0.22166084824E+02  0.65811840322E+01  0.21870025557E+03  0.21995890863E+03  0.41800000000E+01 0.  1.
        -11    1    1    2    0    0 -0.52582999424E+02 -0.50779563561E+02  0.92302043195E+02  0.11774210412E+03  0.00000000000E+00 0.  1.
         11    1    1    2    0    0 -0.67757801654E+01 -0.17992322439E+02 -0.22189511456E+02  0.29359994588E+02  0.00000000000E+00 0. -1.
</event>
<event>
 7    1  0.1538147E-010  0.1227889E+03  0.7561462E-02  0.1238566E+00
         -2   -1    0    0    0  501 -0.00000000000E+00  0.00000000000E+00  0.49881038999E+02  0.49881038999E+02  0.00000000000E+00 0.  1.
          2   -1    0    0  501    0  0.00000000000E+00 -0.00000000000E+00 -0.32039757463E+03  0.32039757463E+03  0.00000000000E+00 0. -1.
         25    2    1    2    0    0  0.23656016734E+02  0.60427982122E+02 -0.14643813226E+03  0.20325271844E+03  0.12512550828E+03 0.  0.
          5    1    3    3  502    0  0.66876906775E+02  0.96124194321E+01 -0.10395734326E+03  0.12405450771E+03  0.41800000000E+01 0. -1.
         -5    1    3    3    0  502 -0.43220890042E+02  0.50815562690E+02 -0.42480789007E+02  0.79198210725E+02  0.41800000000E+01 0. -1.
        -11    1    1    2    0    0  0.32174731463E+02 -0.40584179508E+02 -0.48165441830E+02  0.70726223975E+02  0.00000000000E+00 0. -1.
         11    1    1    2    0    0 -0.55830748197E+02 -0.19843802614E+02 -0.75912961537E+02  0.96299671213E+02  0.00000000000E+00 0.  1.
</event>
<event>
 6    1  0.1538147E-010  0.2028938E+03  0.7561462E-02  0.1147320E+00
          2   -1    0    0  501    0  0.00000000000E+00  0.00000000000E+00  0.32554365309E+03  0.32554365309E+03  0.00000000000E+00 0. -1.
         -2   -1    0    0    0  501 -0.00000000000E+00 -0.00000000000E+00 -0.21165208583E+03  0.21165208583E+03  0.00000000000E+00 0.  1.
          5    1    1    2  502    0  0.11822942711E+02  0.20327814280E+02  0.40836402850E+02  0.47308415800E+02  0.41800000000E+01 0.  1.
         -5    1    1    2    0  502 -0.19390985196E+03 -0.17012479607E+02  0.17483123136E+03  0.26167515550E+03  0.41800000000E+01 0.  1.
        -11    1    1    2    0    0  0.11433092182E+03 -0.23051548533E+02 -0.16932286391E+02  0.11785429944E+03  0.00000000000E+00 0. -1.
         11    1    1    2    0    0  0.67755987430E+02  0.19736213860E+02 -0.84843780558E+02  0.11035786818E+03  0.00000000000E+00 0.  1.
</event>
<event>
 7    1  0.1538147E-010  0.3048173E+03  0.7561462E-02  0.1082857E+00
         -2   -1    0    0    0  501 -0.00000000000E+00  0.00000000000E+00  0.57504393634E+03  0.57504393634E+03  0.00000000000E+00 0. -1.
          2   -1    0    0  501    0  0.00000000000E+00 -0.00000000000E+00 -0.16682760294E+03  0.16682760294E+03  0.00000000000E+00 0.  1.
         25    2    1    2    0    0 -0.19532557069E+03 -0.20958168879E+03  0.25898011871E+03  0.40594295196E+03  0.12506964264E+03 0.  0.
          5    1    3    3  502    0 -0.21592316977E+02 -0.10823305910E+03  0.10737688928E+03  0.15403860550E+03  0.41800000000E+01 0. -1.
         -5    1    3    3    0  502 -0.17373325371E+03 -0.10134862970E+03  0.15160322943E+03  0.25190434645E+03  0.41800000000E+01 0. -1.
        -11    1    1    2    0    0  0.72185384913E+02  0.25532080594E+02  0.18497763104E+02  0.78770452419E+02  0.00000000000E+00 0. -1.
         11    1    1    2    0    0  0.12314018578E+03  0.18404960820E+03  0.13073845158E+03  0.25715813491E+03  0.00000000000E+00 0.  1.
</event>
<event>
 7    1  0.1538147E-010  0.1139224E+03  0.7561462E-02  0.1253474E+00
          1   -1    0    0  501    0  0.00000000000E+00  0.00000000000E+00  0.34168595263E+03  0.34168595263E+03  0.00000000000E+00 0. -1.
         -1   -1    0    0    0  501 -0.00000000000E+00 -0.00000000000E+00 -0.46348144977E+02  0.46348144977E+02  0.00000000000E+00 0.  1.
         25    2    1    2    0    0 -0.37685419067E+02  0.52422918973E+02  0.16376769453E+03  0.21593464691E+03  0.12505822932E+03 0.  0.
          5    1    3    3  502    0  0.33488593412E+02  0.15295537210E+01  0.10537646718E+03  0.11065937673E+03  0.41800000000E+01 0.  1.
         -5    1    3    3    0  502 -0.71174012479E+02  0.50893365252E+02  0.58391227346E+02  0.10527527017E+03  0.41800000000E+01 0.  1.
        -11    1    1    2    0    0 -0.20462089916E+02  0.85796460920E+01  0.50503282079E+02  0.55162387109E+02  0.00000000000E+00 0. -1.
         11    1    1    2    0    0  0.58147508983E+02 -0.61002565065E+02  0.81066831045E+02  0.11693706359E+03  0.00000000000E+00 0.  1.
</event>
<event>
 6    1  0.1538147E-010  0.9716414E+02  0.7561462E-02  0.1286375E+00
         -2   -1    0    0    0  501 -0.00000000000E+00  0.00000000000E+00  0.57882303758E+02  0.57882303758E+02  0.00000000000E+00 0. -1.
          2   -1    0    0  501    0  0.00000000000E+00 -0.00000000000E+00 -0.50178093976E+03  0.50178093976E+03  0.00000000000E+00 0.  1.
          5    1    1    2  502    0  0.23323359693E+02 -0.13941275634E+01 -0.34796546246E+03  0.34877407897E+03  0.41800000000E+01 0.  1.
         -5    1    1    2    0  502  0.29828076103E+02  0.49674994775E+02 -0.57894234659E+02  0.82015449987E+02  0.41800000000E+01 0.  1.
        -11    1    1    2    0    0 -0.38307623712E+02  0.19588737812E+02  0.10295513858E+02  0.44240143412E+02  0.00000000000E+00 0. -1.
         11    1    1    2    0    0 -0.14843812084E+02 -0.67869605024E+02 -0.48334452745E+02  0.84633571149E+02  0.00000000000E+00 0.  1.
</event>
<event>
 6    1  0.1538147E-010  0.9123563E+02  0.7561462E-02  0.1299887E+00
         -1   -1    0    0    0  501 -0.00000000000E+00  0.00000000000E+00  0.64689998864E+02  0.64689998864E+02  0.00000000000E+00 0.  1.
          1   -1    0    0  501    0  0.00000000000E+00 -0.00000000000E+00 -0.22423364374E+03  0.22423364374E+03  0.00000000000E+00 0. -1.
          5    1    1    2  502    0 -0.59676014260E+01 -0.39646715202E+02 -0.79459763909E+02  0.89099948224E+02  0.41800000000E+01 0.  1.
         -5    1    1    2    0  502 -0.38525146054E+02  0.33294881726E+02  0.22223286133E+02  0.55714296856E+02  0.41800000000E+01 0.  1.
        -11    1    1    2    0    0  0.30199127556E+02  0.42535622498E+02 -0.25618708022E+02  0.58116991380E+02  0.00000000000E+00 0.  1.
         11    1    1    2    0    0  0.14293619924E+02 -0.36183789021E+02 -0.76688459075E+02  0.85992406140E+02  0.00000000000E+00 0. -1.
</event>
<event>
 7    1  0.1538147E-010  0.8560542E+02  0.7561462E-02  0.1313857E+00
         -2   -1    0    0    0  501 -0.00000000000E+00  0.00000000000E+00  0.32418961095E+02  0.32418961095E+02  0.00000000000E+00 0.  1.
          2   -1    0    0  501    0  0.00000000000E+00 -0.00000000000E+00 -0.39156357895E+03  0.39156357895E+03  0.00000000000E+00 0. -1.
         25    2    1    2    0    0  0.67436320974E+01  0.19790765442E+02 -0.18302834663E+03  0.22265556860E+03  0.12505588986E+03 0.  0.
          5    1    3    3  502    0  0.48620240993E+01 -0.37859623424E+02 -0.92365929772E+01  0.39494017445E+02  0.41800000000E+01 0. -1.
         -5    1    3    3    0  502  0.18816079982E+01  0.57650388866E+02 -0.17379175365E+03  0.18316155116E+03  0.41800000000E+01 0. -1.
        -11    1    1    2    0    0 -0.29977261561E+02 -0.35853282033E+02 -0.16411176001E+03  0.17063634964E+03  0.00000000000E+00 0. -1.
         11    1    1    2    0    0  0.23233629464E+02  0.16062516591E+02 -0.12004511214E+02  0.30690621805E+02  0.00000000000E+00 0.  1.
</event>
<event>
 7    1  0.1538147E-010  0.1178530E+03  0.7561462E-02  0.1246682E+00
          1   -1    0    0  501    0  0.00000000000E+00  0.00000000000E+00  0.14160641849E+03  0.14160641849E+03  0.00000000000E+00 0. -1.
         -1   -1    0    0    0  501 -0.00000000000E+00 -0.00000000000E+00 -0.27184261896E+03  0.27184261896E+03  0.00000000000E+00 0.  1.
         25    2    1    2    0    0 -0.99290274229E+02 -0.31359163581E+02 -0.11536497952E+03  0.19948180677E+03  0.12506780975E+03 0.  0.
          5    1    3    3  502    0 -0.96980208895E+02 -0.49755089061E+02 -0.13405471989E+03  0.17282612687E+03  0.41800000000E+01 0.  1.
         -5    1    3    3    0  502 -0.23100653341E+01  0.18395925480E+02  0.18689740366E+02  0.26655679903E+02  0.41800000000E+01 0.  1.
        -11    1    1    2    0    0  0.67423456121E+02  0.75552065504E+01  0.83658695232E+02  0.10771156330E+03  0.00000000000E+00 0. -1.
         11    1    1    2    0    0  0.31866818108E+02  0.23803957030E+02 -0.98529916184E+02  0.10625566738E+03  0.00000000000E+00 0.  1.
</event>
<event>
 6    1  0.1538147E-010  0.1450691E+03  0.7561462E-02  0.1206666E+00
          1   -1    0    0  501    0  0.00000000000E+00  0.00000000000E+00  0.81137038135E+03  0.81137038135E+03  0.00000000000E+00 0. -1.
         -1   -1    0    0    0  501 -0.00000000000E+00 -0.00000000000E+00 -0.30312090102E+02  0.30312090102E+02  0.00000000000E+00 0.  1.
          5    1    1    2  502    0 -0.79826292965E+02 -0.16110021949E+01  0.33825865510E+03  0.34757908816E+03  0.41800000000E+01 0. -1.
         -5    1    1    2    0  502  0.61425580157E+01 -0.77306574985E+02  0.16811641396E+03  0.18518811678E+03  0.41800000000E+01 0. -1.
        -11    1    1    2    0    0  0.30213972725E+02  0.83513990252E+02  0.22932829688E+03  0.24592466014E+03  0.00000000000E+00 0. -1.
         11    1    1    2    0    0  0.43469762224E+02 -0.45964130722E+01  0.45354925312E+02  0.62990606371E+02  0.00000000000E+00 0.  1.
</event>
<event>
 6    1  0.1538147E-010  0.1105796E+03  0.7561462E-02  0.1259500E+00
          2   -1    0    0  501    0  0.00000000000E+00  0.00000000000E+00  0.17699159459E+03  0.17699159459E+03  0.00000000000E+00 0. -1.
         -2   -1    0    0    0  501 -0.00000000000E+00 -0.00000000000E+00 -0.86587150967E+02  0.86587150967E+02  0.00000000000E+00 0.  1.
          5    1    1    2  502    0 -0.66514680151E+02 -0.85094538690E+01  0.26667056042E+02  0.72285667727E+02  0.41800000000E+01 0.  1.
         -5    1    1    2    0  502  0.39398484577E+02  0.54325185261E+02  0.49220702260E+02  0.83328364148E+02  0.41800000000E+01 0.  1.
        -11    1    1    2    0    0  0.25496307128E+02  0.12500348381E+02 -0.24728683270E+02  0.37654059051E+02  0.00000000000E+00 0.  1.
         11    1    1    2    0    0  0.16198884463E+01 -0.58316079773E+02  0.39245368587E+02  0.70310654628E+02  0.00000000000E+00 0. -1.
</event>
<event>
 6    1  0.1538147E-010  0.1581710E+03  0.7561462E-02  0.1190777E+00
         -2   -1    0    0    0  501 -0.00000000000E+00  0.00000000000E+00  0.62483775703E+03  0.62483775703E+03  0.00000000000E+00 0.  1.
          2   -1    0    0  501    0  0.00000000000E+00 -0.00000000000E+00 -0.48789035547E+02  0.48789035547E+02  0.00000000000E+00 0. -1.
          5    1    1    2  502    0 -0.12287176611E+03 -0.37429297343E+02  0.29487348420E+03  0.32166172805E+03  0.41800000000E+01 0. -1.
         -5    1    1    2    0  502  0.22821089821E+02 -0.45750306956E+02  0.96330941970E+02  0.10913759897E+03  0.41800000000E+01 0. -1.
        -11    1    1    2    0    0  0.25885477120E+02  0.11018580721E+01  0.10031455992E+03  0.10360638469E+03  0.00000000000E+00 0.  1.
         11    1    1    2    0    0  0.74165199173E+02  0.82077746227E+02  0.84529735404E+02  0.13922108088E+03  0.00000000000E+00 0. -1.
</event>
<event>
 7    1  0.1538147E-010  0.1292750E+03  0.7561462E-02  0.1228535E+00
          3   -1    0    0  501    0  0.00000000000E+00  0.00000000000E+00  0.14223520000E+04  0.14223520000E+04  0.00000000000E+00 0. -1.
         -3   -1    0    0    0  501 -0.00000000000E+00 -0.00000000000E+00 -0.16273049061E+02  0.16273049061E+02  0.00000000000E+00 0.  1.
         25    2    1    2    0    0 -0.34148012413E+02  0.99706735258E+02  0.82402764343E+03  0.84010120878E+03  0.12506383993E+03 0.  0.
          5    1    3    3  502    0 -0.44899293973E+02  0.40003857028E+02  0.12867578032E+03  0.14209568613E+03  0.41800000000E+01 0.  1.
         -5    1    3    3    0  502  0.10751281560E+02  0.59702878230E+02  0.69535186311E+03  0.69800552266E+03  0.41800000000E+01 0.  1.
        -11    1    1    2    0    0  0.64257572662E+02 -0.63034438783E+02  0.33061089146E+03  0.34264549854E+03  0.00000000000E+00 0.  1.
         11    1    1    2    0    0 -0.30109560249E+02 -0.36672296475E+02  0.25144041603E+03  0.25587834172E+03  0.00000000000E+00 0. -1.
</event>
<event>
 7    1  0.1538147E-010  0.1173020E+03  0.7561462E-02  0.1247615E+00
         -2   -1    0    0    0  501 -0.00000000000E+00  0.00000000000E+00  0.19037155458E+03  0.19037155458E+03  0.00000000000E+00 0.  1.
          2   -1    0    0  501    0  0.00000000000E+00 -0.00000000000E+00 -0.10397860532E+03  0.10397860532E+03  0.00000000000E+00 0. -1.
         25    2    1    2    0    0  0.53756761759E+02 -0.66826088780E+02  0.19661082442E+02  0.15289741203E+03  0.12504217235E+03 0.  0.
          5    1    3    3  502    0  0.31578118713E+02 -0.92830465318E+02 -0.20224184426E+02  0.10020560318E+03  0.41800000000E+01 0. -1.
         -5    1    3    3    0  502  0.22178643046E+02  0.26004376539E+02  0.39885266868E+02  0.52691808848E+02  0.41800000000E+01 0. -1.
        -11    1    1    2    0    0 -0.65426729362E+02  0.56566314193E+02  0.15437248562E+02  0.87856208998E+02  0.00000000000E+00 0. -1.
         11    1    1    2    0    0  0.11669967603E+02  0.10259774586E+02  0.51294618251E+02  0.53596538881E+02  0.00000000000E+00 0.  1.
</event>
<event>
 7    1  0.1538147E-010  0.9411998E+02  0.7561462E-02  0.1293170E+00
         -1   -1    0    0    0  501 -0.00000000000E+00  0.00000000000E+00  0.21638449915E+03  0.21638449915E+03  0.00000000000E+00 0.  1.
          1   -1    0    0  501    0  0.00000000000E+00 -0.00000000000E+00 -0.69634152393E+02  0.69634152393E+02  0.00000000000E+00 0. -1.
         25    2    1    2    0    0  0.12501427412E+02  0.44549591161E+02  0.42720938227E+02  0.14001828044E+03  0.12505634144E+03 0.  0.
          5    1    3    3  502    0  0.38166973350E+02 -0.16407265913E+02 -0.22163569868E+02  0.47271687707E+02  0.41800000000E+01 0. -1.
         -5    1    3    3    0  502 -0.25665545937E+02  0.60956857073E+02  0.64884508096E+02  0.92746592732E+02  0.41800000000E+01 0. -1.
        -11    1    1    2    0    0  0.14475904500E+02 -0.50546551529E+02  0.10596960346E+03  0.11829650265E+03  0.00000000000E+00 0.  1.
         11    1    1    2    0    0 -0.26977331912E+02  0.59969603680E+01 -0.19401949305E+01  0.27703868451E+02  0.00000000000E+00 0. -1.
</event>
<event>
 7    1  0.1538147E-010  0.1587040E+03  0.7561462E-02  0.1190168E+00
          1   -1    0    0  501    0  0.00000000000E+00  0.00000000000E+00  0.36355729305E+02  0.36355729305E+02  0.00000000000E+00 0. -1.
         -1   -1    0    0    0  501 -0.00000000000E+00 -0.00000000000E+00 -0.10590178501E+04  0.10590178501E+04  0.00000000000E+00 0.  1.
         25    2    1    2    0    0  0.15425940787E+03 -0.14119721389E+02 -0.38836519781E+03  0.43643975114E+03  0.12512712761E+03 0.  0.
          5    1    3    3  502    0  0.41950910231E+02 -0.20953296158E+02 -0.19822809316E+02  0.51081656769E+02  0.41800000000E+01 0. -1.
         -5    1    3    3    0  502  0.11230849764E+03  0.68335747692E+01 -0.36854238849E+03  0.38535809437E+03  0.41800000000E+01 0. -1.
        -11    1    1    2    0    0 -0.12854435908E+03  0.22889072193E+02 -0.60520109298E+03  0.61912512857E+03  0.00000000000E+00 0.  1.
         11    1    1    2    0    0 -0.25715048788E+02 -0.87693508047E+01 -0.29095830023E+02  0.39808699708E+02  0.00000000000E+00 0. -1.
</event>
<event>
 7    1  0.1538147E-010  0.1985966E+03  0.7561462E-02  0.1150928E+00
          1   -1    0    0  501    0  0.00000000000E+00  0.00000000000E+00  0.18203925582E+03  0.18203925582E+03  0.00000000000E+00 0. -1.
         -1   -1    0    0    0  501 -0.00000000000E+00 -0.00000000000E+00 -0.23326481989E+03  0.23326481989E+03  0.00000000000E+00 0.  1.
         25    2    1    2    0    0  0.13686759515E+03 -0.10017675626E+03  0.14264361208E+02  0.21125069938E+03  0.12512100101E+03 0.  0.
          5    1    3    3  502    0  0.15797190287E+03 -0.97869931508E+02  0.10212729627E+01  0.18588211584E+03  0.41800000000E+01 0. -1.
         -5    1    3    3    0  502 -0.21104307721E+02 -0.23068247493E+01  0.13243088245E+02  0.25368583545E+02  0.41800000000E+01 0. -1.
        -11    1    1    2    0    0  0.10381020186E+02  0.18702123660E+02  0.43887296861E+01  0.21835657942E+02  0.00000000000E+00 0. -1.
         11    1    1    2    0    0 -0.14724861533E+03  0.81474632597E+02 -0.69878654969E+02  0.18221771839E+03  0.00000000000E+00 0.  1.
</event>
<event>
 7    1  0.1538147E-010  0.1404980E+03  0.7561462E-02  0.1212660E+00
          2   -1    0    0  501    0  0.00000000000E+00  0.00000000000E+00  0.23624762904E+03  0.23624762904E+03  0.00000000000E+00 0. -1.
         -2   -1    0    0    0  501 -0.00000000000E+00 -0.00000000000E+00 -0.10794584574E+03  0.10794584574E+03  0.00000000000E+00 0.  1.
         25    2    1    2    0    0 -0.77219796105E+02 -0.77311377441E+02  0.11335051367E+03  0.20110900079E+03  0.12512611741E+03 0.  0.
          5    1    3    3  502    0 -0.93021696390E+02 -0.41420039886E+02  0.12375979793E+03  0.16032035332E+03  0.41800000000E+01 0.  1.
         -5    1    3    3    0  502  0.15801900285E+02 -0.35891337555E+02 -0.10409284257E+02  0.40788647475E+02  0.41800000000E+01 0.  1.
        -11    1    1    2    0    0  0.13548382202E+02  0.74702044556E+02  0.21810638394E+02  0.78991506305E+02  0.00000000000E+00 0. -1.
         11    1    1    2    0    0  0.63671413903E+02  0.26093328850E+01 -0.68593687671E+01  0.64092967683E+02  0.00000000000E+00 0.  1.
</event>
<event>
 7    1  0.1538147E-010  0.7896648E+02  0.7561462E-02  0.1332010E+00
          1   -1    0    0  501    0  0.00000000000E+00  0.00000000000E+00  0.56935046061E+02  0.56935046061E+02  0.00000000000E+00 0. -1.
         -1   -1    0    0    0  501 -0.00000000000E+00 -0.00000000000E+00 -0.26559043880E+03  0.26559043880E+03  0.00000000000E+00 0.  1.
         25    2    1    2    0    0 -0.75514279785E+01 -0.44527861636E+02 -0.12721416087E+03  0.18401829631E+03  0.12505813098E+03 0.  0.
          5    1    3    3  502    0 -0.40126766540E+02 -0.33283365399E+02 -0.15402436776E+00  0.52301395094E+02  0.41800000000E+01 0. -1.
         -5    1    3    3    0  502  0.32575338562E+02 -0.11244496237E+02 -0.12706013651E+03  0.13171690122E+03  0.41800000000E+01 0. -1.
        -11    1    1    2    0    0  0.31016931766E+02  0.30900281596E+02  0.84668917211E+01  0.44593337106E+02  0.00000000000E+00 0. -1.
         11    1    1    2    0    0 -0.23465503787E+02  0.13627580040E+02 -0.89908123586E+02  0.93913851441E+02  0.00000000000E+00 0.  1.
</event>
<event>
 7    1  0.1538147E-010  0.9296264E+02  0.7561462E-02  0.1295832E+00
         -1   -1    0    0    0  501 -0.00000000000E+00  0.00000000000E+00  0.11712648363E+02  0.11712648363E+02  0.00000000000E+00 0.  1.
          1   -1    0    0  501    0  0.00000000000E+00 -0.00000000000E+00 -0.10877774750E+04  0.10877774750E+04  0.00000000000E+00 0. -1.
         25    2    1    2    0    0 -0.18397846400E+02 -0.15459293586E+02 -0.71490266054E+03  0.72616562010E+03  0.12511284207E+03 0.  0.
          5    1    3    3  502    0 -0.49911704471E+02  0.10242432711E+02 -0.62854645399E+03  0.63062207612E+03  0.41800000000E+01 0.  1.
         -5    1    3    3    0  502  0.31513858071E+02 -0.25701726297E+02 -0.86356206556E+02  0.95543543978E+02  0.41800000000E+01 0.  1.
        -11    1    1    2    0    0  0.54135999710E+02  0.20383954017E+02 -0.24222454165E+03  0.24903602274E+03  0.00000000000E+00 0.  1.
         11    1    1    2    0    0 -0.35738153310E+02 -0.49246604307E+01 -0.11893762449E+03  0.12428848057E+03  0.00000000000E+00 0. -1.
</event>
<event>
 7    1  0.1538147E-010  0.1115968E+03  0.7561462E-02  0.1257641E+00
         -2   -1    0    0    0  501 -0.00000000000E+00  0.00000000000E+00  0.51735389270E+02  0.51735389270E+02  0.00000000000E+00 0.  1.
          2   -1    0    0  501    0  0.00000000000E+00 -0.00000000000E+00 -0.50665951506E+03  0.50665951506E+03  0.00000000000E+00 0. -1.
         25    2    1    2    0    0  0.46859625353E+02  0.22682641353E+02 -0.41784376971E+03  0.43925392426E+03  0.12506105463E+03 0.  0.
          5    1    3    3  502    0 -0.10347853269E+02  0.46699159769E+02 -0.64113826193E+02  0.80099592381E+02  0.41800000000E+01 0.  1.
         -5    1    3    3    0  502  0.57207478622E+02 -0.24016518416E+02 -0.35372994352E+03  0.35915433188E+03  0.41800000000E+01 0.  1.
        -11    1    1    2    0    0  0.13402186204E+01 -0.54965825895E+02 -0.21832800768E+02  0.59158341691E+02  0.00000000000E+00 0. -1.
         11    1    1    2    0    0 -0.48199843974E+02  0.32283184542E+02 -0.15247555303E+02  0.59982638371E+02  0.00000000000E+00 0.  1.
</event>
<event>
 7    1  0.2343947E-010  0.1060260E+03  0.7561462E-02  0.1268111E+00
          2   -1    0    0  501    0  0.00000000000E+00  0.00000000000E+00  0.11444250836E+03  0.11444250836E+03  0.00000000000E+00 0. -1.
         -2   -1    0    0    0  501 -0.00000000000E+00 -0.00000000000E+00 -0.12418430295E+03  0.12418430295E+03  0.00000000000E+00 0.  1.
         25    2    1    2    0    0  0.35240780742E+02 -0.26792204112E+02 -0.24745390795E+02  0.13495854344E+03  0.12506693909E+03 0.  0.
          5    1    3    3  502    0 -0.25196324055E+02  0.29092499808E+02 -0.34636735351E+02  0.51946165659E+02  0.41800000000E+01 0. -1.
         -5    1    3    3    0  502  0.60437104797E+02 -0.55884703920E+02  0.98913445551E+01  0.83012377785E+02  0.41800000000E+01 0. -1.
        -11    1    1    2    0    0 -0.38839546041E+02 -0.20206662692E+02 -0.16703836090E+02  0.46859766260E+02  0.00000000000E+00 0.  1.
         11    1    1    2    0    0  0.35987652988E+01  0.46998866804E+02  0.31707432288E+02  0.56808501607E+02  0.00000000000E+00 0. -1.
</event>
<event>
 6    1  0.1538147E-010  0.1645107E+03  0.7561462E-02  0.1183696E+00
          1   -1    0    0  501    0  0.00000000000E+00  0.00000000000E+00  0.22525263827E+04  0.22525263827E+04  0.00000000000E+00 0. -1.
         -1   -1    0    0    0  501 -0.00000000000E+00 -0.00000000000E+00 -0.23906279141E+02  0.23906279141E+02  0.00000000000E+00 0.  1.
          5    1    1    2  502    0  0.78960165938E+02  0.27129961659E+02  0.90586900498E+03  0.90971801632E+03  0.41800000000E+01 0. -1.
         -5    1    1    2    0  502  0.35312372855E+02 -0.90496694566E+02  0.10349643338E+04  0.10395216496E+04  0.41800000000E+01 0. -1.
        -11    1    1    2    0    0 -0.83391482645E+02  0.67018919189E+01  0.11100416112E+03  0.13899992273E+03  0.00000000000E+00 0.  1.
         11    1    1    2    0    0 -0.30881056149E+02  0.56664840988E+02  0.17678260370E+03  0.18819307321E+03  0.00000000000E+00 0. -1.
</event>
<event>
 7    1  0.1538147E-010  0.1046320E+03  0.7561462E-02  0.1270846E+00
         -2   -1    0    0    0  501 -0.00000000000E+00  0.00000000000E+00  0.65260685296E+02  0.65260685296E+02  0.00000000000E+00 0.  1.
          2   -1    0    0  501    0  0.00000000000E+00 -0.00000000000E+00 -0.21689199226E+03  0.21689199226E+03  0.00000000000E+00 0. -1.
         25    2    1    2    0    0 -0.21200173116E+02  0.37010653514E+02 -0.57758016900E+02  0.14425979856E+03  0.12512260048E+03 0.  0.
          5    1    3    3  502    0 -0.70545955471E+01  0.71155972343E+02 -0.74608781730E+02  0.10342573388E+03  0.41800000000E+01 0. -1.
         -5    1    3    3    0  502 -0.14145577569E+02 -0.34145318829E+02  0.16850764830E+02  0.40834064677E+02  0.41800000000E+01 0. -1.
        -11    1    1    2    0    0  0.52006335791E+02 -0.44827351135E+02 -0.57203057234E+02  0.89366325476E+02  0.00000000000E+00 0. -1.
         11    1    1    2    0    0 -0.30806162675E+02  0.78166976212E+01 -0.36670232828E+02  0.48526553516E+02  0.00000000000E+00 0.  1.
</event>
<event>
 6    1  0.1538147E-010  0.1066430E+03  0.7561462E-02  0.1266916E+00
         -1   -1    0    0    0  501 -0.00000000000E+00  0.00000000000E+00  0.77801319545E+02  0.77801319545E+02  0.00000000000E+00 0.  1.
          1   -1    0    0  501    0  0.00000000000E+00 -0.00000000000E+00 -0.33192187240E+03  0.33192187240E+03  0.00000000000E+00 0. -1.
          5    1    1    2  502    0 -0.89402646160E+01 -0.36718794810E+02 -0.13440618357E+03  0.13968068158E+03  0.41800000000E+01 0.  1.
         -5    1    1    2    0  502 -0.21663347163E+02  0.88501273013E+02 -0.13073511184E+03  0.15940802302E+03  0.41800000000E+01 0.  1.
        -11    1    1    2    0    0  0.48099470197E+02 -0.42811510319E+02  0.39859557917E+02  0.75730897303E+02  0.00000000000E+00 0.  1.
         11    1    1    2    0    0 -0.17495858418E+02 -0.89709678839E+01 -0.28838815355E+02  0.34903590040E+02  0.00000000000E+00 0. -1.
</event>
<event>
 6    1  0.1538147E-010  0.1055855E+03  0.7561462E-02  0.1268970E+00
          1   -1    0    0  501    0  0.00000000000E+00  0.00000000000E+00  0.35097831544E+03  0.35097831544E+03  0.00000000000E+00 0. -1.
         -1   -1    0    0    0  501 -0.00000000000E+00 -0.00000000000E+00 -0.54868493053E+02  0.54868493053E+02  0.00000000000E+00 0.  1.
          5    1    1    2  502    0  0.65701563216E+02 -0.13795285119E+02  0.31974205734E+02  0.74477026880E+02  0.41800000000E+01 0.  1.
         -5    1    1    2    0  502 -0.55266465925E+02 -0.45425712099E+02  0.38799099571E+02  0.81490613589E+02  0.41800000000E+01 0.  1.
        -11    1    1    2    0    0 -0.21356082094E+02  0.57308412277E+02  0.22989545133E+03  0.23789126697E+03  0.00000000000E+00 0. -1.
         11    1    1    2    0    0  0.10920984803E+02  0.19125849412E+01 -0.45589342448E+01  0.11987901054E+02  0.00000000000E+00 0.  1.
</event>
<event>
 7    1  0.1538147E-010  0.8017718E+02  0.7561462E-02  0.1328549E+00
         -3   -1    0    0    0  501 -0.00000000000E+00  0.00000000000E+00  0.95723033674E+02  0.95723033674E+02  0.00000000000E+00 0.  1.
          3   -1    0    0  501    0  0.00000000000E+00 -0.00000000000E+00 -0.14509184043E+03  0.14509184043E+03  0.00000000000E+00 0. -1.
         25    2    1    2    0    0  0.45334184202E+02  0.22707129326E+02 -0.55516641610E+02  0.14591998448E+03  0.12505895568E+03 0.  0.
          5    1    3    3  502    0  0.16129339522E+02 -0.35015947290E+02 -0.69515724528E+02  0.79600128861E+02  0.41800000000E+01 0.  1.
         -5    1    3    3    0  502  0.29204844680E+02  0.57723076616E+02  0.13999082918E+02  0.66319855619E+02  0.41800000000E+01 0.  1.
        -11    1    1    2    0    0 -0.22470327520E+02 -0.25186074194E+02  0.41020347126E+02  0.53121773601E+02  0.00000000000E+00 0.  1.
         11    1    1    2    0    0 -0.22863856682E+02  0.24789448685E+01 -0.34872512268E+02  0.41773116019E+02  0.00000000000E+00 0. -1.
</event>
<event>
 7    1  0.1538147E-010  0.9749940E+02  0.7561462E-02  0.1285644E+00
          1   -1    0    0  501    0  0.00000000000E+00  0.00000000000E+00  0.91135913580E+02  0.91135913580E+02  0.00000000000E+00 0. -1.
         -1   -1    0    0    0  501 -0.00000000000E+00 -0.00000000000E+00 -0.19844460709E+03  0.19844460709E+03  0.00000000000E+00 0.  1.
         25    2    1    2    0    0  0.20601384150E+01  0.66034017287E+02 -0.11471604384E+03  0.18215634241E+03  0.12512564388E+03 0.  0.
          5    1    3    3  502    0 -0.32034037624E+02  0.42786711548E+01 -0.10607100417E+03  0.11096403435E+03  0.41800000000E+01 0. -1.
         -5    1    3    3    0  502  0.34094176039E+02  0.61755346132E+02 -0.86450396697E+01  0.71192308057E+02  0.41800000000E+01 0. -1.
        -11    1    1    2    0    0  0.15593426012E+02 -0.71566371441E+02  0.29188102298E+02  0.78846976935E+02  0.00000000000E+00 0. -1.
         11    1    1    2    0    0 -0.17653564427E+02  0.55323541540E+01 -0.21780751968E+02  0.28577201328E+02  0.00000000000E+00 0.  1.
</event>
<event>
 7    1  0.1538147E-010  0.1066255E+03  0.7561462E-02  0.1266950E+00
          1   -1    0    0  501    0  0.00000000000E+00  0.00000000000E+00  0.62375771102E+03  0.62375771102E+03  0.00000000000E+00 0. -1.
         -1   -1    0    0    0  501 -0.00000000000E+00 -0.00000000000E+00 -0.20619464591E+02  0.20619464591E+02  0.00000000000E+00 0.  1.
         25    2    1    2    0    0 -0.85614296163E+01  0.10024949108E+01  0.42283030912E+03  0.44103767943E+03  0.12511778968E+03 0.  0.
          5    1    3    3  502    0 -0.39693253042E+02  0.50850738699E+02  0.25863019679E+03  0.26658657703E+03  0.41800000000E+01 0. -1.
         -5    1    3    3    0  502  0.31131823426E+02 -0.49848243788E+02  0.16420011233E+03  0.17445110239E+03  0.41800000000E+01 0. -1.
        -11    1    1    2    0    0 -0.15711657382E+02 -0.40436681313E+02  0.57052037471E+02  0.71672284412E+02  0.00000000000E+00 0.  1.
         11    1    1    2    0    0  0.24273086999E+02  0.39434186402E+02  0.12325589985E+03  0.13166721177E+03  0.00000000000E+00 0. -1.
</event>
<event>
 7    1  0.1538147E-010  0.2066726E+03  0.7561462E-02  0.1144228E+00
         -1   -1    0    0    0  501 -0.00000000000E+00  0.00000000000E+00  0.31505015963E+03  0.31505015963E+03  0.00000000000E+00 0.  1.
          1   -1    0    0  501    0  0.00000000000E+00 -0.00000000000E+00 -0.16892784949E+03  0.16892784949E+03  0.00000000000E+00 0. -1.
         25    2    1    2    0    0 -0.19218877653E+03  0.13461402480E+02  0.74458873009E+01  0.22980134092E+03  0.12504191245E+03 0.  0.
          5    1    3    3  502    0 -0.18992604016E+03 -0.70446320849E+00 -0.27350861166E+02  0.19193212082E+03  0.41800000000E+01 0.  1.
         -5    1    3    3    0  502 -0.22627363720E+01  0.14165865688E+02  0.34796748467E+02  0.37869220093E+02  0.41800000000E+01 0.  1.
        -11    1    1    2    0    0  0.17242908303E+03  0.15767454774E+02  0.13323878771E+03  0.21847877668E+03  0.00000000000E+00 0.  1.
         11    1    1    2    0    0  0.19759693494E+02 -0.29228857253E+02  0.54376351250E+01  0.35697891522E+02  0.00000000000E+00 0. -1.
</event>
<event>
 6    1  0.1538147E-010  0.8770466E+02  0.7561462E-02  0.1308507E+00
          2   -1    0    0  501    0  0.00000000000E+00  0.00000000000E+00  0.69278464091E+03  0.69278464091E+03  0.00000000000E+00 0. -1.
         -2   -1    0    0    0  501 -0.00000000000E+00 -0.00000000000E+00 -0.20412022708E+02  0.20412022708E+02  0.00000000000E+00 0.  1.
          5    1    1    2  502    0 -0.60494344566E+02  0.61300277372E+00  0.18418013496E+03  0.19390651358E+03  0.41800000000E+01 0. -1.
         -5    1    1    2    0  502  0.57946721179E+02 -0.99438038711E+01  0.33911996866E+03  0.34420419415E+03  0.41800000000E+01 0. -1.
        -11    1    1    2    0    0  0.22604658507E+02  0.22450216041E+02  0.91796425211E+01  0.33154918539E+02  0.00000000000E+00 0.  1.
         11    1    1    2    0    0 -0.20057035120E+02 -0.13119414944E+02  0.13989287207E+03  0.14193103735E+03  0.00000000000E+00 0. -1.
</event>
<event>
 7    1  0.2363074E-010  0.1773395E+03  0.7561462E-02  0.1170403E+00
          2   -1    0    0  501    0  0.00000000000E+00  0.00000000000E+00  0.11394843467E+04  0.11394843467E+04  0.00000000000E+00 0.  1.
         -2   -1    0    0    0  501 -0.00000000000E+00 -0.00000000000E+00 -0.40148806452E+02  0.40148806452E+02  0.00000000000E+00 0. -1.
         25    2    1    2    0    0 -0.64775481818E+02  0.16194806837E+03  0.73693139809E+03  0.76754972317E+03  0.12506659088E+03 0.  0.
          5    1    3    3  502    0 -0.44865078340E+02  0.54573448257E+02  0.51847298263E+03  0.52328084489E+03  0.41800000000E+01 0. -1.
         -5    1    3    3    0  502 -0.19910403479E+02  0.10737462012E+03  0.21845841545E+03  0.24426887828E+03  0.41800000000E+01 0. -1.
        -11    1    1    2    0    0  0.46439839887E+02 -0.10543569848E+03  0.31706355721E+03  0.33734647553E+03  0.00000000000E+00 0.  1.
         11    1    1    2    0    0  0.18335641932E+02 -0.56512369889E+02  0.45340584922E+02  0.74736954425E+02  0.00000000000E+00 0. -1.
</event>
<event>
 7    1  0.1538147E-010  0.1096051E+03  0.7561462E-02  0.1261303E+00
          2   -1    0    0  501    0  0.00000000000E+00  0.00000000000E+00  0.16380335215E+04  0.16380335215E+04  0.00000000000E+00 0. -1.
         -2   -1    0    0    0  501 -0.00000000000E+00 -0.00000000000E+00 -0.11316992091E+02  0.11316992091E+02  0.00000000000E+00 0.  1.
         25    2    1    2    0    0  0.55575194300E+02  0.58967025795E+02  0.98823879133E+03  0.99941158833E+03  0.12506758911E+03 0.  0.
          5    1    3    3  502    0  0.16327504308E+02  0.55819748667E+02  0.16113187902E+03  0.17135748182E+03  0.41800000000E+01 0. -1.
         -5    1    3    3    0  502  0.39247689991E+02  0.31472771288E+01  0.82710691230E+03  0.82805410650E+03  0.41800000000E+01 0. -1.
        -11    1    1    2    0    0 -0.67687426048E+02 -0.71168206480E+01  0.33904555674E+03  0.34580937860E+03  0.00000000000E+00 0.  1.
         11    1    1    2    0    0  0.12112231749E+02 -0.51850205147E+02  0.29943218139E+03  0.30412954671E+03  0.00000000000E+00 0. -1.
</event>
<event>
 6    1  0.1538147E-010  0.1070265E+03  0.7561462E-02  0.1266177E+00
         -2   -1    0    0    0  501 -0.00000000000E+00  0.00000000000E+00  0.14671814506E+02  0.14671814506E+02  0.00000000000E+00 0.  1.
          2   -1    0    0  501    0  0.00000000000E+00 -0.00000000000E+00 -0.80679019717E+03  0.80679019717E+03  0.00000000000E+00 0. -1.
          5    1    1    2  502    0  0.63933064090E+01 -0.55627754377E+02 -0.24427391139E+03  0.25064424512E+03  0.41800000000E+01 0.  1.
         -5    1    1    2    0  502 -0.60202643171E+01  0.68648813895E+02 -0.24982538126E+03  0.25918930679E+03  0.41800000000E+01 0.  1.
        -11    1    1    2    0    0 -0.14212498042E+02 -0.48628063991E+02 -0.20278808952E+03  0.20902079552E+03  0.00000000000E+00 0. -1.
         11    1    1    2    0    0  0.13839455950E+02  0.35607004472E+02 -0.95231000496E+02  0.10260766426E+03  0.00000000000E+00 0.  1.
</event>
<event>
 7    1  0.1538147E-010  0.1581441E+03  0.7561462E-02  0.1190808E+00
          1   -1    0    0  501    0  0.00000000000E+00  0.00000000000E+00  0.16333322470E+04  0.16333322470E+04  0.00000000000E+00 0. -1.
         -1   -1    0    0    0  501 -0.00000000000E+00 -0.00000000000E+00 -0.26875815368E+02  0.26875815368E+02  0.00000000000E+00 0.  1.
         25    2    1    2    0    0  0.51914515063E+02 -0.13527578646E+03  0.12562789380E+04  0.12707760611E+04  0.12506147357E+03 0.  0.
          5    1    3    3  502    0  0.23614234980E+02 -0.12232369271E+03  0.11989274294E+04  0.12053900495E+04  0.41800000000E+01 0.  1.
         -5    1    3    3    0  502  0.28300280083E+02 -0.12952093751E+02  0.57351508549E+02  0.65386011640E+02  0.41800000000E+01 0.  1.
        -11    1    1    2    0    0 -0.49115837529E+02  0.35947358629E+02  0.20239484490E+03  0.21134864876E+03  0.00000000000E+00 0. -1.
         11    1    1    2    0    0 -0.27986775344E+01  0.99328427827E+02  0.14778264875E+03  0.17808335251E+03  0.00000000000E+00 0.  1.
</event>
<event>
 6    1  0.1538147E-010  0.1208010E+03  0.7561462E-02  0.1241781E+00
         -2   -1    0    0    0  501 -0.00000000000E+00  0.00000000000E+00  0.24352404988E+02  0.24352404988E+02  0.00000000000E+00 0.  1.
          2   -1    0    0  501    0  0.00000000000E+00 -0.00000000000E+00 -0.61741407376E+03  0.61741407376E+03  0.00000000000E+00 0. -1.
          5    1    1    2  502    0 -0.45716970593E+02  0.46941318352E+02 -0.16042205114E+03  0.17333850023E+03  0.41800000000E+01 0.  1.
         -5    1    1    2    0  502  0.72241968453E+02  0.47865050650E+01 -0.17734923808E+03  0.19160385509E+03  0.41800000000E+01 0.  1.
        -11    1    1    2    0    0  0.28128129953E+02  0.63352031769E-01 -0.10534818194E+03  0.10903868646E+03  0.00000000000E+00 0. -1.
         11    1    1    2    0    0 -0.54653127813E+02 -0.51791175449E+02 -0.14994219761E+03  0.16778543697E+03  0.00000000000E+00 0.  1.
</event>
<event>
 7    1  0.1538147E-010  0.9531691E+02  0.7561462E-02  0.1290464E+00
          1   -1    0    0  501    0  0.00000000000E+00  0.00000000000E+00  0.91475060925E+03  0.91475060925E+03  0.00000000000E+00 0. -1.
         -1   -1    0    0    0  501 -0.00000000000E+00 -0.00000000000E+00 -0.15982495022E+02  0.15982495022E+02  0.00000000000E+00 0.  1.
         25    2    1    2    0    0 -0.41884136759E+02  0.23689981476E+02  0.55789075253E+03  0.57377073237E+03  0.12512100318E+03 0.  0.
          5    1    3    3  502    0 -0.55302470511E+02 -0.16544542063E+02  0.11410616052E+03  0.12794441522E+03  0.41800000000E+01 0.  1.
         -5    1    3    3    0  502  0.13418333752E+02  0.40234523539E+02  0.44378459200E+03  0.44582631715E+03  0.41800000000E+01 0.  1.
        -11    1    1    2    0    0  0.31358412347E+02  0.25137930041E+02  0.63690649594E+02  0.75311117355E+02  0.00000000000E+00 0.  1.
         11    1    1    2    0    0  0.10525724412E+02 -0.48827911517E+02  0.27718671210E+03  0.28165125454E+03  0.00000000000E+00 0. -1.
</event>
<event>
 6    1  0.1538147E-010  0.1053840E+03  0.7561462E-02  0.1269365E+00
         -1   -1    0    0    0  501 -0.00000000000E+00  0.00000000000E+00  0.39877069693E+02  0.39877069693E+02  0.00000000000E+00 0.  1.
          1   -1    0    0  501    0  0.00000000000E+00 -0.00000000000E+00 -0.38968798419E+03  0.38968798419E+03  0.00000000000E+00 0. -1.
          5    1    1    2  502    0  0.29718823561E+02 -0.48432651075E+02 -0.15010672111E+02  0.58921327558E+02  0.41800000000E+01 0. -1.
         -5    1    1    2    0  502 -0.56426961485E+02  0.12446811437E+02 -0.10666800957E+03  0.12138559125E+03  0.41800000000E+01 0. -1.
        -11    1    1    2    0    0  0.51210554046E+02  0.46520016946E+02 -0.19382868372E+03  0.20580619878E+03  0.00000000000E+00 0.  1.
         11    1    1    2    0    0 -0.24502416122E+02 -0.10534177308E+02 -0.34303549089E+02  0.43451936292E+02  0.00000000000E+00 0. -1.
</event>
<event>
 7    1  0.1538147E-010  0.9095722E+02  0.7561462E-02  0.1300550E+00
         -1   -1    0    0    0  501 -0.00000000000E+00  0.00000000000E+00  0.32950851777E+02  0.32950851777E+02  0.00000000000E+00 0.  1.
          1   -1    0    0  501    0  0.00000000000E+00 -0.00000000000E+00 -0.37507590094E+03  0.37507590094E+03  0.00000000000E+00 0. -1.
         25    2    1    2    0    0  0.56597283368E+01 -0.42583743586E+01 -0.24542709171E+03  0.27558035718E+03  0.12513956065E+03 0.  0.
          5    1    3    3  502    0 -0.53398499327E+02  0.30799919241E+01 -0.17623249806E+03  0.18421794661E+03  0.41800000000E+01 0. -1.
         -5    1    3    3    0  502  0.59058227664E+02 -0.73383662826E+01 -0.69194593651E+02  0.91362410569E+02  0.41800000000E+01 0. -1.
        -11    1    1    2    0    0  0.16124769794E+02 -0.26436159954E+02 -0.25704099944E+01  0.31072266759E+02  0.00000000000E+00 0.  1.
         11    1    1    2    0    0 -0.21784498130E+02  0.30694534313E+02 -0.94127547463E+02  0.10137412878E+03  0.00000000000E+00 0. -1.
</event>
<event>
 7    1  0.1538147E-010  0.1228787E+03  0.7561462E-02  0.1238422E+00
         -2   -1    0    0    0  501 -0.00000000000E+00  0.00000000000E+00  0.52817664594E+02  0.52817664594E+02  0.00000000000E+00 0.  1.
          2   -1    0    0  501    0  0.00000000000E+00 -0.00000000000E+00 -0.36264198556E+03  0.36264198556E+03  0.00000000000E+00 0. -1.
         25    2    1    2    0    0  0.76967607795E+02  0.15621839061E+02 -0.11745170696E+03  0.18873233608E+03  0.12512768163E+03 0.  0.
          5    1    3    3  502    0  0.28179522980E+02 -0.42078064259E+02 -0.98319057757E+02  0.11067410955E+03  0.41800000000E+01 0.  1.
         -5    1    3    3    0  502  0.48788084814E+02  0.57699903320E+02 -0.19132649204E+02  0.78058226527E+02  0.41800000000E+01 0.  1.
        -11    1    1    2    0    0 -0.15124259761E+02 -0.47386502338E+02 -0.92707904937E+02  0.10520921763E+03  0.00000000000E+00 0.  1.
         11    1    1    2    0    0 -0.61843348034E+02  0.31764663277E+02 -0.99664709073E+02  0.12151809645E+03  0.00000000000E+00 0. -1.
</event>
<event>
 6    1  0.1538147E-010  0.7299160E+02  0.7561462E-02  0.1350206E+00
          2   -1    0    0  501    0  0.00000000000E+00  0.00000000000E+00  0.47580549452E+03  0.47580549452E+03  0.00000000000E+00 0.  1.
         -2   -1    0    0    0  501 -0.00000000000E+00 -0.00000000000E+00 -0.27411660717E+02  0.27411660717E+02  0.00000000000E+00 0. -1.
          5    1    1    2  502    0  0.30510928638E+01  0.96169501399E+01  0.20851913467E+03  0.20880492528E+03  0.41800000000E+01 0.  1.
         -5    1    1    2    0  502 -0.54404567924E+01 -0.39339026694E+02  0.48709885116E+01  0.40228802125E+02  0.41800000000E+01 0.  1.
        -11    1    1    2    0    0  0.34873426953E+02 -0.16543697534E+02  0.72613622432E+02  0.82234956061E+02  0.00000000000E+00 0. -1.
         11    1    1    2    0    0 -0.32484063024E+02  0.46265774088E+02  0.16239008819E+03  0.17194847178E+03  0.00000000000E+00 0.  1.
</event>
<event>
 7    1  0.1538147E-010  0.1224127E+03  0.7561462E-02  0.1239169E+00
          2   -1    0    0  501    0  0.00000000000E+00  0.00000000000E+00  0.13285987119E+03  0.13285987119E+03  0.00000000000E+00 0. -1.
         -2   -1    0    0    0  501 -0.00000000000E+00 -0.00000000000E+00 -0.17922842914E+03  0.17922842914E+03  0.00000000000E+00 0.  1.
         25    2    1    2    0    0 -0.18402764722E+01  0.68871985712E+02  0.61193626382E+02  0.15534771753E+03  0.12506604814E+03 0.  0.
          5    1    3    3  502    0  0.30514159111E+02 -0.21687816361E+02  0.43387296590E+02  0.57457855774E+02  0.41800000000E+01 0.  1.
         -5    1    3    3    0  502 -0.32354435583E+02  0.90559802073E+02  0.17806329792E+02  0.97889861753E+02  0.41800000000E+01 0.  1.
        -11    1    1    2    0    0 -0.30190472568E+02 -0.72624630141E+02 -0.91676112327E+02  0.12079036016E+03  0.00000000000E+00 0.  1.
         11    1    1    2    0    0  0.32030749040E+02  0.37526444282E+01 -0.15886072000E+02  0.35950222640E+02  0.00000000000E+00 0. -1.
</event>
<event>
 7    1  0.1538147E-010  0.1027104E+03  0.7561462E-02  0.1274697E+00
         -4   -1    0    0    0  501 -0.00000000000E+00  0.00000000000E+00  0.79289075569E+03  0.79289075569E+03  0.00000000000E+00 0.  1.
          4   -1    0    0  501    0  0.00000000000E+00 -0.00000000000E+00 -0.29010814393E+02  0.29010814393E+02  0.00000000000E+00 0. -1.
         25    2    1    2    0    0 -0.42261670738E+02  0.71209278575E+02  0.59502854101E+03  0.61365956160E+03  0.12514904218E+03 0.  0.
          5    1    3    3  502    0 -0.44313003609E+02  0.11765584513E+02  0.61570346549E+02  0.76879459167E+02  0.41800000000E+01 0.  1.
         -5    1    3    3    0  502  0.20513328701E+01  0.59443694061E+02  0.53345819446E+03  0.53678010243E+03  0.41800000000E+01 0.  1.
        -11    1    1    2    0    0  0.90435412466E+01 -0.65414599366E+02  0.45072636481E+02  0.79952473432E+02  0.00000000000E+00 0. -1.
         11    1    1    2    0    0  0.33218129492E+02 -0.57946792085E+01  0.12377876381E+03  0.12828953506E+03  0.00000000000E+00 0.  1.
</event>
<event>
 7    1  0.1538147E-010  0.1455123E+03  0.7561462E-02  0.1206098E+00
         -1   -1    0    0    0  501 -0.00000000000E+00  0.00000000000E+00  0.14685135588E+03  0.14685135588E+03  0.00000000000E+00 0.  1.
          1   -1    0    0  501    0  0.00000000000E+00 -0.00000000000E+00 -0.23538147560E+03  0.23538147560E+03  0.00000000000E+00 0. -1.
         25    2    1    2    0    0 -0.42802166441E+02  0.13691234939E+03 -0.83862991491E+02  0.20797106848E+03  0.12506777009E+03 0.  0.
          5    1    3    3  502    0 -0.25078161401E+02  0.85949134122E+02  0.19107727566E+02  0.91644669721E+02  0.41800000000E+01 0.  1.
         -5    1    3    3    0  502 -0.17724005040E+02  0.50963215263E+02 -0.10297071906E+03  0.11632639876E+03  0.41800000000E+01 0.  1.
        -11    1    1    2    0    0 -0.47031466413E+01 -0.28863043246E+02  0.38707862909E+02  0.48512817942E+02  0.00000000000E+00 0.  1.
         11    1    1    2    0    0  0.47505313082E+02 -0.10804930614E+03 -0.43374991142E+02  0.12574894506E+03  0.00000000000E+00 0. -1.
</event>
<event>
 6    1  0.1538147E-010  0.1277836E+03  0.7561462E-02  0.1230782E+00
         -2   -1    0    0    0  501 -0.00000000000E+00  0.00000000000E+00  0.17543072073E+02  0.17543072073E+02  0.00000000000E+00 0.  1.
          2   -1    0    0  501    0  0.00000000000E+00 -0.00000000000E+00 -0.16408840808E+04  0.16408840808E+04  0.00000000000E+00 0. -1.
          5    1    1    2  502    0 -0.34914017863E+02  0.58571012841E+02 -0.11064187112E+04  0.11085257728E+04  0.41800000000E+01 0.  1.
         -5    1    1    2    0  502 -0.50511287309E+02 -0.98463796520E+01 -0.15723396618E+03  0.16549421095E+03  0.41800000000E+01 0.  1.
        -11    1    1    2    0    0  0.43193061014E+02 -0.74520182107E+02 -0.22762220720E+03  0.24337371935E+03  0.00000000000E+00 0.  1.
         11    1    1    2    0    0  0.42232244158E+02  0.25795548918E+02 -0.13206612411E+03  0.14103344968E+03  0.00000000000E+00 0. -1.
</event>
<event>
 6    1  0.1538147E-010  0.1087798E+03  0.7561462E-02  0.1262846E+00
          2   -1    0    0  501    0  0.00000000000E+00  0.00000000000E+00  0.12100231712E+04  0.12100231712E+04  0.00000000000E+00 0. -1.
         -2   -1    0    0    0  501 -0.00000000000E+00 -0.00000000000E+00 -0.14681507682E+02  0.14681507682E+02  0.00000000000E+00 0.  1.
          5    1    1    2  502    0 -0.79435077416E+02 -0.26423593042E+02  0.70705677536E+03  0.71200765008E+03  0.41800000000E+01 0. -1.
         -5    1    1    2    0  502  0.44532572456E+02 -0.12777840965E+02  0.21671643889E+03  0.22165267992E+03  0.41800000000E+01 0. -1.
        -11    1    1    2    0    0  0.37078056591E+02 -0.96579668355E+01  0.20437970051E+03  0.20794018511E+03  0.00000000000E+00 0. -1.
         11    1    1    2    0    0 -0.21755516319E+01  0.48859400843E+02  0.67188748734E+02  0.83104163747E+02  0.00000000000E+00 0.  1.
</event>
<event>
 6    1  0.1538147E-010  0.1340475E+03  0.7561462E-02  0.1221571E+00
          1   -1    0    0  501    0  0.00000000000E+00  0.00000000000E+00  0.55280041496E+03  0.55280041496E+03  0.00000000000E+00 0. -1.
         -1   -1    0    0    0  501 -0.00000000000E+00 -0.00000000000E+00 -0.50489071558E+02  0.50489071558E+02  0.00000000000E+00 0.  1.
          5    1    1    2  502    0 -0.78715447389E+02 -0.27928181513E+02  0.25910730685E+03  0.27226856933E+03  0.41800000000E+01 0.  1.
         -5    1    1    2    0  502 -0.49406844158E+02  0.26047604920E+02  0.20069085833E+02  0.59495836643E+02  0.41800000000E+01 0.  1.
        -11    1    1    2    0    0  0.96178183871E+02 -0.25294997809E+01  0.21876024062E+03  0.23898260250E+03  0.00000000000E+00 0. -1.
         11    1    1    2    0    0  0.31944107676E+02  0.44100763743E+01  0.43747100949E+01  0.32542478044E+02  0.00000000000E+00 0.  1.
</event>
<event>
 6    1  0.1538147E-010  0.1609469E+03  0.7561462E-02  0.1187632E+00
         -1   -1    0    0    0  501 -0.00000000000E+00  0.00000000000E+00  0.76608362077E+02  0.76608362077E+02  0.00000000000E+00 0.  1.
          1   -1    0    0  501    0  0.00000000000E+00 -0.00000000000E+00 -0.56276547503E+03  0.56276547503E+03  0.00000000000E+00 0. -1.
          5    1    1    2  502    0 -0.33941970812E+02  0.39192279791E+02  0.18348714575E+02  0.55156503736E+02  0.41800000000E+01 0.  1.
         -5    1    1    2    0  502 -0.53678527296E+02  0.94325803330E+02 -0.15538206941E+03  0.18957795589E+03  0.41800000000E+01 0.  1.
        -11    1    1    2    0    0  0.30055966520E+02 -0.28040694965E+02 -0.23044634625E+02  0.47124270632E+02  0.00000000000E+00 0.  1.
         11    1    1    2    0    0  0.57564531588E+02 -0.10547738816E+03 -0.32607912349E+03  0.34751510684E+03  0.00000000000E+00 0. -1.
</event>
<event>
 6    1  0.1538147E-010  0.1119419E+03  0.7561462E-02  0.1257015E+00
          2   -1    0    0  501    0  0.00000000000E+00  0.00000000000E+00  0.42411513879E+03  0.42411513879E+03  0.00000000000E+00 0. -1.
         -2   -1    0    0    0  501 -0.00000000000E+00 -0.00000000000E+00 -0.36113334577E+02  0.36113334577E+02  0.00000000000E+00 0.  1.
          5    1    1    2  502    0 -0.16521106641E+02  0.56774550341E+02  0.94282880483E+02  0.11136889370E+03  0.41800000000E+01 0. -1.
         -5    1    1    2    0  502 -0.23230928869E+02 -0.61442030632E+02  0.20736869902E+03  0.21756389617E+03  0.41800000000E+01 0. -1.
        -11    1    1    2    0    0 -0.24633769141E+02 -0.18019511038E+02  0.23752340152E+02  0.38674268226E+02  0.00000000000E+00 0.  1.
         11    1    1    2    0    0  0.64385804651E+02  0.22686991328E+02  0.62597884560E+02  0.92621415274E+02  0.00000000000E+00 0. -1.
</event>
<event>
 7    1  0.1538147E-010  0.8106910E+02  0.7561462E-02  0.1326045E+00
         -2   -1    0    0    0  501 -0.00000000000E+00  0.00000000000E+00  0.81563484497E+02  0.81563484497E+02  0.00000000000E+00 0.  1.
          2   -1    0    0  501    0  0.00000000000E+00 -0.00000000000E+00 -0.14347656469E+03  0.14347656469E+03  0.00000000000E+00 0. -1.
         25    2    1    2    0    0  0.15139573578E+01  0.57542415524E+01 -0.46116763660E+02  0.13340881834E+03  0.12504300683E+03 0.  0.
          5    1    3    3  502    0  0.18473312906E+02  0.36031689956E+02  0.29387489202E+02  0.50206004546E+02  0.41800000000E+01 0.  1.
         -5    1    3    3    0  502 -0.16959355549E+02 -0.30277448404E+02 -0.75504252862E+02  0.83202813791E+02  0.41800000000E+01 0.  1.
        -11    1    1    2    0    0  0.10400300160E+02  0.38897183727E+02 -0.20494437134E+02  0.45179410119E+02  0.00000000000E+00 0.  1.
         11    1    1    2    0    0 -0.11914257517E+02 -0.44651425279E+02  0.46981206039E+01  0.46451820727E+02  0.00000000000E+00 0. -1.
</event>
<event>
 6    1  0.1538147E-010  0.1102003E+03  0.7561462E-02  0.1260199E+00
         -2   -1    0    0    0  501 -0.00000000000E+00  0.00000000000E+00  0.36341270821E+03  0.36341270821E+03  0.00000000000E+00 0.  1.
          2   -1    0    0  501    0  0.00000000000E+00 -0.00000000000E+00 -0.40457232343E+02  0.40457232343E+02  0.00000000000E+00 0. -1.
          5    1    1    2  502    0  0.25094726283E+02  0.70914585285E+02  0.97801607797E+02  0.12345545991E+03  0.41800000000E+01 0.  1.
         -5    1    1    2    0  502 -0.62072397432E+02 -0.18048640711E+02  0.10471998862E+03  0.12313604010E+03  0.41800000000E+01 0.  1.
        -11    1    1    2    0    0  0.22864685275E+02  0.26345100379E+01 -0.98002712491E+00  0.23036816816E+02  0.00000000000E+00 0. -1.
         11    1    1    2    0    0  0.14112985874E+02 -0.55500454612E+02  0.12141390657E+03  0.13424162373E+03  0.00000000000E+00 0.  1.
</event>
<event>
 7    1  0.1538147E-010  0.1159187E+03  0.7561462E-02  0.1249986E+00
         -2   -1    0    0    0  501 -0.00000000000E+00  0.00000000000E+00  0.66607481182E+02  0.66607481182E+02  0.00000000000E+00 0.  1.
          2   -1    0    0  501    0  0.00000000000E+00 -0.00000000000E+00 -0.29189048758E+03  0.29189048758E+03  0.00000000000E+00 0. -1.
         25    2    1    2    0    0 -0.67087039893E+02 -0.50597527612E+02 -0.94858725476E+02  0.17803651013E+03  0.12505215079E+03 0.  0.
          5    1    3    3  502    0  0.18408153125E+02 -0.18376399694E+02 -0.81441847532E+02  0.85596723633E+02  0.41800000000E+01 0. -1.
         -5    1    3    3    0  502 -0.85495193018E+02 -0.32221127918E+02 -0.13416877944E+02  0.92439786495E+02  0.41800000000E+01 0. -1.
        -11    1    1    2    0    0 -0.84670594378E+01  0.36125553353E+02 -0.80812359522E+02  0.88923473572E+02  0.00000000000E+00 0. -1.
         11    1    1    2    0    0  0.75554099331E+02  0.14471974258E+02 -0.49611921402E+02  0.91537985066E+02  0.00000000000E+00 0.  1.
</event>
<event>
 6    1  0.1538147E-010  0.1585807E+03  0.7561462E-02  0.1190309E+00
         -1   -1    0    0    0  501 -0.00000000000E+00  0.00000000000E+00  0.26679467692E+03  0.26679467692E+03  0.00000000000E+00 0.  1.
          1   -1    0    0  501    0  0.00000000000E+00 -0.00000000000E+00 -0.12799047956E+03  0.12799047956E+03  0.00000000000E+00 0. -1.
          5    1    1    2  502    0 -0.12605992999E+03 -0.13974204720E+02 -0.33070001320E+02  0.13113916934E+03  0.41800000000E+01 0. -1.
         -5    1    1    2    0  502  0.11879310175E+02  0.39195635775E+02  0.77903425590E+01  0.41899614691E+02  0.41800000000E+01 0. -1.
        -11    1    1    2    0    0  0.44407693005E+02 -0.57137475409E+02  0.82942186761E+02  0.11007334209E+03  0.00000000000E+00 0.  1.
         11    1    1    2    0    0  0.69772926811E+02  0.31916044354E+02  0.81141669358E+02  0.11167303036E+03  0.00000000000E+00 0. -1.
</event>
<event>
 6    1  0.1538147E-010  0.1077140E+03  0.7561462E-02  0.1264863E+00
         -2   -1    0    0    0  501 -0.00000000000E+00  0.00000000000E+00  0.17159818556E+02  0.17159818556E+02  0.00000000000E+00 0.  1.
          2   -1    0    0  501    0  0.00000000000E+00 -0.00000000000E+00 -0.82218788664E+03  0.82218788664E+03  0.00000000000E+00 0. -1.
          5    1    1    2  502    0 -0.19391190553E+01  0.43201237319E+02 -0.10021846379E+03  0.10923058168E+03  0.41800000000E+01 0. -1.
         -5    1    1    2    0  502 -0.95812034568E+01 -0.87697271747E+02 -0.29347768532E+03  0.30647876780E+03  0.41800000000E+01 0. -1.
        -11    1    1    2    0    0  0.95549014695E+01  0.63673143574E+02 -0.38830719773E+03  0.39360900036E+03  0.00000000000E+00 0. -1.
         11    1    1    2    0    0  0.19654210425E+01 -0.19177109146E+02 -0.23024721239E+02  0.30029355358E+02  0.00000000000E+00 0.  1.
</event>
<event>
 6    1  0.1538147E-010  0.1192982E+03  0.7561462E-02  0.1244259E+00
         -3   -1    0    0    0  501 -0.00000000000E+00  0.00000000000E+00  0.34436869274E+03  0.34436869274E+03  0.00000000000E+00 0.  1.
          3   -1    0    0  501    0  0.00000000000E+00 -0.00000000000E+00 -0.51308727900E+02  0.51308727900E+02  0.00000000000E+00 0. -1.
          5    1    1    2  502    0  0.89492591837E+02 -0.26917542609E+02  0.61225420201E+02  0.11180117429E+03  0.41800000000E+01 0.  1.
         -5    1    1    2    0  502 -0.12528037827E+02  0.23378100124E+02  0.11325201194E+03  0.11639148553E+03  0.41800000000E+01 0.  1.
        -11    1    1    2    0    0  0.40358917010E+01  0.32068449541E+02  0.35162017935E+02  0.47760248984E+02  0.00000000000E+00 0. -1.
         11    1    1    2    0    0 -0.81000445711E+02 -0.28529007057E+02  0.83420514763E+02  0.11972451183E+03  0.00000000000E+00 0.  1.
</event>
<event>
 7    1  0.1538147E-010  0.1450517E+03  0.7561462E-02  0.1206689E+00
          2   -1    0    0  501    0  0.00000000000E+00  0.00000000000E+00  0.62456761138E+03  0.62456761138E+03  0.00000000000E+00 0. -1.
         -2   -1    0    0    0  501 -0.00000000000E+00 -0.00000000000E+00 -0.61826681242E+02  0.61826681242E+02  0.00000000000E+00 0.  1.
         25    2    1    2    0    0 -0.78675272650E+02  0.10301700801E+03  0.12078480353E+03  0.21686415775E+03  0.12505515457E+03 0.  0.
          5    1    3    3  502    0 -0.59856893017E+02  0.23131816436E+02 -0.72616021556E+01  0.64715777359E+02  0.41800000000E+01 0.  1.
         -5    1    3    3    0  502 -0.18818379633E+02  0.79885191573E+02  0.12804640569E+03  0.15214838039E+03  0.41800000000E+01 0.  1.
        -11    1    1    2    0    0  0.70955814335E+02 -0.42708356258E+02  0.15032572615E+03  0.17162912114E+03  0.00000000000E+00 0.  1.
         11    1    1    2    0    0  0.77194583155E+01 -0.60308651751E+02  0.29163040046E+03  0.29790101373E+03  0.00000000000E+00 0. -1.
</event>
<event>
 7    1  0.1538147E-010  0.1423235E+03  0.7561462E-02  0.1210236E+00
          1   -1    0    0  501    0  0.00000000000E+00  0.00000000000E+00  0.49865587639E+02  0.49865587639E+02  0.00000000000E+00 0. -1.
         -1   -1    0    0    0  501 -0.00000000000E+00 -0.00000000000E+00 -0.41645976986E+03  0.41645976986E+03  0.00000000000E+00 0.  1.
         25    2    1    2    0    0 -0.66562245326E+00 -0.89314401814E+02 -0.17529919530E+03  0.23316770626E+03  0.12513938607E+03 0.  0.
          5    1    3    3  502    0 -0.49514841627E+02 -0.48481940309E-01 -0.76872765678E+02  0.91534782432E+02  0.41800000000E+01 0.  1.
         -5    1    3    3    0  502  0.48849219174E+02 -0.89265919873E+02 -0.98426429624E+02  0.14163292383E+03  0.41800000000E+01 0.  1.
        -11    1    1    2    0    0  0.17699165795E+02  0.10706090146E+03 -0.16057130813E+03  0.19380000538E+03  0.00000000000E+00 0. -1.
         11    1    1    2    0    0 -0.17033543342E+02 -0.17746499651E+02 -0.30723678786E+02  0.39357645849E+02  0.00000000000E+00 0.  1.
</event>
<event>
 6    1  0.1538147E-010  0.1073163E+03  0.7561462E-02  0.1265622E+00
          1   -1    0    0  501    0  0.00000000000E+00  0.00000000000E+00  0.93782191822E+03  0.93782191822E+03  0.00000000000E+00 0. -1.
         -1   -1    0    0    0  501 -0.00000000000E+00 -0.00000000000E+00 -0.15378425726E+02  0.15378425726E+02  0.00000000000E+00 0.  1.
          5    1    1    2  502    0 -0.15583812322E+02 -0.67094244723E+02  0.14845330423E+03  0.16370812081E+03  0.41800000000E+01 0. -1.
         -5    1    1    2    0  502  0.39392825575E+02  0.23174360386E+02  0.33829657648E+03  0.34139550633E+03  0.41800000000E+01 0. -1.
        -11    1    1    2    0    0  0.13381978840E+02 -0.21006628582E+02  0.58968151983E+02  0.64012489018E+02  0.00000000000E+00 0.  1.
         11    1    1    2    0    0 -0.37190992093E+02  0.64926512919E+02  0.37672545979E+03  0.38408422778E+03  0.00000000000E+00 0. -1.
</event>
<event>
 6    1  0.1538147E-010  0.1516696E+03  0.7561462E-02  0.1198436E+00
         -2   -1    0    0    0  501 -0.00000000000E+00  0.00000000000E+00  0.26711183409E+03  0.26711183409E+03  0.00000000000E+00 0.  1.
          2   -1    0    0  501    0  0.00000000000E+00 -0.00000000000E+00 -0.12008537566E+03  0.12008537566E+03  0.00000000000E+00 0. -1.
          5    1    1    2  502    0 -0.34235398970E+02 -0.78521107110E+02  0.91433281421E+02  0.12536005806E+03  0.41800000000E+01 0. -1.
         -5    1    1    2    0  502  0.75252365556E+02 -0.17999559807E+02  0.88060460138E+02  0.11729884788E+03  0.41800000000E+01 0. -1.
        -11    1    1    2    0    0  0.18576900563E+02  0.74139459901E+02 -0.25140685321E+02  0.80460019931E+02  0.00000000000E+00 0. -1.
         11    1    1    2    0    0 -0.59593867149E+02  0.22381207017E+02 -0.73265978179E+01  0.64078283879E+02  0.00000000000E+00 0.  1.
</event>
<event>
 6    1  0.1538147E-010  0.1080564E+03  0.7561462E-02  0.1264212E+00
         -2   -1    0    0    0  501 -0.00000000000E+00  0.00000000000E+00  0.54135808714E+02  0.54135808714E+02  0.00000000000E+00 0.  1.
          2   -1    0    0  501    0  0.00000000000E+00 -0.00000000000E+00 -0.26915873443E+03  0.26915873443E+03  0.00000000000E+00 0. -1.
          5    1    1    2  502    0  0.45889603110E+02  0.79974588216E+01 -0.10703390598E+03  0.11680558399E+03  0.41800000000E+01 0.  1.
         -5    1    1    2    0  502 -0.57901704084E+02  0.41340714176E+02 -0.36538362371E+02  0.80088615353E+02  0.41800000000E+01 0.  1.
        -11    1    1    2    0    0  0.46835368466E+02 -0.15020602165E+02 -0.57274614454E+02  0.75495375286E+02  0.00000000000E+00 0. -1.
         11    1    1    2    0    0 -0.34823267492E+02 -0.34317570832E+02 -0.14176042901E+02  0.50904968509E+02  0.00000000000E+00 0.  1.
</event>
<event>
 6    1  0.1538147E-010  0.2193476E+03  0.7561462E-02  0.1134370E+00
         -2   -1    0    0    0  501 -0.00000000000E+00  0.00000000000E+00  0.27175458032E+03  0.27175458032E+03  0.00000000000E+00 0.  1.
          2   -1    0    0  501    0  0.00000000000E+00 -0.00000000000E+00 -0.21123950403E+03  0.21123950403E+03  0.00000000000E+00 0. -1.
          5    1    1    2  502    0  0.36932935906E+02 -0.20404587736E+03 -0.62853994589E+01  0.20749877221E+03  0.41800000000E+01 0.  1.
         -5    1    1    2    0  502  0.21169770808E+02  0.84823426051E+01 -0.25254806844E+02  0.34283917524E+02  0.41800000000E+01 0.  1.
        -11    1    1    2    0    0 -0.13125665613E+02  0.83299917961E+01  0.38230402751E+02  0.41270274479E+02  0.00000000000E+00 0.  1.
         11    1    1    2    0    0 -0.44977041101E+02  0.18723354296E+03  0.53824879837E+02  0.19994112014E+03  0.00000000000E+00 0. -1.
</event>
<event>
 7    1  0.1538147E-010  0.1139964E+03  0.7561462E-02  0.1253343E+00
          1   -1    0    0  501    0  0.00000000000E+00  0.00000000000E+00  0.22154901188E+03  0.22154901188E+03  0.00000000000E+00 0. -1.
         -1   -1    0    0    0  501 -0.00000000000E+00 -0.00000000000E+00 -0.93319351680E+02  0.93319351680E+02  0.00000000000E+00 0.  1.
         25    2    1    2    0    0  0.93892257980E+02  0.14223635927E+02  0.58786199722E+02  0.16767598900E+03  0.12506539122E+03 0.  0.
          5    1    3    3  502    0  0.47992943718E+02  0.53836201997E+02 -0.13228740462E+02  0.73444749754E+02  0.41800000000E+01 0. -1.
         -5    1    3    3    0  502  0.45899314262E+02 -0.39612566070E+02  0.72014940184E+02  0.94231239248E+02  0.41800000000E+01 0. -1.
        -11    1    1    2    0    0 -0.43799315385E+02 -0.74126124178E+01 -0.16578798500E+02  0.47415012504E+02  0.00000000000E+00 0.  1.
         11    1    1    2    0    0 -0.50092942595E+02 -0.68110235087E+01  0.86022258982E+02  0.99777362058E+02  0.00000000000E+00 0. -1.
</event>
<event>
 6    1  0.1538147E-010  0.2168960E+03  0.7561462E-02  0.1136219E+00
          1   -1    0    0  501    0  0.00000000000E+00  0.00000000000E+00  0.17189855687E+03  0.17189855687E+03  0.00000000000E+00 0. -1.
         -1   -1    0    0    0  501 -0.00000000000E+00 -0.00000000000E+00 -0.48783446182E+03  0.48783446182E+03  0.00000000000E+00 0.  1.
          5    1    1    2  502    0 -0.16889536574E+03  0.13077095504E+03 -0.15079283095E+02  0.21417643295E+03  0.41800000000E+01 0. -1.
         -5    1    1    2    0  502 -0.10390109409E+01  0.17400665623E+01  0.35418269367E+02  0.35721612230E+02  0.41800000000E+01 0. -1.
        -11    1    1    2    0    0  0.13130377661E+03 -0.10130684189E+03 -0.17504908513E+03  0.24113469301E+03  0.00000000000E+00 0. -1.
         11    1    1    2    0    0  0.38630600071E+02 -0.31204179709E+02 -0.16122580609E+03  0.16870028050E+03  0.00000000000E+00 0.  1.
</event>
<event>
 6    1  0.1538147E-010  0.1234658E+03  0.7561462E-02  0.1237487E+00
         -2   -1    0    0    0  501 -0.00000000000E+00  0.00000000000E+00  0.15518078739E+03  0.15518078739E+03  0.00000000000E+00 0.  1.
          2   -1    0    0  501    0  0.00000000000E+00 -0.00000000000E+00 -0.10979835770E+03  0.10979835770E+03  0.00000000000E+00 0. -1.
          5    1    1    2  502    0  0.88690959358E+02 -0.65701853030E+02  0.41415975804E+02  0.11796429636E+03  0.41800000000E+01 0. -1.
         -5    1    1    2    0  502 -0.37531330170E+02  0.34944343453E+01  0.56466639579E+01  0.38342783279E+02  0.41800000000E+01 0. -1.
        -11    1    1    2    0    0 -0.36387506742E+01  0.49129952583E+02  0.22044561426E+02  0.53971802228E+02  0.00000000000E+00 0.  1.
         11    1    1    2    0    0 -0.47520878514E+02  0.13077466102E+02 -0.23724771496E+02  0.54700263226E+02  0.00000000000E+00 0. -1.
</event>
<event>
 7    1  0.1538147E-010  0.1064074E+03  0.7561462E-02  0.1267371E+00
         -1   -1    0    0    0  501 -0.00000000000E+00  0.00000000000E+00  0.82489788509E+03  0.82489788509E+03  0.00000000000E+00 0.  1.
          1   -1    0    0  501    0  0.00000000000E+00 -0.00000000000E+00 -0.27257407296E+02  0.27257407296E+02  0.00000000000E+00 0. -1.
         25    2    1    2    0    0  0.34130552864E+02  0.75544695181E+02  0.60350746940E+03  0.62188045541E+03  0.12506853957E+03 0.  0.
          5    1    3    3  502    0  0.42237920499E+02  0.58388206115E+02  0.59706046397E+03  0.60140825949E+03  0.41800000000E+01 0. -1.
         -5    1    3    3    0  502 -0.81073676354E+01  0.17156489066E+02  0.64470054335E+01  0.20472195928E+02  0.41800000000E+01 0. -1.
        -11    1    1    2    0    0 -0.54271480130E+02 -0.83464035876E+02  0.17524334760E+03  0.20154867828E+03  0.00000000000E+00 0.  1.
         11    1    1    2    0    0  0.20140927266E+02  0.79193406946E+01  0.18889660790E+02  0.28726158687E+02  0.00000000000E+00 0. -1.
</event>
<event>
 7    1  0.1538147E-010  0.1484649E+03  0.7561462E-02  0.1202372E+00
          2   -1    0    0  501    0  0.00000000000E+00  0.00000000000E+00  0.89512516293E+03  0.89512516293E+03  0.00000000000E+00 0. -1.
         -2   -1    0    0    0  501 -0.00000000000E+00 -0.00000000000E+00 -0.35945562114E+02  0.35945562114E+02  0.00000000000E+00 0.  1.
         25    2    1    2    0    0  0.23297043181E+02 -0.10433809068E+03  0.70025041841E+03  0.71931981986E+03  0.12506464479E+03 0.  0.
          5    1    3    3  502    0  0.72131072507E+02 -0.81878935245E+02  0.51113788522E+03  0.52267242300E+03  0.41800000000E+01 0.  1.
         -5    1    3    3    0  502 -0.48834029326E+02 -0.22459155432E+02  0.18911253319E+03  0.19664739686E+03  0.41800000000E+01 0.  1.
        -11    1    1    2    0    0 -0.25931339611E+02 -0.33055609942E+01  0.10032511821E+02  0.28000221445E+02  0.00000000000E+00 0. -1.
         11    1    1    2    0    0  0.26342964299E+01  0.10764365167E+03  0.14889667059E+03  0.18375068374E+03  0.00000000000E+00 0.  1.
</event>
<event>
 7    1  0.1538147E-010  0.1125498E+03  0.7561462E-02  0.1255920E+00
         -1   -1    0    0    0  501 -0.00000000000E+00  0.00000000000E+00  0.12095914178E+03  0.12095914178E+03  0.00000000000E+00 0.  1.
          1   -1    0    0  501    0  0.00000000000E+00 -0.00000000000E+00 -0.11711143033E+03  0.11711143033E+03  0.00000000000E+00 0. -1.
         25    2    1    2    0    0 -0.19974443649E+02  0.29079794621E+02 -0.31922831317E+02  0.13380271625E+03  0.12505793402E+03 0.  0.
          5    1    3    3  502    0  0.14464919285E+02  0.72664437791E+02 -0.19527191231E+02  0.76734203630E+02  0.41800000000E+01 0.  1.
         -5    1    3    3    0  502 -0.34439362934E+02 -0.43584643169E+02 -0.12395640085E+02  0.57068512620E+02  0.41800000000E+01 0.  1.
        -11    1    1    2    0    0  0.78230062576E+01 -0.60756510042E+02  0.34525463373E+02  0.70317569358E+02  0.00000000000E+00 0. -1.
         11    1    1    2    0    0  0.12151437391E+02  0.31676715420E+02  0.12450793928E+01  0.33950286496E+02  0.00000000000E+00 0.  1.
</event>
<event>
 7    1  0.1538147E-010  0.1415036E+03  0.7561462E-02  0.1211320E+00
          1   -1    0    0  501    0  0.00000000000E+00  0.00000000000E+00  0.64706497968E+03  0.64706497968E+03  0.00000000000E+00 0. -1.
         -1   -1    0    0    0  501 -0.00000000000E+00 -0.00000000000E+00 -0.37450842793E+02  0.37450842793E+02  0.00000000000E+00 0.  1.
         25    2    1    2    0    0 -0.93851915323E+02  0.57466390883E+01  0.45297135025E+03  0.47923426093E+03  0.12506489051E+03 0.  0.
          5    1    3    3  502    0 -0.30294475947E+02 -0.55156891407E+02  0.25233175932E+03  0.26009388133E+03  0.41800000000E+01 0. -1.
         -5    1    3    3    0  502 -0.63557439376E+02  0.60903530495E+02  0.20063959093E+03  0.21914037961E+03  0.41800000000E+01 0. -1.
        -11    1    1    2    0    0  0.88225538217E+02  0.31849633318E+02  0.12165324187E+03  0.15361528568E+03  0.00000000000E+00 0. -1.
         11    1    1    2    0    0  0.56263771059E+01 -0.37596272406E+02  0.34989544767E+02  0.51666275859E+02  0.00000000000E+00 0.  1.
</event>
<event>
 7    1  0.1538147E-010  0.1127579E+03  0.7561462E-02  0.1255546E+00
         -2   -1    0    0    0  501 -0.00000000000E+00  0.00000000000E+00  0.42396183262E+02  0.42396183262E+02  0.00000000000E+00 0.  1.
          2   -1    0    0  501    0  0.00000000000E+00 -0.00000000000E+00 -0.36001960932E+03  0.36001960932E+03  0.00000000000E+00 0. -1.
         25    2    1    2    0    0  0.75870588410E+01 -0.55834231917E+02 -0.21014339438E+03  0.25097505830E+03  0.12511278420E+03 0.  0.
          5    1    3    3  502    0  0.64489841564E+02 -0.30088227250E+02 -0.13900305918E+03  0.15621640102E+03  0.41800000000E+01 0. -1.
         -5    1    3    3    0  502 -0.56902782723E+02 -0.25746004667E+02 -0.71140335194E+02  0.94758657280E+02  0.41800000000E+01 0. -1.
        -11    1    1    2    0    0 -0.39959070976E+02  0.26496864099E+02 -0.16832720691E+02  0.50814876229E+02  0.00000000000E+00 0.  1.
         11    1    1    2    0    0  0.32372012135E+02  0.29337367819E+02 -0.90647310987E+02  0.10062585806E+03  0.00000000000E+00 0. -1.
</event>
<event>
 6    1  0.1538147E-010  0.9708814E+02  0.7561462E-02  0.1286541E+00
         -1   -1    0    0    0  501 -0.00000000000E+00  0.00000000000E+00  0.10031507757E+03  0.10031507757E+03  0.00000000000E+00 0.  1.
          1   -1    0    0  501    0  0.00000000000E+00 -0.00000000000E+00 -0.14051456735E+03  0.14051456735E+03  0.00000000000E+00 0. -1.
          5    1    1    2  502    0 -0.58760752675E+02 -0.26133753327E+02  0.17563262283E+01  0.64469808435E+02  0.41800000000E+01 0.  1.
         -5    1    1    2    0  502  0.51695303424E+02 -0.97586161288E+01 -0.55539906911E+02  0.76614545907E+02  0.41800000000E+01 0.  1.
        -11    1    1    2    0    0  0.26035303403E+02 -0.95356477437E+01  0.36176036845E+02  0.45579285240E+02  0.00000000000E+00 0.  1.
         11    1    1    2    0    0 -0.18969854152E+02  0.45428017199E+02 -0.22591945944E+02  0.54166005342E+02  0.00000000000E+00 0. -1.
</event>
<event>
 6    1  0.1538147E-010  0.9947153E+02  0.7561462E-02  0.1281411E+00
         -2   -1    0    0    0  501 -0.00000000000E+00  0.00000000000E+00  0.79623520278E+02  0.79623520278E+02  0.00000000000E+00 0.  1.
          2   -1    0    0  501    0  0.00000000000E+00 -0.00000000000E+00 -0.30738890679E+03  0.30738890679E+03  0.00000000000E+00 0. -1.
          5    1    1    2  502    0  0.12816758175E+02 -0.64331224652E+00  0.41171832171E+02  0.43327535184E+02  0.41800000000E+01 0.  1.
         -5    1    1    2    0  502 -0.56497275850E+02 -0.41381718565E+02 -0.69232254280E+02  0.98564528318E+02  0.41800000000E+01 0.  1.
        -11    1    1    2    0    0 -0.40734511122E+01  0.63001184577E+02 -0.17757155398E+03  0.18846060343E+03  0.00000000000E+00 0. -1.
         11    1    1    2    0    0  0.47753968787E+02 -0.20976153766E+02 -0.22133410423E+02  0.56659760136E+02  0.00000000000E+00 0.  1.
</event>
<event>
 7    1  0.1538147E-010  0.1104743E+03  0.7561462E-02  0.1259694E+00
          1   -1    0    0  501    0  0.00000000000E+00  0.00000000000E+00  0.82139334010E+03  0.82139334010E+03  0.00000000000E+00 0. -1.
         -1   -1    0    0    0  501 -0.00000000000E+00 -0.00000000000E+00 -0.20176402061E+02  0.20176402061E+02  0.00000000000E+00 0.  1.
         25    2    1    2    0    0  0.48461532923E+02  0.19285825124E+02  0.59647825347E+03  0.61167536636E+03  0.12505992054E+03 0.  0.
          5    1    3    3  502    0  0.80448971694E+02 -0.27578806947E+01  0.24245399004E+03  0.25550157071E+03  0.41800000000E+01 0.  1.
         -5    1    3    3    0  502 -0.31987438771E+02  0.22043705819E+02  0.35402426343E+03  0.35617379564E+03  0.41800000000E+01 0.  1.
        -11    1    1    2    0    0 -0.17993989693E+01 -0.46977432770E+02  0.66952791603E+02  0.81809494129E+02  0.00000000000E+00 0.  1.
         11    1    1    2    0    0 -0.46662133954E+02  0.27691607646E+02  0.13778589297E+03  0.14808488167E+03  0.00000000000E+00 0. -1.
</event>
<event>
 6    1  0.1538147E-010  0.2226523E+03  0.7561462E-02  0.1131921E+00
         -1   -1    0    0    0  501 -0.00000000000E+00  0.00000000000E+00  0.27291112054E+03  0.27291112054E+03  0.00000000000E+00 0.  1.
          1   -1    0    0  501    0  0.00000000000E+00 -0.00000000000E+00 -0.19840775237E+03  0.19840775237E+03  0.00000000000E+00 0. -1.
          5    1    1    2  502    0  0.18228724805E+03 -0.12138608593E+03  0.57423223614E+02  0.22644673031E+03  0.41800000000E+01 0. -1.
         -5    1    1    2    0  502 -0.17458872958E+02 -0.62742244352E+00 -0.66063798906E+01  0.19139554832E+02  0.41800000000E+01 0. -1.
        -11    1    1    2    0    0 -0.11157988851E+03  0.10271427085E+03 -0.21634649356E+02  0.15319383477E+03  0.00000000000E+00 0.  1.
         11    1    1    2    0    0 -0.53248486581E+02  0.19299237520E+02  0.45321173804E+02  0.72538753001E+02  0.00000000000E+00 0. -1.
</event>
<event>
 7    1  0.1538147E-010  0.1152035E+03  0.7561462E-02  0.1251226E+00
          2   -1    0    0  501    0  0.00000000000E+00  0.00000000000E+00  0.41827610109E+04  0.41827610109E+04  0.00000000000E+00 0. -1.
         -2   -1    0    0    0  501 -0.00000000000E+00 -0.00000000000E+00 -0.10890371973E+02  0.10890371973E+02  0.00000000000E+00 0.  1.
         25    2    1    2    0    0 -0.83297017720E+02 -0.53932140736E+02  0.37441024261E+04  0.37475062689E+04  0.12511270487E+03 0.  0.
          5    1    3    3  502    0 -0.10421408550E+02  0.34992092949E+01  0.29716053277E+02  0.31958824200E+02  0.41800000000E+01 0.  1.
         -5    1    3    3    0  502 -0.72875609170E+02 -0.57431350030E+02  0.37143863729E+04  0.37155474447E+04  0.41800000000E+01 0.  1.
        -11    1    1    2    0    0  0.40434032098E+02 -0.16211491457E+02  0.12304573951E+03  0.13052960361E+03  0.00000000000E+00 0.  1.
         11    1    1    2    0    0  0.42862985622E+02  0.70143632192E+02  0.30472247330E+03  0.31561551040E+03  0.00000000000E+00 0. -1.
</event>
<event>
 7    1  0.1538147E-010  0.8915578E+02  0.7561462E-02  0.1304909E+00
         -1   -1    0    0    0  501 -0.00000000000E+00  0.00000000000E+00  0.45789057468E+02  0.45789057468E+02  0.00000000000E+00 0.  1.
          1   -1    0    0  501    0  0.00000000000E+00 -0.00000000000E+00 -0.30009561884E+03  0.30009561884E+03  0.00000000000E+00 0. -1.
         25    2    1    2    0    0 -0.48037929270E+01 -0.13455969499E+02 -0.20162497525E+03  0.23768249371E+03  0.12504478250E+03 0.  0.
          5    1    3    3  502    0 -0.28591968502E+02  0.33483662772E+02 -0.17105606820E+03  0.17668137197E+03  0.41800000000E+01 0. -1.
         -5    1    3    3    0  502  0.23788175575E+02 -0.46939632272E+02 -0.30568907053E+02  0.61001121739E+02  0.41800000000E+01 0. -1.
        -11    1    1    2    0    0 -0.32444405103E+02 -0.13679276715E+02  0.36759524141E+01  0.35401619456E+02  0.00000000000E+00 0.  1.
         11    1    1    2    0    0  0.37248198030E+02  0.27135246214E+02 -0.56357538540E+02  0.72800563143E+02  0.00000000000E+00 0. -1.
</event>
<event>
 7    1  0.1538147E-010  0.1032428E+03  0.7561462E-02  0.1273621E+00
          2   -1    0    0  501    0  0.00000000000E+00  0.00000000000E+00  0.99541281811E+03  0.99541281811E+03  0.00000000000E+00 0. -1.
         -2   -1    0    0    0  501 -0.00000000000E+00 -0.00000000000E+00 -0.15115667936E+02  0.15115667936E+02  0.00000000000E+00 0.  1.
         25    2    1    2    0    0  0.41804255478E+02  0.13816315392E+02  0.71366850045E+03  0.72588037584E+03  0.12506440401E+03 0.  0.
          5    1    3    3  502    0 -0.35480849615E+02 -0.83391848802E+01  0.92387740393E+02  0.99405229585E+02  0.41800000000E+01 0. -1.
         -5    1    3    3    0  502  0.77285105093E+02  0.22155500273E+02  0.62128076005E+03  0.62647514625E+03  0.41800000000E+01 0. -1.
        -11    1    1    2    0    0 -0.19613700592E+02 -0.46110746604E+02  0.83558890602E+02  0.97431957806E+02  0.00000000000E+00 0.  1.
         11    1    1    2    0    0 -0.22190554887E+02  0.32294431211E+02  0.18306975913E+03  0.18721615240E+03  0.00000000000E+00 0. -1.
</event>
<event>
 7    1  0.1538147E-010  0.1070044E+03  0.7561462E-02  0.1266220E+00
          2   -1    0    0  501    0  0.00000000000E+00  0.00000000000E+00  0.22112387446E+03  0.22112387446E+03  0.00000000000E+00 0. -1.
         -2   -1    0    0    0  501 -0.00000000000E+00 -0.00000000000E+00 -0.65676463702E+02  0.65676463702E+02  0.00000000000E+00 0.  1.
         25    2    1    2    0    0  0.69447900190E+01  0.14311674345E+02  0.31995622315E+02  0.13007205795E+03  0.12506784671E+03 0.  0.
          5    1    3    3  502    0  0.55737196629E+02 -0.26762132230E+02  0.12188675890E+02  0.63157604685E+02  0.41800000000E+01 0.  1.
         -5    1    3    3    0  502 -0.48792406610E+02  0.41073806574E+02  0.19806946424E+02  0.66914453267E+02  0.41800000000E+01 0.  1.
        -11    1    1    2    0    0  0.38943511194E+02  0.30430269441E+01  0.24032675877E+02  0.45863128839E+02  0.00000000000E+00 0.  1.
         11    1    1    2    0    0 -0.45888301213E+02 -0.17354701289E+02  0.99419112568E+02  0.11086515137E+03  0.00000000000E+00 0. -1.
</event>
<event>
 6    1  0.1538147E-010  0.1313989E+03  0.7561462E-02  0.1225395E+00
         -1   -1    0    0    0  501 -0.00000000000E+00  0.00000000000E+00  0.29905814437E+03  0.29905814437E+03  0.00000000000E+00 0.  1.
          1   -1    0    0  501    0  0.00000000000E+00 -0.00000000000E+00 -0.63223289171E+02  0.63223289171E+02  0.00000000000E+00 0. -1.
          5    1    1    2  502    0  0.35105015134E+02 -0.10455678566E+03  0.11011861799E+03  0.15591044206E+03  0.41800000000E+01 0.  1.
         -5    1    1    2    0  502 -0.27694261459E+02  0.20894266925E+02  0.85765839030E+01  0.35980170921E+02  0.41800000000E+01 0.  1.
        -11    1    1    2    0    0 -0.34954682213E+02  0.65028329218E+01  0.12932044353E+02  0.37833244848E+02  0.00000000000E+00 0. -1.
         11    1    1    2    0    0  0.27543928537E+02  0.77159685817E+02  0.10420760896E+03  0.13255757571E+03  0.00000000000E+00 0.  1.
</event>
<event>
 7    1  0.1538147E-010  0.2316897E+03  0.7561462E-02  0.1125456E+00
          1   -1    0    0  501    0  0.00000000000E+00  0.00000000000E+00  0.44497407148E+03  0.44497407148E+03  0.00000000000E+00 0. -1.
         -1   -1    0    0    0  501 -0.00000000000E+00 -0.00000000000E+00 -0.14119035913E+03  0.14119035913E+03  0.00000000000E+00 0.  1.
         25    2    1    2    0    0 -0.21156354012E+03 -0.73828772344E+02  0.18604371535E+03  0.31694839141E+03  0.12503679323E+03 0.  0.
          5    1    3    3  502    0 -0.48689524379E+02 -0.13628617785E+02 -0.13399684683E+02  0.52473164156E+02  0.41800000000E+01 0. -1.
         -5    1    3    3    0  502 -0.16287401574E+03 -0.60200154560E+02  0.19944340004E+03  0.26447522725E+03  0.41800000000E+01 0. -1.
        -11    1    1    2    0    0  0.12275498990E+03 -0.10959607847E+01  0.38803444267E+02  0.12874663477E+03  0.00000000000E+00 0.  1.
         11    1    1    2    0    0  0.88808550211E+02  0.74924733129E+02  0.78936552733E+02  0.14046940443E+03  0.00000000000E+00 0. -1.
</event>
<event>
 7    1  0.1538147E-010  0.1830170E+03  0.7561462E-02  0.1164915E+00
          2   -1    0    0  501    0  0.00000000000E+00  0.00000000000E+00  0.79810990004E+03  0.79810990004E+03  0.00000000000E+00 0. -1.
         -2   -1    0    0    0  501 -0.00000000000E+00 -0.00000000000E+00 -0.44807476665E+02  0.44807476665E+02  0.00000000000E+00 0.  1.
         25    2    1    2    0    0  0.30177763989E+02  0.15003965555E+03  0.45171615627E+03  0.49306090054E+03  0.12505586806E+03 0.  0.
          5    1    3    3  502    0 -0.37644449825E+02  0.65679261837E+01  0.75504504344E+02  0.84726883769E+02  0.41800000000E+01 0.  1.
         -5    1    3    3    0  502  0.67822213814E+02  0.14347172937E+03  0.37621165192E+03  0.40833401677E+03  0.41800000000E+01 0.  1.
        -11    1    1    2    0    0  0.23621475790E+02 -0.44309801694E+02  0.14472068656E+03  0.15318423471E+03  0.00000000000E+00 0. -1.
         11    1    1    2    0    0 -0.53799239778E+02 -0.10572985386E+03  0.15686558055E+03  0.19667224145E+03  0.00000000000E+00 0.  1.
</event>
<event>
 7    1  0.1538147E-010  0.1383580E+03  0.7561462E-02  0.1215556E+00
          1   -1    0    0  501    0  0.00000000000E+00  0.00000000000E+00  0.58787005293E+03  0.58787005293E+03  0.00000000000E+00 0. -1.
         -1   -1    0    0    0  501 -0.00000000000E+00 -0.00000000000E+00 -0.75513850083E+02  0.75513850083E+02  0.00000000000E+00 0.  1.
         25    2    1    2    0    0 -0.11055284541E+03 -0.23256599936E+02  0.46270076272E+02  0.17477192596E+03  0.12506600288E+03 0.  0.
          5    1    3    3  502    0 -0.40137800575E+02 -0.41463304998E+02  0.76484417803E+02  0.95904052381E+02  0.41800000000E+01 0. -1.
         -5    1    3    3    0  502 -0.70415044839E+02  0.18206705063E+02 -0.30214341531E+02  0.78867873580E+02  0.41800000000E+01 0. -1.
        -11    1    1    2    0    0  0.50659998971E+02  0.57805218185E+02  0.26804964119E+03  0.27885209142E+03  0.00000000000E+00 0.  1.
         11    1    1    2    0    0  0.59892846443E+02 -0.34548618250E+02  0.19803648538E+03  0.20975988563E+03  0.00000000000E+00 0. -1.
</event>
<event>
 7    1  0.1538147E-010  0.6881040E+02  0.7561462E-02  0.1364186E+00
          1   -1    0    0  501    0  0.00000000000E+00  0.00000000000E+00  0.55670315586E+03  0.55670315586E+03  0.00000000000E+00 0. -1.
         -1   -1    0    0    0  501 -0.00000000000E+00 -0.00000000000E+00 -0.32337051415E+02  0.32337051415E+02  0.00000000000E+00 0.  1.
         25    2    1    2    0    0  0.16387923833E+02 -0.22486178286E+02  0.44762673522E+03  0.46561565276E+03  0.12511614506E+03 0.  0.
          5    1    3    3  502    0 -0.24455314714E+02 -0.74561398703E+00  0.39351417184E+03  0.39429620110E+03  0.41800000000E+01 0.  1.
         -5    1    3    3    0  502  0.40843238547E+02 -0.21740564299E+02  0.54112563376E+02  0.71319451667E+02  0.41800000000E+01 0.  1.
        -11    1    1    2    0    0 -0.29598752099E+02 -0.10024215248E+02 -0.75265046723E+01  0.32143728622E+02  0.00000000000E+00 0.  1.
         11    1    1    2    0    0  0.13210828266E+02  0.32510393535E+02  0.84265873898E+02  0.91280825890E+02  0.00000000000E+00 0. -1.
</event>
<event>
 7    1  0.1538147E-010  0.3175025E+03  0.7561462E-02  0.1076805E+00
         -1   -1    0    0    0  501 -0.00000000000E+00  0.00000000000E+00  0.28180512121E+03  0.28180512121E+03  0.00000000000E+00 0. -1.
          1   -1    0    0  501    0  0.00000000000E+00 -0.00000000000E+00 -0.36726529224E+03  0.36726529224E+03  0.00000000000E+00 0.  1.
         25    2    1    2    0    0  0.25806542134E+03  0.15570766640E+03 -0.27822010438E+02  0.32749923251E+03  0.12505616323E+03 0.  0.
          5    1    3    3  502    0  0.26058384526E+03  0.11637679396E+03 -0.14884379116E+02  0.28580852983E+03  0.41800000000E+01 0.  1.
         -5    1    3    3    0  502 -0.25184239128E+01  0.39330872444E+02 -0.12937631323E+02  0.41690702686E+02  0.41800000000E+01 0.  1.
        -11    1    1    2    0    0 -0.12949968618E+03 -0.36306097775E+02 -0.57098220034E+02  0.14611128700E+03  0.00000000000E+00 0.  1.
         11    1    1    2    0    0 -0.12856573516E+03 -0.11940156863E+03 -0.53994055568E+00  0.17545989395E+03  0.00000000000E+00 0. -1.
</event>
<event>
 7    1  0.1538147E-010  0.1010539E+03  0.7561462E-02  0.1278095E+00
          2   -1    0    0  501    0  0.00000000000E+00  0.00000000000E+00  0.35267992233E+02  0.35267992233E+02  0.00000000000E+00 0. -1.
         -2   -1    0    0    0  501 -0.00000000000E+00 -0.00000000000E+00 -0.40732627829E+03  0.40732627829E+03  0.00000000000E+00 0.  1.
         25    2    1    2    0    0  0.13519220508E+02 -0.48865595938E+02 -0.21582622768E+03  0.25457141107E+03  0.12512005030E+03 0.  0.
          5    1    3    3  502    0  0.49905875698E+02 -0.18324076109E+02 -0.19565418959E+03  0.20279152472E+03  0.41800000000E+01 0. -1.
         -5    1    3    3    0  502 -0.36386655190E+02 -0.30541519828E+02 -0.20172038097E+02  0.51779886349E+02  0.41800000000E+01 0. -1.
        -11    1    1    2    0    0  0.29910430884E+02 -0.66155375952E+01 -0.71751463427E+02  0.78017124513E+02  0.00000000000E+00 0.  1.
         11    1    1    2    0    0 -0.43429651392E+02  0.55481133533E+02 -0.84480594951E+02  0.11000573495E+03  0.00000000000E+00 0. -1.
</event>
<event>
 7    1  0.1538147E-010  0.1201514E+03  0.7561462E-02  0.1242847E+00
         -2   -1    0    0    0  501 -0.00000000000E+00  0.00000000000E+00  0.42918936470E+03  0.42918936470E+03  0.00000000000E+00 0.  1.
          2   -1    0    0  501    0  0.00000000000E+00 -0.00000000000E+00 -0.37636534131E+02  0.37636534131E+02  0.00000000000E+00 0. -1.
         25    2    1    2    0    0  0.57853742681E+02 -0.10239385700E+02  0.15916445051E+03  0.21081827882E+03  0.12513642084E+03 0.  0.
          5    1    3    3  502    0  0.54126032454E+02 -0.63363173017E+02  0.82157876884E+02  0.11709785744E+03  0.41800000000E+01 0. -1.
         -5    1    3    3    0  502  0.37277102271E+01  0.53123787317E+02  0.77006573621E+02  0.93720421379E+02  0.41800000000E+01 0. -1.
        -11    1    1    2    0    0  0.13063145053E+02 -0.21967767044E+02  0.91732386339E+02  0.95226357964E+02  0.00000000000E+00 0.  1.
         11    1    1    2    0    0 -0.70916887735E+02  0.32207152744E+02  0.14065599373E+03  0.16078126205E+03  0.00000000000E+00 0. -1.
</event>
<event>
 7    1  0.1538147E-010  0.2835327E+03  0.7561462E-02  0.1093775E+00
          1   -1    0    0  501    0  0.00000000000E+00  0.00000000000E+00  0.91558610557E+03  0.91558610557E+03  0.00000000000E+00 0. -1.
         -1   -1    0    0    0  501 -0.00000000000E+00 -0.00000000000E+00 -0.93907607222E+02  0.93907607222E+02  0.00000000000E+00 0.  1.
         25    2    1    2    0    0  0.12254499966E+03 -0.24293811345E+03  0.43433940817E+03  0.52758406978E+03  0.12513203142E+03 0.  0.
          5    1    3    3  502    0 -0.10500127556E+01 -0.11767081288E+03  0.12541354625E+03  0.17202776728E+03  0.41800000000E+01 0.  1.
         -5    1    3    3    0  502  0.12359501242E+03 -0.12526730057E+03  0.30892586192E+03  0.35555630251E+03  0.41800000000E+01 0.  1.
        -11    1    1    2    0    0 -0.11446552707E+03  0.20786115982E+03  0.27138723045E+03  0.36049916435E+03  0.00000000000E+00 0.  1.
         11    1    1    2    0    0 -0.80794725951E+01  0.35076953626E+02  0.11595185973E+03  0.12141047866E+03  0.00000000000E+00 0. -1.
</event>
<event>
 7    1  0.1538147E-010  0.9942888E+02  0.7561462E-02  0.1281502E+00
          1   -1    0    0  501    0  0.00000000000E+00  0.00000000000E+00  0.43100067312E+02  0.43100067312E+02  0.00000000000E+00 0. -1.
         -1   -1    0    0    0  501 -0.00000000000E+00 -0.00000000000E+00 -0.39961509999E+03  0.39961509999E+03  0.00000000000E+00 0.  1.
         25    2    1    2    0    0 -0.15741443746E+02 -0.50930805797E+02 -0.19799645772E+03  0.24020523305E+03  0.12511681215E+03 0.  0.
          5    1    3    3  502    0 -0.25320910212E+02 -0.54401774193E+01  0.92123400383E+01  0.27804381548E+02  0.41800000000E+01 0. -1.
         -5    1    3    3    0  502  0.95794664654E+01 -0.45490628377E+02 -0.20720879776E+03  0.21240085150E+03  0.41800000000E+01 0. -1.
        -11    1    1    2    0    0 -0.36898429276E+01  0.85880545538E+02 -0.11143497190E+03  0.14073676139E+03  0.00000000000E+00 0.  1.
         11    1    1    2    0    0  0.19431286674E+02 -0.34949739742E+02 -0.47083603057E+02  0.61773172872E+02  0.00000000000E+00 0. -1.
</event>
<event>
 7    1  0.1538147E-010  0.1333903E+03  0.7561462E-02  0.1222510E+00
         -1   -1    0    0    0  501 -0.00000000000E+00  0.00000000000E+00  0.60078167854E+03  0.60078167854E+03  0.00000000000E+00 0.  1.
          1   -1    0    0  501    0  0.00000000000E+00 -0.00000000000E+00 -0.19109460259E+03  0.19109460259E+03  0.00000000000E+00 0. -1.
         25    2    1    2    0    0  0.56568540307E+02  0.62093042418E+02  0.56978996625E+03  0.58937054845E+03  0.12506595089E+03 0.  0.
          5    1    3    3  502    0 -0.21336003723E+02 -0.20210677813E+02  0.57861724172E+02  0.65031900455E+02  0.41800000000E+01 0.  1.
         -5    1    3    3    0  502  0.77904544030E+02  0.82303720231E+02  0.51192824208E+03  0.52433864799E+03  0.41800000000E+01 0.  1.
        -11    1    1    2    0    0  0.20842245068E+02 -0.36731102882E+02 -0.61540289165E+02  0.74637659991E+02  0.00000000000E+00 0. -1.
         11    1    1    2    0    0 -0.77410785375E+02 -0.25361939536E+02 -0.98562601133E+02  0.12786807268E+03  0.00000000000E+00 0.  1.
</event>
<event>
 7    1  0.1538147E-010  0.1114202E+03  0.7561462E-02  0.1257962E+00
         -1   -1    0    0    0  501 -0.00000000000E+00  0.00000000000E+00  0.12851059508E+03  0.12851059508E+03  0.00000000000E+00 0.  1.
          1   -1    0    0  501    0  0.00000000000E+00 -0.00000000000E+00 -0.15732372845E+03  0.15732372845E+03  0.00000000000E+00 0. -1.
         25    2    1    2    0    0 -0.61050299424E+02 -0.17509398214E+02  0.53196931353E+02  0.15000780857E+03  0.12505483214E+03 0.  0.
          5    1    3    3  502    0 -0.84001045410E+02  0.26960604163E+02  0.45006883322E+02  0.99126897224E+02  0.41800000000E+01 0.  1.
         -5    1    3    3    0  502  0.22950745987E+02 -0.44470002377E+02  0.81900480313E+01  0.50880911347E+02  0.41800000000E+01 0.  1.
        -11    1    1    2    0    0  0.40267891275E+02  0.37819749321E+02 -0.90077718239E+02  0.10566849970E+03  0.00000000000E+00 0. -1.
         11    1    1    2    0    0  0.20782408149E+02 -0.20310351107E+02  0.80676535148E+01  0.30158015250E+02  0.00000000000E+00 0.  1.
</event>
<event>
 6    1  0.1538147E-010  0.1952218E+03  0.7561462E-02  0.1153834E+00
          1   -1    0    0  501    0  0.00000000000E+00  0.00000000000E+00  0.57271243470E+02  0.57271243470E+02  0.00000000000E+00 0. -1.
         -1   -1    0    0    0  501 -0.00000000000E+00 -0.00000000000E+00 -0.83807543731E+03  0.83807543731E+03  0.00000000000E+00 0.  1.
          5    1    1    2  502    0 -0.14558635349E+01  0.41437576123E+01 -0.10304865484E+03  0.10322687600E+03  0.41800000000E+01 0. -1.
         -5    1    1    2    0  502  0.13673245917E+03 -0.13351634335E+03 -0.23533613896E+03  0.30318797805E+03  0.41800000000E+01 0. -1.
        -11    1    1    2    0    0 -0.43506695963E+02  0.74583120174E+02 -0.29135557989E+03  0.30388081272E+03  0.00000000000E+00 0.  1.
         11    1    1    2    0    0 -0.91769899676E+02  0.54789465568E+02 -0.15106382015E+03  0.18505101400E+03  0.00000000000E+00 0. -1.
</event>
<event>
 7    1  0.1538147E-010  0.1273009E+03  0.7561462E-02  0.1231517E+00
          4   -1    0    0  501    0  0.00000000000E+00  0.00000000000E+00  0.44864129018E+02  0.44864129018E+02  0.00000000000E+00 0. -1.
         -4   -1    0    0    0  501 -0.00000000000E+00 -0.00000000000E+00 -0.47243265587E+03  0.47243265587E+03  0.00000000000E+00 0.  1.
         25    2    1    2    0    0  0.60097159770E+02  0.44484650370E+02 -0.34225499988E+03  0.37197769942E+03  0.12505347333E+03 0.  0.
          5    1    3    3  502    0  0.80855287348E+02  0.68227953515E+02 -0.30570827501E+03  0.32352380584E+03  0.41800000000E+01 0. -1.
         -5    1    3    3    0  502 -0.20758127578E+02 -0.23743303144E+02 -0.36546724871E+02  0.48453893585E+02  0.41800000000E+01 0. -1.
        -11    1    1    2    0    0 -0.48849128268E+02  0.19016907591E+02 -0.46346783554E+02  0.69970739975E+02  0.00000000000E+00 0. -1.
         11    1    1    2    0    0 -0.11248031502E+02 -0.63501557961E+02 -0.38966743421E+02  0.75348345496E+02  0.00000000000E+00 0.  1.
</event>
<event>
 7    1  0.1538147E-010  0.1183288E+03  0.7561462E-02  0.1245880E+00
         -2   -1    0    0    0  501 -0.00000000000E+00  0.00000000000E+00  0.11291634795E+03  0.11291634795E+03  0.00000000000E+00 0.  1.
          2   -1    0    0  501    0  0.00000000000E+00 -0.00000000000E+00 -0.13213043067E+03  0.13213043067E+03  0.00000000000E+00 0. -1.
         25    2    1    2    0    0 -0.40396457826E+02  0.29826018386E+02 -0.76788171544E+01  0.13503007624E+03  0.12511071928E+03 0.  0.
          5    1    3    3  502    0 -0.52107804448E+02 -0.37506471511E+02 -0.15310335842E+02  0.66134994316E+02  0.41800000000E+01 0.  1.
         -5    1    3    3    0  502  0.11711346622E+02  0.67332489897E+02  0.76315186878E+01  0.68895081921E+02  0.41800000000E+01 0.  1.
        -11    1    1    2    0    0  0.23681270059E+02  0.31995946516E+02 -0.21440753768E+02  0.45213372659E+02  0.00000000000E+00 0. -1.
         11    1    1    2    0    0  0.16715187767E+02 -0.61821964902E+02  0.99054882050E+01  0.64803329722E+02  0.00000000000E+00 0.  1.
</event>
<event>
 7    1  0.1538147E-010  0.1070181E+03  0.7561462E-02  0.1266194E+00
         -3   -1    0    0    0  501 -0.00000000000E+00  0.00000000000E+00  0.14122186518E+03  0.14122186518E+03  0.00000000000E+00 0.  1.
          3   -1    0    0  501    0  0.00000000000E+00 -0.00000000000E+00 -0.15794836515E+03  0.15794836515E+03  0.00000000000E+00 0. -1.
         25    2    1    2    0    0  0.24341666806E+02 -0.65947929862E+02  0.65907408003E+02  0.15792517199E+03  0.12511965202E+03 0.  0.
          5    1    3    3  502    0  0.32221458225E+02 -0.97583784407E+02  0.25739217085E+02  0.10602262516E+03  0.41800000000E+01 0. -1.
         -5    1    3    3    0  502 -0.78797914196E+01  0.31635854545E+02  0.40168190918E+02  0.51902546828E+02  0.41800000000E+01 0. -1.
        -11    1    1    2    0    0 -0.31593560362E+02  0.37877297066E+02  0.43899449956E+01  0.49518827797E+02  0.00000000000E+00 0.  1.
         11    1    1    2    0    0  0.72518935565E+01  0.28070632796E+02 -0.87023852970E+02  0.91726230553E+02  0.00000000000E+00 0. -1.
</event>
<event>
 7    1  0.1538147E-010  0.3640020E+03  0.7561462E-02  0.1057010E+00
          2   -1    0    0  501    0  0.00000000000E+00  0.00000000000E+00  0.48830652021E+03  0.48830652021E+03  0.00000000000E+00 0. -1.
         -2   -1    0    0    0  501 -0.00000000000E+00 -0.00000000000E+00 -0.27455158954E+03  0.27455158954E+03  0.00000000000E+00 0.  1.
         25    2    1    2    0    0 -0.26944757514E+03 -0.22182205805E+03  0.13783807057E+03  0.39553476974E+03  0.12506557955E+03 0.  0.
          5    1    3    3  502    0 -0.10510707515E+03 -0.17939479703E+02  0.21018375725E+02  0.10875921430E+03  0.41800000000E+01 0. -1.
         -5    1    3    3    0  502 -0.16434049999E+03 -0.20388257835E+03  0.11681969484E+03  0.28677555544E+03  0.41800000000E+01 0. -1.
        -11    1    1    2    0    0  0.12961412077E+03  0.16155790127E+03  0.44149473143E+02  0.21177807191E+03  0.00000000000E+00 0.  1.
         11    1    1    2    0    0  0.13983345437E+03  0.60264156784E+02  0.31767386957E+02  0.15554526810E+03  0.00000000000E+00 0. -1.
</event>
<event>
 6    1  0.1538147E-010  0.1117682E+03  0.7561462E-02  0.1257330E+00
          1   -1    0    0  501    0  0.00000000000E+00  0.00000000000E+00  0.36423414427E+02  0.36423414427E+02  0.00000000000E+00 0. -1.
         -1   -1    0    0    0  501 -0.00000000000E+00 -0.00000000000E+00 -0.44802516176E+03  0.44802516176E+03  0.00000000000E+00 0.  1.
          5    1    1    2  502    0  0.55137578151E+02  0.62622251021E+02 -0.13402452159E+03  0.15792955276E+03  0.41800000000E+01 0. -1.
         -5    1    1    2    0  502 -0.33435680706E+02 -0.16999736271E+02 -0.90607496789E+01  0.38813726468E+02  0.41800000000E+01 0. -1.
        -11    1    1    2    0    0 -0.56248107294E+02 -0.34385733723E+02 -0.19199970259E+03  0.20300274395E+03  0.00000000000E+00 0.  1.
         11    1    1    2    0    0  0.34546209849E+02 -0.11236781027E+02 -0.76516773468E+02  0.84702553000E+02  0.00000000000E+00 0. -1.
</event>
<event>
 7    1  0.1538147E-010  0.9981807E+02  0.7561462E-02  0.1280679E+00
          1   -1    0    0  501    0  0.00000000000E+00  0.00000000000E+00  0.18136236249E+02  0.18136236249E+02  0.00000000000E+00 0. -1.
         -1   -1    0    0    0  501 -0.00000000000E+00 -0.00000000000E+00 -0.11137710650E+04  0.11137710650E+04  0.00000000000E+00 0.  1.
         25    2    1    2    0    0 -0.21739903723E+02 -0.47567880603E+02 -0.89698274888E+03  0.90716727278E+03  0.12505631663E+03 0.  0.
          5    1    3    3  502    0  0.33385164414E+02 -0.57576697182E+02 -0.67099196897E+03  0.67429766430E+03  0.41800000000E+01 0. -1.
         -5    1    3    3    0  502 -0.55125068137E+02  0.10008816580E+02 -0.22599077991E+03  0.23286960848E+03  0.41800000000E+01 0. -1.
        -11    1    1    2    0    0 -0.18112621584E+02  0.57557842342E+01 -0.12340070979E+01  0.19045180134E+02  0.00000000000E+00 0. -1.
         11    1    1    2    0    0  0.39852525308E+02  0.41812096368E+02 -0.19741807280E+03  0.20569484837E+03  0.00000000000E+00 0.  1.
</event>
<event>
 7    1  0.1538147E-010  0.1803051E+03  0.7561462E-02  0.1167508E+00
          3   -1    0    0  501    0  0.00000000000E+00  0.00000000000E+00  0.26570565590E+03  0.26570565590E+03  0.00000000000E+00 0. -1.
         -3   -1    0    0    0  501 -0.00000000000E+00 -0.00000000000E+00 -0.16199149542E+03  0.16199149542E+03  0.00000000000E+00 0.  1.
         25    2    1    2    0    0 -0.22144663619E+01  0.17647014460E+03  0.60274823952E+02  0.22458919354E+03  0.12514246144E+03 0.  0.
          5    1    3    3  502    0  0.51531429994E+01  0.13509269954E+03  0.98740379694E+02  0.16746261473E+03  0.41800000000E+01 0.  1.
         -5    1    3    3    0  502 -0.73676093613E+01  0.41377445061E+02 -0.38465555741E+02  0.57126578805E+02  0.41800000000E+01 0.  1.
        -11    1    1    2    0    0 -0.22862032117E+02 -0.66301374301E+02  0.55559714789E+02  0.89473049876E+02  0.00000000000E+00 0.  1.
         11    1    1    2    0    0  0.25076498479E+02 -0.11016877030E+03 -0.12120378259E+02  0.11363490790E+03  0.00000000000E+00 0. -1.
</event>
<event>
 7    1  0.1538147E-010  0.1118758E+03  0.7561462E-02  0.1257135E+00
         -1   -1    0    0    0  501 -0.00000000000E+00  0.00000000000E+00  0.27639377510E+02  0.27639377510E+02  0.00000000000E+00 0.  1.
          1   -1    0    0  501    0  0.00000000000E+00 -0.00000000000E+00 -0.72975444575E+03  0.72975444575E+03  0.00000000000E+00 0. -1.
         25    2    1    2    0    0  0.75830073610E+02  0.50825383668E+02 -0.39470255434E+03  0.42398238657E+03  0.12505014207E+03 0.  0.
          5    1    3    3  502    0  0.75552768882E+02  0.52337997933E+02 -0.40364194067E+03  0.41399489801E+03  0.41800000000E+01 0. -1.
         -5    1    3    3    0  502  0.27730472798E+00 -0.15126142643E+01  0.89393863286E+01  0.99874885610E+01  0.41800000000E+01 0. -1.
        -11    1    1    2    0    0 -0.80438586750E+02 -0.43148997283E+01 -0.16676254636E+03  0.18519916703E+03  0.00000000000E+00 0.  1.
         11    1    1    2    0    0  0.46085131397E+01 -0.46510483940E+02 -0.14064996754E+03  0.14821226966E+03  0.00000000000E+00 0. -1.
</event>
<event>
 6    1  0.1538147E-010  0.1057618E+03  0.7561462E-02  0.1268626E+00
         -1   -1    0    0    0  501 -0.00000000000E+00  0.00000000000E+00  0.24278972709E+02  0.24278972709E+02  0.00000000000E+00 0.  1.
          1   -1    0    0  501    0  0.00000000000E+00 -0.00000000000E+00 -0.54180528009E+03  0.54180528009E+03  0.00000000000E+00 0. -1.
          5    1    1    2  502    0 -0.32244045482E+02  0.28589268429E+02 -0.16942782775E+03  0.17487219892E+03  0.41800000000E+01 0. -1.
         -5    1    1    2    0  502  0.42864859926E+02 -0.62653948199E+02 -0.11385205897E+03  0.13690389759E+03  0.41800000000E+01 0. -1.
        -11    1    1    2    0    0 -0.14097420028E+02  0.62236773735E+02 -0.11290490903E+03  0.12969067715E+03  0.00000000000E+00 0.  1.
         11    1    1    2    0    0  0.34766055841E+01 -0.28172093965E+02 -0.12134151163E+03  0.12461747915E+03  0.00000000000E+00 0. -1.
</event>
<event>
 6    1  0.1538147E-010  0.1666208E+03  0.7561462E-02  0.1181418E+00
          1   -1    0    0  501    0  0.00000000000E+00  0.00000000000E+00  0.16354690129E+03  0.16354690129E+03  0.00000000000E+00 0. -1.
         -1   -1    0    0    0  501 -0.00000000000E+00 -0.00000000000E+00 -0.21714048067E+03  0.21714048067E+03  0.00000000000E+00 0.  1.
          5    1    1    2  502    0 -0.87477127114E+02  0.21805564234E+02 -0.94242527322E+02  0.13048699842E+03  0.41800000000E+01 0.  1.
         -5    1    1    2    0  502 -0.46390618872E+02 -0.63523822679E+02  0.18184833124E+01  0.78791781606E+02  0.41800000000E+01 0.  1.
        -11    1    1    2    0    0  0.25220842515E+02 -0.25979223941E+02  0.21811860778E+02  0.42270181504E+02  0.00000000000E+00 0. -1.
         11    1    1    2    0    0  0.10864690347E+03  0.67697482386E+02  0.17018603860E+02  0.12913842043E+03  0.00000000000E+00 0.  1.
</event>
<event>
 6    1  0.1538147E-010  0.1426853E+03  0.7561462E-02  0.1209761E+00
         -2   -1    0    0    0  501 -0.00000000000E+00  0.00000000000E+00  0.29926668737E+02  0.29926668737E+02  0.00000000000E+00 0.  1.
          2   -1    0    0  501    0  0.00000000000E+00 -0.00000000000E+00 -0.86631341125E+03  0.86631341125E+03  0.00000000000E+00 0. -1.
          5    1    1    2  502    0 -0.12977251859E+03 -0.24060261126E+02 -0.48586674495E+03  0.50349157787E+03  0.41800000000E+01 0.  1.
         -5    1    1    2    0  502  0.13874095827E+02  0.25046664154E+02 -0.40086828650E+02  0.49439378551E+02  0.41800000000E+01 0.  1.
        -11    1    1    2    0    0  0.53426350145E+02  0.22053305923E+02 -0.56632826361E+02  0.80919714617E+02  0.00000000000E+00 0.  1.
         11    1    1    2    0    0  0.62472072614E+02 -0.23039708951E+02 -0.25380034256E+03  0.26238940895E+03  0.00000000000E+00 0. -1.
</event>
<event>
 6    1  0.1538147E-010  0.1463484E+03  0.7561462E-02  0.1205033E+00
          1   -1    0    0  501    0  0.00000000000E+00  0.00000000000E+00  0.55373652254E+03  0.55373652254E+03  0.00000000000E+00 0. -1.
         -1   -1    0    0    0  501 -0.00000000000E+00 -0.00000000000E+00 -0.49158295079E+02  0.49158295079E+02  0.00000000000E+00 0.  1.
          5    1    1    2  502    0  0.10748559882E+03 -0.72572471524E+02  0.29426962436E+03  0.32160846040E+03  0.41800000000E+01 0.  1.
         -5    1    1    2    0  502  0.36045240672E+01  0.19242882092E+02 -0.12218196163E+01  0.20056080079E+02  0.41800000000E+01 0. -1.
        -11    1    1    2    0    0 -0.12177111190E+03  0.47160289826E+02  0.15179609435E+03  0.20023573829E+03  0.00000000000E+00 0.  1.
         11    1    1    2    0    0  0.10680989011E+02  0.61692996060E+01  0.59734328361E+02  0.60994538843E+02  0.00000000000E+00 0. -1.
</event>
<event>
 6    1  0.1538147E-010  0.1519373E+03  0.7561462E-02  0.1198112E+00
          2   -1    0    0  501    0  0.00000000000E+00  0.00000000000E+00  0.70112895552E+02  0.70112895552E+02  0.00000000000E+00 0. -1.
         -2   -1    0    0    0  501 -0.00000000000E+00 -0.00000000000E+00 -0.65633178449E+03  0.65633178449E+03  0.00000000000E+00 0.  1.
          5    1    1    2  502    0 -0.91865802706E+01 -0.62618855651E+01  0.18545562693E+02  0.22023050731E+02  0.41800000000E+01 0.  1.
         -5    1    1    2    0  502  0.59661343310E+02  0.13782661866E+03 -0.12237808055E+03  0.19377698443E+03  0.41800000000E+01 0.  1.
        -11    1    1    2    0    0 -0.32193820565E+02 -0.62422813890E+02 -0.37567433017E+03  0.38218353199E+03  0.00000000000E+00 0.  1.
         11    1    1    2    0    0 -0.18280942474E+02 -0.69141919204E+02 -0.10671204092E+03  0.12846111290E+03  0.00000000000E+00 0. -1.
</event>
<event>
 7    1  0.1538147E-010  0.1006454E+03  0.7561462E-02  0.1278945E+00
          1   -1    0    0  501    0  0.00000000000E+00  0.00000000000E+00  0.14991505688E+03  0.14991505688E+03  0.00000000000E+00 0. -1.
         -1   -1    0    0    0  501 -0.00000000000E+00 -0.00000000000E+00 -0.11821346557E+03  0.11821346557E+03  0.00000000000E+00 0.  1.
         25    2    1    2    0    0 -0.17814339224E+02  0.39212660503E+02 -0.44790577547E+02  0.13965223571E+03  0.12506625315E+03 0.  0.
          5    1    3    3  502    0 -0.22401510111E+02 -0.38714843352E+02  0.75778304206E+01  0.45558343527E+02  0.41800000000E+01 0. -1.
         -5    1    3    3    0  502  0.45871708865E+01  0.77927503855E+02 -0.52368407968E+02  0.94093892187E+02  0.41800000000E+01 0. -1.
        -11    1    1    2    0    0 -0.71498744764E+01 -0.50351240439E+02  0.40142874375E+01  0.51014533443E+02  0.00000000000E+00 0.  1.
         11    1    1    2    0    0  0.24964213700E+02  0.11138579937E+02  0.72477881422E+02  0.77461753298E+02  0.00000000000E+00 0. -1.
</event>
<event>
 6    1  0.1538147E-010  0.1283566E+03  0.7561462E-02  0.1229915E+00
         -1   -1    0    0    0  501 -0.00000000000E+00  0.00000000000E+00  0.31786023253E+02  0.31786023253E+02  0.00000000000E+00 0.  1.
          1   -1    0    0  501    0  0.00000000000E+00 -0.00000000000E+00 -0.87928263657E+03  0.87928263657E+03  0.00000000000E+00 0. -1.
          5    1    1    2  502    0  0.13263353588E+02  0.86612831615E+02 -0.25762578116E+03  0.27215108794E+03  0.41800000000E+01 0.  1.
         -5    1    1    2    0  502  0.45393369615E+02  0.53689900891E+01 -0.17371360342E+02  0.49077699821E+02  0.41800000000E+01 0.  1.
        -11    1    1    2    0    0  0.10293452527E+02 -0.24671991889E+02 -0.36470114757E+02  0.45218708728E+02  0.00000000000E+00 0.  1.
         11    1    1    2    0    0 -0.68950175730E+02 -0.67309829815E+02 -0.53602935706E+03  0.54462116333E+03  0.00000000000E+00 0. -1.
</event>
<event>
 6    1  0.1538147E-010  0.9767399E+02  0.7561462E-02  0.1285265E+00
         -1   -1    0    0    0  501 -0.00000000000E+00  0.00000000000E+00  0.32293141396E+03  0.32293141396E+03  0.00000000000E+00 0.  1.
          1   -1    0    0  501    0  0.00000000000E+00 -0.00000000000E+00 -0.43602246229E+02  0.43602246229E+02  0.00000000000E+00 0. -1.
          5    1    1    2  502    0 -0.69976135433E+02 -0.10692285761E+02  0.56355082460E+02  0.90577879330E+02  0.41800000000E+01 0.  1.
         -5    1    1    2    0  502  0.45267117951E+02 -0.43416625962E+02  0.10289787206E+03  0.12058009725E+03  0.41800000000E+01 0.  1.
        -11    1    1    2    0    0  0.16605261166E+02  0.17679706516E+02  0.11521539026E+03  0.11774078679E+03  0.00000000000E+00 0.  1.
         11    1    1    2    0    0  0.81037563152E+01  0.36429205208E+02  0.48608229408E+01  0.37634896814E+02  0.00000000000E+00 0. -1.
</event>
<event>
 6    1  0.1538147E-010  0.1243450E+03  0.7561462E-02  0.1236097E+00
         -1   -1    0    0    0  501 -0.00000000000E+00  0.00000000000E+00  0.62519468594E+02  0.62519468594E+02  0.00000000000E+00 0.  1.
          1   -1    0    0  501    0  0.00000000000E+00 -0.00000000000E+00 -0.41713798218E+03  0.41713798218E+03  0.00000000000E+00 0. -1.
          5    1    1    2  502    0 -0.47278766472E+02 -0.58874209136E+02 -0.13889569376E+03  0.15814847582E+03  0.41800000000E+01 0.  1.
         -5    1    1    2    0  502  0.63813816514E+02 -0.97420165768E+01 -0.19202576328E+03  0.20262891262E+03  0.41800000000E+01 0.  1.
        -11    1    1    2    0    0 -0.50146121943E+02  0.44052344782E+02  0.70603511892E+01  0.67119976055E+02  0.00000000000E+00 0.  1.
         11    1    1    2    0    0  0.33611071901E+02  0.24563880930E+02 -0.30757407732E+02  0.51760086273E+02  0.00000000000E+00 0. -1.
</event>
<event>
 6    1  0.1538147E-010  0.1380198E+03  0.7561462E-02  0.1216019E+00
          1   -1    0    0  501    0  0.00000000000E+00  0.00000000000E+00  0.34703594325E+02  0.34703594325E+02  0.00000000000E+00 0. -1.
         -1   -1    0    0    0  501 -0.00000000000E+00 -0.00000000000E+00 -0.61355215073E+03  0.61355215073E+03  0.00000000000E+00 0.  1.
          5    1    1    2  502    0  0.35301903031E+02  0.11530369424E+03 -0.17361682969E+03  0.21142715581E+03  0.41800000000E+01 0.  1.
         -5    1    1    2    0  502  0.60483323315E+01 -0.29970944886E+02 -0.93295046456E+02  0.98266362274E+02  0.41800000000E+01 0.  1.
        -11    1    1    2    0    0  0.24268941417E+02 -0.16053051246E+02 -0.12891996275E+03  0.13216292508E+03  0.00000000000E+00 0.  1.
         11    1    1    2    0    0 -0.65619176779E+02 -0.69279698104E+02 -0.18301671751E+03  0.20639930188E+03  0.00000000000E+00 0. -1.
</event>
<event>
 7    1  0.1538147E-010  0.7238101E+02  0.7561462E-02  0.1352179E+00
         -3   -1    0    0    0  501 -0.00000000000E+00  0.00000000000E+00  0.31875893036E+02  0.31875893036E+02  0.00000000000E+00 0.  1.
          3   -1    0    0  501    0  0.00000000000E+00 -0.00000000000E+00 -0.58449395422E+03  0.58449395422E+03  0.00000000000E+00 0. -1.
         25    2    1    2    0    0  0.93717659571E+01 -0.10557092913E+02 -0.49806563473E+03  0.51372258375E+03  0.12506891837E+03 0.  0.
          5    1    3    3  502    0 -0.38434579120E+02 -0.43782134012E+02 -0.34493248761E+03  0.34984280118E+03  0.41800000000E+01 0.  1.
         -5    1    3    3    0  502  0.47806345077E+02  0.33225041099E+02 -0.15313314712E+03  0.16387978256E+03  0.41800000000E+01 0.  1.
        -11    1    1    2    0    0 -0.14259503776E+02 -0.21037680053E+01 -0.75951667678E+02  0.77307277217E+02  0.00000000000E+00 0. -1.
         11    1    1    2    0    0  0.48877378189E+01  0.12660860919E+02  0.21399241226E+02  0.25339986291E+02  0.00000000000E+00 0.  1.
</event>
<event>
 6    1  0.1538147E-010  0.1059534E+03  0.7561462E-02  0.1268253E+00
          2   -1    0    0  501    0  0.00000000000E+00  0.00000000000E+00  0.16488367602E+03  0.16488367602E+03  0.00000000000E+00 0. -1.
         -2   -1    0    0    0  501 -0.00000000000E+00 -0.00000000000E+00 -0.94052007209E+02  0.94052007209E+02  0.00000000000E+00 0.  1.
          5    1    1    2  502    0 -0.84085315373E+02  0.30810990027E+02  0.83365999650E+01  0.90036818396E+02  0.41800000000E+01 0.  1.
         -5    1    1    2    0  502  0.39799314323E+02  0.13535868915E+02  0.39314059147E+02  0.57708515961E+02  0.41800000000E+01 0.  1.
        -11    1    1    2    0    0  0.87432089940E+01 -0.43592290750E+02 -0.25235932656E+02  0.51123221860E+02  0.00000000000E+00 0.  1.
         11    1    1    2    0    0  0.35542792057E+02 -0.75456819212E+00  0.48416942352E+02  0.60067127008E+02  0.00000000000E+00 0. -1.
</event>
<event>
 7    1  0.1538147E-010  0.8150407E+02  0.7561462E-02  0.1324836E+00
          4   -1    0    0  501    0  0.00000000000E+00  0.00000000000E+00  0.34651558988E+02  0.34651558988E+02  0.00000000000E+00 0.  1.
         -4   -1    0    0    0  501 -0.00000000000E+00 -0.00000000000E+00 -0.46868288617E+03  0.46868288617E+03  0.00000000000E+00 0. -1.
         25    2    1    2    0    0 -0.57570774081E+02 -0.39742242492E+02 -0.25755111715E+03  0.29475259245E+03  0.12511064281E+03 0.  0.
          5    1    3    3  502    0 -0.24121502684E+02 -0.17373974100E+02 -0.25215839391E+03  0.25393902789E+03  0.41800000000E+01 0. -1.
         -5    1    3    3    0  502 -0.33449271397E+02 -0.22368268392E+02 -0.53927232404E+01  0.40813564556E+02  0.41800000000E+01 0. -1.
        -11    1    1    2    0    0  0.46118961030E+02  0.56063172282E+02 -0.72103273229E+02  0.10231773973E+03  0.00000000000E+00 0.  1.
         11    1    1    2    0    0  0.11451813051E+02 -0.16320929790E+02 -0.10437693681E+03  0.10626411298E+03  0.00000000000E+00 0. -1.
</event>
<event>
 7    1  0.1538147E-010  0.1194682E+03  0.7561462E-02  0.1243977E+00
          1   -1    0    0  501    0  0.00000000000E+00  0.00000000000E+00  0.46192170755E+03  0.46192170755E+03  0.00000000000E+00 0. -1.
         -1   -1    0    0    0  501 -0.00000000000E+00 -0.00000000000E+00 -0.32210628238E+02  0.32210628238E+02  0.00000000000E+00 0.  1.
         25    2    1    2    0    0 -0.24340604118E+02 -0.46456214256E+02  0.19550805321E+03  0.23796583331E+03  0.12511472377E+03 0.  0.
          5    1    3    3  502    0 -0.19076709463E+02 -0.89499988743E+02  0.14170597060E+03  0.16873714272E+03  0.41800000000E+01 0.  1.
         -5    1    3    3    0  502 -0.52638946555E+01  0.43043774486E+02  0.53802082608E+02  0.69228690599E+02  0.41800000000E+01 0.  1.
        -11    1    1    2    0    0  0.77148494667E+01 -0.27191121150E+02  0.61893654862E+02  0.68041902412E+02  0.00000000000E+00 0. -1.
         11    1    1    2    0    0  0.16625754651E+02  0.73647335406E+02  0.17230937125E+03  0.18812460006E+03  0.00000000000E+00 0.  1.
</event>
<event>
 7    1  0.1538147E-010  0.2886441E+03  0.7561462E-02  0.1091059E+00
          1   -1    0    0  501    0  0.00000000000E+00  0.00000000000E+00  0.18943137282E+04  0.18943137282E+04  0.00000000000E+00 0. -1.
         -1   -1    0    0    0  501 -0.00000000000E+00 -0.00000000000E+00 -0.67139449898E+02  0.67139449898E+02  0.00000000000E+00 0.  1.
         25    2    1    2    0    0 -0.23551151716E+03 -0.15484561117E+03  0.14489488071E+04  0.14814011554E+04  0.12511554410E+03 0.  0.
          5    1    3    3  502    0 -0.12452928314E+03 -0.91161056972E+02  0.10775993975E+04  0.10886026890E+04  0.41800000000E+01 0.  1.
         -5    1    3    3    0  502 -0.11098223402E+03 -0.63684554203E+02  0.37134940962E+03  0.39279846631E+03  0.41800000000E+01 0.  1.
        -11    1    1    2    0    0  0.24261598857E+03  0.14469704745E+03  0.36840534740E+03  0.46424374357E+03  0.00000000000E+00 0. -1.
         11    1    1    2    0    0 -0.71044714140E+01  0.10148563723E+02  0.98201237807E+01  0.15808279184E+02  0.00000000000E+00 0.  1.
</event>
<event>
 7    1  0.1538147E-010  0.1673984E+03  0.7561462E-02  0.1180588E+00
         -2   -1    0    0    0  501 -0.00000000000E+00  0.00000000000E+00  0.18480702979E+03  0.18480702979E+03  0.00000000000E+00 0.  1.
          2   -1    0    0  501    0  0.00000000000E+00 -0.00000000000E+00 -0.18273342917E+03  0.18273342917E+03  0.00000000000E+00 0. -1.
         25    2    1    2    0    0  0.14516372211E+03 -0.82638353312E+01  0.24497859018E+02  0.19337820374E+03  0.12511669511E+03 0.  0.
          5    1    3    3  502    0  0.43285453074E+02  0.54286954401E+02 -0.63416510642E+01  0.69845492368E+02  0.41800000000E+01 0. -1.
         -5    1    3    3    0  502  0.10187826904E+03 -0.62550789732E+02  0.30839510082E+02  0.12353271138E+03  0.41800000000E+01 0. -1.
        -11    1    1    2    0    0 -0.53702039045E+02  0.69279367506E+01 -0.54887637120E+02  0.77100959876E+02  0.00000000000E+00 0. -1.
         11    1    1    2    0    0 -0.91461683065E+02  0.13358985807E+01  0.32463378728E+02  0.97061295337E+02  0.00000000000E+00 0.  1.
</event>
<event>
 7    1  0.1538147E-010  0.1125456E+03  0.7561462E-02  0.1255927E+00
          2   -1    0    0  501    0  0.00000000000E+00  0.00000000000E+00  0.17509744750E+03  0.17509744750E+03  0.00000000000E+00 0. -1.
         -2   -1    0    0    0  501 -0.00000000000E+00 -0.00000000000E+00 -0.15100838709E+03  0.15100838709E+03  0.00000000000E+00 0.  1.
         25    2    1    2    0    0  0.69788611348E+02 -0.44764252674E+02 -0.75833073688E+02  0.16816359033E+03  0.12511614387E+03 0.  0.
          5    1    3    3  502    0 -0.29961540500E+02 -0.25173788865E+02 -0.49180448602E+02  0.62988907592E+02  0.41800000000E+01 0.  1.
         -5    1    3    3    0  502  0.99750151847E+02 -0.19590463810E+02 -0.26652625086E+02  0.10517468274E+03  0.41800000000E+01 0.  1.
        -11    1    1    2    0    0 -0.43932807306E+02  0.35653691966E+02  0.11389366865E+03  0.12717328755E+03  0.00000000000E+00 0. -1.
         11    1    1    2    0    0 -0.25855804041E+02  0.91105607085E+01 -0.13971534546E+02  0.30768956703E+02  0.00000000000E+00 0.  1.
</event>
<event>
 7    1  0.1538147E-010  0.9435801E+02  0.7561462E-02  0.1292629E+00
          1   -1    0    0  501    0  0.00000000000E+00  0.00000000000E+00  0.64966688419E+02  0.64966688419E+02  0.00000000000E+00 0. -1.
         -1   -1    0    0    0  501 -0.00000000000E+00 -0.00000000000E+00 -0.25867532209E+03  0.25867532209E+03  0.00000000000E+00 0.  1.
         25    2    1    2    0    0  0.34901829247E+02  0.51777518033E+02 -0.74166772912E+02  0.15821628922E+03  0.12503053592E+03 0.  0.
          5    1    3    3  502    0  0.94015588344E+01  0.50594953662E+02  0.23828817268E+02  0.56864079848E+02  0.41800000000E+01 0. -1.
         -5    1    3    3    0  502  0.25500270413E+02  0.11825643709E+01 -0.97995590180E+02  0.10135220937E+03  0.41800000000E+01 0. -1.
        -11    1    1    2    0    0 -0.64440943858E+02 -0.50110981018E+02 -0.10334470759E+03  0.13169614364E+03  0.00000000000E+00 0.  1.
         11    1    1    2    0    0  0.29539114610E+02 -0.16665370142E+01 -0.16197153174E+02  0.33729577651E+02  0.00000000000E+00 0. -1.
</event>
<event>
 7    1  0.1538147E-010  0.1649104E+03  0.7561462E-02  0.1183262E+00
          1   -1    0    0  501    0  0.00000000000E+00  0.00000000000E+00  0.96571041731E+02  0.96571041731E+02  0.00000000000E+00 0. -1.
         -1   -1    0    0    0  501 -0.00000000000E+00 -0.00000000000E+00 -0.33727656145E+03  0.33727656145E+03  0.00000000000E+00 0.  1.
         25    2    1    2    0    0 -0.33063894312E+02 -0.14118956834E+03 -0.13068607494E+03  0.23186301601E+03  0.12511551740E+03 0.  0.
          5    1    3    3  502    0 -0.64570977868E+02 -0.12163744116E+03 -0.56678033972E+02  0.14897969730E+03  0.41800000000E+01 0. -1.
         -5    1    3    3    0  502  0.31507083557E+02 -0.19552127185E+02 -0.74008040972E+02  0.82883318709E+02  0.41800000000E+01 0. -1.
        -11    1    1    2    0    0  0.46441768306E+02  0.12700656747E+03 -0.11935369932E+03  0.18036854373E+03  0.00000000000E+00 0.  1.
         11    1    1    2    0    0 -0.13377873994E+02  0.14183000872E+02  0.93342545452E+01  0.21616043446E+02  0.00000000000E+00 0. -1.
</event>
<event>
 7    1  0.1538147E-010  0.1026396E+03  0.7561462E-02  0.1274841E+00
          2   -1    0    0  501    0  0.00000000000E+00  0.00000000000E+00  0.80734480079E+03  0.80734480079E+03  0.00000000000E+00 0. -1.
         -2   -1    0    0    0  501 -0.00000000000E+00 -0.00000000000E+00 -0.24381095828E+02  0.24381095828E+02  0.00000000000E+00 0.  1.
         25    2    1    2    0    0  0.25653960084E+01 -0.53227213605E+01  0.69556902195E+03  0.70675801380E+03  0.12512279227E+03 0.  0.
          5    1    3    3  502    0 -0.56373707108E+02 -0.79499113530E+01  0.47421150333E+03  0.47763502618E+03  0.41800000000E+01 0. -1.
         -5    1    3    3    0  502  0.58939103117E+02  0.26271899925E+01  0.22135751863E+03  0.22912298762E+03  0.41800000000E+01 0. -1.
        -11    1    1    2    0    0  0.26477245176E+02  0.37370261292E+02  0.49857355783E+02  0.67700346135E+02  0.00000000000E+00 0.  1.
         11    1    1    2    0    0 -0.29042641184E+02 -0.32047539931E+02  0.37537327223E+02  0.57267536682E+02  0.00000000000E+00 0. -1.
</event>
<event>
 6    1  0.1538147E-010  0.1514462E+03  0.7561462E-02  0.1198707E+00
         -2   -1    0    0    0  501 -0.00000000000E+00  0.00000000000E+00  0.18504373890E+02  0.18504373890E+02  0.00000000000E+00 0.  1.
          2   -1    0    0  501    0  0.00000000000E+00 -0.00000000000E+00 -0.13993904247E+04  0.13993904247E+04  0.00000000000E+00 0. -1.
          5    1    1    2  502    0  0.48274864363E+02  0.13154792724E+03 -0.69127469002E+03  0.70534636113E+03  0.41800000000E+01 0.  1.
         -5    1    1    2    0  502 -0.13808518730E+02 -0.23619279199E+02 -0.17980944950E+03  0.18192706250E+03  0.41800000000E+01 0.  1.
        -11    1    1    2    0    0 -0.56849666539E+02 -0.63175463079E+02 -0.20789773753E+03  0.22459851511E+03  0.00000000000E+00 0.  1.
         11    1    1    2    0    0  0.22383320906E+02 -0.44753184964E+02 -0.30190417377E+03  0.30602285986E+03  0.00000000000E+00 0. -1.
</event>
<event>
 6    1  0.1538147E-010  0.1597232E+03  0.7561462E-02  0.1189010E+00
          3   -1    0    0  501    0  0.00000000000E+00  0.00000000000E+00  0.36833715997E+03  0.36833715997E+03  0.00000000000E+00 0.  1.
         -3   -1    0    0    0  501 -0.00000000000E+00 -0.00000000000E+00 -0.88922593499E+02  0.88922593499E+02  0.00000000000E+00 0. -1.
          5    1    1    2  502    0  0.16340028413E+02  0.29280748361E+02 -0.12078574090E+02  0.35884858996E+02  0.41800000000E+01 0.  1.
         -5    1    1    2    0  502 -0.12189343404E+03  0.60547601924E+02  0.10900235574E+03  0.17442192327E+03  0.41800000000E+01 0.  1.
        -11    1    1    2    0    0  0.61783093086E+02 -0.16265446112E+02  0.13429567181E+03  0.14871799755E+03  0.00000000000E+00 0.  1.
         11    1    1    2    0    0  0.43770312541E+02 -0.73562904174E+02  0.48195113013E+02  0.98234973654E+02  0.00000000000E+00 0. -1.
</event>
<event>
 6    1  0.1538147E-010  0.1172378E+03  0.7561462E-02  0.1247725E+00
          2   -1    0    0  501    0  0.00000000000E+00  0.00000000000E+00  0.78812967558E+03  0.78812967558E+03  0.00000000000E+00 0.  1.
         -2   -1    0    0    0  501 -0.00000000000E+00 -0.00000000000E+00 -0.21526673742E+02  0.21526673742E+02  0.00000000000E+00 0. -1.
          5    1    1    2  502    0  0.34369982334E+02 -0.49667524375E+02  0.11795061941E+03  0.13258197345E+03  0.41800000000E+01 0. -1.
         -5    1    1    2    0  502 -0.69024434864E+02 -0.13118218272E+02  0.35404012886E+03  0.36096862122E+03  0.41800000000E+01 0. -1.
        -11    1    1    2    0    0  0.58451258839E+02  0.42367838867E+02  0.13155453310E+03  0.15006058313E+03  0.00000000000E+00 0. -1.
         11    1    1    2    0    0 -0.23796806309E+02  0.20417903779E+02  0.16305772046E+03  0.16604517153E+03  0.00000000000E+00 0.  1.
</event>
<event>
 7    1  0.1548516E-010  0.1175186E+03  0.7561462E-02  0.1247248E+00
         -1   -1    0    0    0  501 -0.00000000000E+00  0.00000000000E+00  0.83809736786E+02  0.83809736786E+02  0.00000000000E+00 0.  1.
          1   -1    0    0  501    0  0.00000000000E+00 -0.00000000000E+00 -0.22997741024E+03  0.22997741024E+03  0.00000000000E+00 0. -1.
         25    2    1    2    0    0 -0.81467271313E+02 -0.17459062868E+02 -0.10615479995E+03  0.18401995452E+03  0.12511101845E+03 0.  0.
          5    1    3    3  502    0  0.25594309437E+02  0.13041876362E+02  0.15472697114E+01  0.29069325038E+02  0.41800000000E+01 0.  1.
         -5    1    3    3    0  502 -0.10706158075E+03 -0.30500939230E+02 -0.10770206966E+03  0.15495062948E+03  0.41800000000E+01 0.  1.
        -11    1    1    2    0    0  0.64769782114E+02 -0.68357077479E+01  0.15467634299E+02  0.66941013485E+02  0.00000000000E+00 0.  1.
         11    1    1    2    0    0  0.16697489198E+02  0.24294770616E+02 -0.55480507798E+02  0.62826179020E+02  0.00000000000E+00 0. -1.
</event>
<event>
 7    1  0.1538147E-010  0.8318301E+02  0.7561462E-02  0.1320254E+00
         -1   -1    0    0    0  501 -0.00000000000E+00  0.00000000000E+00  0.55812241733E+02  0.55812241733E+02  0.00000000000E+00 0.  1.
          1   -1    0    0  501    0  0.00000000000E+00 -0.00000000000E+00 -0.22082557824E+03  0.22082557824E+03  0.00000000000E+00 0. -1.
         25    2    1    2    0    0  0.64796871517E+01 -0.20469358103E+02 -0.73470069997E+02  0.14666981946E+03  0.12511276429E+03 0.  0.
          5    1    3    3  502    0  0.13444716539E+01 -0.56094853553E+02  0.86341615534E+01  0.56925050241E+02  0.41800000000E+01 0. -1.
         -5    1    3    3    0  502  0.51352154978E+01  0.35625495450E+02 -0.82104231550E+02  0.89744769222E+02  0.41800000000E+01 0. -1.
        -11    1    1    2    0    0  0.16438521570E+01 -0.26321699431E+02  0.51907607568E+00  0.26378088461E+02  0.00000000000E+00 0.  1.
         11    1    1    2    0    0 -0.81235393086E+01  0.46791057534E+02 -0.92062342582E+02  0.10358991205E+03  0.00000000000E+00 0. -1.
</event>
<event>
 6    1  0.1538147E-010  0.7883853E+02  0.7561462E-02  0.1332380E+00
         -1   -1    0    0    0  501 -0.00000000000E+00  0.00000000000E+00  0.33727664969E+02  0.33727664969E+02  0.00000000000E+00 0.  1.
          1   -1    0    0  501    0  0.00000000000E+00 -0.00000000000E+00 -0.36518352494E+03  0.36518352494E+03  0.00000000000E+00 0. -1.
          5    1    1    2  502    0 -0.33938763012E+02  0.86320409904E+01  0.49657195470E+01  0.35615762480E+02  0.41800000000E+01 0. -1.
         -5    1    1    2    0  502  0.38351125183E+02  0.29232712549E+01 -0.15701096154E+03  0.16170735531E+03  0.41800000000E+01 0. -1.
        -11    1    1    2    0    0  0.37781531922E+02  0.55577552224E+01 -0.12466181797E+03  0.13037983608E+03  0.00000000000E+00 0. -1.
         11    1    1    2    0    0 -0.42193894094E+02 -0.17113067468E+02 -0.54748800007E+02  0.71208236034E+02  0.00000000000E+00 0.  1.
</event>
<event>
 7    1  0.1538147E-010  0.1898809E+03  0.7561462E-02  0.1158569E+00
         -1   -1    0    0    0  501 -0.00000000000E+00  0.00000000000E+00  0.41166834518E+03  0.41166834518E+03  0.00000000000E+00 0.  1.
          1   -1    0    0  501    0  0.00000000000E+00 -0.00000000000E+00 -0.10703263282E+03  0.10703263282E+03  0.00000000000E+00 0. -1.
         25    2    1    2    0    0  0.46189470363E+02  0.16802983291E+03  0.20856907609E+03  0.29921580184E+03  0.12514609324E+03 0.  0.
          5    1    3    3  502    0 -0.23666344382E+02  0.51580211492E+01 -0.11577803857E+01  0.24607191916E+02  0.41800000000E+01 0.  1.
         -5    1    3    3    0  502  0.69855814745E+02  0.16287181176E+03  0.20972685647E+03  0.27460860993E+03  0.41800000000E+01 0.  1.
        -11    1    1    2    0    0 -0.14306865619E+02 -0.12044155053E+02  0.50546101270E+02  0.53894864582E+02  0.00000000000E+00 0.  1.
         11    1    1    2    0    0 -0.31882604744E+02 -0.15598567786E+03  0.45520534998E+02  0.16559031158E+03  0.00000000000E+00 0. -1.
</event>
<event>
 7    1  0.1538147E-010  0.1058229E+03  0.7561462E-02  0.1268507E+00
          2   -1    0    0  501    0  0.00000000000E+00  0.00000000000E+00  0.50695875673E+03  0.50695875673E+03  0.00000000000E+00 0. -1.
         -2   -1    0    0    0  501 -0.00000000000E+00 -0.00000000000E+00 -0.23852832814E+02  0.23852832814E+02  0.00000000000E+00 0.  1.
         25    2    1    2    0    0  0.73683925243E+01  0.65544517436E-03  0.26674706138E+03  0.29470031564E+03  0.12505993792E+03 0.  0.
          5    1    3    3  502    0 -0.25277899497E+01 -0.58325461193E+02  0.82572841638E+02  0.10121262630E+03  0.41800000000E+01 0. -1.
         -5    1    3    3    0  502  0.98961824741E+01  0.58326116638E+02  0.18417421975E+03  0.19348768935E+03  0.41800000000E+01 0. -1.
        -11    1    1    2    0    0 -0.38926485976E+02 -0.30856410915E+02  0.12907212861E+03  0.13830041138E+03  0.00000000000E+00 0. -1.
         11    1    1    2    0    0  0.31558093452E+02  0.30855755470E+02  0.87286733927E+02  0.97810862523E+02  0.00000000000E+00 0.  1.
</event>
<event>
 6    1  0.1538147E-010  0.1077508E+03  0.7561462E-02  0.1264793E+00
         -1   -1    0    0    0  501 -0.00000000000E+00  0.00000000000E+00  0.31968267472E+02  0.31968267472E+02  0.00000000000E+00 0.  1.
          1   -1    0    0  501    0  0.00000000000E+00 -0.00000000000E+00 -0.41101233831E+03  0.41101233831E+03  0.00000000000E+00 0. -1.
          5    1    1    2  502    0 -0.60760820727E+02  0.53440932008E+02 -0.12233149694E+03  0.14673199410E+03  0.41800000000E+01 0.  1.
         -5    1    1    2    0  502  0.31741028769E+02 -0.33984085046E+02 -0.11403302155E+03  0.12322099394E+03  0.41800000000E+01 0.  1.
        -11    1    1    2    0    0  0.57238879649E+02 -0.15419410023E+02 -0.55125566365E+02  0.80949833946E+02  0.00000000000E+00 0. -1.
         11    1    1    2    0    0 -0.28219087690E+02 -0.40374369389E+01 -0.87553985984E+02  0.92077783796E+02  0.00000000000E+00 0.  1.
</event>
<event>
 6    1  0.1538147E-010  0.6607138E+02  0.7561462E-02  0.1373986E+00
          1   -1    0    0  501    0  0.00000000000E+00  0.00000000000E+00  0.12375254613E+04  0.12375254613E+04  0.00000000000E+00 0. -1.
         -1   -1    0    0    0  501 -0.00000000000E+00 -0.00000000000E+00 -0.11962907963E+02  0.11962907963E+02  0.00000000000E+00 0.  1.
          5    1    1    2  502    0  0.12044918864E+02  0.88448320522E+01  0.84781831373E+03  0.84796030368E+03  0.41800000000E+01 0.  1.
         -5    1    1    2    0  502 -0.34081512974E+02 -0.24400062543E+02  0.10121339730E+03  0.10962908725E+03  0.41800000000E+01 0.  1.
        -11    1    1    2    0    0  0.12367948223E+02  0.43346797856E+02  0.24360570473E+03  0.24774109551E+03  0.00000000000E+00 0. -1.
         11    1    1    2    0    0  0.96686458868E+01 -0.27791567365E+02  0.32925137549E+02  0.44157882791E+02  0.00000000000E+00 0.  1.
</event>
<event>
 7    1  0.1538147E-010  0.1294792E+03  0.7561462E-02  0.1228230E+00
         -1   -1    0    0    0  501 -0.00000000000E+00  0.00000000000E+00  0.16446943329E+02  0.16446943329E+02  0.00000000000E+00 0.  1.
          1   -1    0    0  501    0  0.00000000000E+00 -0.00000000000E+00 -0.11586267968E+04  0.11586267968E+04  0.00000000000E+00 0. -1.
         25    2    1    2    0    0 -0.45467086531E+02  0.60193114336E+02 -0.78255884762E+03  0.79608466133E+03  0.12514779685E+03 0.  0.
          5    1    3    3  502    0 -0.27880197124E+02  0.98210380482E+02 -0.60770366118E+03  0.61623355673E+03  0.41800000000E+01 0.  1.
         -5    1    3    3    0  502 -0.17586889407E+02 -0.38017266145E+02 -0.17485518643E+03  0.17985110460E+03  0.41800000000E+01 0.  1.
        -11    1    1    2    0    0 -0.17796217255E+02 -0.46732485271E+02 -0.10527643711E+03  0.11654938327E+03  0.00000000000E+00 0. -1.
         11    1    1    2    0    0  0.63263303786E+02 -0.13460629065E+02 -0.25434456869E+03  0.26243969548E+03  0.00000000000E+00 0.  1.
</event>
<event>
 6    1  0.1538147E-010  0.9934065E+02  0.7561462E-02  0.1281689E+00
         -4   -1    0    0    0  501 -0.00000000000E+00  0.00000000000E+00  0.14724126200E+03  0.14724126200E+03  0.00000000000E+00 0.  1.
          4   -1    0    0  501    0  0.00000000000E+00 -0.00000000000E+00 -0.13348787373E+03  0.13348787373E+03  0.00000000000E+00 0. -1.
          5    1    1    2  502    0 -0.34834538644E+02  0.34497231278E+02 -0.69811295955E+02  0.85408392393E+02  0.41800000000E+01 0.  1.
         -5    1    1    2    0  502 -0.42783145646E+02 -0.32443441830E+01  0.50953100521E+02  0.66742896050E+02  0.41800000000E+01 0.  1.
        -11    1    1    2    0    0  0.32355077782E+02 -0.48187333628E+02  0.50610195517E+02  0.77008194828E+02  0.00000000000E+00 0.  1.
         11    1    1    2    0    0  0.45262606507E+02  0.16934446533E+02 -0.17998611818E+02  0.51569652457E+02  0.00000000000E+00 0. -1.
</event>
<event>
 7    1  0.1538147E-010  0.8876747E+02  0.7561462E-02  0.1305864E+00
          2   -1    0    0  501    0  0.00000000000E+00  0.00000000000E+00  0.20620675622E+03  0.20620675622E+03  0.00000000000E+00 0. -1.
         -2   -1    0    0    0  501 -0.00000000000E+00 -0.00000000000E+00 -0.11390610840E+03  0.11390610840E+03  0.00000000000E+00 0.  1.
         25    2    1    2    0    0 -0.21069235183E+02  0.19612593170E+02 -0.60388274009E+02  0.14182855913E+03  0.12506010581E+03 0.  0.
          5    1    3    3  502    0 -0.47871159267E+02  0.31644254758E+02 -0.85430711798E+02  0.10299944498E+03  0.41800000000E+01 0. -1.
         -5    1    3    3    0  502  0.26801924084E+02 -0.12031661588E+02  0.25042437789E+02  0.38829114149E+02  0.41800000000E+01 0. -1.
        -11    1    1    2    0    0  0.29814682263E+02  0.28605948349E+02  0.53011988896E+02  0.67212249822E+02  0.00000000000E+00 0.  1.
         11    1    1    2    0    0 -0.87454470807E+01 -0.48218541519E+02  0.99676932931E+02  0.11107205566E+03  0.00000000000E+00 0. -1.
</event>
<event>
 7    1  0.1538147E-010  0.1581468E+03  0.7561462E-02  0.1190805E+00
          2   -1    0    0  501    0  0.00000000000E+00  0.00000000000E+00  0.89122597845E+02  0.89122597845E+02  0.00000000000E+00 0. -1.
         -2   -1    0    0    0  501 -0.00000000000E+00 -0.00000000000E+00 -0.35443716796E+03  0.35443716796E+03  0.00000000000E+00 0.  1.
         25    2    1    2    0    0 -0.13915412086E+03  0.12571751211E+02 -0.12500496328E+03  0.22539068456E+03  0.12511115682E+03 0.  0.
          5    1    3    3  502    0 -0.11104169518E+02 -0.17709180457E+02 -0.85244702994E+02  0.87869502341E+02  0.41800000000E+01 0.  1.
         -5    1    3    3    0  502 -0.12804995134E+03  0.30280931668E+02 -0.39760260286E+02  0.13752118222E+03  0.41800000000E+01 0.  1.
        -11    1    1    2    0    0  0.77356174697E+02  0.35424870496E+02 -0.95883203228E+02  0.12818926583E+03  0.00000000000E+00 0.  1.
         11    1    1    2    0    0  0.61797946159E+02 -0.47996621707E+02 -0.44426403607E+02  0.89979815415E+02  0.00000000000E+00 0. -1.
</event>
<event>
 6    1  0.1538147E-010  0.7862604E+02  0.7561462E-02  0.1332996E+00
         -1   -1    0    0    0  501 -0.00000000000E+00  0.00000000000E+00  0.29407525575E+03  0.29407525575E+03  0.00000000000E+00 0.  1.
          1   -1    0    0  501    0  0.00000000000E+00 -0.00000000000E+00 -0.73923352324E+02  0.73923352324E+02  0.00000000000E+00 0. -1.
          5    1    1    2  502    0 -0.10544665873E+02 -0.44903662032E+01 -0.12870127558E+02  0.17733187823E+02  0.41800000000E+01 0.  1.
         -5    1    1    2    0  502  0.71767612363E+02 -0.24862199266E+02  0.22639520542E+03  0.23883253667E+03  0.41800000000E+01 0.  1.
        -11    1    1    2    0    0 -0.20632559363E+02  0.16469707039E+02  0.46256703535E+02  0.53260082405E+02  0.00000000000E+00 0.  1.
         11    1    1    2    0    0 -0.40590387127E+02  0.12882858430E+02 -0.39629877971E+02  0.58172801174E+02  0.00000000000E+00 0. -1.
</event>
<event>
 7    1  0.1538147E-010  0.2543711E+03  0.7561462E-02  0.1110573E+00
         -2   -1    0    0    0  501 -0.00000000000E+00  0.00000000000E+00  0.11152031601E+04  0.11152031601E+04  0.00000000000E+00 0.  1.
          2   -1    0    0  501    0  0.00000000000E+00 -0.00000000000E+00 -0.67280350364E+02  0.67280350364E+02  0.00000000000E+00 0. -1.
         25    2    1    2    0    0 -0.16356930267E+03 -0.18938739237E+03  0.50199071830E+03  0.57468141887E+03  0.12506618557E+03 0.  0.
          5    1    3    3  502    0 -0.36848020790E+02 -0.55348759035E+02  0.27088976116E+03  0.27896235744E+03  0.41800000000E+01 0. -1.
         -5    1    3    3    0  502 -0.12672128188E+03 -0.13403863334E+03  0.23110095714E+03  0.29571906144E+03  0.41800000000E+01 0. -1.
        -11    1    1    2    0    0  0.15425993544E+03  0.14314726035E+03  0.37004342558E+03  0.42569872285E+03  0.00000000000E+00 0. -1.
         11    1    1    2    0    0  0.93093672314E+01  0.46240132021E+02  0.17588866582E+03  0.18210336870E+03  0.00000000000E+00 0.  1.
</event>
<event>
 7    1  0.1538147E-010  0.1332840E+03  0.7561462E-02  0.1222663E+00
         -2   -1    0    0    0  501 -0.00000000000E+00  0.00000000000E+00  0.34255536069E+02  0.34255536069E+02  0.00000000000E+00 0.  1.
          2   -1    0    0  501    0  0.00000000000E+00 -0.00000000000E+00 -0.66186003168E+03  0.66186003168E+03  0.00000000000E+00 0. -1.
         25    2    1    2    0    0 -0.73471062766E+02  0.32864261032E+02 -0.48772283340E+03  0.50991035964E+03  0.12512775843E+03 0.  0.
          5    1    3    3  502    0 -0.10199217528E+03  0.29209253844E+01 -0.27929470988E+03  0.29737845078E+03  0.41800000000E+01 0.  1.
         -5    1    3    3    0  502  0.28521112510E+02  0.29943335648E+02 -0.20842812352E+03  0.21253190885E+03  0.41800000000E+01 0.  1.
        -11    1    1    2    0    0  0.87439299791E+02 -0.28748804146E+00 -0.98020895016E+02  0.13135375768E+03  0.00000000000E+00 0.  1.
         11    1    1    2    0    0 -0.13968237025E+02 -0.32576772991E+02 -0.41860767197E+02  0.54851450431E+02  0.00000000000E+00 0. -1.
</event>
<event>
 7    1  0.1538147E-010  0.1319746E+03  0.7561462E-02  0.1224555E+00
          2   -1    0    0  501    0  0.00000000000E+00  0.00000000000E+00  0.57955624597E+02  0.57955624597E+02  0.00000000000E+00 0. -1.
         -2   -1    0    0    0  501 -0.00000000000E+00 -0.00000000000E+00 -0.34718307189E+03  0.34718307189E+03  0.00000000000E+00 0.  1.
         25    2    1    2    0    0 -0.75913438331E+02  0.17986616328E+02 -0.12800583948E+03  0.19522608047E+03  0.12506541916E+03 0.  0.
          5    1    3    3  502    0 -0.93501458501E+02 -0.23760668118E+02 -0.10981050721E+03  0.14622897109E+03  0.41800000000E+01 0.  1.
         -5    1    3    3    0  502  0.17588020170E+02  0.41747284446E+02 -0.18195332267E+02  0.48997109388E+02  0.41800000000E+01 0.  1.
        -11    1    1    2    0    0  0.42914554100E+02  0.37726385664E+02 -0.12065835460E+03  0.13350422339E+03  0.00000000000E+00 0.  1.
         11    1    1    2    0    0  0.32998884232E+02 -0.55713001992E+02 -0.40563253219E+02  0.76408392623E+02  0.00000000000E+00 0. -1.
</event>
<event>
 6    1  0.1538147E-010  0.1200265E+03  0.7561462E-02  0.1243053E+00
          2   -1    0    0  501    0  0.00000000000E+00  0.00000000000E+00  0.13380204448E+03  0.13380204448E+03  0.00000000000E+00 0. -1.
         -2   -1    0    0    0  501 -0.00000000000E+00 -0.00000000000E+00 -0.16134905036E+03  0.16134905036E+03  0.00000000000E+00 0.  1.
          5    1    1    2  502    0  0.39958987340E+01  0.59226289189E+02 -0.51655109668E+02  0.78800020892E+02  0.41800000000E+01 0.  1.
         -5    1    1    2    0  502  0.46391754168E+02  0.28138353400E+02  0.61690407275E+02  0.82262631472E+02  0.41800000000E+01 0.  1.
        -11    1    1    2    0    0  0.18685444541E+02 -0.34163946548E+02  0.51211376913E+00  0.38943335013E+02  0.00000000000E+00 0.  1.
         11    1    1    2    0    0 -0.69073097444E+02 -0.53200696041E+02 -0.38094417255E+02  0.95145107471E+02  0.00000000000E+00 0. -1.
</event>
<event>
 7    1  0.1538147E-010  0.1516711E+03  0.7561462E-02  0.1198434E+00
         -2   -1    0    0    0  501 -0.00000000000E+00  0.00000000000E+00  0.16035755799E+02  0.16035755799E+02  0.00000000000E+00 0.  1.
          2   -1    0    0  501    0  0.00000000000E+00 -0.00000000000E+00 -0.18981885306E+04  0.18981885306E+04  0.00000000000E+00 0. -1.
         25    2    1    2    0    0  0.10157521967E+03 -0.90525781662E+02 -0.10243741491E+04  0.10409175985E+04  0.12511837245E+03 0.  0.
          5    1    3    3  502    0  0.97942083265E+01  0.18401996890E+00 -0.52547416649E+03  0.52558208914E+03  0.41800000000E+01 0.  1.
         -5    1    3    3    0  502  0.91781011348E+02 -0.90709801631E+02 -0.49889998264E+03  0.51533550939E+03  0.41800000000E+01 0.  1.
        -11    1    1    2    0    0 -0.93822894526E+02  0.24320507578E+02 -0.47902965439E+03  0.48873677211E+03  0.00000000000E+00 0.  1.
         11    1    1    2    0    0 -0.77523251478E+01  0.66205274085E+02 -0.37874897129E+03  0.38456991577E+03  0.00000000000E+00 0. -1.
</event>
<event>
 7    1  0.1538147E-010  0.1119180E+03  0.7561462E-02  0.1257059E+00
          1   -1    0    0  501    0  0.00000000000E+00  0.00000000000E+00  0.12802189980E+03  0.12802189980E+03  0.00000000000E+00 0. -1.
         -1   -1    0    0    0  501 -0.00000000000E+00 -0.00000000000E+00 -0.10394900552E+03  0.10394900552E+03  0.00000000000E+00 0.  1.
         25    2    1    2    0    0 -0.91281131523E+01  0.33359239514E+02  0.32408517670E+02  0.13374813214E+03  0.12506833942E+03 0.  0.
          5    1    3    3  502    0 -0.61577376907E+02 -0.80743569712E+01  0.21741232232E+02  0.65932709380E+02  0.41800000000E+01 0. -1.
         -5    1    3    3    0  502  0.52449263755E+02  0.41433596485E+02  0.10667285438E+02  0.67815422765E+02  0.41800000000E+01 0. -1.
        -11    1    1    2    0    0 -0.32210382050E+02 -0.41453076258E+02  0.78830293564E+01  0.53084916830E+02  0.00000000000E+00 0.  1.
         11    1    1    2    0    0  0.41338495202E+02  0.80938367440E+01 -0.16218652747E+02  0.45137856349E+02  0.00000000000E+00 0. -1.
</event>
<event>
 6    1  0.1538147E-010  0.1091868E+03  0.7561462E-02  0.1262083E+00
         -1   -1    0    0    0  501 -0.00000000000E+00  0.00000000000E+00  0.89002265051E+02  0.89002265051E+02  0.00000000000E+00 0.  1.
          1   -1    0    0  501    0  0.00000000000E+00 -0.00000000000E+00 -0.27938711828E+03  0.27938711828E+03  0.00000000000E+00 0. -1.
          5    1    1    2  502    0 -0.41242862975E+02  0.24487898280E+02  0.51566445052E+01  0.48422043442E+02  0.41800000000E+01 0.  1.
         -5    1    1    2    0  502 -0.45912529750E+02  0.79218467665E+00 -0.17628343169E+03  0.18221390900E+03  0.41800000000E+01 0.  1.
        -11    1    1    2    0    0  0.79715592096E+02  0.16731422855E+02  0.15264616575E+02  0.82870529462E+02  0.00000000000E+00 0.  1.
         11    1    1    2    0    0  0.74398006280E+01 -0.42011505812E+02 -0.34522682619E+02  0.54882901428E+02  0.00000000000E+00 0. -1.
</event>
<event>
 6    1  0.1538147E-010  0.1243093E+03  0.7561462E-02  0.1236153E+00
         -4   -1    0    0    0  501 -0.00000000000E+00  0.00000000000E+00  0.53285365116E+02  0.53285365116E+02  0.00000000000E+00 0. -1.
          4   -1    0    0  501    0  0.00000000000E+00 -0.00000000000E+00 -0.39746309599E+03  0.39746309599E+03  0.00000000000E+00 0.  1.
          5    1    1    2  502    0  0.50964182034E+02  0.59808835999E+01 -0.48806790924E+02  0.70941483346E+02  0.41800000000E+01 0.  1.
         -5    1    1    2    0  502 -0.45122241722E+02  0.78552235735E+02 -0.21068464413E+03  0.22937297598E+03  0.41800000000E+01 0.  1.
        -11    1    1    2    0    0  0.25995891043E+02 -0.15097795098E+02  0.72310364381E+01  0.30919535182E+02  0.00000000000E+00 0. -1.
         11    1    1    2    0    0 -0.31837831355E+02 -0.69435324236E+02 -0.91917332260E+02  0.11951446660E+03  0.00000000000E+00 0.  1.
</event>
<event>
 7    1  0.1538147E-010  0.8435320E+02  0.7561462E-02  0.1317133E+00
         -1   -1    0    0    0  501 -0.00000000000E+00  0.00000000000E+00  0.36928017960E+03  0.36928017960E+03  0.00000000000E+00 0.  1.
          1   -1    0    0  501    0  0.00000000000E+00 -0.00000000000E+00 -0.46731789699E+02  0.46731789699E+02  0.00000000000E+00 0. -1.
         25    2    1    2    0    0 -0.61553002085E+02 -0.35630490348E+02  0.21563027450E+03  0.25924592592E+03  0.12511487088E+03 0.  0.
          5    1    3    3  502    0 -0.25265929084E+02 -0.45971413314E+02  0.14528015143E+02  0.54591882534E+02  0.41800000000E+01 0. -1.
         -5    1    3    3    0  502 -0.36287073001E+02  0.10340922967E+02  0.20110225936E+03  0.20465404338E+03  0.41800000000E+01 0. -1.
        -11    1    1    2    0    0  0.27519346396E+02 -0.17409329262E+01  0.10236657773E+03  0.10601538336E+03  0.00000000000E+00 0.  1.
         11    1    1    2    0    0  0.34033655689E+02  0.37371423274E+02  0.45515376703E+01  0.50750660018E+02  0.00000000000E+00 0. -1.
</event>
<event>
 7    1  0.1538147E-010  0.1160939E+03  0.7561462E-02  0.1249684E+00
          2   -1    0    0  501    0  0.00000000000E+00  0.00000000000E+00  0.23679523791E+03  0.23679523791E+03  0.00000000000E+00 0. -1.
         -2   -1    0    0    0  501 -0.00000000000E+00 -0.00000000000E+00 -0.75716488046E+02  0.75716488046E+02  0.00000000000E+00 0.  1.
         25    2    1    2    0    0 -0.39371664254E+02 -0.19684694919E+02  0.16398903916E+03  0.21091000564E+03  0.12511199125E+03 0.  0.
          5    1    3    3  502    0 -0.56286291310E+02 -0.63770200036E+02  0.10214110342E+03  0.13298519620E+03  0.41800000000E+01 0.  1.
         -5    1    3    3    0  502  0.16914627057E+02  0.44085505116E+02  0.61847935738E+02  0.77924809431E+02  0.41800000000E+01 0.  1.
        -11    1    1    2    0    0  0.66473265165E+02  0.26690327741E+02 -0.10982825135E+02  0.72468551969E+02  0.00000000000E+00 0.  1.
         11    1    1    2    0    0 -0.27101600911E+02 -0.70056328214E+01  0.80725358412E+01  0.29133168349E+02  0.00000000000E+00 0. -1.
</event>
<event>
 6    1  0.1538147E-010  0.9674956E+02  0.7561462E-02  0.1287284E+00
         -1   -1    0    0    0  501 -0.00000000000E+00  0.00000000000E+00  0.68989739335E+02  0.68989739335E+02  0.00000000000E+00 0.  1.
          1   -1    0    0  501    0  0.00000000000E+00 -0.00000000000E+00 -0.20048543545E+03  0.20048543545E+03  0.00000000000E+00 0. -1.
          5    1    1    2  502    0  0.41615253419E+02  0.28338366513E+02 -0.90927716697E+01  0.51332672153E+02  0.41800000000E+01 0.  1.
         -5    1    1    2    0  502 -0.25349015319E+02 -0.72029211833E+02 -0.71362036301E+02  0.10459824358E+03  0.41800000000E+01 0.  1.
        -11    1    1    2    0    0 -0.31055976849E+02  0.15590698570E+02  0.16831063906E+02  0.38611245669E+02  0.00000000000E+00 0.  1.
         11    1    1    2    0    0  0.14789738749E+02  0.28100146750E+02 -0.67871952052E+02  0.74933013386E+02  0.00000000000E+00 0. -1.
</event>
<event>
 7    1  0.1538147E-010  0.2328959E+03  0.7561462E-02  0.1124618E+00
         -2   -1    0    0    0  501 -0.00000000000E+00  0.00000000000E+00  0.32979337860E+02  0.32979337860E+02  0.00000000000E+00 0. -1.
          2   -1    0    0  501    0  0.00000000000E+00 -0.00000000000E+00 -0.37183351307E+04  0.37183351307E+04  0.00000000000E+00 0.  1.
         25    2    1    2    0    0 -0.20312031893E+03 -0.50790781851E+02 -0.32520947099E+04  0.32612267450E+04  0.12506923086E+03 0.  0.
          5    1    3    3  502    0 -0.18079250714E+03  0.27500463865E+00 -0.27713707541E+04  0.27772647219E+04  0.41800000000E+01 0.  1.
         -5    1    3    3    0  502 -0.22327811788E+02 -0.51065786490E+02 -0.48072395583E+03  0.48396202314E+03  0.41800000000E+01 0.  1.
        -11    1    1    2    0    0  0.15796652458E+03  0.78174826663E+02 -0.33467433326E+03  0.37824811402E+03  0.00000000000E+00 0.  1.
         11    1    1    2    0    0  0.45153794355E+02 -0.27384044812E+02 -0.98586749613E+02  0.11183960950E+03  0.00000000000E+00 0. -1.
</event>
<event>
 6    1  0.1538147E-010  0.7710432E+02  0.7561462E-02  0.1337476E+00
         -1   -1    0    0    0  501 -0.00000000000E+00  0.00000000000E+00  0.29761367954E+03  0.29761367954E+03  0.00000000000E+00 0.  1.
          1   -1    0    0  501    0  0.00000000000E+00 -0.00000000000E+00 -0.40068095418E+02  0.40068095418E+02  0.00000000000E+00 0. -1.
          5    1    1    2  502    0 -0.61502026550E+01 -0.59318134215E+02  0.25115744395E+02  0.64843959287E+02  0.41800000000E+01 0. -1.
         -5    1    1    2    0  502 -0.14702992903E+01  0.47332012254E+02  0.10759356155E+03  0.11762792207E+03  0.41800000000E+01 0. -1.
        -11    1    1    2    0    0  0.26384969997E+02  0.49398017232E+01  0.13140374853E+03  0.13411753581E+03  0.00000000000E+00 0.  1.
         11    1    1    2    0    0 -0.18764468051E+02  0.70463202374E+01 -0.65674703600E+01  0.21092357788E+02  0.00000000000E+00 0. -1.
</event>
<event>
 6    1  0.1538147E-010  0.9788696E+02  0.7561462E-02  0.1284803E+00
          2   -1    0    0  501    0  0.00000000000E+00  0.00000000000E+00  0.44690984480E+02  0.44690984480E+02  0.00000000000E+00 0. -1.
         -2   -1    0    0    0  501 -0.00000000000E+00 -0.00000000000E+00 -0.27335439112E+03  0.27335439112E+03  0.00000000000E+00 0.  1.
          5    1    1    2  502    0 -0.83394585409E+01 -0.63596926508E+02 -0.35157808399E+02  0.73264312741E+02  0.41800000000E+01 0.  1.
         -5    1    1    2    0  502  0.80907828875E+01  0.41932269583E+02 -0.11782509805E+03  0.12539538321E+03  0.41800000000E+01 0.  1.
        -11    1    1    2    0    0 -0.41664862235E+02  0.21023005995E+02 -0.56516732599E+02  0.73294396715E+02  0.00000000000E+00 0.  1.
         11    1    1    2    0    0  0.41913537889E+02  0.64165093026E+00 -0.19163767595E+02  0.46091282936E+02  0.00000000000E+00 0. -1.
</event>
<event>
 6    1  0.1538147E-010  0.8399233E+02  0.7561462E-02  0.1318089E+00
         -2   -1    0    0    0  501 -0.00000000000E+00  0.00000000000E+00  0.11909134082E+03  0.11909134082E+03  0.00000000000E+00 0.  1.
          2   -1    0    0  501    0  0.00000000000E+00 -0.00000000000E+00 -0.12766299307E+03  0.12766299307E+03  0.00000000000E+00 0. -1.
          5    1    1    2  502    0  0.60135136904E+02  0.32872257436E+02 -0.99636661522E+01  0.69379874910E+02  0.41800000000E+01 0.  1.
         -5    1    1    2    0  502 -0.28494522857E+02 -0.22459731646E+02  0.58137752629E+02  0.68657469071E+02  0.41800000000E+01 0.  1.
        -11    1    1    2    0    0  0.65769799236E+00 -0.26645683045E+02 -0.66190285821E+02  0.71355300635E+02  0.00000000000E+00 0. -1.
         11    1    1    2    0    0 -0.32298312039E+02  0.16233157255E+02  0.94445470961E+01  0.37361689267E+02  0.00000000000E+00 0.  1.
</event>
<event>
 7    1  0.1538147E-010  0.9402501E+02  0.7561462E-02  0.1293387E+00
         -1   -1    0    0    0  501 -0.00000000000E+00  0.00000000000E+00  0.10118607863E+02  0.10118607863E+02  0.00000000000E+00 0.  1.
          1   -1    0    0  501    0  0.00000000000E+00 -0.00000000000E+00 -0.19298817891E+04  0.19298817891E+04  0.00000000000E+00 0. -1.
         25    2    1    2    0    0  0.35561706934E+02 -0.35604026002E+02 -0.15514612606E+04  0.15573061857E+04  0.12505291337E+03 0.  0.
          5    1    3    3  502    0 -0.15857013910E+02 -0.54521853399E+02 -0.35096312853E+03  0.35555121624E+03  0.41800000000E+01 0. -1.
         -5    1    3    3    0  502  0.51418720844E+02  0.18917827398E+02 -0.12004981321E+04  0.12017549694E+04  0.41800000000E+01 0. -1.
        -11    1    1    2    0    0  0.24138718640E+01 -0.13712979511E+02 -0.61316629711E+01  0.15214134062E+02  0.00000000000E+00 0.  1.
         11    1    1    2    0    0 -0.37975578798E+02  0.49317005513E+02 -0.36217025773E+03  0.36748007729E+03  0.00000000000E+00 0. -1.
</event>
<event>
 7    1  0.2020718E-010  0.1335285E+03  0.7561462E-02  0.1222312E+00
         -2   -1    0    0    0  501 -0.00000000000E+00  0.00000000000E+00  0.13471050029E+02  0.13471050029E+02  0.00000000000E+00 0. -1.
          2   -1    0    0  501    0  0.00000000000E+00 -0.00000000000E+00 -0.16379608476E+04  0.16379608476E+04  0.00000000000E+00 0.  1.
         25    2    1    2    0    0  0.96570504325E+02  0.12496353052E+02 -0.10251208549E+04  0.10373024001E+04  0.12506590648E+03 0.  0.
          5    1    3    3  502    0  0.12532909116E+02  0.42568452921E+02 -0.65631036908E+03  0.65782210358E+03  0.41800000000E+01 0. -1.
         -5    1    3    3    0  502  0.84037595209E+02 -0.30072099870E+02 -0.36881048581E+03  0.37948029651E+03  0.41800000000E+01 0. -1.
        -11    1    1    2    0    0 -0.32125706922E+02  0.39079741258E+02 -0.25905001824E+03  0.26394355300E+03  0.00000000000E+00 0.  1.
         11    1    1    2    0    0 -0.64444797403E+02 -0.51576094309E+02 -0.34031892448E+03  0.35018594457E+03  0.00000000000E+00 0. -1.
</event>
<event>
 7    1  0.1538147E-010  0.7441185E+02  0.7561462E-02  0.1345702E+00
         -1   -1    0    0    0  501 -0.00000000000E+00  0.00000000000E+00  0.58157778137E+02  0.58157778137E+02  0.00000000000E+00 0.  1.
          1   -1    0    0  501    0  0.00000000000E+00 -0.00000000000E+00 -0.22704433370E+03  0.22704433370E+03  0.00000000000E+00 0. -1.
         25    2    1    2    0    0  0.93262091739E+01  0.35605672668E+02 -0.86848846138E+02  0.15664860241E+03  0.12506526479E+03 0.  0.
          5    1    3    3  502    0 -0.16933122735E+02  0.16082197152E+02  0.28264719081E+02  0.36901686350E+02  0.41800000000E+01 0.  1.
         -5    1    3    3    0  502  0.26259331908E+02  0.19523475515E+02 -0.11511356522E+03  0.11974691606E+03  0.41800000000E+01 0.  1.
        -11    1    1    2    0    0 -0.47050890385E+02 -0.22700101874E+02 -0.22457532988E+02  0.56863184039E+02  0.00000000000E+00 0.  1.
         11    1    1    2    0    0  0.37724681211E+02 -0.12905570794E+02 -0.59580176435E+02  0.71690325387E+02  0.00000000000E+00 0. -1.
</event>
<event>
 6    1  0.1538147E-010  0.1370731E+03  0.7561462E-02  0.1217322E+00
          2   -1    0    0  501    0  0.00000000000E+00  0.00000000000E+00  0.24548360848E+03  0.24548360848E+03  0.00000000000E+00 0.  1.
         -2   -1    0    0    0  501 -0.00000000000E+00 -0.00000000000E+00 -0.92264871696E+02  0.92264871696E+02  0.00000000000E+00 0. -1.
          5    1    1    2  502    0 -0.24856005161E+02 -0.98947670661E+02  0.12400910767E+03  0.16063683795E+03  0.41800000000E+01 0. -1.
         -5    1    1    2    0  502  0.44077476262E+02  0.56139937791E+01  0.96346093918E+01  0.45657846400E+02  0.41800000000E+01 0. -1.
        -11    1    1    2    0    0 -0.17767249471E+02  0.10962370285E+03  0.25700969870E+02  0.11398934702E+03  0.00000000000E+00 0.  1.
         11    1    1    2    0    0 -0.14542216291E+01 -0.16290025970E+02 -0.61259501557E+01  0.17464448802E+02  0.00000000000E+00 0. -1.
</event>
<event>
 6    1  0.1538147E-010  0.7900487E+02  0.7561462E-02  0.1331899E+00
         -2   -1    0    0    0  501 -0.00000000000E+00  0.00000000000E+00  0.12128808113E+03  0.12128808113E+03  0.00000000000E+00 0.  1.
          2   -1    0    0  501    0  0.00000000000E+00 -0.00000000000E+00 -0.11163838316E+03  0.11163838316E+03  0.00000000000E+00 0. -1.
          5    1    1    2  502    0  0.37562618671E+02 -0.14353888245E+02  0.81053259893E+02  0.90576419495E+02  0.41800000000E+01 0. -1.
         -5    1    1    2    0  502 -0.21421361600E+02  0.13743590623E+02 -0.35254543354E+02  0.43681989917E+02  0.41800000000E+01 0. -1.
        -11    1    1    2    0    0 -0.13274945994E+02 -0.44576716986E+02 -0.19304467375E+02  0.50358418849E+02  0.00000000000E+00 0.  1.
         11    1    1    2    0    0 -0.28663110769E+01  0.45187014609E+02 -0.16844551194E+02  0.48309636030E+02  0.00000000000E+00 0. -1.
</event>
<event>
 6    1  0.1538147E-010  0.9543394E+02  0.7561462E-02  0.1290202E+00
          1   -1    0    0  501    0  0.00000000000E+00  0.00000000000E+00  0.10439858076E+04  0.10439858076E+04  0.00000000000E+00 0. -1.
         -1   -1    0    0    0  501 -0.00000000000E+00 -0.00000000000E+00 -0.16132824062E+02  0.16132824062E+02  0.00000000000E+00 0.  1.
          5    1    1    2  502    0  0.45192154348E+02  0.24239037399E+02  0.71762927818E+03  0.71947141365E+03  0.41800000000E+01 0.  1.
         -5    1    1    2    0  502 -0.38026282356E+02  0.11977930439E+02  0.89016981588E+02  0.97626658134E+02  0.41800000000E+01 0.  1.
        -11    1    1    2    0    0 -0.14619148538E+02  0.29641259446E+02  0.56164717034E+02  0.65167470451E+02  0.00000000000E+00 0.  1.
         11    1    1    2    0    0  0.74532765455E+01 -0.65858227284E+02  0.16504200669E+03  0.17785308939E+03  0.00000000000E+00 0. -1.
</event>
<event>
 7    1  0.1538147E-010  0.1030627E+03  0.7561462E-02  0.1273984E+00
          3   -1    0    0  501    0  0.00000000000E+00  0.00000000000E+00  0.63645907633E+02  0.63645907633E+02  0.00000000000E+00 0.  1.
         -3   -1    0    0    0  501 -0.00000000000E+00 -0.00000000000E+00 -0.34587113798E+03  0.34587113798E+03  0.00000000000E+00 0. -1.
         25    2    1    2    0    0 -0.31308785546E+02 -0.13555720254E+02 -0.22504917454E+02  0.13163768027E+03  0.12513197015E+03 0.  0.
          5    1    3    3  502    0  0.35247427415E+02  0.95936165061E+01 -0.44476263034E+02  0.57706403375E+02  0.41800000000E+01 0. -1.
         -5    1    3    3    0  502 -0.66556212961E+02 -0.23149336760E+02  0.21971345580E+02  0.73931276891E+02  0.41800000000E+01 0. -1.
        -11    1    1    2    0    0  0.59330856741E+02  0.29781215401E+02 -0.17815325661E+03  0.19012010465E+03  0.00000000000E+00 0.  1.
         11    1    1    2    0    0 -0.28022071194E+02 -0.16225495146E+02 -0.81567056285E+02  0.87759260696E+02  0.00000000000E+00 0. -1.
</event>
<event>
 7    1  0.1538147E-010  0.1090858E+03  0.7561462E-02  0.1262272E+00
         -1   -1    0    0    0  501 -0.00000000000E+00  0.00000000000E+00  0.54410196238E+02  0.54410196238E+02  0.00000000000E+00 0.  1.
          1   -1    0    0  501    0  0.00000000000E+00 -0.00000000000E+00 -0.22938072061E+03  0.22938072061E+03  0.00000000000E+00 0. -1.
         25    2    1    2    0    0  0.13500615660E+02 -0.22115870051E+02 -0.11176936168E+03  0.16969904383E+03  0.12503598257E+03 0.  0.
          5    1    3    3  502    0 -0.33790985756E+01  0.49681326576E+02 -0.66047250859E+02  0.82821279050E+02  0.41800000000E+01 0. -1.
         -5    1    3    3    0  502  0.16879714236E+02 -0.71797196627E+02 -0.45722110820E+02  0.86877764784E+02  0.41800000000E+01 0. -1.
        -11    1    1    2    0    0  0.11444124526E+02  0.53231147094E+02 -0.29779899838E+02  0.62059370295E+02  0.00000000000E+00 0. -1.
         11    1    1    2    0    0 -0.24944740186E+02 -0.31115277043E+02 -0.33421262859E+02  0.52032502722E+02  0.00000000000E+00 0.  1.
</event>
<event>
 7    1  0.1538147E-010  0.1271711E+03  0.7561462E-02  0.1231715E+00
         -1   -1    0    0    0  501 -0.00000000000E+00  0.00000000000E+00  0.70698578207E+02  0.70698578207E+02  0.00000000000E+00 0.  1.
          1   -1    0    0  501    0  0.00000000000E+00 -0.00000000000E+00 -0.32110636050E+03  0.32110636050E+03  0.00000000000E+00 0. -1.
         25    2    1    2    0    0  0.51080508839E+02  0.90368844586E+02 -0.14099730059E+03  0.21519523185E+03  0.12511196018E+03 0.  0.
          5    1    3    3  502    0 -0.13772496808E+02  0.18078347263E+02  0.17689617718E+02  0.29101602758E+02  0.41800000000E+01 0.  1.
         -5    1    3    3    0  502  0.64853005646E+02  0.72290497323E+02 -0.15868691831E+03  0.18609362909E+03  0.41800000000E+01 0.  1.
        -11    1    1    2    0    0 -0.26946695583E+02 -0.10322351216E+03 -0.66450050503E+02  0.12568542906E+03  0.00000000000E+00 0.  1.
         11    1    1    2    0    0 -0.24133813256E+02  0.12854667577E+02 -0.42960431196E+02  0.50924277799E+02  0.00000000000E+00 0. -1.
</event>
<event>
 6    1  0.1538147E-010  0.1098827E+03  0.7561462E-02  0.1260787E+00
         -2   -1    0    0    0  501 -0.00000000000E+00  0.00000000000E+00  0.43461907214E+02  0.43461907214E+02  0.00000000000E+00 0.  1.
          2   -1    0    0  501    0  0.00000000000E+00 -0.00000000000E+00 -0.36007988054E+03  0.36007988054E+03  0.00000000000E+00 0. -1.
          5    1    1    2  502    0  0.70001494137E+02  0.21383977265E+02 -0.17917909339E+03  0.19359778814E+03  0.41800000000E+01 0.  1.
         -5    1    1    2    0  502 -0.10531098999E+02 -0.38687531645E+02 -0.99752224112E+01  0.41528383223E+02  0.41800000000E+01 0.  1.
        -11    1    1    2    0    0  0.15909087313E+02 -0.17033102579E+02 -0.49277754603E+02  0.54511675276E+02  0.00000000000E+00 0. -1.
         11    1    1    2    0    0 -0.75379482451E+02  0.34336656960E+02 -0.78185902924E+02  0.11390394112E+03  0.00000000000E+00 0.  1.
</event>
<event>
 7    1  0.1538147E-010  0.1080879E+03  0.7561462E-02  0.1264152E+00
          2   -1    0    0  501    0  0.00000000000E+00  0.00000000000E+00  0.29128670474E+03  0.29128670474E+03  0.00000000000E+00 0. -1.
         -2   -1    0    0    0  501 -0.00000000000E+00 -0.00000000000E+00 -0.69423062418E+02  0.69423062418E+02  0.00000000000E+00 0.  1.
         25    2    1    2    0    0  0.85835334617E+02  0.30248862037E+02  0.12937689746E+03  0.20165116515E+03  0.12506843121E+03 0.  0.
          5    1    3    3  502    0  0.24855315972E+02 -0.23420995800E+02 -0.13728020927E+02  0.37044037778E+02  0.41800000000E+01 0.  1.
         -5    1    3    3    0  502  0.60980018645E+02  0.53669857836E+02  0.14310491839E+03  0.16460712737E+03  0.41800000000E+01 0.  1.
        -11    1    1    2    0    0 -0.21390403063E+01 -0.15248395786E+02 -0.15342725751E+02  0.21736796014E+02  0.00000000000E+00 0.  1.
         11    1    1    2    0    0 -0.83696294311E+02 -0.15000466250E+02  0.10782947061E+03  0.13732180599E+03  0.00000000000E+00 0. -1.
</event>
<event>
 7    1  0.1538147E-010  0.1275958E+03  0.7561462E-02  0.1231067E+00
         -1   -1    0    0    0  501 -0.00000000000E+00  0.00000000000E+00  0.22610932246E+02  0.22610932246E+02  0.00000000000E+00 0.  1.
          1   -1    0    0  501    0  0.00000000000E+00 -0.00000000000E+00 -0.16371578543E+04  0.16371578543E+04  0.00000000000E+00 0. -1.
         25    2    1    2    0    0  0.81387137838E+01  0.99355109374E+02 -0.13916683728E+04  0.14008327179E+04  0.12511501602E+03 0.  0.
          5    1    3    3  502    0 -0.21905825230E+02  0.93987094606E+02 -0.13098545265E+04  0.13134115091E+04  0.41800000000E+01 0. -1.
         -5    1    3    3    0  502  0.30044539014E+02  0.53680147676E+01 -0.81813846302E+02  0.87421208834E+02  0.41800000000E+01 0. -1.
        -11    1    1    2    0    0 -0.39066762978E+02 -0.85294421223E+02 -0.13222929579E+03  0.16212938330E+03  0.00000000000E+00 0.  1.
         11    1    1    2    0    0  0.30928049195E+02 -0.14060688151E+02 -0.90649253471E+02  0.96806685374E+02  0.00000000000E+00 0. -1.
</event>
<event>
 7    1  0.1538147E-010  0.9886088E+02  0.7561462E-02  0.1282710E+00
         -3   -1    0    0    0  501 -0.00000000000E+00  0.00000000000E+00  0.48272878734E+03  0.48272878734E+03  0.00000000000E+00 0.  1.
          3   -1    0    0  501    0  0.00000000000E+00 -0.00000000000E+00 -0.27543862444E+02  0.27543862444E+02  0.00000000000E+00 0. -1.
         25    2    1    2    0    0  0.35001079555E+00 -0.31731998015E+02  0.21058213710E+03  0.24696862928E+03  0.12506648302E+03 0.  0.
          5    1    3    3  502    0  0.67701744816E+01  0.34150228416E+02  0.11147642879E+02  0.36794234672E+02  0.41800000000E+01 0.  1.
         -5    1    3    3    0  502 -0.64201636861E+01 -0.65882226431E+02  0.19943449422E+03  0.21017439461E+03  0.41800000000E+01 0.  1.
        -11    1    1    2    0    0 -0.92454806527E+01  0.63075445338E+02  0.17989570618E+03  0.19085716077E+03  0.00000000000E+00 0. -1.
         11    1    1    2    0    0  0.88954698572E+01 -0.31343447322E+02  0.64707081614E+02  0.72446859732E+02  0.00000000000E+00 0.  1.
</event>
<event>
 7    1  0.1538147E-010  0.1146285E+03  0.7561462E-02  0.1252231E+00
         -1   -1    0    0    0  501 -0.00000000000E+00  0.00000000000E+00  0.73417885485E+03  0.73417885485E+03  0.00000000000E+00 0.  1.
          1   -1    0    0  501    0  0.00000000000E+00 -0.00000000000E+00 -0.24921550409E+02  0.24921550409E+02  0.00000000000E+00 0. -1.
         25    2    1    2    0    0  0.48837728517E+02  0.42482306745E+02  0.52855311686E+03  0.54700333025E+03  0.12511744822E+03 0.  0.
          5    1    3    3  502    0 -0.30622360756E+02 -0.53430239177E+01  0.27871598970E+03  0.28047522564E+03  0.41800000000E+01 0. -1.
         -5    1    3    3    0  502  0.79460089273E+02  0.47825330663E+02  0.24983712716E+03  0.26652810461E+03  0.41800000000E+01 0. -1.
        -11    1    1    2    0    0 -0.53183950089E+02 -0.63936878922E+02  0.10886348456E+03  0.13699531125E+03  0.00000000000E+00 0.  1.
         11    1    1    2    0    0  0.43462215726E+01  0.21454572177E+02  0.71840703028E+02  0.75101763766E+02  0.00000000000E+00 0. -1.
</event>
<event>
 7    1  0.1538147E-010  0.1050365E+03  0.7561462E-02  0.1270048E+00
          1   -1    0    0  501    0  0.00000000000E+00  0.00000000000E+00  0.53858392373E+03  0.53858392373E+03  0.00000000000E+00 0. -1.
         -1   -1    0    0    0  501 -0.00000000000E+00 -0.00000000000E+00 -0.28509566235E+02  0.28509566235E+02  0.00000000000E+00 0.  1.
         25    2    1    2    0    0  0.25138394432E+01  0.20544169203E+02  0.41541597392E+03  0.43432262788E+03  0.12504931596E+03 0.  0.
          5    1    3    3  502    0  0.56274011229E+02 -0.16347207211E+02  0.15289090272E+03  0.16378979229E+03  0.41800000000E+01 0.  1.
         -5    1    3    3    0  502 -0.53760171786E+02  0.36891376414E+02  0.26252507119E+03  0.27053283559E+03  0.41800000000E+01 0.  1.
        -11    1    1    2    0    0 -0.34089089238E+02  0.16030739457E+02  0.17048172422E+02  0.41348407413E+02  0.00000000000E+00 0.  1.
         11    1    1    2    0    0  0.31575249795E+02 -0.36574908660E+02  0.77610211151E+02  0.91422454671E+02  0.00000000000E+00 0. -1.
</event>
<event>
 7    1  0.1538147E-010  0.3737361E+03  0.7561462E-02  0.1053274E+00
         -2   -1    0    0    0  501 -0.00000000000E+00  0.00000000000E+00  0.23609456338E+03  0.23609456338E+03  0.00000000000E+00 0.  1.
          2   -1    0    0  501    0  0.00000000000E+00 -0.00000000000E+00 -0.62791219191E+03  0.62791219191E+03  0.00000000000E+00 0. -1.
         25    2    1    2    0    0 -0.36400986981E+03  0.42803937100E+02 -0.14840761941E+03  0.41475304684E+03  0.12513954617E+03 0.  0.
          5    1    3    3  502    0 -0.46868940665E+02 -0.29647037878E+02  0.34415770658E+01  0.55722179666E+02  0.41800000000E+01 0. -1.
         -5    1    3    3    0  502 -0.31714092914E+03  0.72450974978E+02 -0.15184919648E+03  0.35903086717E+03  0.41800000000E+01 0. -1.
        -11    1    1    2    0    0  0.29972338900E+03 -0.35382117733E+02 -0.23792128934E+03  0.38430787670E+03  0.00000000000E+00 0. -1.
         11    1    1    2    0    0  0.64286480809E+02 -0.74218193666E+01 -0.54887197798E+01  0.64945831755E+02  0.00000000000E+00 0.  1.
</event>
<event>
 7    1  0.1538147E-010  0.8989989E+02  0.7561462E-02  0.1303094E+00
         -2   -1    0    0    0  501 -0.00000000000E+00  0.00000000000E+00  0.12105227696E+02  0.12105227696E+02  0.00000000000E+00 0.  1.
          2   -1    0    0  501    0  0.00000000000E+00 -0.00000000000E+00 -0.12054761232E+04  0.12054761232E+04  0.00000000000E+00 0. -1.
         25    2    1    2    0    0  0.65917428683E+01 -0.20258700669E+02 -0.92367345873E+03  0.93234568172E+03  0.12506776497E+03 0.  0.
          5    1    3    3  502    0  0.34878345486E+02  0.20562779579E+02 -0.11240669625E+03  0.11954942346E+03  0.41800000000E+01 0. -1.
         -5    1    3    3    0  502 -0.28286602618E+02 -0.40821480248E+02 -0.81126676247E+03  0.81279625825E+03  0.41800000000E+01 0. -1.
        -11    1    1    2    0    0  0.53978696127E+01 -0.33624629555E+02 -0.14363550661E+03  0.14761744974E+03  0.00000000000E+00 0. -1.
         11    1    1    2    0    0 -0.11989612481E+02  0.53883330224E+02 -0.12606193017E+03  0.13761821944E+03  0.00000000000E+00 0.  1.
</event>
<event>
 7    1  0.1797613E-010  0.7976845E+02  0.7561462E-02  0.1329710E+00
          1   -1    0    0  501    0  0.00000000000E+00  0.00000000000E+00  0.28507851766E+02  0.28507851766E+02  0.00000000000E+00 0. -1.
         -1   -1    0    0    0  501 -0.00000000000E+00 -0.00000000000E+00 -0.48544813272E+03  0.48544813272E+03  0.00000000000E+00 0.  1.
         25    2    1    2    0    0  0.10856715276E+01 -0.12835771725E+02 -0.16535444947E+03  0.20775339060E+03  0.12511371478E+03 0.  0.
          5    1    3    3  502    0 -0.22643390230E+02 -0.35661218983E+02 -0.16910614700E+03  0.17435253659E+03  0.41800000000E+01 0. -1.
         -5    1    3    3    0  502  0.23729061758E+02  0.22825447258E+02  0.37516975258E+01  0.33400854013E+02  0.41800000000E+01 0. -1.
        -11    1    1    2    0    0 -0.37710405629E+02  0.25071155687E+02 -0.22246443053E+03  0.22702656318E+03  0.00000000000E+00 0.  1.
         11    1    1    2    0    0  0.36624734102E+02 -0.12235383963E+02 -0.69121400951E+02  0.79176030705E+02  0.00000000000E+00 0. -1.
</event>
<event>
 7    1  0.1538147E-010  0.9632401E+02  0.7561462E-02  0.1288222E+00
         -1   -1    0    0    0  501 -0.00000000000E+00  0.00000000000E+00  0.37740228050E+02  0.37740228050E+02  0.00000000000E+00 0.  1.
          1   -1    0    0  501    0  0.00000000000E+00 -0.00000000000E+00 -0.38787526093E+03  0.38787526093E+03  0.00000000000E+00 0. -1.
         25    2    1    2    0    0 -0.31685834991E+02 -0.10079674112E+02 -0.12441250080E+03  0.17950198955E+03  0.12504759865E+03 0.  0.
          5    1    3    3  502    0  0.24294627261E+02 -0.46845218853E+02 -0.22585774004E+02  0.57552524102E+02  0.41800000000E+01 0.  1.
         -5    1    3    3    0  502 -0.55980462252E+02  0.36765544740E+02 -0.10182672679E+03  0.12194946545E+03  0.41800000000E+01 0.  1.
        -11    1    1    2    0    0  0.39633280079E+02 -0.17924475210E+02 -0.20695775462E+03  0.21147954014E+03  0.00000000000E+00 0. -1.
         11    1    1    2    0    0 -0.79474450877E+01  0.28004149322E+02 -0.18764777465E+02  0.34633959289E+02  0.00000000000E+00 0.  1.
</event>
<event>
 7    1  0.1538147E-010  0.1005302E+03  0.7561462E-02  0.1279185E+00
          2   -1    0    0  501    0  0.00000000000E+00  0.00000000000E+00  0.41141443532E+03  0.41141443532E+03  0.00000000000E+00 0. -1.
         -2   -1    0    0    0  501 -0.00000000000E+00 -0.00000000000E+00 -0.40815878406E+02  0.40815878406E+02  0.00000000000E+00 0.  1.
         25    2    1    2    0    0  0.19124193878E+02  0.42114239326E+02  0.13807667762E+03  0.19199310432E+03  0.12512729222E+03 0.  0.
          5    1    3    3  502    0  0.45787554437E+02  0.26313864391E+02  0.26925667881E+01  0.53043773587E+02  0.41800000000E+01 0.  1.
         -5    1    3    3    0  502 -0.26663360558E+02  0.15800374935E+02  0.13538411084E+03  0.13894933073E+03  0.41800000000E+01 0.  1.
        -11    1    1    2    0    0 -0.15627298681E+01 -0.77389930776E+02  0.15037639726E+03  0.16912925342E+03  0.00000000000E+00 0.  1.
         11    1    1    2    0    0 -0.17561464010E+02  0.35275691450E+02  0.82145482030E+02  0.91107955983E+02  0.00000000000E+00 0. -1.
</event>
<event>
 7    1  0.1538147E-010  0.9897773E+02  0.7561462E-02  0.1282460E+00
         -2   -1    0    0    0  501 -0.00000000000E+00  0.00000000000E+00  0.12943916835E+03  0.12943916835E+03  0.00000000000E+00 0.  1.
          2   -1    0    0  501    0  0.00000000000E+00 -0.00000000000E+00 -0.11403339477E+03  0.11403339477E+03  0.00000000000E+00 0. -1.
         25    2    1    2    0    0 -0.20931319083E+02 -0.57219611113E+02  0.10581184399E+02  0.13951582797E+03  0.12506198774E+03 0.  0.
          5    1    3    3  502    0  0.42998231234E+02  0.89207280068E+01 -0.98412588445E+01  0.45196792509E+02  0.41800000000E+01 0.  1.
         -5    1    3    3    0  502 -0.63929550317E+02 -0.66140339120E+02  0.20422443243E+02  0.94319035463E+02  0.41800000000E+01 0.  1.
        -11    1    1    2    0    0  0.83015564177E+01  0.37013893151E+02 -0.38791549044E+02  0.54256137001E+02  0.00000000000E+00 0. -1.
         11    1    1    2    0    0  0.12629762665E+02  0.20205717963E+02  0.43616138217E+02  0.49700598148E+02  0.00000000000E+00 0.  1.
</event>
<event>
 7    1  0.1538147E-010  0.1030483E+03  0.7561462E-02  0.1274013E+00
          2   -1    0    0  501    0  0.00000000000E+00  0.00000000000E+00  0.24735892553E+03  0.24735892553E+03  0.00000000000E+00 0. -1.
         -2   -1    0    0    0  501 -0.00000000000E+00 -0.00000000000E+00 -0.54213415720E+02  0.54213415720E+02  0.00000000000E+00 0.  1.
         25    2    1    2    0    0  0.36739062189E+01  0.25395244614E+02  0.65365797298E+02  0.14349674526E+03  0.12514077037E+03 0.  0.
          5    1    3    3  502    0 -0.54249515876E+02  0.27049387510E+02  0.70344970197E+01  0.61168912739E+02  0.41800000000E+01 0.  1.
         -5    1    3    3    0  502  0.57923422095E+02 -0.16541428960E+01  0.58331300278E+02  0.82327832524E+02  0.41800000000E+01 0.  1.
        -11    1    1    2    0    0  0.38596572732E+02 -0.13829003614E+01  0.84821835328E+02  0.93200598649E+02  0.00000000000E+00 0. -1.
         11    1    1    2    0    0 -0.42270478951E+02 -0.24012344252E+02  0.42957877179E+02  0.64874997333E+02  0.00000000000E+00 0.  1.
</event>
<event>
 7    1  0.1538147E-010  0.1062733E+03  0.7561462E-02  0.1267631E+00
          1   -1    0    0  501    0  0.00000000000E+00  0.00000000000E+00  0.94405530435E+02  0.94405530435E+02  0.00000000000E+00 0. -1.
         -1   -1    0    0    0  501 -0.00000000000E+00 -0.00000000000E+00 -0.16168668975E+03  0.16168668975E+03  0.00000000000E+00 0.  1.
         25    2    1    2    0    0  0.56938944378E+02  0.13157151687E+02 -0.18440991648E+02  0.13932882144E+03  0.12512911844E+03 0.  0.
          5    1    3    3  502    0 -0.23846676102E+02 -0.30598584081E+01 -0.46226649858E+02  0.52272385173E+02  0.41800000000E+01 0. -1.
         -5    1    3    3    0  502  0.80785620480E+02  0.16217010095E+02  0.27785658210E+02  0.87056436263E+02  0.41800000000E+01 0. -1.
        -11    1    1    2    0    0  0.19941434548E+02 -0.20266279176E+02 -0.86370552284E+01  0.29715006419E+02  0.00000000000E+00 0. -1.
         11    1    1    2    0    0 -0.76880378926E+02  0.71091274888E+01 -0.40203112440E+02  0.87048392331E+02  0.00000000000E+00 0.  1.
</event>
<event>
 7    1  0.1538147E-010  0.1208227E+03  0.7561462E-02  0.1241746E+00
         -4   -1    0    0    0  501 -0.00000000000E+00  0.00000000000E+00  0.44785522038E+03  0.44785522038E+03  0.00000000000E+00 0.  1.
          4   -1    0    0  501    0  0.00000000000E+00 -0.00000000000E+00 -0.57697050468E+02  0.57697050468E+02  0.00000000000E+00 0. -1.
         25    2    1    2    0    0  0.95339933744E+02 -0.31638917603E+02  0.31020332213E+03  0.34921729100E+03  0.12504355721E+03 0.  0.
          5    1    3    3  502    0  0.52460178815E+01 -0.47775579533E+02  0.36241059278E+02  0.60339982441E+02  0.41800000000E+01 0.  1.
         -5    1    3    3    0  502  0.90093915862E+02  0.16136661930E+02  0.27396226285E+03  0.28887730856E+03  0.41800000000E+01 0.  1.
        -11    1    1    2    0    0 -0.61013048035E+02  0.11841688887E+02  0.95354447244E+02  0.11382129957E+03  0.00000000000E+00 0.  1.
         11    1    1    2    0    0 -0.34326885708E+02  0.19797228715E+02 -0.15399599463E+02  0.42513680279E+02  0.00000000000E+00 0. -1.
</event>
<event>
 6    1  0.1538147E-010  0.1817615E+03  0.7561462E-02  0.1166109E+00
         -2   -1    0    0    0  501 -0.00000000000E+00  0.00000000000E+00  0.14202941122E+03  0.14202941122E+03  0.00000000000E+00 0.  1.
          2   -1    0    0  501    0  0.00000000000E+00 -0.00000000000E+00 -0.24507426659E+03  0.24507426659E+03  0.00000000000E+00 0. -1.
          5    1    1    2  502    0  0.63085308147E+02  0.89067127297E+02 -0.16650558419E+02  0.11048720634E+03  0.41800000000E+01 0.  1.
         -5    1    1    2    0  502  0.73164935325E+02 -0.31862028373E+02 -0.50253154019E+02  0.94398879771E+02  0.41800000000E+01 0.  1.
        -11    1    1    2    0    0 -0.11285853618E+02 -0.47749389519E+02 -0.28321398093E+02  0.56652239861E+02  0.00000000000E+00 0.  1.
         11    1    1    2    0    0 -0.12496438985E+03 -0.94557094042E+01 -0.78197448345E+01  0.12556535183E+03  0.00000000000E+00 0. -1.
</event>
<event>
 7    1  0.1538147E-010  0.1428920E+03  0.7561462E-02  0.1209490E+00
         -1   -1    0    0    0  501 -0.00000000000E+00  0.00000000000E+00  0.97911075051E+02  0.97911075051E+02  0.00000000000E+00 0.  1.
          1   -1    0    0  501    0  0.00000000000E+00 -0.00000000000E+00 -0.39526270772E+03  0.39526270772E+03  0.00000000000E+00 0. -1.
         25    2    1    2    0    0 -0.59980148612E+02  0.11484387399E+03 -0.28015458038E+03  0.33303914144E+03  0.12506697085E+03 0.  0.
          5    1    3    3  502    0 -0.68980567183E+02  0.12435592770E+03 -0.16843902948E+03  0.22048105237E+03  0.41800000000E+01 0.  1.
         -5    1    3    3    0  502  0.90004185704E+01 -0.95120537095E+01 -0.11171555090E+03  0.11255808906E+03  0.41800000000E+01 0.  1.
        -11    1    1    2    0    0  0.47623356037E+02 -0.84314870239E+02 -0.53896862208E+02  0.11082352250E+03  0.00000000000E+00 0. -1.
         11    1    1    2    0    0  0.12356792575E+02 -0.30529003754E+02  0.36699809917E+02  0.49311118836E+02  0.00000000000E+00 0.  1.
</event>
<event>
 7    1  0.1538147E-010  0.9699243E+02  0.7561462E-02  0.1286751E+00
         -1   -1    0    0    0  501 -0.00000000000E+00  0.00000000000E+00  0.16734915794E+02  0.16734915794E+02  0.00000000000E+00 0.  1.
          1   -1    0    0  501    0  0.00000000000E+00 -0.00000000000E+00 -0.77337098699E+03  0.77337098699E+03  0.00000000000E+00 0. -1.
         25    2    1    2    0    0 -0.11596402331E+02  0.30069205033E+02 -0.46715773225E+03  0.48468236931E+03  0.12506805620E+03 0.  0.
          5    1    3    3  502    0 -0.51347663182E+02  0.33599474346E+02 -0.11652720634E+03  0.13176330828E+03  0.41800000000E+01 0. -1.
         -5    1    3    3    0  502  0.39751260851E+02 -0.35302693134E+01 -0.35063052591E+03  0.35291906104E+03  0.41800000000E+01 0. -1.
        -11    1    1    2    0    0 -0.20793185384E+02  0.22481021724E+02 -0.54944459494E+02  0.62901880141E+02  0.00000000000E+00 0.  1.
         11    1    1    2    0    0  0.32389587715E+02 -0.52550226756E+02 -0.23453387945E+03  0.24252165333E+03  0.00000000000E+00 0. -1.
</event>
<event>
 7    1  0.1538147E-010  0.1094470E+03  0.7561462E-02  0.1261597E+00
         -2   -1    0    0    0  501 -0.00000000000E+00  0.00000000000E+00  0.83232883534E+02  0.83232883534E+02  0.00000000000E+00 0.  1.
          2   -1    0    0  501    0  0.00000000000E+00 -0.00000000000E+00 -0.16261816461E+03  0.16261816461E+03  0.00000000000E+00 0. -1.
         25    2    1    2    0    0  0.15353509907E+02 -0.35430437285E+02 -0.27088563037E+02  0.13365171419E+03  0.12505176650E+03 0.  0.
          5    1    3    3  502    0  0.53693506534E+02  0.23608023542E+02 -0.22576943275E+02  0.62988270234E+02  0.41800000000E+01 0. -1.
         -5    1    3    3    0  502 -0.38339996627E+02 -0.59038460827E+02 -0.45116197616E+01  0.70663443951E+02  0.41800000000E+01 0. -1.
        -11    1    1    2    0    0  0.31210312220E+02  0.28930024199E+02 -0.93233948065E+00  0.42566408657E+02  0.00000000000E+00 0.  1.
         11    1    1    2    0    0 -0.46563822126E+02  0.65004130859E+01 -0.51364378558E+02  0.69632925301E+02  0.00000000000E+00 0. -1.
</event>
<event>
 7    1  0.1538147E-010  0.1443915E+03  0.7561462E-02  0.1207539E+00
         -1   -1    0    0    0  501 -0.00000000000E+00  0.00000000000E+00  0.37554174154E+03  0.37554174154E+03  0.00000000000E+00 0.  1.
          1   -1    0    0  501    0  0.00000000000E+00 -0.00000000000E+00 -0.75156915583E+02  0.75156915583E+02  0.00000000000E+00 0. -1.
         25    2    1    2    0    0  0.33347723730E+01  0.10260654259E+03  0.26565874279E+03  0.31105284199E+03  0.12506030387E+03 0.  0.
          5    1    3    3  502    0  0.58139404765E+02  0.20960886312E+02  0.83020494501E+02  0.10358293319E+03  0.41800000000E+01 0.  1.
         -5    1    3    3    0  502 -0.54804632392E+02  0.81645656274E+02  0.18263824829E+03  0.20746990880E+03  0.41800000000E+01 0.  1.
        -11    1    1    2    0    0 -0.40229330190E+02 -0.56691896674E+02  0.40515963089E+02  0.80460632741E+02  0.00000000000E+00 0.  1.
         11    1    1    2    0    0  0.36894557817E+02 -0.45914645912E+02 -0.57898799152E+01  0.59185182395E+02  0.00000000000E+00 0. -1.
</event>
<event>
 6    1  0.1538147E-010  0.1037668E+03  0.7561462E-02  0.1272569E+00
          1   -1    0    0  501    0  0.00000000000E+00  0.00000000000E+00  0.10772841120E+03  0.10772841120E+03  0.00000000000E+00 0. -1.
         -1   -1    0    0    0  501 -0.00000000000E+00 -0.00000000000E+00 -0.14223603273E+03  0.14223603273E+03  0.00000000000E+00 0.  1.
          5    1    1    2  502    0  0.31774914925E+02 -0.35346353611E+02  0.24424718457E+01  0.47774972536E+02  0.41800000000E+01 0. -1.
         -5    1    1    2    0  502 -0.87443160927E+02  0.20321914451E+02 -0.71407276962E+01  0.90154029261E+02  0.41800000000E+01 0. -1.
        -11    1    1    2    0    0  0.18536121197E+02 -0.13662896161E+02 -0.54390187146E+02  0.59063990538E+02  0.00000000000E+00 0.  1.
         11    1    1    2    0    0  0.37132124805E+02  0.28687335321E+02  0.24580821465E+02  0.52971451597E+02  0.00000000000E+00 0. -1.
</event>
<event>
 7    1  0.1538147E-010  0.1234942E+03  0.7561462E-02  0.1237441E+00
         -2   -1    0    0    0  501 -0.00000000000E+00  0.00000000000E+00  0.50310034726E+02  0.50310034726E+02  0.00000000000E+00 0.  1.
          2   -1    0    0  501    0  0.00000000000E+00 -0.00000000000E+00 -0.45224917224E+03  0.45224917224E+03  0.00000000000E+00 0. -1.
         25    2    1    2    0    0  0.30561979929E+02  0.94154431337E+02 -0.27296636429E+03  0.31614989439E+03  0.12506409610E+03 0.  0.
          5    1    3    3  502    0  0.54941534264E+02  0.51541546508E+01 -0.49131832689E+02  0.74003695048E+02  0.41800000000E+01 0.  1.
         -5    1    3    3    0  502 -0.24379554334E+02  0.89000276686E+02 -0.22383453160E+03  0.24214619934E+03  0.41800000000E+01 0.  1.
        -11    1    1    2    0    0 -0.13639880604E+02 -0.30544812583E+02 -0.11413414269E+03  0.11893542133E+03  0.00000000000E+00 0. -1.
         11    1    1    2    0    0 -0.16922099325E+02 -0.63609618755E+02 -0.14838630533E+02  0.67473891245E+02  0.00000000000E+00 0.  1.
</event>
<event>
 7    1  0.1538147E-010  0.1036479E+03  0.7561462E-02  0.1272807E+00
          1   -1    0    0  501    0  0.00000000000E+00  0.00000000000E+00  0.26324769273E+03  0.26324769273E+03  0.00000000000E+00 0. -1.
         -1   -1    0    0    0  501 -0.00000000000E+00 -0.00000000000E+00 -0.58872433523E+02  0.58872433523E+02  0.00000000000E+00 0.  1.
         25    2    1    2    0    0 -0.43010430662E+02  0.62906854874E+01  0.62376880667E+02  0.14642496179E+03  0.12513961932E+03 0.  0.
          5    1    3    3  502    0  0.36513849492E+02  0.27698081691E+02  0.57183851956E+01  0.46374748122E+02  0.41800000000E+01 0.  1.
         -5    1    3    3    0  502 -0.79524280154E+02 -0.21407396204E+02  0.56658495471E+02  0.10005021367E+03  0.41800000000E+01 0.  1.
        -11    1    1    2    0    0  0.48927503115E+02 -0.27958640340E+02  0.14248989238E+03  0.15322844241E+03  0.00000000000E+00 0. -1.
         11    1    1    2    0    0 -0.59170724529E+01  0.21667954853E+02 -0.49151384569E+00  0.22466722052E+02  0.00000000000E+00 0.  1.
</event>
<event>
 7    1  0.1538147E-010  0.1200183E+03  0.7561462E-02  0.1243067E+00
          2   -1    0    0  501    0  0.00000000000E+00  0.00000000000E+00  0.84702387801E+03  0.84702387801E+03  0.00000000000E+00 0.  1.
         -2   -1    0    0    0  501 -0.00000000000E+00 -0.00000000000E+00 -0.32029657999E+02  0.32029657999E+02  0.00000000000E+00 0. -1.
         25    2    1    2    0    0 -0.97966732539E+02  0.32245034927E+02  0.61860617725E+03  0.63949012823E+03  0.12504718554E+03 0.  0.
          5    1    3    3  502    0 -0.58729924846E+02  0.14797452658E+02  0.86727890666E+02  0.10586485771E+03  0.41800000000E+01 0. -1.
         -5    1    3    3    0  502 -0.39236807694E+02  0.17447582269E+02  0.53187828658E+03  0.53362527052E+03  0.41800000000E+01 0. -1.
        -11    1    1    2    0    0  0.81592632747E+02  0.17813497465E+02  0.10596122761E+03  0.13491649331E+03  0.00000000000E+00 0.  1.
         11    1    1    2    0    0  0.16374099793E+02 -0.50058532392E+02  0.90426815154E+02  0.10464691447E+03  0.00000000000E+00 0. -1.
</event>
<event>
 7    1  0.1538147E-010  0.1910341E+03  0.7561462E-02  0.1157532E+00
          1   -1    0    0  501    0  0.00000000000E+00  0.00000000000E+00  0.62382667718E+03  0.62382667718E+03  0.00000000000E+00 0. -1.
         -1   -1    0    0    0  501 -0.00000000000E+00 -0.00000000000E+00 -0.68044210017E+02  0.68044210017E+02  0.00000000000E+00 0.  1.
         25    2    1    2    0    0  0.14194322426E+03  0.89275935580E+02  0.20959015786E+03  0.29614473640E+03  0.12512233629E+03 0.  0.
          5    1    3    3  502    0  0.27124399612E+02 -0.31990168838E+02  0.40583881608E+02  0.58511774909E+02  0.41800000000E+01 0.  1.
         -5    1    3    3    0  502  0.11481882465E+03  0.12126610442E+03  0.16900627626E+03  0.23763296149E+03  0.41800000000E+01 0.  1.
        -11    1    1    2    0    0 -0.10824631513E+03 -0.87386020133E+02  0.18743574503E+03  0.23342180654E+03  0.00000000000E+00 0.  1.
         11    1    1    2    0    0 -0.33696909133E+02 -0.18899154474E+01  0.15875656427E+03  0.16230434426E+03  0.00000000000E+00 0. -1.
</event>
<event>
 7    1  0.1538147E-010  0.5744401E+02  0.7561462E-02  0.1408882E+00
         -1   -1    0    0    0  501 -0.00000000000E+00  0.00000000000E+00  0.32901736122E+03  0.32901736122E+03  0.00000000000E+00 0.  1.
          1   -1    0    0  501    0  0.00000000000E+00 -0.00000000000E+00 -0.36117230203E+02  0.36117230203E+02  0.00000000000E+00 0. -1.
         25    2    1    2    0    0 -0.18492388653E+02  0.63776515000E+01  0.20670518614E+03  0.24238318137E+03  0.12505970476E+03 0.  0.
          5    1    3    3  502    0  0.45964751731E+01  0.21758945347E+02  0.21252784010E+03  0.21372911478E+03  0.41800000000E+01 0. -1.
         -5    1    3    3    0  502 -0.23088863826E+02 -0.15381293847E+02 -0.58226539549E+01  0.28654066592E+02  0.41800000000E+01 0. -1.
        -11    1    1    2    0    0  0.41139133199E+02 -0.23935988167E+01  0.90423929986E+02  0.99371246896E+02  0.00000000000E+00 0.  1.
         11    1    1    2    0    0 -0.22646744546E+02 -0.39840526833E+01 -0.42289851098E+01  0.23380163159E+02  0.00000000000E+00 0. -1.
</event>
<event>
 7    1  0.1538147E-010  0.1508531E+03  0.7561462E-02  0.1199429E+00
          4   -1    0    0  501    0  0.00000000000E+00  0.00000000000E+00  0.13042564009E+03  0.13042564009E+03  0.00000000000E+00 0. -1.
         -4   -1    0    0    0  501 -0.00000000000E+00 -0.00000000000E+00 -0.20564117820E+03  0.20564117820E+03  0.00000000000E+00 0.  1.
         25    2    1    2    0    0 -0.27293685975E+02  0.10841131219E+03 -0.93074547786E+02  0.19182729959E+03  0.12504752503E+03 0.  0.
          5    1    3    3  502    0  0.42182769150E+02  0.61799703555E+02 -0.75215902459E+02  0.10617671004E+03  0.41800000000E+01 0. -1.
         -5    1    3    3    0  502 -0.69476455125E+02  0.46611608633E+02 -0.17858645327E+02  0.85650589543E+02  0.41800000000E+01 0. -1.
        -11    1    1    2    0    0 -0.28932520652E+01  0.15343728422E+02  0.28592278911E-01  0.15614151495E+02  0.00000000000E+00 0.  1.
         11    1    1    2    0    0  0.30186938040E+02 -0.12375504061E+03  0.17830417402E+02  0.12862536721E+03  0.00000000000E+00 0. -1.
</event>
<event>
 7    1  0.1538147E-010  0.1083193E+03  0.7561462E-02  0.1263714E+00
         -1   -1    0    0    0  501 -0.00000000000E+00  0.00000000000E+00  0.24602793431E+02  0.24602793431E+02  0.00000000000E+00 0.  1.
          1   -1    0    0  501    0  0.00000000000E+00 -0.00000000000E+00 -0.48897501725E+03  0.48897501725E+03  0.00000000000E+00 0. -1.
         25    2    1    2    0    0 -0.29574018582E+00  0.73577421147E+01 -0.30742130468E+03  0.33195629620E+03  0.12503159674E+03 0.  0.
          5    1    3    3  502    0  0.28578244840E+02 -0.51786964760E+02 -0.14663135028E+03  0.15816709861E+03  0.41800000000E+01 0. -1.
         -5    1    3    3    0  502 -0.28873985026E+02  0.59144706875E+02 -0.16078995440E+03  0.17378919759E+03  0.41800000000E+01 0. -1.
        -11    1    1    2    0    0  0.40598340546E+02  0.17316450135E+02 -0.76126780510E+02  0.87996428401E+02  0.00000000000E+00 0.  1.
         11    1    1    2    0    0 -0.40302600360E+02 -0.24674192250E+02 -0.80824138626E+02  0.93625086081E+02  0.00000000000E+00 0. -1.
</event>
<event>
 6    1  0.1538147E-010  0.1061612E+03  0.7561462E-02  0.1267849E+00
          1   -1    0    0  501    0  0.00000000000E+00  0.00000000000E+00  0.14517127115E+03  0.14517127115E+03  0.00000000000E+00 0. -1.
         -1   -1    0    0    0  501 -0.00000000000E+00 -0.00000000000E+00 -0.88185680282E+02  0.88185680282E+02  0.00000000000E+00 0.  1.
          5    1    1    2  502    0  0.11707434827E+02 -0.57470878482E+02  0.98194850916E+00  0.58808184180E+02  0.41800000000E+01 0. -1.
         -5    1    1    2    0  502  0.18611303994E+02  0.58091449146E+02  0.52697235191E+02  0.80718449545E+02  0.41800000000E+01 0. -1.
        -11    1    1    2    0    0 -0.21826005406E+02 -0.43499177389E+02 -0.63051029761E+01  0.49074507324E+02  0.00000000000E+00 0. -1.
         11    1    1    2    0    0 -0.84927334150E+01  0.42878606725E+02  0.96115101409E+01  0.44755810379E+02  0.00000000000E+00 0.  1.
</event>
<event>
 7    1  0.1950124E-010  0.1192405E+03  0.7561462E-02  0.1244355E+00
          2   -1    0    0  501    0  0.00000000000E+00  0.00000000000E+00  0.71933995539E+02  0.71933995539E+02  0.00000000000E+00 0. -1.
         -2   -1    0    0    0  501 -0.00000000000E+00 -0.00000000000E+00 -0.43799939309E+03  0.43799939309E+03  0.00000000000E+00 0.  1.
         25    2    1    2    0    0  0.12629074769E+02  0.96583510438E+02 -0.33921159713E+03  0.37442535179E+03  0.12506785524E+03 0.  0.
          5    1    3    3  502    0  0.40247312542E+02  0.10248244270E+03 -0.16838699043E+03  0.20123157847E+03  0.41800000000E+01 0. -1.
         -5    1    3    3    0  502 -0.27618237772E+02 -0.58989322632E+01 -0.17082460670E+03  0.17319377331E+03  0.41800000000E+01 0. -1.
        -11    1    1    2    0    0 -0.98972728909E+01 -0.14127555552E+02 -0.47438766955E+02  0.50477524174E+02  0.00000000000E+00 0.  1.
         11    1    1    2    0    0 -0.27318018784E+01 -0.82455954887E+02  0.20584966533E+02  0.85030512670E+02  0.00000000000E+00 0. -1.
</event>
<event>
 6    1  0.1538147E-010  0.9882075E+02  0.7561462E-02  0.1282795E+00
         -1   -1    0    0    0  501 -0.00000000000E+00  0.00000000000E+00  0.76304567259E+01  0.76304567259E+01  0.00000000000E+00 0.  1.
          1   -1    0    0  501    0  0.00000000000E+00 -0.00000000000E+00 -0.19751292201E+04  0.19751292201E+04  0.00000000000E+00 0. -1.
          5    1    1    2  502    0  0.31331309558E+02  0.29427995748E+02 -0.11237673809E+04  0.11245969307E+04  0.41800000000E+01 0. -1.
         -5    1    1    2    0  502 -0.55699445887E+02 -0.21467315305E+02 -0.39321157895E+03  0.39773872344E+03  0.41800000000E+01 0. -1.
        -11    1    1    2    0    0 -0.60299878209E+01  0.38568012279E+02 -0.20617780339E+03  0.20984074660E+03  0.00000000000E+00 0. -1.
         11    1    1    2    0    0  0.30398124149E+02 -0.46528692722E+02 -0.24434200020E+03  0.25058327610E+03  0.00000000000E+00 0.  1.
</event>
<event>
 7    1  0.1538147E-010  0.1278574E+03  0.7561462E-02  0.1230670E+00
          2   -1    0    0  501    0  0.00000000000E+00  0.00000000000E+00  0.33412723215E+03  0.33412723215E+03  0.00000000000E+00 0. -1.
         -2   -1    0    0    0  501 -0.00000000000E+00 -0.00000000000E+00 -0.51827486637E+02  0.51827486637E+02  0.00000000000E+00 0.  1.
         25    2    1    2    0    0  0.42436393174E+02  0.54170408477E+02  0.19898281841E+03  0.24488766442E+03  0.12506208674E+03 0.  0.
          5    1    3    3  502    0  0.85195161638E+02  0.49773484943E+02  0.14992434536E+03  0.17952826268E+03  0.41800000000E+01 0.  1.
         -5    1    3    3    0  502 -0.42758768464E+02  0.43969235332E+01  0.49058473050E+02  0.65359401735E+02  0.41800000000E+01 0.  1.
        -11    1    1    2    0    0 -0.19295426310E+02  0.24832416624E+02  0.25168159315E+02  0.40279009859E+02  0.00000000000E+00 0.  1.
         11    1    1    2    0    0 -0.23140966864E+02 -0.79002825101E+02  0.58148767787E+02  0.10078804451E+03  0.00000000000E+00 0. -1.
</event>
<event>
 7    1  0.1538147E-010  0.1082255E+03  0.7561462E-02  0.1263892E+00
         -2   -1    0    0    0  501 -0.00000000000E+00  0.00000000000E+00  0.35893577015E+02  0.35893577015E+02  0.00000000000E+00 0.  1.
          2   -1    0    0  501    0  0.00000000000E+00 -0.00000000000E+00 -0.37336691040E+03  0.37336691040E+03  0.00000000000E+00 0. -1.
         25    2    1    2    0    0  0.13512380528E+02  0.16701679685E+02 -0.25024548781E+03  0.28057709378E+03  0.12505667056E+03 0.  0.
          5    1    3    3  502    0  0.68358376459E+02  0.16080772776E+02 -0.16163683339E+03  0.17628215222E+03  0.41800000000E+01 0. -1.
         -5    1    3    3    0  502 -0.54845995931E+02  0.62090690826E+00 -0.88608654426E+02  0.10429494156E+03  0.41800000000E+01 0. -1.
        -11    1    1    2    0    0  0.22330394515E+02  0.26698693093E+02 -0.17158611876E+02  0.38805730164E+02  0.00000000000E+00 0.  1.
         11    1    1    2    0    0 -0.35842775043E+02 -0.43400372777E+02 -0.70069233694E+02  0.89877663468E+02  0.00000000000E+00 0. -1.
</event>
<event>
 7    1  0.1538147E-010  0.1708844E+03  0.7561462E-02  0.1176929E+00
         -1   -1    0    0    0  501 -0.00000000000E+00  0.00000000000E+00  0.43156610495E+03  0.43156610495E+03  0.00000000000E+00 0.  1.
          1   -1    0    0  501    0  0.00000000000E+00 -0.00000000000E+00 -0.83903632653E+02  0.83903632653E+02  0.00000000000E+00 0. -1.
         25    2    1    2    0    0 -0.13107824516E+03 -0.36904853615E+02  0.76978870291E+02  0.20030436452E+03  0.12511042083E+03 0.  0.
          5    1    3    3  502    0 -0.42492754919E+02 -0.75396087119E+02  0.49538620842E+02  0.99808574424E+02  0.41800000000E+01 0.  1.
         -5    1    3    3    0  502 -0.88585490242E+02  0.38491233505E+02  0.27440249449E+02  0.10049579010E+03  0.41800000000E+01 0.  1.
        -11    1    1    2    0    0  0.14224371028E+03  0.37982905017E+02  0.23101641803E+03  0.27394262098E+03  0.00000000000E+00 0. -1.
         11    1    1    2    0    0 -0.11165465122E+02 -0.10780514020E+01  0.39667183971E+02  0.41222752096E+02  0.00000000000E+00 0.  1.
</event>
<event>
 6    1  0.1538147E-010  0.1366133E+03  0.7561462E-02  0.1217960E+00
         -1   -1    0    0    0  501 -0.00000000000E+00  0.00000000000E+00  0.15279656716E+03  0.15279656716E+03  0.00000000000E+00 0.  1.
          1   -1    0    0  501    0  0.00000000000E+00 -0.00000000000E+00 -0.19961598624E+03  0.19961598624E+03  0.00000000000E+00 0. -1.
          5    1    1    2  502    0  0.34738661232E+02  0.50067387141E+02  0.15798570524E+02  0.63091878003E+02  0.41800000000E+01 0. -1.
         -5    1    1    2    0  502  0.85445848408E+02 -0.19050760394E+02 -0.97916375218E+02  0.13141161828E+03  0.41800000000E+01 0. -1.
        -11    1    1    2    0    0 -0.67238990292E+02 -0.12365153803E+02 -0.27489876279E+02  0.73686309053E+02  0.00000000000E+00 0. -1.
         11    1    1    2    0    0 -0.52945519348E+02 -0.18651472944E+02  0.62788261892E+02  0.84222748076E+02  0.00000000000E+00 0.  1.
</event>
<event>
 6    1  0.1538147E-010  0.1600190E+03  0.7561462E-02  0.1188675E+00
         -2   -1    0    0    0  501 -0.00000000000E+00  0.00000000000E+00  0.18923077288E+02  0.18923077288E+02  0.00000000000E+00 0.  1.
          2   -1    0    0  501    0  0.00000000000E+00 -0.00000000000E+00 -0.16412987128E+04  0.16412987128E+04  0.00000000000E+00 0. -1.
          5    1    1    2  502    0 -0.66275495470E+02 -0.43868874502E+02 -0.33446584141E+03  0.34380487332E+03  0.41800000000E+01 0.  1.
         -5    1    1    2    0  502  0.34090599232E+02 -0.84165193233E+02 -0.79425210680E+03  0.79943719595E+03  0.41800000000E+01 0.  1.
        -11    1    1    2    0    0  0.46845942731E+02  0.44089944110E+02 -0.15619166776E+03  0.16892099514E+03  0.00000000000E+00 0.  1.
         11    1    1    2    0    0 -0.14661046493E+02  0.83944123625E+02 -0.33746601958E+03  0.34805872571E+03  0.00000000000E+00 0. -1.
</event>
<event>
 6    1  0.1538147E-010  0.1328546E+03  0.7561462E-02  0.1223280E+00
         -2   -1    0    0    0  501 -0.00000000000E+00  0.00000000000E+00  0.11000496631E+03  0.11000496631E+03  0.00000000000E+00 0. -1.
          2   -1    0    0  501    0  0.00000000000E+00 -0.00000000000E+00 -0.22059789890E+03  0.22059789890E+03  0.00000000000E+00 0.  1.
          5    1    1    2  502    0  0.12355305411E+03  0.20612127669E+02  0.10119328360E+02  0.12573818113E+03  0.41800000000E+01 0.  1.
         -5    1    1    2    0  502 -0.22778722283E+02  0.77346545275E+01 -0.29778582810E+02  0.38508849161E+02  0.41800000000E+01 0.  1.
        -11    1    1    2    0    0 -0.27018636845E+02 -0.32288077787E+02 -0.81713263691E+02  0.91921619694E+02  0.00000000000E+00 0.  1.
         11    1    1    2    0    0 -0.73755694982E+02  0.39412955909E+01 -0.92204144475E+01  0.74434215223E+02  0.00000000000E+00 0. -1.
</event>
<event>
 7    1  0.1538147E-010  0.1042889E+03  0.7561462E-02  0.1271527E+00
          2   -1    0    0  501    0  0.00000000000E+00  0.00000000000E+00  0.33313334486E+02  0.33313334486E+02  0.00000000000E+00 0. -1.
         -2   -1    0    0    0  501 -0.00000000000E+00 -0.00000000000E+00 -0.44135686493E+03  0.44135686493E+03  0.00000000000E+00 0.  1.
         25    2    1    2    0    0  0.16913305563E+02 -0.22864430643E+02 -0.13780514711E+03  0.18828837438E+03  0.12511359344E+03 0.  0.
          5    1    3    3  502    0 -0.35455399553E+02 -0.46222792071E+02 -0.28957387231E+02  0.65189221037E+02  0.41800000000E+01 0.  1.
         -5    1    3    3    0  502  0.52368705116E+02  0.23358361428E+02 -0.10884775988E+03  0.12309915335E+03  0.41800000000E+01 0.  1.
        -11    1    1    2    0    0 -0.25277519645E+02 -0.29958664923E+02 -0.85483984014E+02  0.94042469801E+02  0.00000000000E+00 0. -1.
         11    1    1    2    0    0  0.83642140816E+01  0.52823095566E+02 -0.18475439932E+03  0.19233935523E+03  0.00000000000E+00 0.  1.
</event>
<event>
 7    1  0.1538147E-010  0.1052626E+03  0.7561462E-02  0.1269603E+00
          2   -1    0    0  501    0  0.00000000000E+00  0.00000000000E+00  0.33909726587E+03  0.33909726587E+03  0.00000000000E+00 0. -1.
         -2   -1    0    0    0  501 -0.00000000000E+00 -0.00000000000E+00 -0.50791963304E+02  0.50791963304E+02  0.00000000000E+00 0.  1.
         25    2    1    2    0    0  0.73580413993E+02  0.15918836288E+02  0.15924268683E+03  0.21602570760E+03  0.12506552827E+03 0.  0.
          5    1    3    3  502    0  0.90112946518E+02  0.41387458339E+02  0.69424627321E+02  0.12112190601E+03  0.41800000000E+01 0.  1.
         -5    1    3    3    0  502 -0.16532532525E+02 -0.25468622051E+02  0.89818059511E+02  0.94903801584E+02  0.41800000000E+01 0.  1.
        -11    1    1    2    0    0 -0.45319016592E+02 -0.23929917227E+02  0.13455070100E+03  0.14398036444E+03  0.00000000000E+00 0. -1.
         11    1    1    2    0    0 -0.28261397401E+02  0.80110809389E+01 -0.54880852645E+01  0.29883157141E+02  0.00000000000E+00 0.  1.
</event>
<event>
 6    1  0.1538147E-010  0.2170341E+03  0.7561462E-02  0.1136114E+00
         -1   -1    0    0    0  501 -0.00000000000E+00  0.00000000000E+00  0.15431318286E+03  0.15431318286E+03  0.00000000000E+00 0.  1.
          1   -1    0    0  501    0  0.00000000000E+00 -0.00000000000E+00 -0.40276974202E+03  0.40276974202E+03  0.00000000000E+00 0. -1.
          5    1    1    2  502    0  0.88288355260E+02  0.17421574634E+03 -0.23706866304E+03  0.30718883988E+03  0.41800000000E+01 0.  1.
         -5    1    1    2    0  502 -0.26703931019E+02  0.13676686459E+02 -0.74836020369E+01  0.31203018825E+02  0.41800000000E+01 0.  1.
        -11    1    1    2    0    0 -0.18726580830E+02 -0.15015122341E+03  0.27082405679E+02  0.15371900149E+03  0.00000000000E+00 0.  1.
         11    1    1    2    0    0 -0.42857843411E+02 -0.37741209388E+02 -0.30986699763E+02  0.64972064690E+02  0.00000000000E+00 0. -1.
</event>
<event>
 7    1  0.1538147E-010  0.1028332E+03  0.7561462E-02  0.1274448E+00
         -2   -1    0    0    0  501 -0.00000000000E+00  0.00000000000E+00  0.77164486373E+02  0.77164486373E+02  0.00000000000E+00 0.  1.
          2   -1    0    0  501    0  0.00000000000E+00 -0.00000000000E+00 -0.35720373566E+03  0.35720373566E+03  0.00000000000E+00 0. -1.
         25    2    1    2    0    0 -0.45733357836E+02  0.33379026450E+02 -0.29604452705E+03  0.32632784962E+03  0.12506719800E+03 0.  0.
          5    1    3    3  502    0 -0.69074027557E+02  0.26821391114E+02 -0.80917174620E+02  0.10979831443E+03  0.41800000000E+01 0.  1.
         -5    1    3    3    0  502  0.23340669721E+02  0.65576353366E+01 -0.21512735243E+03  0.21652953518E+03  0.41800000000E+01 0.  1.
        -11    1    1    2    0    0  0.26972724089E+02 -0.64835262813E+02  0.10641701932E+02  0.71023833809E+02  0.00000000000E+00 0. -1.
         11    1    1    2    0    0  0.18760633747E+02  0.31456236363E+02  0.53635758286E+01  0.37016538606E+02  0.00000000000E+00 0.  1.
</event>
<event>
 7    1  0.1538147E-010  0.1081161E+03  0.7561462E-02  0.1264099E+00
          1   -1    0    0  501    0  0.00000000000E+00  0.00000000000E+00  0.10404263404E+04  0.10404263404E+04  0.00000000000E+00 0. -1.
         -1   -1    0    0    0  501 -0.00000000000E+00 -0.00000000000E+00 -0.16214899386E+02  0.16214899386E+02  0.00000000000E+00 0.  1.
         25    2    1    2    0    0  0.67722628797E+02  0.20796102551E+02  0.61400773328E+03  0.63062301523E+03  0.12514415079E+03 0.  0.
          5    1    3    3  502    0 -0.38686605600E+01  0.38212395372E+02  0.43893539391E+03  0.44063239341E+03  0.41800000000E+01 0.  1.
         -5    1    3    3    0  502  0.71591289357E+02 -0.17416292822E+02  0.17507233937E+03  0.18999062182E+03  0.41800000000E+01 0.  1.
        -11    1    1    2    0    0 -0.73383613315E+02 -0.40140219162E+02  0.38375547355E+03  0.39276539483E+03  0.00000000000E+00 0. -1.
         11    1    1    2    0    0  0.56609845178E+01  0.19344116611E+02  0.26448234181E+02  0.33252829721E+02  0.00000000000E+00 0.  1.
</event>
<event>
 6    1  0.1538147E-010  0.8901850E+02  0.7561462E-02  0.1305246E+00
         -2   -1    0    0    0  501 -0.00000000000E+00  0.00000000000E+00  0.72647315621E+02  0.72647315621E+02  0.00000000000E+00 0.  1.
          2   -1    0    0  501    0  0.00000000000E+00 -0.00000000000E+00 -0.20746601273E+03  0.20746601273E+03  0.00000000000E+00 0. -1.
          5    1    1    2  502    0 -0.30192229398E+02 -0.57828062300E+02 -0.67069441684E+02  0.93655955033E+02  0.41800000000E+01 0.  1.
         -5    1    1    2    0  502 -0.28137966293E+01  0.28120123963E+02  0.32661211811E+02  0.43392234099E+02  0.41800000000E+01 0.  1.
        -11    1    1    2    0    0  0.55611427116E+02  0.16922259707E+02 -0.24944106556E+02  0.63255056330E+02  0.00000000000E+00 0.  1.
         11    1    1    2    0    0 -0.22605401088E+02  0.12785678630E+02 -0.75466360678E+02  0.79810082886E+02  0.00000000000E+00 0. -1.
</event>
<event>
 7    1  0.1538147E-010  0.1218146E+03  0.7561462E-02  0.1240133E+00
         -1   -1    0    0    0  501 -0.00000000000E+00  0.00000000000E+00  0.37118551287E+02  0.37118551287E+02  0.00000000000E+00 0.  1.
          1   -1    0    0  501    0  0.00000000000E+00 -0.00000000000E+00 -0.53078732445E+03  0.53078732445E+03  0.00000000000E+00 0. -1.
         25    2    1    2    0    0 -0.30881216309E+02 -0.74734205857E+02 -0.19903079707E+03  0.24856458864E+03  0.12502897862E+03 0.  0.
          5    1    3    3  502    0 -0.55889052291E+02 -0.91812027654E+02 -0.10754573126E+03  0.15210717044E+03  0.41800000000E+01 0.  1.
         -5    1    3    3    0  502  0.25007835982E+02  0.17077821796E+02 -0.91485065813E+02  0.96457418194E+02  0.41800000000E+01 0.  1.
        -11    1    1    2    0    0 -0.16704815023E+02  0.48192458403E+02 -0.22610965315E+03  0.23179115414E+03  0.00000000000E+00 0. -1.
         11    1    1    2    0    0  0.47586031332E+02  0.26541747454E+02 -0.68528322946E+02  0.87550132961E+02  0.00000000000E+00 0.  1.
</event>
<event>
 6    1  0.1538147E-010  0.8207217E+02  0.7561462E-02  0.1323272E+00
          2   -1    0    0  501    0  0.00000000000E+00  0.00000000000E+00  0.11506804242E+04  0.11506804242E+04  0.00000000000E+00 0. -1.
         -2   -1    0    0    0  501 -0.00000000000E+00 -0.00000000000E+00 -0.18810885474E+02  0.18810885474E+02  0.00000000000E+00 0.  1.
          5    1    1    2  502    0  0.97187385945E+01  0.15281151141E+02  0.63804361079E+03  0.63831425578E+03  0.41800000000E+01 0. -1.
         -5    1    1    2    0  502 -0.38114247067E+02 -0.66799704410E+02  0.28722043909E+03  0.29736837318E+03  0.41800000000E+01 0. -1.
        -11    1    1    2    0    0  0.33995025823E+02  0.27073959123E+02  0.20402085289E+03  0.20859810512E+03  0.00000000000E+00 0. -1.
         11    1    1    2    0    0 -0.55995173509E+01  0.24444594146E+02  0.25846359252E+01  0.25210575566E+02  0.00000000000E+00 0.  1.
</event>
<event>
 7    1  0.1538147E-010  0.1092945E+03  0.7561462E-02  0.1261882E+00
          3   -1    0    0  501    0  0.00000000000E+00  0.00000000000E+00  0.41716325632E+03  0.41716325632E+03  0.00000000000E+00 0. -1.
         -3   -1    0    0    0  501 -0.00000000000E+00 -0.00000000000E+00 -0.36454979092E+02  0.36454979092E+02  0.00000000000E+00 0.  1.
         25    2    1    2    0    0  0.31239231336E+02 -0.10384084672E+02  0.31664564762E+03  0.34206231543E+03  0.12513369927E+03 0.  0.
          5    1    3    3  502    0  0.17111455590E+02  0.56781208316E+02  0.17000549223E+03  0.18010065885E+03  0.41800000000E+01 0. -1.
         -5    1    3    3    0  502  0.14127775746E+02 -0.67165292989E+02  0.14664015539E+03  0.16196165658E+03  0.41800000000E+01 0. -1.
        -11    1    1    2    0    0 -0.60504462829E+02  0.75582129100E+01  0.50524631802E+02  0.79187467590E+02  0.00000000000E+00 0. -1.
         11    1    1    2    0    0  0.29265231492E+02  0.28258717625E+01  0.13537997806E+02  0.32368452390E+02  0.00000000000E+00 0.  1.
</event>
<event>
 6    1  0.1538147E-010  0.9744248E+02  0.7561462E-02  0.1285768E+00
         -1   -1    0    0    0  501 -0.00000000000E+00  0.00000000000E+00  0.12079281327E+03  0.12079281327E+03  0.00000000000E+00 0.  1.
          1   -1    0    0  501    0  0.00000000000E+00 -0.00000000000E+00 -0.27252435694E+03  0.27252435694E+03  0.00000000000E+00 0. -1.
          5    1    1    2  502    0  0.11223179072E+01  0.10535874762E+02 -0.40039618555E+02  0.41628208087E+02  0.41800000000E+01 0. -1.
         -5    1    1    2    0  502  0.28982455647E+01  0.66486925639E+02  0.93117412938E+02  0.11453050293E+03  0.41800000000E+01 0. -1.
        -11    1    1    2    0    0  0.39923392906E+02 -0.19514225971E+02 -0.10364778803E+03  0.11277209885E+03  0.00000000000E+00 0. -1.
         11    1    1    2    0    0 -0.43943956378E+02 -0.57508574430E+02 -0.10116155003E+03  0.12438636034E+03  0.00000000000E+00 0.  1.
</event>
<event>
 6    1  0.1538147E-010  0.1187145E+03  0.7561462E-02  0.1245233E+00
         -1   -1    0    0    0  501 -0.00000000000E+00  0.00000000000E+00  0.51715657084E+02  0.51715657084E+02  0.00000000000E+00 0.  1.
          1   -1    0    0  501    0  0.00000000000E+00 -0.00000000000E+00 -0.30863916147E+03  0.30863916147E+03  0.00000000000E+00 0. -1.
          5    1    1    2  502    0 -0.60656428502E+02 -0.68312683054E+02 -0.57777482524E+02  0.10817363298E+03  0.41800000000E+01 0. -1.
         -5    1    1    2    0  502  0.15891789343E+02  0.41014530694E+02 -0.36477118378E+02  0.57295665296E+02  0.41800000000E+01 0. -1.
        -11    1    1    2    0    0  0.26046827571E+02  0.59272949160E+02 -0.71400199933E+02  0.96383132751E+02  0.00000000000E+00 0.  1.
         11    1    1    2    0    0  0.18717811589E+02 -0.31974796799E+02 -0.91268703552E+02  0.98502387530E+02  0.00000000000E+00 0. -1.
</event>
<event>
 7    1  0.1896735E-010  0.1350752E+03  0.7561462E-02  0.1220114E+00
         -2   -1    0    0    0  501 -0.00000000000E+00  0.00000000000E+00  0.23211700159E+02  0.23211700159E+02  0.00000000000E+00 0.  1.
          2   -1    0    0  501    0  0.00000000000E+00 -0.00000000000E+00 -0.93377877780E+03  0.93377877780E+03  0.00000000000E+00 0. -1.
         25    2    1    2    0    0 -0.67256527514E+02  0.72074621642E+02 -0.53895680160E+03  0.56200268386E+03  0.12511750912E+03 0.  0.
          5    1    3    3  502    0 -0.60585421015E+02  0.99360345592E+02 -0.30751725408E+03  0.32882731863E+03  0.41800000000E+01 0. -1.
         -5    1    3    3    0  502 -0.66711064991E+01 -0.27285723950E+02 -0.23143954752E+03  0.23317536523E+03  0.41800000000E+01 0. -1.
        -11    1    1    2    0    0  0.38624874703E+02  0.87090101939E+01 -0.60634485927E+02  0.72417323121E+02  0.00000000000E+00 0.  1.
         11    1    1    2    0    0  0.28631652811E+02 -0.80783631836E+02 -0.31097579010E+03  0.32257047098E+03  0.00000000000E+00 0. -1.
</event>
<event>
 7    1  0.1538147E-010  0.1341648E+03  0.7561462E-02  0.1221404E+00
          4   -1    0    0  501    0  0.00000000000E+00  0.00000000000E+00  0.22253439473E+03  0.22253439473E+03  0.00000000000E+00 0. -1.
         -4   -1    0    0    0  501 -0.00000000000E+00 -0.00000000000E+00 -0.13816689115E+03  0.13816689115E+03  0.00000000000E+00 0.  1.
         25    2    1    2    0    0 -0.11022091932E+03 -0.26827916528E+01 -0.39420366929E+02  0.17136109607E+03  0.12511918913E+03 0.  0.
          5    1    3    3  502    0 -0.38190653366E+02  0.27656219241E+02 -0.72337945785E+02  0.86450235787E+02  0.41800000000E+01 0. -1.
         -5    1    3    3    0  502 -0.72030265957E+02 -0.30339010894E+02  0.32917578856E+02  0.84910860281E+02  0.41800000000E+01 0. -1.
        -11    1    1    2    0    0  0.67831906713E+02  0.46122044459E+02  0.62888940118E+02  0.10336067600E+03  0.00000000000E+00 0.  1.
         11    1    1    2    0    0  0.42389012610E+02 -0.43439252807E+02  0.60898930384E+02  0.85979513818E+02  0.00000000000E+00 0. -1.
</event>
<event>
 7    1  0.1538147E-010  0.9087016E+02  0.7561462E-02  0.1300758E+00
         -1   -1    0    0    0  501 -0.00000000000E+00  0.00000000000E+00  0.19420853438E+03  0.19420853438E+03  0.00000000000E+00 0.  1.
          1   -1    0    0  501    0  0.00000000000E+00 -0.00000000000E+00 -0.97555542717E+02  0.97555542717E+02  0.00000000000E+00 0. -1.
         25    2    1    2    0    0 -0.34881159001E+02  0.86128694915E+01  0.13796595065E+03  0.18969235562E+03  0.12513076948E+03 0.  0.
          5    1    3    3  502    0  0.17178413242E+02  0.39604176788E+02  0.11807387887E+03  0.12578752709E+03  0.41800000000E+01 0. -1.
         -5    1    3    3    0  502 -0.52059572243E+02 -0.30991307297E+02  0.19892071777E+02  0.63904828532E+02  0.41800000000E+01 0. -1.
        -11    1    1    2    0    0  0.31102930071E+02  0.27386711110E+02  0.66612111653E+01  0.41973752973E+02  0.00000000000E+00 0.  1.
         11    1    1    2    0    0  0.37782289301E+01 -0.35999580602E+02 -0.47974170145E+02  0.60097968505E+02  0.00000000000E+00 0. -1.
</event>
<event>
 7    1  0.1538147E-010  0.1209873E+03  0.7561462E-02  0.1241477E+00
          1   -1    0    0  501    0  0.00000000000E+00  0.00000000000E+00  0.70647924977E+03  0.70647924977E+03  0.00000000000E+00 0. -1.
         -1   -1    0    0    0  501 -0.00000000000E+00 -0.00000000000E+00 -0.21914832961E+02  0.21914832961E+02  0.00000000000E+00 0.  1.
         25    2    1    2    0    0 -0.52211581421E+02  0.30725201714E+02  0.39999186375E+03  0.42345748029E+03  0.12511058822E+03 0.  0.
          5    1    3    3  502    0 -0.51104569304E+01  0.70385711056E+02  0.14799261882E+03  0.16401083109E+03  0.41800000000E+01 0.  1.
         -5    1    3    3    0  502 -0.47101124490E+02 -0.39660509342E+02  0.25199924493E+03  0.25944664919E+03  0.41800000000E+01 0.  1.
        -11    1    1    2    0    0 -0.20614977323E+02  0.13234647825E+02  0.62683812804E+02  0.67300769541E+02  0.00000000000E+00 0. -1.
         11    1    1    2    0    0  0.72826558744E+02 -0.43959849539E+02  0.22188874025E+03  0.23763583290E+03  0.00000000000E+00 0.  1.
</event>
<event>
 7    1  0.1538147E-010  0.1245736E+03  0.7561462E-02  0.1235737E+00
          2   -1    0    0  501    0  0.00000000000E+00  0.00000000000E+00  0.91287096016E+02  0.91287096016E+02  0.00000000000E+00 0. -1.
         -2   -1    0    0    0  501 -0.00000000000E+00 -0.00000000000E+00 -0.23531823535E+03  0.23531823535E+03  0.00000000000E+00 0.  1.
         25    2    1    2    0    0  0.18491095955E+02 -0.97363616782E+02 -0.66057680822E+02  0.17270200615E+03  0.12506306901E+03 0.  0.
          5    1    3    3  502    0  0.48177950460E+02 -0.48441901062E+02  0.18141429357E+02  0.70811839040E+02  0.41800000000E+01 0.  1.
         -5    1    3    3    0  502 -0.29686854506E+02 -0.48921715720E+02 -0.84199110179E+02  0.10189016711E+03  0.41800000000E+01 0.  1.
        -11    1    1    2    0    0 -0.40034096400E+02  0.23591037011E+02 -0.30435455226E+01  0.46567467948E+02  0.00000000000E+00 0.  1.
         11    1    1    2    0    0  0.21543000445E+02  0.73772579771E+02 -0.74929912987E+02  0.10733585726E+03  0.00000000000E+00 0. -1.
</event>
<event>
 6    1  0.1538147E-010  0.9942997E+02  0.7561462E-02  0.1281499E+00
          2   -1    0    0  501    0  0.00000000000E+00  0.00000000000E+00  0.17399645673E+03  0.17399645673E+03  0.00000000000E+00 0. -1.
         -2   -1    0    0    0  501 -0.00000000000E+00 -0.00000000000E+00 -0.14959376255E+03  0.14959376255E+03  0.00000000000E+00 0.  1.
          5    1    1    2  502    0  0.76283558970E+02 -0.45106180816E+02  0.10345327784E+03  0.13628573664E+03  0.41800000000E+01 0.  1.
         -5    1    1    2    0  502 -0.42407899865E+02 -0.10420618316E+01  0.13865386712E+02  0.44824515753E+02  0.41800000000E+01 0.  1.
        -11    1    1    2    0    0 -0.16206085661E+02  0.47108587784E+02 -0.20005049059E+01  0.49858382198E+02  0.00000000000E+00 0. -1.
         11    1    1    2    0    0 -0.17669573444E+02 -0.96034513718E+00 -0.90915465465E+02  0.92621584683E+02  0.00000000000E+00 0.  1.
</event>
<event>
 7    1  0.1538147E-010  0.2217764E+03  0.7561462E-02  0.1132566E+00
          3   -1    0    0  501    0  0.00000000000E+00  0.00000000000E+00  0.56128121955E+03  0.56128121955E+03  0.00000000000E+00 0. -1.
         -3   -1    0    0    0  501 -0.00000000000E+00 -0.00000000000E+00 -0.14493382496E+03  0.14493382496E+03  0.00000000000E+00 0.  1.
         25    2    1    2    0    0 -0.18578968625E+03  0.70211863952E+02  0.41971902030E+03  0.48088727913E+03  0.12506400708E+03 0.  0.
          5    1    3    3  502    0 -0.11771953291E+03  0.98903312060E+02  0.22465639969E+03  0.27226407014E+03  0.41800000000E+01 0.  1.
         -5    1    3    3    0  502 -0.68070153335E+02 -0.28691448109E+02  0.19506262061E+03  0.20862320899E+03  0.41800000000E+01 0.  1.
        -11    1    1    2    0    0  0.10657952161E+03 -0.83557553303E+02  0.29382506709E+02  0.13857990778E+03  0.00000000000E+00 0.  1.
         11    1    1    2    0    0  0.79210164637E+02  0.13345689351E+02 -0.32754132420E+02  0.86747857591E+02  0.00000000000E+00 0. -1.
</event>
<event>
 7    1  0.1538147E-010  0.1133070E+03  0.7561462E-02  0.1254566E+00
         -2   -1    0    0    0  501 -0.00000000000E+00  0.00000000000E+00  0.36969898257E+02  0.36969898257E+02  0.00000000000E+00 0. -1.
          2   -1    0    0  501    0  0.00000000000E+00 -0.00000000000E+00 -0.56056184604E+03  0.56056184604E+03  0.00000000000E+00 0.  1.
         25    2    1    2    0    0  0.56316270747E+02  0.28150441237E+02 -0.42434404309E+03  0.44684741862E+03  0.12506309977E+03 0.  0.
          5    1    3    3  502    0  0.60040714892E+01  0.60727184818E+02 -0.32532455155E+03  0.33102473638E+03  0.41800000000E+01 0. -1.
         -5    1    3    3    0  502  0.50312199258E+02 -0.32576743581E+02 -0.99019491537E+02  0.11582268224E+03  0.41800000000E+01 0. -1.
        -11    1    1    2    0    0 -0.50167984254E+00  0.26937672300E+02 -0.53482413712E+02  0.59885377582E+02  0.00000000000E+00 0.  1.
         11    1    1    2    0    0 -0.55814590905E+02 -0.55088113537E+02 -0.45765490976E+02  0.90798948095E+02  0.00000000000E+00 0. -1.
</event>
<event>
 7    1  0.1538147E-010  0.1256442E+03  0.7561462E-02  0.1234066E+00
          4   -1    0    0  501    0  0.00000000000E+00  0.00000000000E+00  0.49514687727E+03  0.49514687727E+03  0.00000000000E+00 0. -1.
         -4   -1    0    0    0  501 -0.00000000000E+00 -0.00000000000E+00 -0.14447977672E+03  0.14447977672E+03  0.00000000000E+00 0.  1.
         25    2    1    2    0    0  0.93407002833E+02 -0.65235293979E+02  0.43749696945E+03  0.46908291058E+03  0.12511861159E+03 0.  0.
          5    1    3    3  502    0  0.92385817478E+02 -0.70208022771E+02  0.44453622633E+03  0.45944992617E+03  0.41800000000E+01 0.  1.
         -5    1    3    3    0  502  0.10211853556E+01  0.49727287926E+01 -0.70392568881E+01  0.96329844136E+01  0.41800000000E+01 0.  1.
        -11    1    1    2    0    0 -0.46204710475E+02 -0.22351835655E+01 -0.73911375841E+02  0.87193823143E+02  0.00000000000E+00 0. -1.
         11    1    1    2    0    0 -0.47202292359E+02  0.67470477544E+02 -0.12918493055E+02  0.83349920257E+02  0.00000000000E+00 0.  1.
</event>
<event>
 6    1  0.1538147E-010  0.1998248E+03  0.7561462E-02  0.1149887E+00
         -2   -1    0    0    0  501 -0.00000000000E+00  0.00000000000E+00  0.18748680620E+03  0.18748680620E+03  0.00000000000E+00 0.  1.
          2   -1    0    0  501    0  0.00000000000E+00 -0.00000000000E+00 -0.38235699542E+03  0.38235699542E+03  0.00000000000E+00 0. -1.
          5    1    1    2  502    0 -0.40820263000E+02  0.24327661736E+02 -0.13984074323E+03  0.14775329054E+03  0.41800000000E+01 0.  1.
         -5    1    1    2    0  502 -0.21883065429E+02  0.15685912531E+03 -0.12157495810E+03  0.19970377208E+03  0.41800000000E+01 0.  1.
        -11    1    1    2    0    0  0.75516213118E+01 -0.58682439642E+02 -0.20141087601E+02  0.62500552929E+02  0.00000000000E+00 0. -1.
         11    1    1    2    0    0  0.55151707118E+02 -0.12250434740E+03  0.86686599710E+02  0.15988618608E+03  0.00000000000E+00 0.  1.
</event>
<event>
 6    1  0.1538147E-010  0.1071583E+03  0.7561462E-02  0.1265925E+00
          3   -1    0    0  501    0  0.00000000000E+00  0.00000000000E+00  0.17390117570E+02  0.17390117570E+02  0.00000000000E+00 0. -1.
         -3   -1    0    0    0  501 -0.00000000000E+00 -0.00000000000E+00 -0.77452965587E+03  0.77452965587E+03  0.00000000000E+00 0.  1.
          5    1    1    2  502    0 -0.56462155059E+02 -0.16906097257E+02 -0.11929148793E+03  0.13312296035E+03  0.41800000000E+01 0.  1.
         -5    1    1    2    0  502  0.51399336236E+02 -0.23342915805E+02 -0.34242253759E+03  0.34706980585E+03  0.41800000000E+01 0.  1.
        -11    1    1    2    0    0  0.47448602928E+02  0.17954386425E+02 -0.13142121783E+03  0.14087322815E+03  0.00000000000E+00 0. -1.
         11    1    1    2    0    0 -0.42385784104E+02  0.22294626636E+02 -0.16400429494E+03  0.17085377909E+03  0.00000000000E+00 0.  1.
</event>
<event>
 7    1  0.1538147E-010  0.9682170E+02  0.7561462E-02  0.1287125E+00
          4   -1    0    0  501    0  0.00000000000E+00  0.00000000000E+00  0.11654921936E+03  0.11654921936E+03  0.00000000000E+00 0.  1.
         -4   -1    0    0    0  501 -0.00000000000E+00 -0.00000000000E+00 -0.14923991011E+03  0.14923991011E+03  0.00000000000E+00 0. -1.
         25    2    1    2    0    0 -0.11653137425E+01  0.66898366402E+02 -0.50421726236E+02  0.15052434532E+03  0.12505390307E+03 0.  0.
          5    1    3    3  502    0 -0.32258146838E+02  0.43356395939E+02 -0.83274422538E+02  0.99360288623E+02  0.41800000000E+01 0.  1.
         -5    1    3    3    0  502  0.31092833095E+02  0.23541970463E+02  0.32852696302E+02  0.51164056694E+02  0.41800000000E+01 0.  1.
        -11    1    1    2    0    0  0.33307760979E+02 -0.57972326358E+02  0.37329622784E+02  0.76574788945E+02  0.00000000000E+00 0.  1.
         11    1    1    2    0    0 -0.32142447237E+02 -0.89260400438E+01 -0.19598587292E+02  0.38689995206E+02  0.00000000000E+00 0. -1.
</event>
<event>
 6    1  0.1538147E-010  0.1698151E+03  0.7561462E-02  0.1178041E+00
         -2   -1    0    0    0  501 -0.00000000000E+00  0.00000000000E+00  0.92191536868E+02  0.92191536868E+02  0.00000000000E+00 0. -1.
          2   -1    0    0  501    0  0.00000000000E+00 -0.00000000000E+00 -0.41589546643E+03  0.41589546643E+03  0.00000000000E+00 0.  1.
          5    1    1    2  502    0  0.54142750342E+02 -0.16255070089E+01  0.22147605133E+02  0.58669144367E+02  0.41800000000E+01 0.  1.
         -5    1    1    2    0  502  0.98824855089E+02 -0.26551120958E+02 -0.13870609121E+03  0.17241857831E+03  0.41800000000E+01 0.  1.
        -11    1    1    2    0    0 -0.43269868872E+02 -0.35569044946E+02 -0.77280891057E+02  0.95445139390E+02  0.00000000000E+00 0.  1.
         11    1    1    2    0    0 -0.10969773656E+03  0.63745672913E+02 -0.12986455243E+03  0.18155414123E+03  0.00000000000E+00 0. -1.
</event>
<event>
 6    1  0.1538147E-010  0.1604052E+03  0.7561462E-02  0.1188240E+00
         -2   -1    0    0    0  501 -0.00000000000E+00  0.00000000000E+00  0.51210809827E+02  0.51210809827E+02  0.00000000000E+00 0.  1.
          2   -1    0    0  501    0  0.00000000000E+00 -0.00000000000E+00 -0.58218680489E+03  0.58218680489E+03  0.00000000000E+00 0. -1.
          5    1    1    2  502    0 -0.54598007081E+02 -0.62851089844E+02 -0.16616575279E+03  0.18590247893E+03  0.41800000000E+01 0. -1.
         -5    1    1    2    0  502 -0.63835295320E+02  0.60295635707E+02 -0.22440772334E+03  0.24101204806E+03  0.41800000000E+01 0. -1.
        -11    1    1    2    0    0  0.15737425487E+01  0.29561395165E+02 -0.41771081716E+02  0.51197421980E+02  0.00000000000E+00 0. -1.
         11    1    1    2    0    0  0.11685955985E+03 -0.27005941027E+02 -0.98631437213E+02  0.15528566575E+03  0.00000000000E+00 0.  1.
</event>
<event>
 6    1  0.1538147E-010  0.3206793E+03  0.7561462E-02  0.1075337E+00
          2   -1    0    0  501    0  0.00000000000E+00  0.00000000000E+00  0.50428014891E+03  0.50428014891E+03  0.00000000000E+00 0. -1.
         -2   -1    0    0    0  501 -0.00000000000E+00 -0.00000000000E+00 -0.22100474992E+03  0.22100474992E+03  0.00000000000E+00 0.  1.
          5    1    1    2  502    0 -0.87955624997E+02  0.86430754196E+02  0.10842976677E+03  0.16425880177E+03  0.41800000000E+01 0.  1.
         -5    1    1    2    0  502 -0.18512613375E+03  0.70992781436E+02  0.23647572962E+02  0.19972065622E+03  0.41800000000E+01 0.  1.
        -11    1    1    2    0    0  0.71866520361E+02 -0.15755479621E+02  0.21536541887E+01  0.73604823981E+02  0.00000000000E+00 0.  1.
         11    1    1    2    0    0  0.20121523839E+03 -0.14166805601E+03  0.14904440507E+03  0.28770061685E+03  0.00000000000E+00 0. -1.
</event>
<event>
 6    1  0.1538147E-010  0.2121863E+03  0.7561462E-02  0.1139846E+00
          2   -1    0    0  501    0  0.00000000000E+00  0.00000000000E+00  0.17901269140E+04  0.17901269140E+04  0.00000000000E+00 0. -1.
         -2   -1    0    0    0  501 -0.00000000000E+00 -0.00000000000E+00 -0.27073579484E+02  0.27073579484E+02  0.00000000000E+00 0.  1.
          5    1    1    2  502    0  0.10465343635E+03  0.67694387722E+02  0.63678888197E+03  0.64888552493E+03  0.41800000000E+01 0.  1.
         -5    1    1    2    0  502 -0.18376405088E+02  0.97130021810E+02  0.45803970102E+03  0.46860406903E+03  0.41800000000E+01 0.  1.
        -11    1    1    2    0    0 -0.97968926650E+02 -0.12274413217E+03  0.43617082620E+03  0.46358281051E+03  0.00000000000E+00 0.  1.
         11    1    1    2    0    0  0.11691895389E+02 -0.42080277361E+02  0.23205392533E+03  0.23612808902E+03  0.00000000000E+00 0. -1.
</event>
<event>
 7    1  0.1538147E-010  0.8947501E+02  0.7561462E-02  0.1304128E+00
         -2   -1    0    0    0  501 -0.00000000000E+00  0.00000000000E+00  0.20643148421E+02  0.20643148421E+02  0.00000000000E+00 0.  1.
          2   -1    0    0  501    0  0.00000000000E+00 -0.00000000000E+00 -0.69433217120E+03  0.69433217120E+03  0.00000000000E+00 0. -1.
         25    2    1    2    0    0  0.19926548621E+02  0.33883312077E+02 -0.32741504702E+03  0.35268023385E+03  0.12505034248E+03 0.  0.
          5    1    3    3  502    0  0.51020114975E+02  0.11807343927E+02 -0.49669548359E+02  0.72298007834E+02  0.41800000000E+01 0. -1.
         -5    1    3    3    0  502 -0.31093566354E+02  0.22075968150E+02 -0.27774549866E+03  0.28038222602E+03  0.41800000000E+01 0. -1.
        -11    1    1    2    0    0 -0.43263080614E+02 -0.44808649734E+02 -0.31799404924E+03  0.32403660995E+03  0.00000000000E+00 0. -1.
         11    1    1    2    0    0  0.23336531993E+02  0.10925337657E+02 -0.28279926518E+02  0.38258475822E+02  0.00000000000E+00 0.  1.
</event>
<event>
 7    1  0.1538147E-010  0.1110161E+03  0.7561462E-02  0.1258700E+00
          2   -1    0    0  501    0  0.00000000000E+00  0.00000000000E+00  0.28038163673E+03  0.28038163673E+03  0.00000000000E+00 0.  1.
         -2   -1    0    0    0  501 -0.00000000000E+00 -0.00000000000E+00 -0.62984966530E+02  0.62984966530E+02  0.00000000000E+00 0. -1.
         25    2    1    2    0    0  0.25299963565E+02  0.71740648634E+02  0.11881198440E+03  0.18857402579E+03  0.12512820123E+03 0.  0.
          5    1    3    3  502    0  0.24180384504E+02  0.10564935882E+03  0.70386977706E+02  0.12929917651E+03  0.41800000000E+01 0.  1.
         -5    1    3    3    0  502  0.11195790605E+01 -0.33908710189E+02  0.48425006697E+02  0.59274849283E+02  0.41800000000E+01 0.  1.
        -11    1    1    2    0    0  0.47664598724E+00 -0.32092923151E+02 -0.12199828003E+02  0.34336841891E+02  0.00000000000E+00 0. -1.
         11    1    1    2    0    0 -0.25776609552E+02 -0.39647725484E+02  0.11078451380E+03  0.12045573558E+03  0.00000000000E+00 0.  1.
</event>
<event>
 7    1  0.1538147E-010  0.9610104E+02  0.7561462E-02  0.1288715E+00
         -2   -1    0    0    0  501 -0.00000000000E+00  0.00000000000E+00  0.97852010444E+01  0.97852010444E+01  0.00000000000E+00 0. -1.
          2   -1    0    0  501    0  0.00000000000E+00 -0.00000000000E+00 -0.12223152569E+04  0.12223152569E+04  0.00000000000E+00 0.  1.
         25    2    1    2    0    0  0.47073957312E+01  0.17065226987E+02 -0.81704108726E+03  0.82675621648E+03  0.12512522397E+03 0.  0.
          5    1    3    3  502    0  0.38330409240E+02  0.46386879155E+02 -0.22257088800E+03  0.23059972986E+03  0.41800000000E+01 0. -1.
         -5    1    3    3    0  502 -0.33623013509E+02 -0.29321652168E+02 -0.59447019926E+03  0.59615648661E+03  0.41800000000E+01 0. -1.
        -11    1    1    2    0    0 -0.26846767158E+02  0.26803248246E+02 -0.13343273460E+03  0.13872079039E+03  0.00000000000E+00 0. -1.
         11    1    1    2    0    0  0.22139371426E+02 -0.43868475233E+02 -0.26205623402E+03  0.26662345110E+03  0.00000000000E+00 0.  1.
</event>
<event>
 7    1  0.1538147E-010  0.1171277E+03  0.7561462E-02  0.1247912E+00
         -2   -1    0    0    0  501 -0.00000000000E+00  0.00000000000E+00  0.29753748241E+02  0.29753748241E+02  0.00000000000E+00 0. -1.
          2   -1    0    0  501    0  0.00000000000E+00 -0.00000000000E+00 -0.74083457297E+03  0.74083457297E+03  0.00000000000E+00 0.  1.
         25    2    1    2    0    0  0.50640042525E+02  0.52668010882E+02 -0.56159815713E+03  0.57998760513E+03  0.12511913818E+03 0.  0.
          5    1    3    3  502    0 -0.26378569261E+02  0.56100501591E+02 -0.17365233077E+03  0.18443345569E+03  0.41800000000E+01 0.  1.
         -5    1    3    3    0  502  0.77018611786E+02 -0.34324907095E+01 -0.38794582636E+03  0.39555414944E+03  0.41800000000E+01 0.  1.
        -11    1    1    2    0    0 -0.20888000968E+02 -0.60619613276E+02 -0.14618544274E+03  0.15962841153E+03  0.00000000000E+00 0.  1.
         11    1    1    2    0    0 -0.29752041557E+02  0.79516023939E+01 -0.32972248627E+01  0.30972304552E+02  0.00000000000E+00 0. -1.
</event>
<event>
 7    1  0.1538147E-010  0.1529028E+03  0.7561462E-02  0.1196951E+00
          1   -1    0    0  501    0  0.00000000000E+00  0.00000000000E+00  0.10874494397E+04  0.10874494397E+04  0.00000000000E+00 0.  1.
         -1   -1    0    0    0  501 -0.00000000000E+00 -0.00000000000E+00 -0.25583902542E+02  0.25583902542E+02  0.00000000000E+00 0. -1.
         25    2    1    2    0    0  0.22704295280E+02  0.12049206993E+03  0.48258336269E+03  0.51337962839E+03  0.12505245683E+03 0.  0.
          5    1    3    3  502    0 -0.16911348428E+02 -0.58573623113E+01  0.69634034289E+01  0.19653594740E+02  0.41800000000E+01 0. -1.
         -5    1    3    3    0  502  0.39615643708E+02  0.12634943224E+03  0.47561995926E+03  0.49372603365E+03  0.41800000000E+01 0. -1.
        -11    1    1    2    0    0 -0.53702067476E+02 -0.35235161433E+02  0.23466208322E+03  0.24329348933E+03  0.00000000000E+00 0.  1.
         11    1    1    2    0    0  0.30997772196E+02 -0.85256908496E+02  0.34462009130E+03  0.35636022456E+03  0.00000000000E+00 0. -1.
</event>
<event>
 6    1  0.1538147E-010  0.5046352E+02  0.7561462E-02  0.1442857E+00
          3   -1    0    0  501    0  0.00000000000E+00  0.00000000000E+00  0.23073429452E+03  0.23073429452E+03  0.00000000000E+00 0. -1.
         -3   -1    0    0    0  501 -0.00000000000E+00 -0.00000000000E+00 -0.55044639658E+02  0.55044639658E+02  0.00000000000E+00 0.  1.
          5    1    1    2  502    0 -0.13928257742E+02 -0.20908278220E+02 -0.17652254886E+02  0.30987529176E+02  0.41800000000E+01 0.  1.
         -5    1    1    2    0  502  0.39396681194E+02  0.39645679290E+01  0.14290670123E+03  0.14834963412E+03  0.41800000000E+01 0.  1.
        -11    1    1    2    0    0 -0.11895955226E+02  0.18486598574E+02 -0.22959401033E+02  0.31786823895E+02  0.00000000000E+00 0.  1.
         11    1    1    2    0    0 -0.13572468226E+02 -0.15428882826E+01  0.73394609555E+02  0.74654946988E+02  0.00000000000E+00 0. -1.
</event>
<event>
 7    1  0.1538147E-010  0.1861142E+03  0.7561462E-02  0.1162013E+00
         -2   -1    0    0    0  501 -0.00000000000E+00  0.00000000000E+00  0.45991635158E+02  0.45991635158E+02  0.00000000000E+00 0. -1.
          2   -1    0    0  501    0  0.00000000000E+00 -0.00000000000E+00 -0.10711814652E+04  0.10711814652E+04  0.00000000000E+00 0.  1.
         25    2    1    2    0    0 -0.78935935346E+02 -0.15527377446E+03 -0.73949604704E+03  0.76995830729E+03  0.12506224235E+03 0.  0.
          5    1    3    3  502    0 -0.42320397595E+02 -0.14578588608E+03 -0.39205215220E+03  0.42043656249E+03  0.41800000000E+01 0.  1.
         -5    1    3    3    0  502 -0.36615537751E+02 -0.94878883761E+01 -0.34744389484E+03  0.34952174480E+03  0.41800000000E+01 0.  1.
        -11    1    1    2    0    0  0.47397390610E+02  0.37645145858E+02 -0.38736817696E+02  0.71862442823E+02  0.00000000000E+00 0. -1.
         11    1    1    2    0    0  0.31538544736E+02  0.11762862860E+03 -0.24695696530E+03  0.27535235024E+03  0.00000000000E+00 0.  1.
</event>
<event>
 6    1  0.1538147E-010  0.1164494E+03  0.7561462E-02  0.1249072E+00
          2   -1    0    0  501    0  0.00000000000E+00  0.00000000000E+00  0.44228924729E+03  0.44228924729E+03  0.00000000000E+00 0. -1.
         -2   -1    0    0    0  501 -0.00000000000E+00 -0.00000000000E+00 -0.73959266422E+02  0.73959266422E+02  0.00000000000E+00 0.  1.
          5    1    1    2  502    0 -0.41124355791E+02  0.85856548163E+01  0.27377769773E+03  0.27701376551E+03  0.41800000000E+01 0.  1.
         -5    1    1    2    0  502  0.31737730380E+02  0.65406928690E+02  0.95907108856E+02  0.12042008047E+03  0.41800000000E+01 0.  1.
        -11    1    1    2    0    0  0.35355307039E+01  0.21701199241E+02 -0.61221005173E+01  0.22823718816E+02  0.00000000000E+00 0.  1.
         11    1    1    2    0    0  0.58510947070E+01 -0.95693782747E+02  0.47672748011E+01  0.95990948921E+02  0.00000000000E+00 0. -1.
</event>
<event>
 7    1  0.1538147E-010  0.1395136E+03  0.7561462E-02  0.1213985E+00
         -2   -1    0    0    0  501 -0.00000000000E+00  0.00000000000E+00  0.58831240144E+02  0.58831240144E+02  0.00000000000E+00 0.  1.
          2   -1    0    0  501    0  0.00000000000E+00 -0.00000000000E+00 -0.47900088326E+03  0.47900088326E+03  0.00000000000E+00 0. -1.
         25    2    1    2    0    0 -0.83350809090E+02  0.87562843334E+02 -0.28995456013E+03  0.33814575449E+03  0.12511712686E+03 0.  0.
          5    1    3    3  502    0 -0.92840413105E+02  0.28796597130E+02 -0.24445272371E+03  0.26310300804E+03  0.41800000000E+01 0. -1.
         -5    1    3    3    0  502  0.94896040148E+01  0.58766246204E+02 -0.45501836421E+02  0.75042746451E+02  0.41800000000E+01 0. -1.
        -11    1    1    2    0    0  0.43117646812E+02 -0.57322190605E+02 -0.14056917350E+02  0.73092830891E+02  0.00000000000E+00 0.  1.
         11    1    1    2    0    0  0.40233162278E+02 -0.30240652729E+02 -0.11615816564E+03  0.12659353802E+03  0.00000000000E+00 0. -1.
</event>
<event>
 7    1  0.1538147E-010  0.1747061E+03  0.7561462E-02  0.1173027E+00
         -2   -1    0    0    0  501 -0.00000000000E+00  0.00000000000E+00  0.23614170712E+04  0.23614170712E+04  0.00000000000E+00 0.  1.
          2   -1    0    0  501    0  0.00000000000E+00 -0.00000000000E+00 -0.15114456751E+02  0.15114456751E+02  0.00000000000E+00 0. -1.
         25    2    1    2    0    0  0.14582271325E+03  0.32405405741E+02  0.14206628317E+04  0.14339587374E+04  0.12506160550E+03 0.  0.
          5    1    3    3  502    0  0.12776634416E+03  0.59717737582E+02  0.79484082309E+03  0.80726690341E+03  0.41800000000E+01 0. -1.
         -5    1    3    3    0  502  0.18056369084E+02 -0.27312331841E+02  0.62582200862E+03  0.62669183401E+03  0.41800000000E+01 0. -1.
        -11    1    1    2    0    0 -0.91860316111E+02 -0.64758241825E+02  0.66610848629E+03  0.67552384345E+03  0.00000000000E+00 0.  1.
         11    1    1    2    0    0 -0.53962397137E+02  0.32352836084E+02  0.25953129647E+03  0.26704894712E+03  0.00000000000E+00 0. -1.
</event>
<event>
 7    1  0.1538147E-010  0.1552054E+03  0.7561462E-02  0.1194219E+00
          1   -1    0    0  501    0  0.00000000000E+00  0.00000000000E+00  0.47000893663E+03  0.47000893663E+03  0.00000000000E+00 0. -1.
         -1   -1    0    0    0  501 -0.00000000000E+00 -0.00000000000E+00 -0.68442569779E+02  0.68442569779E+02  0.00000000000E+00 0.  1.
         25    2    1    2    0    0  0.78927967265E+02 -0.92094069527E+02  0.32283211326E+03  0.36684175797E+03  0.12506542440E+03 0.  0.
          5    1    3    3  502    0 -0.31717021062E+02 -0.44407465608E+01  0.73742022155E+02  0.80504955665E+02  0.41800000000E+01 0.  1.
         -5    1    3    3    0  502  0.11064498833E+03 -0.87653322966E+02  0.24909009111E+03  0.28633680231E+03  0.41800000000E+01 0.  1.
        -11    1    1    2    0    0 -0.38114207779E+02  0.22112281978E+01 -0.93525613888E+01  0.39307159263E+02  0.00000000000E+00 0.  1.
         11    1    1    2    0    0 -0.40813759486E+02  0.89882841329E+02  0.88086814978E+02  0.13230258917E+03  0.00000000000E+00 0. -1.
</event>
<event>
 7    1  0.1538147E-010  0.2036330E+03  0.7561462E-02  0.1146710E+00
         -1   -1    0    0    0  501 -0.00000000000E+00  0.00000000000E+00  0.81776611005E+02  0.81776611005E+02  0.00000000000E+00 0.  1.
          1   -1    0    0  501    0  0.00000000000E+00 -0.00000000000E+00 -0.72679362559E+03  0.72679362559E+03  0.00000000000E+00 0. -1.
         25    2    1    2    0    0  0.13727363412E+03  0.94276900445E+02 -0.48806895835E+03  0.53064160588E+03  0.12504807559E+03 0.  0.
          5    1    3    3  502    0 -0.17652470964E+02  0.40168133550E+02 -0.10647385167E+03  0.11523559421E+03  0.41800000000E+01 0.  1.
         -5    1    3    3    0  502  0.15492610508E+03  0.54108766895E+02 -0.38159510667E+03  0.41540601167E+03  0.41800000000E+01 0.  1.
        -11    1    1    2    0    0 -0.89062113827E+02 -0.11592444678E+03 -0.16927478990E+03  0.22366155677E+03  0.00000000000E+00 0. -1.
         11    1    1    2    0    0 -0.48211520291E+02  0.21647546336E+02  0.12326733666E+02  0.54267073940E+02  0.00000000000E+00 0.  1.
</event>
<event>
 6    1  0.1538147E-010  0.8659655E+02  0.7561462E-02  0.1311309E+00
         -1   -1    0    0    0  501 -0.00000000000E+00  0.00000000000E+00  0.46677873718E+02  0.46677873718E+02  0.00000000000E+00 0.  1.
          1   -1    0    0  501    0  0.00000000000E+00 -0.00000000000E+00 -0.35860230027E+03  0.35860230027E+03  0.00000000000E+00 0. -1.
          5    1    1    2  502    0  0.64171861779E+02  0.92334778881E+01 -0.53679961386E+02  0.84275118585E+02  0.41800000000E+01 0.  1.
         -5    1    1    2    0  502 -0.18134766463E+02 -0.74812190300E+01 -0.21263755032E+03  0.21358145659E+03  0.41800000000E+01 0.  1.
        -11    1    1    2    0    0  0.14584446181E+01  0.30642240274E+02  0.46936988914E+01  0.31033929158E+02  0.00000000000E+00 0.  1.
         11    1    1    2    0    0 -0.47495539934E+02 -0.32394499132E+02 -0.50300613733E+02  0.76389669652E+02  0.00000000000E+00 0. -1.
</event>
<event>
 7    1  0.1688982E-010  0.9418717E+02  0.7561462E-02  0.1293017E+00
         -1   -1    0    0    0  501 -0.00000000000E+00  0.00000000000E+00  0.34127495672E+02  0.34127495672E+02  0.00000000000E+00 0.  1.
          1   -1    0    0  501    0  0.00000000000E+00 -0.00000000000E+00 -0.58095678041E+03  0.58095678041E+03  0.00000000000E+00 0. -1.
         25    2    1    2    0    0  0.69698045977E+02 -0.46327666373E+02 -0.36554602083E+03  0.39532720551E+03  0.12512248313E+03 0.  0.
          5    1    3    3  502    0  0.54641113085E+02 -0.24118455722E+02 -0.36316485440E+03  0.36806729686E+03  0.41800000000E+01 0.  1.
         -5    1    3    3    0  502  0.15056932892E+02 -0.22209210651E+02 -0.23811664298E+01  0.27259908647E+02  0.41800000000E+01 0.  1.
        -11    1    1    2    0    0 -0.53234135989E+02  0.11341265745E+01 -0.15718544789E+03  0.16595910492E+03  0.00000000000E+00 0. -1.
         11    1    1    2    0    0 -0.16463909988E+02  0.45193539799E+02 -0.24097816015E+02  0.53797965652E+02  0.00000000000E+00 0.  1.
</event>
<event>
 7    1  0.1538147E-010  0.1258615E+03  0.7561462E-02  0.1233729E+00
         -1   -1    0    0    0  501 -0.00000000000E+00  0.00000000000E+00  0.46502054103E+02  0.46502054103E+02  0.00000000000E+00 0.  1.
          1   -1    0    0  501    0  0.00000000000E+00 -0.00000000000E+00 -0.56286195922E+03  0.56286195922E+03  0.00000000000E+00 0. -1.
         25    2    1    2    0    0 -0.52542356123E+01 -0.90025449719E+02 -0.41814288123E+03  0.44567748752E+03  0.12511101137E+03 0.  0.
          5    1    3    3  502    0 -0.13261390325E+02  0.30334182487E+02 -0.99077170541E+02  0.10454561312E+03  0.41800000000E+01 0. -1.
         -5    1    3    3    0  502  0.80071547127E+01 -0.12035963221E+03 -0.31906571069E+03  0.34113187440E+03  0.41800000000E+01 0. -1.
        -11    1    1    2    0    0  0.18671283343E+02  0.24679525188E+02 -0.91557151432E+02  0.96645785027E+02  0.00000000000E+00 0. -1.
         11    1    1    2    0    0 -0.13417047731E+02  0.65345924530E+02 -0.66598724512E+01  0.67040740775E+02  0.00000000000E+00 0.  1.
</event>
<event>
 7    1  0.1538147E-010  0.1590756E+03  0.7561462E-02  0.1189744E+00
         -1   -1    0    0    0  501 -0.00000000000E+00  0.00000000000E+00  0.10100292095E+03  0.10100292095E+03  0.00000000000E+00 0.  1.
          1   -1    0    0  501    0  0.00000000000E+00 -0.00000000000E+00 -0.43297484287E+03  0.43297484287E+03  0.00000000000E+00 0. -1.
         25    2    1    2    0    0 -0.13236173807E+03  0.41482305202E+02 -0.29191439763E+02  0.18906444073E+03  0.12511119552E+03 0.  0.
          5    1    3    3  502    0 -0.10134254122E+03 -0.21953854317E+02  0.16173254501E+02  0.10503013349E+03  0.41800000000E+01 0. -1.
         -5    1    3    3    0  502 -0.31019196850E+02  0.63436159519E+02 -0.45364694264E+02  0.84034307240E+02  0.41800000000E+01 0. -1.
        -11    1    1    2    0    0  0.40074688005E+02 -0.31180294523E+02 -0.20022776831E+03  0.20656560843E+03  0.00000000000E+00 0. -1.
         11    1    1    2    0    0  0.92287050063E+02 -0.10302010678E+02 -0.10255271384E+03  0.13834771465E+03  0.00000000000E+00 0.  1.
</event>
<event>
 7    1  0.1538147E-010  0.1123852E+03  0.7561462E-02  0.1256216E+00
         -2   -1    0    0    0  501 -0.00000000000E+00  0.00000000000E+00  0.43364296704E+02  0.43364296704E+02  0.00000000000E+00 0.  1.
          2   -1    0    0  501    0  0.00000000000E+00 -0.00000000000E+00 -0.50281239223E+03  0.50281239223E+03  0.00000000000E+00 0. -1.
         25    2    1    2    0    0 -0.37954547739E+02  0.88227634744E+02 -0.19530102160E+03  0.25103991568E+03  0.12511549464E+03 0.  0.
          5    1    3    3  502    0 -0.55635049140E+02  0.39948991980E+02 -0.24892590617E+02  0.72995165049E+02  0.41800000000E+01 0. -1.
         -5    1    3    3    0  502  0.17680501400E+02  0.48278642764E+02 -0.17040843098E+03  0.17804475063E+03  0.41800000000E+01 0. -1.
        -11    1    1    2    0    0 -0.13195077235E+01 -0.49136019428E+02 -0.21664171341E+03  0.22214797207E+03  0.00000000000E+00 0. -1.
         11    1    1    2    0    0  0.39274055463E+02 -0.39091615316E+02 -0.47505360515E+02  0.72988801183E+02  0.00000000000E+00 0.  1.
</event>
<event>
 6    1  0.1538147E-010  0.1087211E+03  0.7561462E-02  0.1262957E+00
         -2   -1    0    0    0  501 -0.00000000000E+00  0.00000000000E+00  0.64794172235E+03  0.64794172235E+03  0.00000000000E+00 0.  1.
          2   -1    0    0  501    0  0.00000000000E+00 -0.00000000000E+00 -0.26820367012E+02  0.26820367012E+02  0.00000000000E+00 0. -1.
          5    1    1    2  502    0 -0.43833705667E+02 -0.72743045633E+01  0.69687439582E+02  0.82753373918E+02  0.41800000000E+01 0. -1.
         -5    1    1    2    0  502  0.57819153029E+02 -0.50359769973E+02  0.38590974842E+03  0.39347549761E+03  0.41800000000E+01 0. -1.
        -11    1    1    2    0    0 -0.16778183799E+02  0.75804748352E+02  0.16223718877E+03  0.17985764578E+03  0.00000000000E+00 0. -1.
         11    1    1    2    0    0  0.27927364368E+01 -0.18170673815E+02  0.32869785624E+01  0.18675572060E+02  0.00000000000E+00 0.  1.
</event>
<event>
 6    1  0.1538147E-010  0.1169585E+03  0.7561462E-02  0.1248201E+00
         -2   -1    0    0    0  501 -0.00000000000E+00  0.00000000000E+00  0.65881776316E+02  0.65881776316E+02  0.00000000000E+00 0.  1.
          2   -1    0    0  501    0  0.00000000000E+00 -0.00000000000E+00 -0.37559816044E+03  0.37559816044E+03  0.00000000000E+00 0. -1.
          5    1    1    2  502    0 -0.40200673564E+02 -0.12348124434E+01 -0.19841098141E+03  0.20248952778E+03  0.41800000000E+01 0.  1.
         -5    1    1    2    0  502  0.32277597920E+02  0.74588383196E+02 -0.95535560101E+02  0.12549815090E+03  0.41800000000E+01 0.  1.
        -11    1    1    2    0    0  0.27849828755E+02  0.74882267270E+01 -0.50708204707E+00  0.28843433107E+02  0.00000000000E+00 0. -1.
         11    1    1    2    0    0 -0.19926753112E+02 -0.80841797480E+02 -0.15262760572E+02  0.84648824975E+02  0.00000000000E+00 0.  1.
</event>
<event>
 6    1  0.1538147E-010  0.9610763E+02  0.7561462E-02  0.1288701E+00
          2   -1    0    0  501    0  0.00000000000E+00  0.00000000000E+00  0.44772137168E+03  0.44772137168E+03  0.00000000000E+00 0. -1.
         -2   -1    0    0    0  501 -0.00000000000E+00 -0.00000000000E+00 -0.30134215621E+02  0.30134215621E+02  0.00000000000E+00 0.  1.
          5    1    1    2  502    0 -0.66290464360E+02  0.16073159739E+02  0.15570226603E+03  0.17003952533E+03  0.41800000000E+01 0. -1.
         -5    1    1    2    0  502  0.58966161596E+02  0.13279023025E+02  0.14113533879E+03  0.15359035425E+03  0.41800000000E+01 0. -1.
        -11    1    1    2    0    0  0.26715016379E+02  0.16016248487E+01  0.11397741266E+03  0.11707735861E+03  0.00000000000E+00 0. -1.
         11    1    1    2    0    0 -0.19390713615E+02 -0.30953807613E+02  0.67721385877E+01  0.37148349106E+02  0.00000000000E+00 0.  1.
</event>
<event>
 7    1  0.1538147E-010  0.1205860E+03  0.7561462E-02  0.1242133E+00
          2   -1    0    0  501    0  0.00000000000E+00  0.00000000000E+00  0.69018639972E+02  0.69018639972E+02  0.00000000000E+00 0. -1.
         -2   -1    0    0    0  501 -0.00000000000E+00 -0.00000000000E+00 -0.33587897592E+03  0.33587897592E+03  0.00000000000E+00 0.  1.
         25    2    1    2    0    0 -0.95796863084E+02 -0.20365690599E+02 -0.19973623282E+03  0.25519097432E+03  0.12504427354E+03 0.  0.
          5    1    3    3  502    0 -0.58568398128E+02  0.15132744109E+02 -0.19400954493E+03  0.20326444138E+03  0.41800000000E+01 0. -1.
         -5    1    3    3    0  502 -0.37228464957E+02 -0.35498434708E+02 -0.57266878853E+01  0.51926532947E+02  0.41800000000E+01 0. -1.
        -11    1    1    2    0    0  0.91533965215E+02 -0.15475029628E+02 -0.29116552388E+02  0.97291916175E+02  0.00000000000E+00 0.  1.
         11    1    1    2    0    0  0.42628978690E+01  0.35840720227E+02 -0.38007550743E+02  0.52414725394E+02  0.00000000000E+00 0. -1.
</event>
<event>
 7    1  0.1538147E-010  0.1012341E+03  0.7561462E-02  0.1277722E+00
          1   -1    0    0  501    0  0.00000000000E+00  0.00000000000E+00  0.16074930486E+03  0.16074930486E+03  0.00000000000E+00 0. -1.
         -1   -1    0    0    0  501 -0.00000000000E+00 -0.00000000000E+00 -0.13346739703E+03  0.13346739703E+03  0.00000000000E+00 0.  1.
         25    2    1    2    0    0  0.76204349041E+01  0.58423605504E+02 -0.63080225101E+02  0.15202896069E+03  0.12514911658E+03 0.  0.
          5    1    3    3  502    0  0.19026647739E+02  0.71929781142E+02 -0.91680741487E+02  0.11814710110E+03  0.41800000000E+01 0. -1.
         -5    1    3    3    0  502 -0.11406212835E+02 -0.13506175638E+02  0.28600516386E+02  0.33881859588E+02  0.41800000000E+01 0. -1.
        -11    1    1    2    0    0  0.34860941529E+02 -0.57557239593E+02  0.55239432849E+02  0.87060415892E+02  0.00000000000E+00 0.  1.
         11    1    1    2    0    0 -0.42481376433E+02 -0.86636591104E+00  0.35122700084E+02  0.55127325300E+02  0.00000000000E+00 0. -1.
</event>
<event>
 6    1  0.1538147E-010  0.1328014E+03  0.7561462E-02  0.1223357E+00
          4   -1    0    0  501    0  0.00000000000E+00  0.00000000000E+00  0.60871632357E+02  0.60871632357E+02  0.00000000000E+00 0. -1.
         -4   -1    0    0    0  501 -0.00000000000E+00 -0.00000000000E+00 -0.36444917483E+03  0.36444917483E+03  0.00000000000E+00 0.  1.
          5    1    1    2  502    0 -0.47431868796E+02  0.38420271336E+01 -0.20339456815E+02  0.51920220083E+02  0.41800000000E+01 0. -1.
         -5    1    1    2    0  502  0.57230628244E+02 -0.81361010841E+02 -0.50554765905E+02  0.11166116447E+03  0.41800000000E+01 0. -1.
        -11    1    1    2    0    0  0.37446484322E+02  0.16044527295E+02 -0.60898816112E+02  0.73268900961E+02  0.00000000000E+00 0. -1.
         11    1    1    2    0    0 -0.47245243770E+02  0.61474456413E+02 -0.17178450364E+03  0.18847052168E+03  0.00000000000E+00 0.  1.
</event>
<event>
 6    1  0.1538147E-010  0.2487669E+03  0.7561462E-02  0.1114087E+00
          2   -1    0    0  501    0  0.00000000000E+00  0.00000000000E+00  0.71541194299E+03  0.71541194299E+03  0.00000000000E+00 0. -1.
         -2   -1    0    0    0  501 -0.00000000000E+00 -0.00000000000E+00 -0.12468763494E+03  0.12468763494E+03  0.00000000000E+00 0.  1.
          5    1    1    2  502    0  0.10261595679E+03  0.13980713830E+03  0.13887246402E+03  0.22221409535E+03  0.41800000000E+01 0. -1.
         -5    1    1    2    0  502  0.44360532088E+02  0.55228302037E+02 -0.24302299015E+02  0.75007308247E+02  0.41800000000E+01 0. -1.
        -11    1    1    2    0    0 -0.65874110721E+02 -0.37219260943E+02  0.87759251191E+02  0.11587216239E+03  0.00000000000E+00 0.  1.
         11    1    1    2    0    0 -0.81102378161E+02 -0.15781617939E+03  0.38839489185E+03  0.42700601194E+03  0.00000000000E+00 0. -1.
</event>
<event>
 7    1  0.1538147E-010  0.2553115E+03  0.7561462E-02  0.1109993E+00
          1   -1    0    0  501    0  0.00000000000E+00  0.00000000000E+00  0.71536066830E+03  0.71536066830E+03  0.00000000000E+00 0. -1.
         -1   -1    0    0    0  501 -0.00000000000E+00 -0.00000000000E+00 -0.94314402938E+02  0.94314402938E+02  0.00000000000E+00 0.  1.
         25    2    1    2    0    0  0.23315184911E+03 -0.28991821999E+01  0.37237298812E+03  0.45680557082E+03  0.12506597158E+03 0.  0.
          5    1    3    3  502    0  0.21723214821E+03  0.34641442532E+02  0.33805156484E+03  0.40334373510E+03  0.41800000000E+01 0. -1.
         -5    1    3    3    0  502  0.15919700909E+02 -0.37540624732E+02  0.34321423285E+02  0.53461835720E+02  0.41800000000E+01 0. -1.
        -11    1    1    2    0    0 -0.10539817474E+03 -0.43048826168E+02  0.99975175797E+02  0.15151571684E+03  0.00000000000E+00 0.  1.
         11    1    1    2    0    0 -0.12775367437E+03  0.45948008368E+02  0.14869810144E+03  0.20135378358E+03  0.00000000000E+00 0. -1.
</event>
<event>
 7    1  0.1538147E-010  0.1194165E+03  0.7561462E-02  0.1244063E+00
          1   -1    0    0  501    0  0.00000000000E+00  0.00000000000E+00  0.11922564691E+03  0.11922564691E+03  0.00000000000E+00 0. -1.
         -1   -1    0    0    0  501 -0.00000000000E+00 -0.00000000000E+00 -0.17098261611E+03  0.17098261611E+03  0.00000000000E+00 0.  1.
         25    2    1    2    0    0  0.28855387689E+02  0.84346708186E+02 -0.30500246285E+01  0.15361242762E+03  0.12506188344E+03 0.  0.
          5    1    3    3  502    0 -0.46143394973E+02  0.45133939664E+02 -0.18946438737E+02  0.67399742952E+02  0.41800000000E+01 0.  1.
         -5    1    3    3    0  502  0.74998782662E+02  0.39212768522E+02  0.15896414109E+02  0.86212684667E+02  0.41800000000E+01 0.  1.
        -11    1    1    2    0    0 -0.64671487388E+01 -0.29015783985E+02 -0.67715404274E+02  0.73953469892E+02  0.00000000000E+00 0.  1.
         11    1    1    2    0    0 -0.22388238950E+02 -0.55330924201E+02  0.19008459707E+02  0.62642365510E+02  0.00000000000E+00 0. -1.
</event>
<event>
 6    1  0.1538147E-010  0.1160291E+03  0.7561462E-02  0.1249795E+00
         -1   -1    0    0    0  501 -0.00000000000E+00  0.00000000000E+00  0.76190374279E+02  0.76190374279E+02  0.00000000000E+00 0.  1.
          1   -1    0    0  501    0  0.00000000000E+00 -0.00000000000E+00 -0.20826972396E+03  0.20826972396E+03  0.00000000000E+00 0. -1.
          5    1    1    2  502    0 -0.35131573190E+02 -0.36513300393E+02 -0.16072572523E+02  0.53322120437E+02  0.41800000000E+01 0. -1.
         -5    1    1    2    0  502  0.97551854030E+00  0.88770554639E+02 -0.36965759184E+02  0.96255403793E+02  0.41800000000E+01 0. -1.
        -11    1    1    2    0    0 -0.17150404154E+02  0.24679326270E+01  0.87471649034E+01  0.19409790003E+02  0.00000000000E+00 0.  1.
         11    1    1    2    0    0  0.51306458803E+02 -0.54725186873E+02 -0.87788182873E+02  0.11547278400E+03  0.00000000000E+00 0. -1.
</event>
<event>
 6    1  0.1538147E-010  0.1323819E+03  0.7561462E-02  0.1223964E+00
         -2   -1    0    0    0  501 -0.00000000000E+00  0.00000000000E+00  0.90919742799E+02  0.90919742799E+02  0.00000000000E+00 0. -1.
          2   -1    0    0  501    0  0.00000000000E+00 -0.00000000000E+00 -0.23631591577E+03  0.23631591577E+03  0.00000000000E+00 0.  1.
          5    1    1    2  502    0  0.39007712518E+02  0.85621557778E+02 -0.79929033256E+02  0.12352641640E+03  0.41800000000E+01 0. -1.
         -5    1    1    2    0  502  0.32356968453E+02 -0.20847827757E+02  0.22258648044E+02  0.44660106834E+02  0.41800000000E+01 0. -1.
        -11    1    1    2    0    0  0.10040985659E+01 -0.59279019194E+02 -0.48190628804E+02  0.76402532910E+02  0.00000000000E+00 0.  1.
         11    1    1    2    0    0 -0.72368779537E+02 -0.54947108270E+01 -0.39535158960E+02  0.82646602427E+02  0.00000000000E+00 0. -1.
</event>
<event>
 7    1  0.1538147E-010  0.1369068E+03  0.7561462E-02  0.1217553E+00
          1   -1    0    0  501    0  0.00000000000E+00  0.00000000000E+00  0.22432268143E+03  0.22432268143E+03  0.00000000000E+00 0. -1.
         -1   -1    0    0    0  501 -0.00000000000E+00 -0.00000000000E+00 -0.11022428749E+03  0.11022428749E+03  0.00000000000E+00 0.  1.
         25    2    1    2    0    0  0.37602498367E+02 -0.10615538684E+03  0.74871027861E+02  0.18424662646E+03  0.12513286743E+03 0.  0.
          5    1    3    3  502    0 -0.28240550164E+02 -0.55820848641E+02 -0.12299863770E+02  0.63892525896E+02  0.41800000000E+01 0.  1.
         -5    1    3    3    0  502  0.65843048531E+02 -0.50334538194E+02  0.87170891632E+02  0.12035410057E+03  0.41800000000E+01 0.  1.
        -11    1    1    2    0    0 -0.29434522377E+02  0.92079655773E+01 -0.19661371657E+02  0.36575227587E+02  0.00000000000E+00 0.  1.
         11    1    1    2    0    0 -0.81679759905E+01  0.96947421258E+02  0.58888737741E+02  0.11372511487E+03  0.00000000000E+00 0. -1.
</event>
<event>
 7    1  0.1538147E-010  0.1070742E+03  0.7561462E-02  0.1266086E+00
         -2   -1    0    0    0  501 -0.00000000000E+00  0.00000000000E+00  0.41770596324E+03  0.41770596324E+03  0.00000000000E+00 0.  1.
          2   -1    0    0  501    0  0.00000000000E+00 -0.00000000000E+00 -0.48058159206E+02  0.48058159206E+02  0.00000000000E+00 0. -1.
         25    2    1    2    0    0 -0.38643481725E+02 -0.38762870299E+02  0.32350159120E+03  0.35112726532E+03  0.12506477582E+03 0.  0.
          5    1    3    3  502    0  0.10885348240E+02 -0.70076948481E+02  0.12137393869E+03  0.14063561039E+03  0.41800000000E+01 0. -1.
         -5    1    3    3    0  502 -0.49528829965E+02  0.31314078182E+02  0.20212765251E+03  0.21049165494E+03  0.41800000000E+01 0. -1.
        -11    1    1    2    0    0  0.23347437745E+02 -0.15473502076E+02 -0.14759746933E+02  0.31660420801E+02  0.00000000000E+00 0. -1.
         11    1    1    2    0    0  0.15296043980E+02  0.54236372375E+02  0.60905959764E+02  0.82976436322E+02  0.00000000000E+00 0.  1.
</event>
<event>
 7    1  0.1538147E-010  0.1881398E+03  0.7561462E-02  0.1160150E+00
          1   -1    0    0  501    0  0.00000000000E+00  0.00000000000E+00  0.76258121636E+03  0.76258121636E+03  0.00000000000E+00 0. -1.
         -1   -1    0    0    0  501 -0.00000000000E+00 -0.00000000000E+00 -0.51296036685E+02  0.51296036685E+02  0.00000000000E+00 0.  1.
         25    2    1    2    0    0  0.16018876667E+03  0.45778794488E+01  0.45924887469E+03  0.50222788148E+03  0.12506765403E+03 0.  0.
          5    1    3    3  502    0  0.35755225524E+02  0.56338983648E+02  0.18296854056E+03  0.19480112029E+03  0.41800000000E+01 0. -1.
         -5    1    3    3    0  502  0.12443354114E+03 -0.51761104200E+02  0.27628033413E+03  0.30742676119E+03  0.41800000000E+01 0. -1.
        -11    1    1    2    0    0 -0.49889171509E+02 -0.34069789221E+02  0.13622976669E+03  0.14902425743E+03  0.00000000000E+00 0. -1.
         11    1    1    2    0    0 -0.11029959516E+03  0.29491909772E+02  0.11580653829E+03  0.16262511413E+03  0.00000000000E+00 0.  1.
</event>
<event>
 6    1  0.1538147E-010  0.9483260E+02  0.7561462E-02  0.1291554E+00
          2   -1    0    0  501    0  0.00000000000E+00  0.00000000000E+00  0.57296974444E+02  0.57296974444E+02  0.00000000000E+00 0.  1.
         -2   -1    0    0    0  501 -0.00000000000E+00 -0.00000000000E+00 -0.32445105663E+03  0.32445105663E+03  0.00000000000E+00 0. -1.
          5    1    1    2  502    0  0.23563515337E+02  0.54133991654E+01  0.23469486149E+02  0.33953399324E+02  0.41800000000E+01 0.  1.
         -5    1    1    2    0  502 -0.76615375803E+02  0.18196821927E+02 -0.88236647134E+02  0.11833942046E+03  0.41800000000E+01 0.  1.
        -11    1    1    2    0    0  0.38298112375E+02 -0.45751370230E+02 -0.60046080246E+02  0.84649069944E+02  0.00000000000E+00 0.  1.
         11    1    1    2    0    0  0.14753748090E+02  0.22141149137E+02 -0.14234084095E+03  0.14480614135E+03  0.00000000000E+00 0. -1.
</event>
<event>
 6    1  0.1538147E-010  0.9093499E+02  0.7561462E-02  0.1300603E+00
          4   -1    0    0  501    0  0.00000000000E+00  0.00000000000E+00  0.36906408438E+03  0.36906408438E+03  0.00000000000E+00 0. -1.
         -4   -1    0    0    0  501 -0.00000000000E+00 -0.00000000000E+00 -0.53790638599E+02  0.53790638599E+02  0.00000000000E+00 0.  1.
          5    1    1    2  502    0  0.44813351179E+02 -0.41701291671E+02  0.17064487673E+03  0.18134050988E+03  0.41800000000E+01 0.  1.
         -5    1    1    2    0  502 -0.70188891056E+02 -0.67581120933E+00  0.12201217693E+03  0.14082393570E+03  0.41800000000E+01 0.  1.
        -11    1    1    2    0    0  0.14558635278E+02  0.15708787693E+02 -0.32261830082E+02  0.38723966122E+02  0.00000000000E+00 0.  1.
         11    1    1    2    0    0  0.10816904599E+02  0.26668315187E+02  0.54878222208E+02  0.61966311273E+02  0.00000000000E+00 0. -1.
</event>
<event>
 7    1  0.1538147E-010  0.2350149E+03  0.7561462E-02  0.1123159E+00
         -2   -1    0    0    0  501 -0.00000000000E+00  0.00000000000E+00  0.11260238566E+03  0.11260238566E+03  0.00000000000E+00 0. -1.
          2   -1    0    0  501    0  0.00000000000E+00 -0.00000000000E+00 -0.55201404757E+03  0.55201404757E+03  0.00000000000E+00 0.  1.
         25    2    1    2    0    0  0.17821542833E+03  0.12586473413E+03 -0.15483050303E+03  0.29535036224E+03  0.12512666228E+03 0.  0.
          5    1    3    3  502    0  0.52189555817E+02  0.11325630243E+03 -0.78556791639E+02  0.14744280820E+03  0.41800000000E+01 0.  1.
         -5    1    3    3    0  502  0.12602587251E+03  0.12608431700E+02 -0.76273711389E+02  0.14790755404E+03  0.41800000000E+01 0.  1.
        -11    1    1    2    0    0 -0.96572545730E+02 -0.60612587841E+02 -0.21603837587E+03  0.24428000786E+03  0.00000000000E+00 0.  1.
         11    1    1    2    0    0 -0.81642882601E+02 -0.65252146292E+02 -0.68542783012E+02  0.12498606314E+03  0.00000000000E+00 0. -1.
</event>
<event>
 7    1  0.1538147E-010  0.2946393E+03  0.7561462E-02  0.1087952E+00
         -1   -1    0    0    0  501 -0.00000000000E+00  0.00000000000E+00  0.45258662542E+02  0.45258662542E+02  0.00000000000E+00 0.  1.
          1   -1    0    0  501    0  0.00000000000E+00 -0.00000000000E+00 -0.21993777406E+04  0.21993777406E+04  0.00000000000E+00 0. -1.
         25    2    1    2    0    0  0.79993861942E+02  0.26216848425E+03 -0.14896425335E+04  0.15198114010E+04  0.12514185879E+03 0.  0.
          5    1    3    3  502    0 -0.21044941676E+02  0.29012003952E+01 -0.15132122182E+03  0.15286232729E+03  0.41800000000E+01 0.  1.
         -5    1    3    3    0  502  0.10103880362E+03  0.25926728385E+03 -0.13383213117E+04  0.13669490737E+04  0.41800000000E+01 0.  1.
        -11    1    1    2    0    0 -0.27185186193E+02 -0.22022712036E+03 -0.52125125298E+03  0.56651733215E+03  0.00000000000E+00 0.  1.
         11    1    1    2    0    0 -0.52808675749E+02 -0.41941363889E+02 -0.14322529150E+03  0.15830766995E+03  0.00000000000E+00 0. -1.
</event>
<event>
 7    1  0.1538147E-010  0.8110875E+02  0.7561462E-02  0.1325934E+00
         -2   -1    0    0    0  501 -0.00000000000E+00  0.00000000000E+00  0.10684340247E+03  0.10684340247E+03  0.00000000000E+00 0.  1.
          2   -1    0    0  501    0  0.00000000000E+00 -0.00000000000E+00 -0.12413416151E+03  0.12413416151E+03  0.00000000000E+00 0. -1.
         25    2    1    2    0    0  0.27065994495E+02  0.14881694680E+02  0.92227274208E+01  0.12914078296E+03  0.12505298968E+03 0.  0.
          5    1    3    3  502    0  0.37211114036E+02 -0.22726504168E+02 -0.44637927902E+02  0.62539411629E+02  0.41800000000E+01 0. -1.
         -5    1    3    3    0  502 -0.10145119542E+02  0.37608198848E+02  0.53860655322E+02  0.66601371329E+02  0.41800000000E+01 0. -1.
        -11    1    1    2    0    0  0.17387763737E+02 -0.27938655012E+02  0.18066467447E+02  0.37540644875E+02  0.00000000000E+00 0.  1.
         11    1    1    2    0    0 -0.44453758232E+02  0.13056960331E+02 -0.44579953907E+02  0.64296136154E+02  0.00000000000E+00 0. -1.
</event>
<event>
 7    1  0.1538147E-010  0.8878195E+02  0.7561462E-02  0.1305828E+00
         -4   -1    0    0    0  501 -0.00000000000E+00  0.00000000000E+00  0.75565043732E+02  0.75565043732E+02  0.00000000000E+00 0. -1.
          4   -1    0    0  501    0  0.00000000000E+00 -0.00000000000E+00 -0.18136829832E+03  0.18136829832E+03  0.00000000000E+00 0.  1.
         25    2    1    2    0    0 -0.41332387581E+02 -0.24498625831E+02 -0.48430939181E+02  0.14250348997E+03  0.12511250878E+03 0.  0.
          5    1    3    3  502    0  0.41639292350E+01 -0.56081404606E+02  0.14841903606E+02  0.58311377551E+02  0.41800000000E+01 0.  1.
         -5    1    3    3    0  502 -0.45496316816E+02  0.31582778775E+02 -0.63272842788E+02  0.84192112418E+02  0.41800000000E+01 0.  1.
        -11    1    1    2    0    0  0.31496157665E+02 -0.73128857361E+01 -0.71336855073E+02  0.78322622129E+02  0.00000000000E+00 0.  1.
         11    1    1    2    0    0  0.98362299154E+01  0.31811511567E+02  0.13964539663E+02  0.36107229957E+02  0.00000000000E+00 0. -1.
</event>
<event>
 7    1  0.1538147E-010  0.1496063E+03  0.7561462E-02  0.1200958E+00
         -1   -1    0    0    0  501 -0.00000000000E+00  0.00000000000E+00  0.42224059688E+02  0.42224059688E+02  0.00000000000E+00 0.  1.
          1   -1    0    0  501    0  0.00000000000E+00 -0.00000000000E+00 -0.73429233904E+03  0.73429233904E+03  0.00000000000E+00 0. -1.
         25    2    1    2    0    0 -0.57449988454E+02  0.12500448543E+03 -0.33423246807E+03  0.38248692998E+03  0.12513307452E+03 0.  0.
          5    1    3    3  502    0 -0.41591952621E+02  0.63510095313E+02 -0.30146128629E+03  0.31090159578E+03  0.41800000000E+01 0.  1.
         -5    1    3    3    0  502 -0.15858035833E+02  0.61494390118E+02 -0.32771181785E+02  0.71585334196E+02  0.41800000000E+01 0.  1.
        -11    1    1    2    0    0  0.75138758740E+02 -0.11922631377E+03 -0.34084595896E+03  0.36883155329E+03  0.00000000000E+00 0. -1.
         11    1    1    2    0    0 -0.17688770286E+02 -0.57781716570E+01 -0.16989852323E+02  0.25197915467E+02  0.00000000000E+00 0.  1.
</event>
<event>
 6    1  0.1538147E-010  0.1087242E+03  0.7561462E-02  0.1262951E+00
          2   -1    0    0  501    0  0.00000000000E+00  0.00000000000E+00  0.20139924168E+03  0.20139924168E+03  0.00000000000E+00 0.  1.
         -2   -1    0    0    0  501 -0.00000000000E+00 -0.00000000000E+00 -0.81765718175E+02  0.81765718175E+02  0.00000000000E+00 0. -1.
          5    1    1    2  502    0  0.10828609984E+02  0.61354040557E+02  0.76853173023E+02  0.99022521128E+02  0.41800000000E+01 0. -1.
         -5    1    1    2    0  502 -0.30981206326E+02 -0.55519962081E+02  0.61682676226E+02  0.88682164392E+02  0.41800000000E+01 0. -1.
        -11    1    1    2    0    0  0.12664905661E+02 -0.47395830629E+02  0.32150055542E+00  0.49059840593E+02  0.00000000000E+00 0.  1.
         11    1    1    2    0    0  0.74876906814E+01  0.41561752152E+02 -0.19223826300E+02  0.46400433741E+02  0.00000000000E+00 0. -1.
</event>
<event>
 6    1  0.1538147E-010  0.7167968E+02  0.7561462E-02  0.1354473E+00
         -1   -1    0    0    0  501 -0.00000000000E+00  0.00000000000E+00  0.14112274495E+03  0.14112274495E+03  0.00000000000E+00 0.  1.
          1   -1    0    0  501    0  0.00000000000E+00 -0.00000000000E+00 -0.10907035372E+03  0.10907035372E+03  0.00000000000E+00 0. -1.
          5    1    1    2  502    0  0.34380549984E+02  0.22329115367E+02 -0.71252495646E+02  0.82310401202E+02  0.41800000000E+01 0.  1.
         -5    1    1    2    0  502 -0.32543860798E+02 -0.27036900643E+02  0.26713631696E+02  0.50211426891E+02  0.41800000000E+01 0.  1.
        -11    1    1    2    0    0 -0.25723662397E+02  0.18836936002E+02  0.83236528911E+02  0.89133925698E+02  0.00000000000E+00 0.  1.
         11    1    1    2    0    0  0.23886973212E+02 -0.14129150727E+02 -0.66452737319E+01  0.28537344874E+02  0.00000000000E+00 0. -1.
</event>
<event>
 7    1  0.1538147E-010  0.1113734E+03  0.7561462E-02  0.1258048E+00
          1   -1    0    0  501    0  0.00000000000E+00  0.00000000000E+00  0.80489386891E+02  0.80489386891E+02  0.00000000000E+00 0. -1.
         -1   -1    0    0    0  501 -0.00000000000E+00 -0.00000000000E+00 -0.16198710817E+03  0.16198710817E+03  0.00000000000E+00 0.  1.
         25    2    1    2    0    0  0.35394812174E+02 -0.13543699684E+02 -0.61578801286E+02  0.14443871867E+03  0.12503747499E+03 0.  0.
          5    1    3    3  502    0 -0.23571196622E+02  0.42232799674E+02 -0.31016554401E+02  0.57608243554E+02  0.41800000000E+01 0.  1.
         -5    1    3    3    0  502  0.58966008796E+02 -0.55776499358E+02 -0.30562246885E+02  0.86830475115E+02  0.41800000000E+01 0.  1.
        -11    1    1    2    0    0 -0.63202024327E+02  0.15422078099E+02 -0.25024545757E+02  0.69703402085E+02  0.00000000000E+00 0.  1.
         11    1    1    2    0    0  0.27807212153E+02 -0.18783784152E+01  0.51056257597E+01  0.28334374311E+02  0.00000000000E+00 0. -1.
</event>
<event>
 6    1  0.1538147E-010  0.1044113E+03  0.7561462E-02  0.1271284E+00
         -1   -1    0    0    0  501 -0.00000000000E+00  0.00000000000E+00  0.23168822872E+02  0.23168822872E+02  0.00000000000E+00 0.  1.
          1   -1    0    0  501    0  0.00000000000E+00 -0.00000000000E+00 -0.54879864594E+03  0.54879864594E+03  0.00000000000E+00 0. -1.
          5    1    1    2  502    0  0.50780217404E+02  0.38020635184E+02 -0.19665203524E+03  0.20667291681E+03  0.41800000000E+01 0.  1.
         -5    1    1    2    0  502 -0.19357253786E+02 -0.60546545541E+02 -0.12182399180E+03  0.13747416059E+03  0.41800000000E+01 0.  1.
        -11    1    1    2    0    0 -0.29141787092E+02 -0.22279149780E+02 -0.15378799556E+03  0.15810234612E+03  0.00000000000E+00 0. -1.
         11    1    1    2    0    0 -0.22811765258E+01  0.44805060137E+02 -0.53365800474E+02  0.69718045300E+02  0.00000000000E+00 0.  1.
</event>
<event>
 7    1  0.1538147E-010  0.1671470E+03  0.7561462E-02  0.1180856E+00
          2   -1    0    0  501    0  0.00000000000E+00  0.00000000000E+00  0.80226484992E+03  0.80226484992E+03  0.00000000000E+00 0.  1.
         -2   -1    0    0    0  501 -0.00000000000E+00 -0.00000000000E+00 -0.41634621493E+02  0.41634621493E+02  0.00000000000E+00 0. -1.
         25    2    1    2    0    0  0.73320417809E+02 -0.12556892633E+03  0.35540478635E+03  0.40387621710E+03  0.12513991230E+03 0.  0.
          5    1    3    3  502    0  0.99005372210E+01  0.90359060507E+01  0.14755260455E+03  0.14821913421E+03  0.41800000000E+01 0.  1.
         -5    1    3    3    0  502  0.63419880588E+02 -0.13460483238E+03  0.20785218180E+03  0.25565708289E+03  0.41800000000E+01 0.  1.
        -11    1    1    2    0    0 -0.84443134644E+02  0.13333967631E+03  0.37708128460E+03  0.40877916711E+03  0.00000000000E+00 0.  1.
         11    1    1    2    0    0  0.11122716835E+02 -0.77707499819E+01  0.28144157474E+02  0.31244087201E+02  0.00000000000E+00 0. -1.
</event>
<event>
 7    1  0.1538147E-010  0.9050957E+02  0.7561462E-02  0.1301622E+00
          2   -1    0    0  501    0  0.00000000000E+00  0.00000000000E+00  0.48912051864E+03  0.48912051864E+03  0.00000000000E+00 0. -1.
         -2   -1    0    0    0  501 -0.00000000000E+00 -0.00000000000E+00 -0.32178868406E+02  0.32178868406E+02  0.00000000000E+00 0.  1.
         25    2    1    2    0    0 -0.45973444047E+02 -0.35781734755E+02  0.20416284995E+03  0.24640928421E+03  0.12506468704E+03 0.  0.
          5    1    3    3  502    0 -0.31193168510E+02  0.96807808667E+01 -0.36490455894E+01  0.33128827531E+02  0.41800000000E+01 0. -1.
         -5    1    3    3    0  502 -0.14780275536E+02 -0.45462515622E+02  0.20781189554E+03  0.21328045668E+03  0.41800000000E+01 0. -1.
        -11    1    1    2    0    0 -0.19614762688E+02  0.27813523712E+02  0.14095844672E+03  0.14500901599E+03  0.00000000000E+00 0. -1.
         11    1    1    2    0    0  0.65588206735E+02  0.79682110430E+01  0.11182035356E+03  0.12988108684E+03  0.00000000000E+00 0.  1.
</event>
<event>
 7    1  0.1538147E-010  0.1972904E+03  0.7561462E-02  0.1152045E+00
         -2   -1    0    0    0  501 -0.00000000000E+00  0.00000000000E+00  0.34256032874E+02  0.34256032874E+02  0.00000000000E+00 0.  1.
          2   -1    0    0  501    0  0.00000000000E+00 -0.00000000000E+00 -0.19555461862E+04  0.19555461862E+04  0.00000000000E+00 0. -1.
         25    2    1    2    0    0 -0.45896657408E+02  0.17959913594E+03 -0.15372924659E+04  0.15534705451E+04  0.12506100900E+03 0.  0.
          5    1    3    3  502    0 -0.34106883311E+02  0.76596362999E+02 -0.29103479094E+03  0.30290098094E+03  0.41800000000E+01 0.  1.
         -5    1    3    3    0  502 -0.11789774098E+02  0.10300277294E+03 -0.12462576749E+04  0.12505695641E+04  0.41800000000E+01 0.  1.
        -11    1    1    2    0    0 -0.28264670003E+02 -0.43474898603E+02 -0.85917910407E+02  0.10035360336E+03  0.00000000000E+00 0. -1.
         11    1    1    2    0    0  0.74161327411E+02 -0.13612423734E+03 -0.29807977709E+03  0.33597807068E+03  0.00000000000E+00 0.  1.
</event>
<event>
 6    1  0.1538147E-010  0.1138166E+03  0.7561462E-02  0.1253661E+00
          1   -1    0    0  501    0  0.00000000000E+00  0.00000000000E+00  0.44437891843E+02  0.44437891843E+02  0.00000000000E+00 0. -1.
         -1   -1    0    0    0  501 -0.00000000000E+00 -0.00000000000E+00 -0.31063450834E+03  0.31063450834E+03  0.00000000000E+00 0.  1.
          5    1    1    2  502    0  0.59208410051E+01 -0.74315877259E+02 -0.79725639634E+02  0.10923166201E+03  0.41800000000E+01 0.  1.
         -5    1    1    2    0  502  0.25943624503E+02  0.48941166500E+02 -0.39306699561E+02  0.68049970324E+02  0.41800000000E+01 0.  1.
        -11    1    1    2    0    0 -0.60599169904E+02  0.24375786679E+01 -0.10939003429E+03  0.12507749911E+03  0.00000000000E+00 0. -1.
         11    1    1    2    0    0  0.28734704396E+02  0.22937132092E+02 -0.37774243019E+02  0.52713268737E+02  0.00000000000E+00 0.  1.
</event>
<event>
 7    1  0.1538147E-010  0.1840535E+03  0.7561462E-02  0.1163937E+00
         -3   -1    0    0    0  501 -0.00000000000E+00  0.00000000000E+00  0.14739038376E+03  0.14739038376E+03  0.00000000000E+00 0.  1.
          3   -1    0    0  501    0  0.00000000000E+00 -0.00000000000E+00 -0.27452008386E+03  0.27452008386E+03  0.00000000000E+00 0. -1.
         25    2    1    2    0    0 -0.16626570641E+03  0.23429229406E+01 -0.35713167030E+02  0.21115029247E+03  0.12513689022E+03 0.  0.
          5    1    3    3  502    0 -0.16544297464E+03 -0.26121234778E+02 -0.29904146637E+01  0.16757121395E+03  0.41800000000E+01 0. -1.
         -5    1    3    3    0  502 -0.82273176878E+00  0.28464157719E+02 -0.32722752366E+02  0.43579078520E+02  0.41800000000E+01 0. -1.
        -11    1    1    2    0    0  0.30717292276E+02 -0.17558457173E+02 -0.61755077909E+02  0.71172614893E+02  0.00000000000E+00 0. -1.
         11    1    1    2    0    0  0.13554841414E+03  0.15215534233E+02 -0.29661455155E+02  0.13958756026E+03  0.00000000000E+00 0.  1.
</event>
<event>
 7    1  0.1538147E-010  0.9208072E+02  0.7561462E-02  0.1297890E+00
         -2   -1    0    0    0  501 -0.00000000000E+00  0.00000000000E+00  0.21335583224E+03  0.21335583224E+03  0.00000000000E+00 0. -1.
          2   -1    0    0  501    0  0.00000000000E+00 -0.00000000000E+00 -0.59325864393E+02  0.59325864393E+02  0.00000000000E+00 0.  1.
         25    2    1    2    0    0  0.15011338935E+02  0.68563109797E+01  0.11110766314E+03  0.16814493039E+03  0.12512176273E+03 0.  0.
          5    1    3    3  502    0  0.30709357960E+02  0.61146594281E+02  0.71177076627E+02  0.98821148018E+02  0.41800000000E+01 0. -1.
         -5    1    3    3    0  502 -0.15698019026E+02 -0.54290283302E+02  0.39930586515E+02  0.69323782367E+02  0.41800000000E+01 0. -1.
        -11    1    1    2    0    0 -0.35734346142E+02 -0.11806536297E+02  0.64205042754E+02  0.74421941043E+02  0.00000000000E+00 0. -1.
         11    1    1    2    0    0  0.20723007207E+02  0.49502253171E+01 -0.21282738047E+02  0.30114825206E+02  0.00000000000E+00 0.  1.
</event>
<event>
 7    1  0.1538147E-010  0.8191068E+02  0.7561462E-02  0.1323715E+00
          1   -1    0    0  501    0  0.00000000000E+00  0.00000000000E+00  0.21342313364E+03  0.21342313364E+03  0.00000000000E+00 0. -1.
         -1   -1    0    0    0  501 -0.00000000000E+00 -0.00000000000E+00 -0.69233909545E+02  0.69233909545E+02  0.00000000000E+00 0.  1.
         25    2    1    2    0    0  0.48757175846E+02 -0.23394598608E+02  0.82228009030E+02  0.15913895297E+03  0.12505675288E+03 0.  0.
          5    1    3    3  502    0  0.65429415817E+02 -0.25728097223E+02 -0.46143296760E+01  0.70581214775E+02  0.41800000000E+01 0.  1.
         -5    1    3    3    0  502 -0.16672239971E+02  0.23334986151E+01  0.86842338706E+02  0.88557738190E+02  0.41800000000E+01 0.  1.
        -11    1    1    2    0    0 -0.17175985653E+02  0.37659769768E+02 -0.10928511114E+02  0.42810105084E+02  0.00000000000E+00 0.  1.
         11    1    1    2    0    0 -0.31581190193E+02 -0.14265171159E+02  0.72889726178E+02  0.80707985134E+02  0.00000000000E+00 0. -1.
</event>
<event>
 7    1  0.1538147E-010  0.1071420E+03  0.7561462E-02  0.1265956E+00
          2   -1    0    0  501    0  0.00000000000E+00  0.00000000000E+00  0.50376039433E+02  0.50376039433E+02  0.00000000000E+00 0. -1.
         -2   -1    0    0    0  501 -0.00000000000E+00 -0.00000000000E+00 -0.31520261999E+03  0.31520261999E+03  0.00000000000E+00 0.  1.
         25    2    1    2    0    0 -0.29349866998E+01  0.16216451848E+02 -0.23529486287E+03  0.26697552969E+03  0.12506267829E+03 0.  0.
          5    1    3    3  502    0  0.48106579012E+02 -0.25118464659E+02 -0.14771420206E+03  0.15742343568E+03  0.41800000000E+01 0.  1.
         -5    1    3    3    0  502 -0.51041565712E+02  0.41334916508E+02 -0.87580660814E+02  0.10955209401E+03  0.41800000000E+01 0.  1.
        -11    1    1    2    0    0 -0.30437039154E+02 -0.41999920136E+02 -0.17638243579E+02  0.54786077433E+02  0.00000000000E+00 0.  1.
         11    1    1    2    0    0  0.33372025854E+02  0.25783468287E+02 -0.11893474108E+02  0.43817052307E+02  0.00000000000E+00 0. -1.
</event>
<event>
 6    1  0.1538147E-010  0.9765089E+02  0.7561462E-02  0.1285315E+00
         -2   -1    0    0    0  501 -0.00000000000E+00  0.00000000000E+00  0.22414212760E+03  0.22414212760E+03  0.00000000000E+00 0.  1.
          2   -1    0    0  501    0  0.00000000000E+00 -0.00000000000E+00 -0.85028269934E+02  0.85028269934E+02  0.00000000000E+00 0. -1.
          5    1    1    2  502    0 -0.43371701361E+02 -0.35831464634E+02 -0.37917041283E+02  0.67971852677E+02  0.41800000000E+01 0. -1.
         -5    1    1    2    0  502  0.84924628342E+01 -0.47029831271E+02  0.77477137528E+02  0.91126868671E+02  0.41800000000E+01 0. -1.
        -11    1    1    2    0    0  0.24110386195E+02  0.39845895553E+02  0.65410867199E+01  0.47029692008E+02  0.00000000000E+00 0.  1.
         11    1    1    2    0    0  0.10768852332E+02  0.43015400351E+02  0.93012674698E+02  0.10304198417E+03  0.00000000000E+00 0. -1.
</event>
<event>
 7    1  0.1538147E-010  0.1016127E+03  0.7561462E-02  0.1276941E+00
          1   -1    0    0  501    0  0.00000000000E+00  0.00000000000E+00  0.27481360728E+03  0.27481360728E+03  0.00000000000E+00 0. -1.
         -1   -1    0    0    0  501 -0.00000000000E+00 -0.00000000000E+00 -0.59389294596E+02  0.59389294596E+02  0.00000000000E+00 0.  1.
         25    2    1    2    0    0 -0.30369463266E+02 -0.23044207120E+02  0.47950513607E+02  0.13930639471E+03  0.12511466769E+03 0.  0.
          5    1    3    3  502    0 -0.25775451566E+02  0.44004190832E+02 -0.79609303997E+01  0.51784085654E+02  0.41800000000E+01 0.  1.
         -5    1    3    3    0  502 -0.45940117002E+01 -0.67048397952E+02  0.55911444006E+02  0.87522309055E+02  0.41800000000E+01 0.  1.
        -11    1    1    2    0    0 -0.87894348802E+01  0.40792104772E+02  0.13418147535E+03  0.14052017045E+03  0.00000000000E+00 0. -1.
         11    1    1    2    0    0  0.39158898146E+02 -0.17747897651E+02  0.33292323728E+02  0.54376336712E+02  0.00000000000E+00 0.  1.
</event>
<event>
 7    1  0.1538147E-010  0.1083829E+03  0.7561462E-02  0.1263594E+00
          2   -1    0    0  501    0  0.00000000000E+00  0.00000000000E+00  0.55838674016E+02  0.55838674016E+02  0.00000000000E+00 0.  1.
         -2   -1    0    0    0  501 -0.00000000000E+00 -0.00000000000E+00 -0.31342166380E+03  0.31342166380E+03  0.00000000000E+00 0. -1.
         25    2    1    2    0    0  0.58951957915E+02  0.43442146984E+02 -0.17631491315E+03  0.22826198570E+03  0.12511607427E+03 0.  0.
          5    1    3    3  502    0  0.72589231026E+02  0.77434419430E+02 -0.11366639117E+03  0.15557251253E+03  0.41800000000E+01 0. -1.
         -5    1    3    3    0  502 -0.13637273111E+02 -0.33992272446E+02 -0.62648521979E+02  0.72689473173E+02  0.41800000000E+01 0. -1.
        -11    1    1    2    0    0 -0.14867006916E+02 -0.15554362434E+02  0.18525513660E+02  0.28392969935E+02  0.00000000000E+00 0.  1.
         11    1    1    2    0    0 -0.44084950999E+02 -0.27887784550E+02 -0.99793590302E+02  0.11260538219E+03  0.00000000000E+00 0. -1.
</event>
<event>
 6    1  0.1538147E-010  0.1201959E+03  0.7561462E-02  0.1242774E+00
          1   -1    0    0  501    0  0.00000000000E+00  0.00000000000E+00  0.22419182850E+03  0.22419182850E+03  0.00000000000E+00 0. -1.
         -1   -1    0    0    0  501 -0.00000000000E+00 -0.00000000000E+00 -0.11406065478E+03  0.11406065478E+03  0.00000000000E+00 0.  1.
          5    1    1    2  502    0  0.10164990808E+02 -0.95043961925E+01  0.76157583219E+02  0.77531351509E+02  0.41800000000E+01 0.  1.
         -5    1    1    2    0  502  0.11672178762E+02 -0.10614827697E+03 -0.83002813379E+01  0.10719171391E+03  0.41800000000E+01 0.  1.
        -11    1    1    2    0    0 -0.11345538978E+02  0.22002056990E+02 -0.26954687220E+02  0.36597362331E+02  0.00000000000E+00 0.  1.
         11    1    1    2    0    0 -0.10491630593E+02  0.93650616174E+02  0.69228559057E+02  0.11693205553E+03  0.00000000000E+00 0. -1.
</event>
<event>
 6    1  0.1538147E-010  0.9275278E+02  0.7561462E-02  0.1296319E+00
         -2   -1    0    0    0  501 -0.00000000000E+00  0.00000000000E+00  0.27845407464E+02  0.27845407464E+02  0.00000000000E+00 0.  1.
          2   -1    0    0  501    0  0.00000000000E+00 -0.00000000000E+00 -0.47825649496E+03  0.47825649496E+03  0.00000000000E+00 0. -1.
          5    1    1    2  502    0  0.43848760627E+02  0.52792172685E+02 -0.18212034343E+03  0.19466643059E+03  0.41800000000E+01 0.  1.
         -5    1    1    2    0  502 -0.76503675275E+01 -0.47257766087E+02 -0.39003390485E+02  0.61891529696E+02  0.41800000000E+01 0.  1.
        -11    1    1    2    0    0 -0.10367775561E+02  0.25965731907E+02 -0.15617045517E+02  0.32025023251E+02  0.00000000000E+00 0.  1.
         11    1    1    2    0    0 -0.25830617538E+02 -0.31500138505E+02 -0.21367030806E+03  0.21751891889E+03  0.00000000000E+00 0. -1.
</event>
<event>
 6    1  0.1538147E-010  0.1200689E+03  0.7561462E-02  0.1242983E+00
          1   -1    0    0  501    0  0.00000000000E+00  0.00000000000E+00  0.14511966467E+03  0.14511966467E+03  0.00000000000E+00 0. -1.
         -1   -1    0    0    0  501 -0.00000000000E+00 -0.00000000000E+00 -0.14280512147E+03  0.14280512147E+03  0.00000000000E+00 0.  1.
          5    1    1    2  502    0 -0.59588662625E+02 -0.16247394347E+02 -0.36396855269E+02  0.71812185665E+02  0.41800000000E+01 0.  1.
         -5    1    1    2    0  502  0.16894239932E+02 -0.36611688420E+02  0.59964998350E+02  0.72381658581E+02  0.41800000000E+01 0.  1.
        -11    1    1    2    0    0  0.82494268418E+02  0.52707422524E+02 -0.31127356615E+02  0.10272433519E+03  0.00000000000E+00 0.  1.
         11    1    1    2    0    0 -0.39799845725E+02  0.15166024373E+00  0.98737567359E+01  0.41006606695E+02  0.00000000000E+00 0. -1.
</event>
<event>
 7    1  0.1538147E-010  0.1033599E+03  0.7561462E-02  0.1273385E+00
          3   -1    0    0  501    0  0.00000000000E+00  0.00000000000E+00  0.42493327413E+03  0.42493327413E+03  0.00000000000E+00 0. -1.
         -3   -1    0    0    0  501 -0.00000000000E+00 -0.00000000000E+00 -0.42670038374E+02  0.42670038374E+02  0.00000000000E+00 0.  1.
         25    2    1    2    0    0 -0.58493138711E+02 -0.21240731737E+02  0.29599969654E+03  0.32729788855E+03  0.12504187915E+03 0.  0.
          5    1    3    3  502    0 -0.43749301957E+02  0.28086414801E+02  0.25788082091E+03  0.26310233429E+03  0.41800000000E+01 0.  1.
         -5    1    3    3    0  502 -0.14743836754E+02 -0.49327146538E+02  0.38118875629E+02  0.64195554263E+02  0.41800000000E+01 0.  1.
        -11    1    1    2    0    0  0.74239479009E+02  0.34929116475E+02  0.43828960502E+02  0.93018929256E+02  0.00000000000E+00 0.  1.
         11    1    1    2    0    0 -0.15746340298E+02 -0.13688384738E+02  0.42434578722E+02  0.47286494698E+02  0.00000000000E+00 0. -1.
</event>
<event>
 7    1  0.1538147E-010  0.1087173E+03  0.7561462E-02  0.1262964E+00
          2   -1    0    0  501    0  0.00000000000E+00  0.00000000000E+00  0.12128056402E+03  0.12128056402E+03  0.00000000000E+00 0. -1.
         -2   -1    0    0    0  501 -0.00000000000E+00 -0.00000000000E+00 -0.13794740276E+03  0.13794740276E+03  0.00000000000E+00 0.  1.
         25    2    1    2    0    0  0.37033286056E+02 -0.55801301682E+02 -0.40081680498E+02  0.14746426603E+03  0.12511562293E+03 0.  0.
          5    1    3    3  502    0 -0.28636470938E+02 -0.56710606419E+01  0.27744775380E+02  0.40490163713E+02  0.41800000000E+01 0.  1.
         -5    1    3    3    0  502  0.65669756995E+02 -0.50130241041E+02 -0.67826455878E+02  0.10697410232E+03  0.41800000000E+01 0.  1.
        -11    1    1    2    0    0 -0.62723676455E+02  0.33014928415E+02  0.12517560648E+01  0.70892961424E+02  0.00000000000E+00 0.  1.
         11    1    1    2    0    0  0.25690390398E+02  0.22786373268E+02  0.22163085692E+02  0.40870739324E+02  0.00000000000E+00 0. -1.
</event>
<event>
 6    1  0.1538147E-010  0.1057922E+03  0.7561462E-02  0.1268567E+00
          2   -1    0    0  501    0  0.00000000000E+00  0.00000000000E+00  0.37828745924E+03  0.37828745924E+03  0.00000000000E+00 0. -1.
         -2   -1    0    0    0  501 -0.00000000000E+00 -0.00000000000E+00 -0.44342166605E+02  0.44342166605E+02  0.00000000000E+00 0.  1.
          5    1    1    2  502    0 -0.14378198194E+02  0.30067894449E+02  0.94091166524E+02  0.99907111247E+02  0.41800000000E+01 0.  1.
         -5    1    1    2    0  502 -0.64496774180E+01 -0.99271237428E+02  0.90317494145E+02  0.13442878809E+03  0.41800000000E+01 0.  1.
        -11    1    1    2    0    0 -0.74565980030E+01  0.76373536789E+01 -0.10211547028E+02  0.14771787898E+02  0.00000000000E+00 0.  1.
         11    1    1    2    0    0  0.28284473615E+02  0.61565989301E+02  0.15974817900E+03  0.17352193861E+03  0.00000000000E+00 0. -1.
</event>
<event>
 6    1  0.1538147E-010  0.1183498E+03  0.7561462E-02  0.1245845E+00
          1   -1    0    0  501    0  0.00000000000E+00  0.00000000000E+00  0.18342437080E+03  0.18342437080E+03  0.00000000000E+00 0. -1.
         -1   -1    0    0    0  501 -0.00000000000E+00 -0.00000000000E+00 -0.14673912987E+03  0.14673912987E+03  0.00000000000E+00 0.  1.
          5    1    1    2  502    0 -0.86610422039E+02  0.52511197112E+02  0.10318422027E+03  0.14464870114E+03  0.41800000000E+01 0. -1.
         -5    1    1    2    0  502 -0.14679474834E+02 -0.29672986346E+01 -0.33975668873E+02  0.37364559652E+02  0.41800000000E+01 0. -1.
        -11    1    1    2    0    0  0.76273600590E+02 -0.55173392290E+02  0.13859232049E+02  0.95151687724E+02  0.00000000000E+00 0. -1.
         11    1    1    2    0    0  0.25016296283E+02  0.56294938122E+01 -0.46382542518E+02  0.52998552157E+02  0.00000000000E+00 0.  1.
</event>
<event>
 6    1  0.1538147E-010  0.1645864E+03  0.7561462E-02  0.1183614E+00
         -3   -1    0    0    0  501 -0.00000000000E+00  0.00000000000E+00  0.61367948618E+03  0.61367948618E+03  0.00000000000E+00 0.  1.
          3   -1    0    0  501    0  0.00000000000E+00 -0.00000000000E+00 -0.51404765962E+02  0.51404765962E+02  0.00000000000E+00 0. -1.
          5    1    1    2  502    0  0.48449250845E+02 -0.42145251446E+02  0.57845901481E+02  0.86528451073E+02  0.41800000000E+01 0.  1.
         -5    1    1    2    0  502 -0.40522253360E+02 -0.96101535012E+02  0.28957941675E+03  0.30781694082E+03  0.41800000000E+01 0.  1.
        -11    1    1    2    0    0 -0.44513367059E+02  0.68720225244E+02  0.14023922666E+03  0.16239134798E+03  0.00000000000E+00 0.  1.
         11    1    1    2    0    0  0.36586369573E+02  0.69526561214E+02  0.74610175326E+02  0.10834751227E+03  0.00000000000E+00 0. -1.
</event>
<event>
 6    1  0.1538147E-010  0.1097587E+03  0.7561462E-02  0.1261017E+00
         -2   -1    0    0    0  501 -0.00000000000E+00  0.00000000000E+00  0.33169796275E+02  0.33169796275E+02  0.00000000000E+00 0.  1.
          2   -1    0    0  501    0  0.00000000000E+00 -0.00000000000E+00 -0.48450226294E+03  0.48450226294E+03  0.00000000000E+00 0. -1.
          5    1    1    2  502    0  0.61501207294E+02 -0.75146162982E+01 -0.13150303352E+03  0.14542829223E+03  0.41800000000E+01 0.  1.
         -5    1    1    2    0  502 -0.44034968967E+02 -0.40591607422E+02 -0.37020068759E+02  0.70531659388E+02  0.41800000000E+01 0.  1.
        -11    1    1    2    0    0  0.14842069673E+02  0.60863347294E+02 -0.12144130544E+03  0.13664781280E+03  0.00000000000E+00 0.  1.
         11    1    1    2    0    0 -0.32308308000E+02 -0.12757123573E+02 -0.16136805895E+03  0.16506429480E+03  0.00000000000E+00 0. -1.
</event>
<event>
 6    1  0.1538147E-010  0.1166819E+03  0.7561462E-02  0.1248673E+00
         -2   -1    0    0    0  501 -0.00000000000E+00  0.00000000000E+00  0.38338007608E+02  0.38338007608E+02  0.00000000000E+00 0.  1.
          2   -1    0    0  501    0  0.00000000000E+00 -0.00000000000E+00 -0.39921873111E+03  0.39921873111E+03  0.00000000000E+00 0. -1.
          5    1    1    2  502    0  0.48529613826E+02  0.74395825872E+02 -0.10285907097E+03  0.13596809628E+03  0.41800000000E+01 0. -1.
         -5    1    1    2    0  502  0.11320995668E+02 -0.48337825804E+02 -0.90943546880E+02  0.10369624615E+03  0.41800000000E+01 0. -1.
        -11    1    1    2    0    0 -0.23612068594E+02 -0.47119588996E+02 -0.46671474920E+02  0.70398949009E+02  0.00000000000E+00 0.  1.
         11    1    1    2    0    0 -0.36238540900E+02  0.21061588927E+02 -0.12040663074E+03  0.12749344728E+03  0.00000000000E+00 0. -1.
</event>
<event>
 6    1  0.1538147E-010  0.4805616E+02  0.7561462E-02  0.1456117E+00
          1   -1    0    0  501    0  0.00000000000E+00  0.00000000000E+00  0.40836417498E+02  0.40836417498E+02  0.00000000000E+00 0. -1.
         -1   -1    0    0    0  501 -0.00000000000E+00 -0.00000000000E+00 -0.40908037109E+03  0.40908037109E+03  0.00000000000E+00 0.  1.
          5    1    1    2  502    0  0.10441051622E+02 -0.55467145508E+01  0.97118384976E+01  0.15861078409E+02  0.41800000000E+01 0. -1.
         -5    1    1    2    0  502  0.26914844382E+02  0.18406596936E+02 -0.31149645415E+03  0.31322631596E+03  0.41800000000E+01 0. -1.
        -11    1    1    2    0    0 -0.17609572003E+02  0.10191270296E+02  0.20404679329E+02  0.28815099425E+02  0.00000000000E+00 0. -1.
         11    1    1    2    0    0 -0.19746324001E+02 -0.23051152681E+02 -0.86864017272E+02  0.92014294803E+02  0.00000000000E+00 0.  1.
</event>
<event>
 7    1  0.1538147E-010  0.9863450E+02  0.7561462E-02  0.1283194E+00
         -1   -1    0    0    0  501 -0.00000000000E+00  0.00000000000E+00  0.23060968216E+03  0.23060968216E+03  0.00000000000E+00 0.  1.
          1   -1    0    0  501    0  0.00000000000E+00 -0.00000000000E+00 -0.69375881297E+02  0.69375881297E+02  0.00000000000E+00 0. -1.
         25    2    1    2    0    0  0.48047324738E+02 -0.38289164214E+02  0.10691086784E+03  0.17567816765E+03  0.12513304685E+03 0.  0.
          5    1    3    3  502    0  0.65244697856E+02 -0.69295726846E+02  0.10211474478E+03  0.13965551138E+03  0.41800000000E+01 0.  1.
         -5    1    3    3    0  502 -0.17197373118E+02  0.31006562632E+02  0.47961230672E+01  0.36022656272E+02  0.41800000000E+01 0.  1.
        -11    1    1    2    0    0 -0.44956358597E+02  0.22619427831E+02 -0.15517410192E+02  0.52664055225E+02  0.00000000000E+00 0. -1.
         11    1    1    2    0    0 -0.30909661413E+01  0.15669736383E+02  0.69840343212E+02  0.71643340584E+02  0.00000000000E+00 0.  1.
</event>
<event>
 7    1  0.1538147E-010  0.8593802E+02  0.7561462E-02  0.1312998E+00
          2   -1    0    0  501    0  0.00000000000E+00  0.00000000000E+00  0.17932634495E+03  0.17932634495E+03  0.00000000000E+00 0. -1.
         -2   -1    0    0    0  501 -0.00000000000E+00 -0.00000000000E+00 -0.80189206721E+02  0.80189206721E+02  0.00000000000E+00 0.  1.
         25    2    1    2    0    0  0.25532424962E+02 -0.10449723457E+02 -0.11528282814E+02  0.12858770917E+03  0.12506316884E+03 0.  0.
          5    1    3    3  502    0 -0.35662075154E+02 -0.21651563136E+02  0.31830381177E+02  0.52642372253E+02  0.41800000000E+01 0.  1.
         -5    1    3    3    0  502  0.61194500116E+02  0.11201839679E+02 -0.43358663991E+02  0.75945336919E+02  0.41800000000E+01 0.  1.
        -11    1    1    2    0    0 -0.16326398337E+02  0.36489904286E+02  0.81404837133E+02  0.90690748735E+02  0.00000000000E+00 0. -1.
         11    1    1    2    0    0 -0.92060266256E+01 -0.26040180828E+02  0.29260583906E+02  0.40237093761E+02  0.00000000000E+00 0.  1.
</event>
<event>
 7    1  0.1538147E-010  0.9331389E+02  0.7561462E-02  0.1295019E+00
         -1   -1    0    0    0  501 -0.00000000000E+00  0.00000000000E+00  0.53400748151E+03  0.53400748151E+03  0.00000000000E+00 0.  1.
          1   -1    0    0  501    0  0.00000000000E+00 -0.00000000000E+00 -0.42737665134E+02  0.42737665134E+02  0.00000000000E+00 0. -1.
         25    2    1    2    0    0  0.11409554876E+02 -0.45076056404E+02  0.44603578212E+03  0.46557797688E+03  0.12511156949E+03 0.  0.
          5    1    3    3  502    0 -0.39180260924E+02 -0.41676735497E+02  0.36786599981E+03  0.37231023266E+03  0.41800000000E+01 0. -1.
         -5    1    3    3    0  502  0.50589815800E+02 -0.33993209077E+01  0.78169782303E+02  0.93267744213E+02  0.41800000000E+01 0. -1.
        -11    1    1    2    0    0  0.22791775618E+02  0.12776857735E+01 -0.16454687558E+02  0.28139905107E+02  0.00000000000E+00 0. -1.
         11    1    1    2    0    0 -0.34201330494E+02  0.43798370631E+02  0.61688721823E+02  0.83027264664E+02  0.00000000000E+00 0.  1.
</event>
<event>
 6    1  0.1538147E-010  0.9380042E+02  0.7561462E-02  0.1293901E+00
         -2   -1    0    0    0  501 -0.00000000000E+00  0.00000000000E+00  0.16252992571E+03  0.16252992571E+03  0.00000000000E+00 0.  1.
          2   -1    0    0  501    0  0.00000000000E+00 -0.00000000000E+00 -0.90248756429E+02  0.90248756429E+02  0.00000000000E+00 0. -1.
          5    1    1    2  502    0  0.49592361787E+02  0.11488600195E+02  0.35069449003E+02  0.61957476833E+02  0.41800000000E+01 0.  1.
         -5    1    1    2    0  502 -0.75446572220E+02 -0.10067639274E+02  0.44915950320E+02  0.88478571493E+02  0.41800000000E+01 0.  1.
        -11    1    1    2    0    0 -0.11785736444E+02 -0.16048700665E+02 -0.43841903490E+02  0.48151603069E+02  0.00000000000E+00 0. -1.
         11    1    1    2    0    0  0.37639946876E+02  0.14627739744E+02  0.36137673448E+02  0.54191030744E+02  0.00000000000E+00 0.  1.
</event>
<event>
 7    1  0.1538147E-010  0.1093635E+03  0.7561462E-02  0.1261753E+00
         -2   -1    0    0    0  501 -0.00000000000E+00  0.00000000000E+00  0.16460291358E+03  0.16460291358E+03  0.00000000000E+00 0.  1.
          2   -1    0    0  501    0  0.00000000000E+00 -0.00000000000E+00 -0.11890903021E+03  0.11890903021E+03  0.00000000000E+00 0. -1.
         25    2    1    2    0    0 -0.38073132996E+02  0.79875821217E+02  0.40261866703E+02  0.15840497970E+03  0.12506562043E+03 0.  0.
          5    1    3    3  502    0 -0.17828222736E+02  0.96096974755E+01  0.74670656599E+02  0.77481424667E+02  0.41800000000E+01 0. -1.
         -5    1    3    3    0  502 -0.20244910261E+02  0.70266123742E+02 -0.34408789896E+02  0.80923555033E+02  0.41800000000E+01 0. -1.
        -11    1    1    2    0    0  0.88909449198E+01 -0.92558214254E+02  0.10696870594E+01  0.92990408956E+02  0.00000000000E+00 0. -1.
         11    1    1    2    0    0  0.29182188077E+02  0.12682393037E+02  0.43623296087E+01  0.32116555134E+02  0.00000000000E+00 0.  1.
</event>
<event>
 7    1  0.1538147E-010  0.8410476E+02  0.7561462E-02  0.1317790E+00
         -1   -1    0    0    0  501 -0.00000000000E+00  0.00000000000E+00  0.97472974966E+02  0.97472974966E+02  0.00000000000E+00 0.  1.
          1   -1    0    0  501    0  0.00000000000E+00 -0.00000000000E+00 -0.17834266798E+03  0.17834266798E+03  0.00000000000E+00 0. -1.
         25    2    1    2    0    0  0.15011607668E+01 -0.59601269713E+02  0.28877461895E+02  0.14153008306E+03  0.12506914795E+03 0.  0.
          5    1    3    3  502    0  0.13288402850E+02 -0.79736906587E+02  0.61179567144E+02  0.10146412055E+03  0.41800000000E+01 0.  1.
         -5    1    3    3    0  502 -0.11787242083E+02  0.20135636874E+02 -0.32302105249E+02  0.40065962509E+02  0.41800000000E+01 0.  1.
        -11    1    1    2    0    0 -0.11467518089E+02  0.39408654133E+02 -0.10284656225E+03  0.11073374083E+03  0.00000000000E+00 0. -1.
         11    1    1    2    0    0  0.99663573218E+01  0.20192615580E+02 -0.69005926651E+01  0.23551819067E+02  0.00000000000E+00 0.  1.
</event>
<event>
 7    1  0.1538147E-010  0.1047431E+03  0.7561462E-02  0.1270627E+00
          2   -1    0    0  501    0  0.00000000000E+00  0.00000000000E+00  0.95354947011E+02  0.95354947011E+02  0.00000000000E+00 0. -1.
         -2   -1    0    0    0  501 -0.00000000000E+00 -0.00000000000E+00 -0.16354212782E+03  0.16354212782E+03  0.00000000000E+00 0.  1.
         25    2    1    2    0    0  0.99968875615E+01  0.51558597881E+02 -0.69564906649E+02  0.15243917858E+03  0.12506078583E+03 0.  0.
          5    1    3    3  502    0  0.29528009492E+02 -0.21142186359E+02 -0.67796073489E+02  0.77023862335E+02  0.41800000000E+01 0.  1.
         -5    1    3    3    0  502 -0.19531121930E+02  0.72700784240E+02 -0.17688331600E+01  0.75415316241E+02  0.41800000000E+01 0.  1.
        -11    1    1    2    0    0 -0.17811016927E+01  0.22727006133E+02 -0.18230773306E+02  0.29189899389E+02  0.00000000000E+00 0.  1.
         11    1    1    2    0    0 -0.82157858688E+01 -0.74285604013E+02  0.19608499145E+02  0.77267996867E+02  0.00000000000E+00 0. -1.
</event>
<event>
 7    1  0.1538147E-010  0.1344042E+03  0.7561462E-02  0.1221063E+00
          4   -1    0    0  501    0  0.00000000000E+00  0.00000000000E+00  0.29492558265E+03  0.29492558265E+03  0.00000000000E+00 0. -1.
         -4   -1    0    0    0  501 -0.00000000000E+00 -0.00000000000E+00 -0.79844624477E+02  0.79844624477E+02  0.00000000000E+00 0.  1.
         25    2    1    2    0    0  0.36282521279E+02 -0.83431688639E+02  0.18891743645E+03  0.24413084170E+03  0.12503120433E+03 0.  0.
          5    1    3    3  502    0  0.74004140744E+02 -0.38816024897E+02  0.61331338640E+02  0.10374151597E+03  0.41800000000E+01 0.  1.
         -5    1    3    3    0  502 -0.37721619465E+02 -0.44615663742E+02  0.12758609781E+03  0.14038932573E+03  0.41800000000E+01 0.  1.
        -11    1    1    2    0    0  0.56172021090E+01  0.84464472448E+02  0.82259613590E+01  0.85049788393E+02  0.00000000000E+00 0.  1.
         11    1    1    2    0    0 -0.41899723388E+02 -0.10327838087E+01  0.17937560372E+02  0.45589577038E+02  0.00000000000E+00 0. -1.
</event>
<event>
 6    1  0.1538147E-010  0.8932584E+02  0.7561462E-02  0.1304493E+00
         -2   -1    0    0    0  501 -0.00000000000E+00  0.00000000000E+00  0.30819726409E+03  0.30819726409E+03  0.00000000000E+00 0.  1.
          2   -1    0    0  501    0  0.00000000000E+00 -0.00000000000E+00 -0.45759123803E+02  0.45759123803E+02  0.00000000000E+00 0. -1.
          5    1    1    2  502    0  0.43733562334E+02  0.12222278937E+02  0.13192516859E+02  0.47471291091E+02  0.41800000000E+01 0. -1.
         -5    1    1    2    0  502 -0.79125566199E+02 -0.12929151195E+01  0.83087357299E+02  0.11481945915E+03  0.41800000000E+01 0. -1.
        -11    1    1    2    0    0  0.11918975325E+02 -0.24101470779E+02  0.38750537683E+01  0.27165399099E+02  0.00000000000E+00 0. -1.
         11    1    1    2    0    0  0.23473028540E+02  0.13172106961E+02  0.16228321236E+03  0.16450023855E+03  0.00000000000E+00 0.  1.
</event>
<event>
 6    1  0.1538147E-010  0.1672410E+03  0.7561462E-02  0.1180756E+00
         -1   -1    0    0    0  501 -0.00000000000E+00  0.00000000000E+00  0.25651189618E+03  0.25651189618E+03  0.00000000000E+00 0.  1.
          1   -1    0    0  501    0  0.00000000000E+00 -0.00000000000E+00 -0.21340782785E+03  0.21340782785E+03  0.00000000000E+00 0. -1.
          5    1    1    2  502    0 -0.37325772807E+02  0.10736383964E+03  0.14450681154E+03  0.18390187155E+03  0.41800000000E+01 0.  1.
         -5    1    1    2    0  502  0.55488284486E+02  0.40630769041E+02  0.21899164871E+02  0.72296991155E+02  0.41800000000E+01 0.  1.
        -11    1    1    2    0    0 -0.76953346496E+01 -0.13468736853E+03 -0.59029967077E+02  0.14725638333E+03  0.00000000000E+00 0.  1.
         11    1    1    2    0    0 -0.10467177029E+02 -0.13307240150E+02 -0.64271941003E+02  0.66464477999E+02  0.00000000000E+00 0. -1.
</event>
<event>
 7    1  0.1538147E-010  0.4559162E+03  0.7561462E-02  0.1025972E+00
          1   -1    0    0  501    0  0.00000000000E+00  0.00000000000E+00  0.28951324401E+03  0.28951324401E+03  0.00000000000E+00 0. -1.
         -1   -1    0    0    0  501 -0.00000000000E+00 -0.00000000000E+00 -0.73582527243E+03  0.73582527243E+03  0.00000000000E+00 0.  1.
         25    2    1    2    0    0 -0.55956315123E+02  0.44496129121E+03 -0.23558067928E+03  0.52178133108E+03  0.12504335704E+03 0.  0.
          5    1    3    3  502    0 -0.45572509564E+02  0.61536231982E+02 -0.70533769341E+02  0.10419235333E+03  0.41800000000E+01 0.  1.
         -5    1    3    3    0  502 -0.10383805559E+02  0.38342505923E+03 -0.16504690994E+03  0.41758897776E+03  0.41800000000E+01 0.  1.
        -11    1    1    2    0    0 -0.25978599836E+01 -0.18758843556E+03 -0.12736430473E+03  0.22675501351E+03  0.00000000000E+00 0.  1.
         11    1    1    2    0    0  0.58554175107E+02 -0.25737285565E+03 -0.83367044410E+02  0.27680217185E+03  0.00000000000E+00 0. -1.
</event>
<event>
 7    1  0.1538147E-010  0.3254833E+03  0.7561462E-02  0.1073153E+00
         -1   -1    0    0    0  501 -0.00000000000E+00  0.00000000000E+00  0.11714712302E+03  0.11714712302E+03  0.00000000000E+00 0.  1.
          1   -1    0    0  501    0  0.00000000000E+00 -0.00000000000E+00 -0.91238170461E+03  0.91238170461E+03  0.00000000000E+00 0. -1.
         25    2    1    2    0    0 -0.14502823431E+03 -0.27152314713E+03 -0.41500922277E+03  0.53164213420E+03  0.12511073376E+03 0.  0.
          5    1    3    3  502    0 -0.15719537673E+03 -0.18604775606E+03 -0.33214692722E+03  0.41190193938E+03  0.41800000000E+01 0. -1.
         -5    1    3    3    0  502  0.12167142420E+02 -0.85475391071E+02 -0.82862295547E+02  0.11974019482E+03  0.41800000000E+01 0. -1.
        -11    1    1    2    0    0  0.43809940079E+01  0.95564060451E+02 -0.12637259598E+03  0.15849831474E+03  0.00000000000E+00 0.  1.
         11    1    1    2    0    0  0.14064724030E+03  0.17595908668E+03 -0.25385276284E+03  0.33938837869E+03  0.00000000000E+00 0. -1.
</event>
<event>
 7    1  0.1538147E-010  0.1046548E+03  0.7561462E-02  0.1270801E+00
         -1   -1    0    0    0  501 -0.00000000000E+00  0.00000000000E+00  0.24258645754E+03  0.24258645754E+03  0.00000000000E+00 0.  1.
          1   -1    0    0  501    0  0.00000000000E+00 -0.00000000000E+00 -0.67867840894E+02  0.67867840894E+02  0.00000000000E+00 0. -1.
         25    2    1    2    0    0  0.51729443999E+02 -0.51709415804E+02  0.83780509028E+02  0.16739765629E+03  0.12511196017E+03 0.  0.
          5    1    3    3  502    0  0.68554878681E+02 -0.45292917287E+02  0.68937816115E+00  0.82274949951E+02  0.41800000000E+01 0. -1.
         -5    1    3    3    0  502 -0.16825434682E+02 -0.64164985173E+01  0.83091130867E+02  0.85122706337E+02  0.41800000000E+01 0. -1.
        -11    1    1    2    0    0 -0.31650044518E+02  0.72829593549E+02  0.54106261202E+02  0.96090387219E+02  0.00000000000E+00 0. -1.
         11    1    1    2    0    0 -0.20079399481E+02 -0.21120177746E+02  0.36831846417E+02  0.46966254929E+02  0.00000000000E+00 0.  1.
</event>
<event>
 6    1  0.1538147E-010  0.1091972E+03  0.7561462E-02  0.1262064E+00
          1   -1    0    0  501    0  0.00000000000E+00  0.00000000000E+00  0.42266114754E+03  0.42266114754E+03  0.00000000000E+00 0. -1.
         -1   -1    0    0    0  501 -0.00000000000E+00 -0.00000000000E+00 -0.31525808081E+02  0.31525808081E+02  0.00000000000E+00 0.  1.
          5    1    1    2  502    0  0.32573773733E+02 -0.42470514218E+02  0.11525828332E+03  0.12714849424E+03  0.41800000000E+01 0.  1.
         -5    1    1    2    0  502 -0.67905511279E+02  0.34384159645E+02  0.18366232382E+03  0.19885359058E+03  0.41800000000E+01 0.  1.
        -11    1    1    2    0    0  0.28275967188E+02 -0.34899830992E+02  0.39629306136E+02  0.59900003577E+02  0.00000000000E+00 0.  1.
         11    1    1    2    0    0  0.70557703593E+01  0.42986185565E+02  0.52585426180E+02  0.68284867220E+02  0.00000000000E+00 0. -1.
</event>
<event>
 7    1  0.1538147E-010  0.1361876E+03  0.7561462E-02  0.1218553E+00
         -2   -1    0    0    0  501 -0.00000000000E+00  0.00000000000E+00  0.23256719213E+02  0.23256719213E+02  0.00000000000E+00 0.  1.
          2   -1    0    0  501    0  0.00000000000E+00 -0.00000000000E+00 -0.93562922125E+03  0.93562922125E+03  0.00000000000E+00 0. -1.
         25    2    1    2    0    0 -0.93524613483E+01  0.91573728920E+02 -0.61105175496E+03  0.63047248919E+03  0.12505237311E+03 0.  0.
          5    1    3    3  502    0  0.34813577869E+02  0.91885089366E+02 -0.51962752199E+03  0.52885261545E+03  0.41800000000E+01 0.  1.
         -5    1    3    3    0  502 -0.44166039218E+02 -0.31136044659E+00 -0.91424232969E+02  0.10161987374E+03  0.41800000000E+01 0.  1.
        -11    1    1    2    0    0  0.21872061865E+02  0.12262116475E+02 -0.43886440269E+02  0.50544695371E+02  0.00000000000E+00 0. -1.
         11    1    1    2    0    0 -0.12519600516E+02 -0.10383584539E+03 -0.25743430681E+03  0.27786875590E+03  0.00000000000E+00 0.  1.
</event>
<event>
 7    1  0.1538147E-010  0.5793882E+02  0.7561462E-02  0.1406691E+00
          2   -1    0    0  501    0  0.00000000000E+00  0.00000000000E+00  0.27651501698E+03  0.27651501698E+03  0.00000000000E+00 0. -1.
         -2   -1    0    0    0  501 -0.00000000000E+00 -0.00000000000E+00 -0.49160868555E+02  0.49160868555E+02  0.00000000000E+00 0.  1.
         25    2    1    2    0    0  0.88840904549E+01  0.42794777494E+02  0.90422703221E+02  0.16040194564E+03  0.12506877654E+03 0.  0.
          5    1    3    3  502    0  0.95893214886E+01  0.25445565591E+02 -0.28811705119E+02  0.39837402610E+02  0.41800000000E+01 0.  1.
         -5    1    3    3    0  502 -0.70523103369E+00  0.17349211903E+02  0.11923440834E+03  0.12056454303E+03  0.41800000000E+01 0.  1.
        -11    1    1    2    0    0  0.20729425837E+02 -0.33632496032E+02  0.19957555206E+02  0.44262375610E+02  0.00000000000E+00 0.  1.
         11    1    1    2    0    0 -0.29613516292E+02 -0.91622814627E+01  0.11697389000E+03  0.12101156428E+03  0.00000000000E+00 0. -1.
</event>
<event>
 7    1  0.1538147E-010  0.1022172E+03  0.7561462E-02  0.1275701E+00
          2   -1    0    0  501    0  0.00000000000E+00  0.00000000000E+00  0.18891282193E+03  0.18891282193E+03  0.00000000000E+00 0. -1.
         -2   -1    0    0    0  501 -0.00000000000E+00 -0.00000000000E+00 -0.66525963729E+02  0.66525963729E+02  0.00000000000E+00 0.  1.
         25    2    1    2    0    0  0.32578140307E+02  0.36400890730E+02  0.72909074630E+02  0.15283307537E+03  0.12512336189E+03 0.  0.
          5    1    3    3  502    0 -0.33528841842E+02  0.55776810443E+02  0.38277636623E+02  0.75616702414E+02  0.41800000000E+01 0. -1.
         -5    1    3    3    0  502  0.66106982149E+02 -0.19375919713E+02  0.34631438007E+02  0.77216372953E+02  0.41800000000E+01 0. -1.
        -11    1    1    2    0    0  0.69545266225E+01 -0.29208900221E+02 -0.92762630758E+01  0.31425695685E+02  0.00000000000E+00 0.  1.
         11    1    1    2    0    0 -0.39532666929E+02 -0.71919905091E+01  0.58754046645E+02  0.71180014605E+02  0.00000000000E+00 0. -1.
</event>
<event>
 6    1  0.1538147E-010  0.6351303E+02  0.7561462E-02  0.1383654E+00
         -1   -1    0    0    0  501 -0.00000000000E+00  0.00000000000E+00  0.42107273049E+03  0.42107273049E+03  0.00000000000E+00 0.  1.
          1   -1    0    0  501    0  0.00000000000E+00 -0.00000000000E+00 -0.32004727403E+02  0.32004727403E+02  0.00000000000E+00 0. -1.
          5    1    1    2  502    0  0.46302234477E+01 -0.45077975612E+02  0.26528835236E+03  0.26916323143E+03  0.41800000000E+01 0.  1.
         -5    1    1    2    0  502 -0.24982078584E+02  0.25623982250E+02  0.15416268848E+02  0.39189621865E+02  0.41800000000E+01 0.  1.
        -11    1    1    2    0    0  0.30724015176E+02  0.13885637440E+02  0.12207913322E+03  0.12664948008E+03  0.00000000000E+00 0.  1.
         11    1    1    2    0    0 -0.10372160040E+02  0.55683559220E+01 -0.13715751344E+02  0.18075124523E+02  0.00000000000E+00 0. -1.
</event>
<event>
 6    1  0.1538147E-010  0.1285761E+03  0.7561462E-02  0.1229584E+00
          1   -1    0    0  501    0  0.00000000000E+00  0.00000000000E+00  0.97717061072E+02  0.97717061072E+02  0.00000000000E+00 0. -1.
         -1   -1    0    0    0  501 -0.00000000000E+00 -0.00000000000E+00 -0.18133845023E+03  0.18133845023E+03  0.00000000000E+00 0.  1.
          5    1    1    2  502    0  0.53413757571E+02 -0.24439674495E+02  0.27569522675E+01  0.58952526435E+02  0.41800000000E+01 0. -1.
         -5    1    1    2    0  502 -0.71503214127E+02 -0.43540982309E+02 -0.15016545350E+02  0.85155715047E+02  0.41800000000E+01 0. -1.
        -11    1    1    2    0    0 -0.32652097714E+02  0.51710456849E+02 -0.35431675316E+02  0.70679094846E+02  0.00000000000E+00 0.  1.
         11    1    1    2    0    0  0.50741554270E+02  0.16270199955E+02 -0.35930120756E+02  0.64268174969E+02  0.00000000000E+00 0. -1.
</event>
<event>
 6    1  0.1538147E-010  0.7878194E+02  0.7561462E-02  0.1332544E+00
          1   -1    0    0  501    0  0.00000000000E+00  0.00000000000E+00  0.49400973934E+03  0.49400973934E+03  0.00000000000E+00 0. -1.
         -1   -1    0    0    0  501 -0.00000000000E+00 -0.00000000000E+00 -0.27247514478E+02  0.27247514478E+02  0.00000000000E+00 0.  1.
          5    1    1    2  502    0  0.60952855639E+02  0.70672334670E+01  0.52839910672E+02  0.81084677709E+02  0.41800000000E+01 0.  1.
         -5    1    1    2    0  502 -0.21104010956E+02  0.34360723045E+01  0.23059573316E+03  0.23162264662E+03  0.41800000000E+01 0.  1.
        -11    1    1    2    0    0 -0.81590801743E+01  0.25227868027E+02  0.93147191573E+01  0.28103023102E+02  0.00000000000E+00 0.  1.
         11    1    1    2    0    0 -0.31689764508E+02 -0.35731173798E+02  0.17401186187E+03  0.18044690639E+03  0.00000000000E+00 0. -1.
</event>
<event>
 6    1  0.1538147E-010  0.1144030E+03  0.7561462E-02  0.1252627E+00
         -1   -1    0    0    0  501 -0.00000000000E+00  0.00000000000E+00  0.72399076751E+02  0.72399076751E+02  0.00000000000E+00 0.  1.
          1   -1    0    0  501    0  0.00000000000E+00 -0.00000000000E+00 -0.30733986214E+03  0.30733986214E+03  0.00000000000E+00 0. -1.
          5    1    1    2  502    0 -0.28752501689E+01 -0.74275726928E+02 -0.11928472946E+03  0.14061105844E+03  0.41800000000E+01 0. -1.
         -5    1    1    2    0  502 -0.22488433760E+01 -0.23047027166E+02  0.32591414287E+02  0.40198201987E+02  0.41800000000E+01 0. -1.
        -11    1    1    2    0    0  0.21726318402E+02  0.10860288731E+03 -0.13609219500E+03  0.17546425728E+03  0.00000000000E+00 0. -1.
         11    1    1    2    0    0 -0.16602224857E+02 -0.11280133218E+02 -0.12155275221E+02  0.23465421183E+02  0.00000000000E+00 0.  1.
</event>
<event>
 7    1  0.1538147E-010  0.8070297E+02  0.7561462E-02  0.1327068E+00
          1   -1    0    0  501    0  0.00000000000E+00  0.00000000000E+00  0.54114189090E+03  0.54114189090E+03  0.00000000000E+00 0. -1.
         -1   -1    0    0    0  501 -0.00000000000E+00 -0.00000000000E+00 -0.23276603922E+02  0.23276603922E+02  0.00000000000E+00 0.  1.
         25    2    1    2    0    0  0.81779022746E+01  0.76708851958E+01  0.37411561474E+03  0.39465008561E+03  0.12514182481E+03 0.  0.
          5    1    3    3  502    0 -0.45313517751E+01  0.54101176031E+02  0.30790664063E+03  0.31268425311E+03  0.41800000000E+01 0. -1.
         -5    1    3    3    0  502  0.12709254050E+02 -0.46430290835E+02  0.66208974106E+02  0.81965832502E+02  0.41800000000E+01 0. -1.
        -11    1    1    2    0    0 -0.27666821993E+02  0.12700614033E+02  0.84935881537E+01  0.31605374159E+02  0.00000000000E+00 0.  1.
         11    1    1    2    0    0  0.19488919719E+02 -0.20371499229E+02  0.13525608408E+03  0.13816303505E+03  0.00000000000E+00 0. -1.
</event>
<event>
 7    1  0.1538147E-010  0.1026076E+03  0.7561462E-02  0.1274906E+00
          1   -1    0    0  501    0  0.00000000000E+00  0.00000000000E+00  0.32525337830E+03  0.32525337830E+03  0.00000000000E+00 0. -1.
         -1   -1    0    0    0  501 -0.00000000000E+00 -0.00000000000E+00 -0.58220727897E+02  0.58220727897E+02  0.00000000000E+00 0.  1.
         25    2    1    2    0    0 -0.21332545840E+02  0.77020476474E+02  0.16206924778E+03  0.21979056335E+03  0.12511682282E+03 0.  0.
          5    1    3    3  502    0 -0.15602939668E+02  0.72521645513E+02  0.18285428840E+03  0.19737275390E+03  0.41800000000E+01 0. -1.
         -5    1    3    3    0  502 -0.57296061711E+01  0.44988309608E+01 -0.20785040623E+02  0.22417809451E+02  0.41800000000E+01 0. -1.
        -11    1    1    2    0    0  0.58104947623E+02 -0.52583493466E+02  0.83762122922E+02  0.11470528305E+03  0.00000000000E+00 0. -1.
         11    1    1    2    0    0 -0.36772401784E+02 -0.24436983008E+02  0.21201279695E+02  0.48978259791E+02  0.00000000000E+00 0.  1.
</event>
<event>
 7    1  0.1538147E-010  0.1299056E+03  0.7561462E-02  0.1227596E+00
         -4   -1    0    0    0  501 -0.00000000000E+00  0.00000000000E+00  0.42329881091E+03  0.42329881091E+03  0.00000000000E+00 0.  1.
          4   -1    0    0  501    0  0.00000000000E+00 -0.00000000000E+00 -0.51529248269E+02  0.51529248269E+02  0.00000000000E+00 0. -1.
         25    2    1    2    0    0 -0.32995243068E+02  0.83969140183E+02  0.13280186955E+03  0.20354787804E+03  0.12512353707E+03 0.  0.
          5    1    3    3  502    0  0.13654261422E+02  0.91856553647E+02  0.12442936173E+03  0.15531968247E+03  0.41800000000E+01 0.  1.
         -5    1    3    3    0  502 -0.46649504490E+02 -0.78874134639E+01  0.83725078260E+01  0.48228195566E+02  0.41800000000E+01 0.  1.
        -11    1    1    2    0    0 -0.25347214349E+02 -0.16914580612E+02  0.11350101775E+03  0.11752048903E+03  0.00000000000E+00 0.  1.
         11    1    1    2    0    0  0.58342457417E+02 -0.67054559572E+02  0.12546667534E+03  0.15375969211E+03  0.00000000000E+00 0. -1.
</event>
<event>
 7    1  0.1538147E-010  0.1143407E+03  0.7561462E-02  0.1252736E+00
         -1   -1    0    0    0  501 -0.00000000000E+00  0.00000000000E+00  0.97082563061E+02  0.97082563061E+02  0.00000000000E+00 0.  1.
          1   -1    0    0  501    0  0.00000000000E+00 -0.00000000000E+00 -0.26490064099E+03  0.26490064099E+03  0.00000000000E+00 0. -1.
         25    2    1    2    0    0  0.81055770638E+02  0.48047176515E+02 -0.17118565402E+03  0.23203149036E+03  0.12512200147E+03 0.  0.
          5    1    3    3  502    0  0.19403877366E+02 -0.30607121510E+01  0.17736933257E+02  0.26794581861E+02  0.41800000000E+01 0.  1.
         -5    1    3    3    0  502  0.61651893272E+02  0.51107888666E+02 -0.18892258727E+03  0.20523690850E+03  0.41800000000E+01 0.  1.
        -11    1    1    2    0    0 -0.43330477206E+02  0.22188773185E+02  0.10847600740E+02  0.49875267941E+02  0.00000000000E+00 0. -1.
         11    1    1    2    0    0 -0.37725293432E+02 -0.70235949700E+02 -0.74800246497E+01  0.80076445747E+02  0.00000000000E+00 0.  1.
</event>
<event>
 7    1  0.1538147E-010  0.1011673E+03  0.7561462E-02  0.1277860E+00
         -4   -1    0    0    0  501 -0.00000000000E+00  0.00000000000E+00  0.35841016481E+02  0.35841016481E+02  0.00000000000E+00 0.  1.
          4   -1    0    0  501    0  0.00000000000E+00 -0.00000000000E+00 -0.36463723254E+03  0.36463723254E+03  0.00000000000E+00 0. -1.
         25    2    1    2    0    0  0.31415414469E+01 -0.26236895870E+02 -0.23013046957E+03  0.26327300900E+03  0.12511754577E+03 0.  0.
          5    1    3    3  502    0 -0.51217159697E+02  0.74062570384E+01 -0.49962258929E+02  0.72053798013E+02  0.41800000000E+01 0. -1.
         -5    1    3    3    0  502  0.54358701144E+02 -0.33643152909E+02 -0.18016821064E+03  0.19121921099E+03  0.41800000000E+01 0. -1.
        -11    1    1    2    0    0  0.39032190206E+02  0.19540043797E+02 -0.20696114651E+02  0.48307911832E+02  0.00000000000E+00 0.  1.
         11    1    1    2    0    0 -0.42173731653E+02  0.66968520728E+01 -0.77969631844E+02  0.88897328189E+02  0.00000000000E+00 0. -1.
</event>
<event>
 6    1  0.1538147E-010  0.1132244E+03  0.7561462E-02  0.1254713E+00
         -1   -1    0    0    0  501 -0.00000000000E+00  0.00000000000E+00  0.64949536947E+02  0.64949536947E+02  0.00000000000E+00 0.  1.
          1   -1    0    0  501    0  0.00000000000E+00 -0.00000000000E+00 -0.32774218720E+03  0.32774218720E+03  0.00000000000E+00 0. -1.
          5    1    1    2  502    0 -0.50997727736E+01 -0.36992733294E+02 -0.10841280258E+03  0.11474004603E+03  0.41800000000E+01 0. -1.
         -5    1    1    2    0  502  0.19453661788E+02  0.93179901120E+02 -0.13628248096E+03  0.16628687846E+03  0.41800000000E+01 0. -1.
        -11    1    1    2    0    0  0.23379150588E+01 -0.71142377563E+02  0.13973284488E+02  0.72539343887E+02  0.00000000000E+00 0.  1.
         11    1    1    2    0    0 -0.16691804073E+02  0.14955209737E+02 -0.32070651196E+02  0.39125455775E+02  0.00000000000E+00 0. -1.
</event>
<event>
 7    1  0.1538147E-010  0.8218187E+02  0.7561462E-02  0.1322971E+00
         -1   -1    0    0    0  501 -0.00000000000E+00  0.00000000000E+00  0.96776866644E+02  0.96776866644E+02  0.00000000000E+00 0.  1.
          1   -1    0    0  501    0  0.00000000000E+00 -0.00000000000E+00 -0.14991483668E+03  0.14991483668E+03  0.00000000000E+00 0. -1.
         25    2    1    2    0    0 -0.18617760543E+01 -0.21182462123E+02  0.19441705271E+02  0.12838894242E+03  0.12511425866E+03 0.  0.
          5    1    3    3  502    0  0.23844399681E+02  0.14890362407E+02 -0.43105457776E+02  0.51631687740E+02  0.41800000000E+01 0. -1.
         -5    1    3    3    0  502 -0.25706175735E+02 -0.36072824530E+02  0.62547163047E+02  0.76757254678E+02  0.41800000000E+01 0. -1.
        -11    1    1    2    0    0 -0.31936443243E+02 -0.20376698165E+02 -0.18409707824E+02  0.42119634107E+02  0.00000000000E+00 0.  1.
         11    1    1    2    0    0  0.33798219298E+02  0.41559160288E+02 -0.54169967482E+02  0.76183126797E+02  0.00000000000E+00 0. -1.
</event>
<event>
 7    1  0.1538147E-010  0.1045864E+03  0.7561462E-02  0.1270937E+00
          1   -1    0    0  501    0  0.00000000000E+00  0.00000000000E+00  0.41390539164E+03  0.41390539164E+03  0.00000000000E+00 0. -1.
         -1   -1    0    0    0  501 -0.00000000000E+00 -0.00000000000E+00 -0.46061044634E+02  0.46061044634E+02  0.00000000000E+00 0.  1.
         25    2    1    2    0    0  0.43554172352E+02  0.19231320597E+01  0.31845016647E+03  0.34489497387E+03  0.12506546331E+03 0.  0.
          5    1    3    3  502    0  0.23048759348E+02  0.63351405086E+02  0.16054144740E+03  0.17417139423E+03  0.41800000000E+01 0. -1.
         -5    1    3    3    0  502  0.20505413004E+02 -0.61428273027E+02  0.15790871906E+03  0.17072357964E+03  0.41800000000E+01 0. -1.
        -11    1    1    2    0    0 -0.22967232298E+02 -0.32546435815E+02 -0.13577743296E+02  0.42084668903E+02  0.00000000000E+00 0.  1.
         11    1    1    2    0    0 -0.20586940055E+02  0.30623303755E+02  0.62971923838E+02  0.72986793501E+02  0.00000000000E+00 0. -1.
</event>
<event>
 6    1  0.1538147E-010  0.1135860E+03  0.7561462E-02  0.1254070E+00
         -2   -1    0    0    0  501 -0.00000000000E+00  0.00000000000E+00  0.19640554603E+02  0.19640554603E+02  0.00000000000E+00 0.  1.
          2   -1    0    0  501    0  0.00000000000E+00 -0.00000000000E+00 -0.84765266638E+03  0.84765266638E+03  0.00000000000E+00 0. -1.
          5    1    1    2  502    0 -0.44490374440E+02  0.67690172636E+02 -0.31693079445E+03  0.32714515701E+03  0.41800000000E+01 0. -1.
         -5    1    1    2    0  502 -0.78156612970E+01 -0.35370888326E+02 -0.31587361754E+02  0.48243322077E+02  0.41800000000E+01 0. -1.
        -11    1    1    2    0    0  0.14237330396E+02 -0.60551386439E+02 -0.28677539904E+03  0.29344386425E+03  0.00000000000E+00 0.  1.
         11    1    1    2    0    0  0.38068705341E+02  0.28232102128E+02 -0.19271855654E+03  0.19846087763E+03  0.00000000000E+00 0. -1.
</event>
<event>
 7    1  0.1538147E-010  0.6724201E+02  0.7561462E-02  0.1369731E+00
          1   -1    0    0  501    0  0.00000000000E+00  0.00000000000E+00  0.11391569879E+03  0.11391569879E+03  0.00000000000E+00 0. -1.
         -1   -1    0    0    0  501 -0.00000000000E+00 -0.00000000000E+00 -0.15519128555E+03  0.15519128555E+03  0.00000000000E+00 0.  1.
         25    2    1    2    0    0  0.59513081946E+01  0.36436584307E+02 -0.91567303117E+02  0.15931572821E+03  0.12503554499E+03 0.  0.
          5    1    3    3  502    0  0.75609374356E+01  0.29243883647E+02  0.26829505752E+02  0.40616096373E+02  0.41800000000E+01 0.  1.
         -5    1    3    3    0  502 -0.16096292410E+01  0.71927006593E+01 -0.11839680887E+03  0.11869963184E+03  0.41800000000E+01 0.  1.
        -11    1    1    2    0    0 -0.42995780232E+02 -0.39448118726E+02  0.19488305266E+02  0.61518982687E+02  0.00000000000E+00 0. -1.
         11    1    1    2    0    0  0.37044472037E+02  0.30115344190E+01  0.30803411093E+02  0.48272273440E+02  0.00000000000E+00 0.  1.
</event>
<event>
 7    1  0.1538147E-010  0.1079442E+03  0.7561462E-02  0.1264425E+00
         -2   -1    0    0    0  501 -0.00000000000E+00  0.00000000000E+00  0.12009250939E+02  0.12009250939E+02  0.00000000000E+00 0.  1.
          2   -1    0    0  501    0  0.00000000000E+00 -0.00000000000E+00 -0.12042063728E+04  0.12042063728E+04  0.00000000000E+00 0. -1.
         25    2    1    2    0    0 -0.45078858597E+02  0.20204756570E+02 -0.62969194980E+03  0.64388714878E+03  0.12505348072E+03 0.  0.
          5    1    3    3  502    0  0.31457378021E+02  0.11897514242E+01 -0.39478923605E+03  0.39606438295E+03  0.41800000000E+01 0.  1.
         -5    1    3    3    0  502 -0.76536236618E+02  0.19015005146E+02 -0.23490271375E+03  0.24782276583E+03  0.41800000000E+01 0.  1.
        -11    1    1    2    0    0 -0.17504783827E+02  0.23151308962E+02 -0.13332061238E+03  0.13644334447E+03  0.00000000000E+00 0.  1.
         11    1    1    2    0    0  0.62583642424E+02 -0.43356065532E+02 -0.42918455965E+03  0.43588513046E+03  0.00000000000E+00 0. -1.
</event>
<event>
 7    1  0.1538147E-010  0.1030624E+03  0.7561462E-02  0.1273985E+00
         -2   -1    0    0    0  501 -0.00000000000E+00  0.00000000000E+00  0.26391017917E+03  0.26391017917E+03  0.00000000000E+00 0.  1.
          2   -1    0    0  501    0  0.00000000000E+00 -0.00000000000E+00 -0.57004668374E+02  0.57004668374E+02  0.00000000000E+00 0. -1.
         25    2    1    2    0    0 -0.22149779776E+02  0.55985371572E+02  0.11794133526E+03  0.18214409814E+03  0.12506534033E+03 0.  0.
          5    1    3    3  502    0  0.34447040090E+02  0.47891334754E+02  0.10915836163E+03  0.12414990467E+03  0.41800000000E+01 0.  1.
         -5    1    3    3    0  502 -0.56596819866E+02  0.80940368186E+01  0.87829736310E+01  0.57994193475E+02  0.41800000000E+01 0.  1.
        -11    1    1    2    0    0 -0.36467170772E+01 -0.62856816071E+02  0.22023425124E+02  0.66703141802E+02  0.00000000000E+00 0. -1.
         11    1    1    2    0    0  0.25796496854E+02  0.68714444989E+01  0.66940750416E+02  0.72067607603E+02  0.00000000000E+00 0.  1.
</event>
<event>
 6    1  0.1538147E-010  0.1072242E+03  0.7561462E-02  0.1265798E+00
          2   -1    0    0  501    0  0.00000000000E+00  0.00000000000E+00  0.43723238355E+02  0.43723238355E+02  0.00000000000E+00 0.  1.
         -2   -1    0    0    0  501 -0.00000000000E+00 -0.00000000000E+00 -0.32842634497E+03  0.32842634497E+03  0.00000000000E+00 0. -1.
          5    1    1    2  502    0 -0.70179026222E+02 -0.16187730310E+02 -0.93222951169E+02  0.11787760330E+03  0.41800000000E+01 0. -1.
         -5    1    1    2    0  502  0.53595367811E+02 -0.27977045485E+02 -0.10351101092E+03  0.11994657272E+03  0.41800000000E+01 0. -1.
        -11    1    1    2    0    0  0.27525921766E+02  0.57919031845E+02 -0.24798128183E+02  0.68754910954E+02  0.00000000000E+00 0.  1.
         11    1    1    2    0    0 -0.10942263355E+02 -0.13754256051E+02 -0.63171016341E+02  0.65570496357E+02  0.00000000000E+00 0. -1.
</event>
<event>
 7    1  0.1538147E-010  0.2237986E+03  0.7561462E-02  0.1131082E+00
         -2   -1    0    0    0  501 -0.00000000000E+00  0.00000000000E+00  0.18031121307E+03  0.18031121307E+03  0.00000000000E+00 0.  1.
          2   -1    0    0  501    0  0.00000000000E+00 -0.00000000000E+00 -0.29909444546E+03  0.29909444546E+03  0.00000000000E+00 0. -1.
         25    2    1    2    0    0 -0.51672865011E+02 -0.19413562231E+03 -0.10408951721E+03  0.25851502840E+03  0.12504666124E+03 0.  0.
          5    1    3    3  502    0 -0.67230797849E+02 -0.46995060401E+02 -0.66803893029E+02  0.10587137671E+03  0.41800000000E+01 0. -1.
         -5    1    3    3    0  502  0.15557932838E+02 -0.14714056191E+03 -0.37285624183E+02  0.15264365170E+03  0.41800000000E+01 0. -1.
        -11    1    1    2    0    0 -0.22269098919E+02  0.64058458055E+02 -0.21402410186E+02  0.71115834923E+02  0.00000000000E+00 0. -1.
         11    1    1    2    0    0  0.73941963930E+02  0.13007716425E+03  0.67086950006E+01  0.14977479520E+03  0.00000000000E+00 0.  1.
</event>
<event>
 6    1  0.1538147E-010  0.3185762E+03  0.7561462E-02  0.1076306E+00
         -2   -1    0    0    0  501 -0.00000000000E+00  0.00000000000E+00  0.52655181566E+02  0.52655181566E+02  0.00000000000E+00 0.  1.
          2   -1    0    0  501    0  0.00000000000E+00 -0.00000000000E+00 -0.22576519511E+04  0.22576519511E+04  0.00000000000E+00 0. -1.
          5    1    1    2  502    0  0.22707166320E+03  0.17409320385E+03 -0.13203275699E+04  0.13509819940E+04  0.41800000000E+01 0. -1.
         -5    1    1    2    0  502  0.32884077594E+02 -0.21436347394E+02 -0.22594300922E+03  0.22936563685E+03  0.41800000000E+01 0. -1.
        -11    1    1    2    0    0 -0.16513590709E+03 -0.13873804504E+03 -0.40717129237E+03  0.46076737545E+03  0.00000000000E+00 0.  1.
         11    1    1    2    0    0 -0.94819833708E+02 -0.13918811415E+02 -0.25155489810E+03  0.26919212644E+03  0.00000000000E+00 0. -1.
</event>
<event>
 7    1  0.1538147E-010  0.1265966E+03  0.7561462E-02  0.1232595E+00
          2   -1    0    0  501    0  0.00000000000E+00  0.00000000000E+00  0.83497921409E+03  0.83497921409E+03  0.00000000000E+00 0. -1.
         -2   -1    0    0    0  501 -0.00000000000E+00 -0.00000000000E+00 -0.19721426387E+02  0.19721426387E+02  0.00000000000E+00 0.  1.
         25    2    1    2    0    0 -0.61421227838E+02 -0.33762990870E+02  0.47178448320E+03  0.49308159342E+03  0.12504540135E+03 0.  0.
          5    1    3    3  502    0 -0.77374329182E+02  0.23496393799E+02  0.22252963011E+03  0.23680324325E+03  0.41800000000E+01 0.  1.
         -5    1    3    3    0  502  0.15953101344E+02 -0.57259384670E+02  0.24925485309E+03  0.25627835017E+03  0.41800000000E+01 0.  1.
        -11    1    1    2    0    0  0.60609973177E+01 -0.28605708233E+02  0.75294590553E+02  0.80773124234E+02  0.00000000000E+00 0. -1.
         11    1    1    2    0    0  0.55360230520E+02  0.62368699103E+02  0.26817871395E+03  0.28084592282E+03  0.00000000000E+00 0.  1.
</event>
<event>
 7    1  0.1538147E-010  0.9928438E+02  0.7561462E-02  0.1281808E+00
          1   -1    0    0  501    0  0.00000000000E+00  0.00000000000E+00  0.55367421541E+03  0.55367421541E+03  0.00000000000E+00 0. -1.
         -1   -1    0    0    0  501 -0.00000000000E+00 -0.00000000000E+00 -0.48580018835E+02  0.48580018835E+02  0.00000000000E+00 0.  1.
         25    2    1    2    0    0  0.36096200982E+02  0.55901162510E+02  0.45919396394E+03  0.48054952120E+03  0.12506346436E+03 0.  0.
          5    1    3    3  502    0 -0.12006715909E+02  0.48510880043E+02  0.40293654961E+03  0.40604532028E+03  0.41800000000E+01 0.  1.
         -5    1    3    3    0  502  0.48102916890E+02  0.73902824671E+01  0.56257414325E+02  0.74504200920E+02  0.41800000000E+01 0.  1.
        -11    1    1    2    0    0 -0.53184513908E+02 -0.15020876909E+02  0.53303883279E+02  0.76782310693E+02  0.00000000000E+00 0. -1.
         11    1    1    2    0    0  0.17088312926E+02 -0.40880285601E+02 -0.74036506467E+01  0.44922402344E+02  0.00000000000E+00 0.  1.
</event>
<event>
 7    1  0.1538147E-010  0.1233228E+03  0.7561462E-02  0.1237714E+00
          3   -1    0    0  501    0  0.00000000000E+00  0.00000000000E+00  0.49235971131E+02  0.49235971131E+02  0.00000000000E+00 0. -1.
         -3   -1    0    0    0  501 -0.00000000000E+00 -0.00000000000E+00 -0.42131125667E+03  0.42131125667E+03  0.00000000000E+00 0.  1.
         25    2    1    2    0    0 -0.56466301389E+02  0.75543781004E+02 -0.20524406262E+03  0.25818209811E+03  0.12505024791E+03 0.  0.
          5    1    3    3  502    0 -0.34526515002E+02  0.10159868709E+03 -0.97287697396E+02  0.14490252559E+03  0.41800000000E+01 0. -1.
         -5    1    3    3    0  502 -0.21939786388E+02 -0.26054906091E+02 -0.10795636522E+03  0.11327957252E+03  0.41800000000E+01 0. -1.
        -11    1    1    2    0    0  0.57956561376E+02 -0.42512187055E+02 -0.42041394877E+02  0.83269009469E+02  0.00000000000E+00 0. -1.
         11    1    1    2    0    0 -0.14902599872E+01 -0.33031593949E+02 -0.12478982804E+03  0.12909612022E+03  0.00000000000E+00 0.  1.
</event>
<event>
 7    1  0.1538147E-010  0.1227658E+03  0.7561462E-02  0.1238603E+00
         -2   -1    0    0    0  501 -0.00000000000E+00  0.00000000000E+00  0.19995471926E+02  0.19995471926E+02  0.00000000000E+00 0.  1.
          2   -1    0    0  501    0  0.00000000000E+00 -0.00000000000E+00 -0.95806390591E+03  0.95806390591E+03  0.00000000000E+00 0. -1.
         25    2    1    2    0    0 -0.11068057575E+02 -0.84252878164E+02 -0.47800615434E+03  0.50134893057E+03  0.12505925484E+03 0.  0.
          5    1    3    3  502    0 -0.49176232016E+02 -0.16194929507E+02 -0.77502103857E+02  0.93298585409E+02  0.41800000000E+01 0. -1.
         -5    1    3    3    0  502  0.38108174441E+02 -0.68057948657E+02 -0.40050405048E+03  0.40805034516E+03  0.41800000000E+01 0. -1.
        -11    1    1    2    0    0  0.44564330804E+02  0.56611957148E+02 -0.36711383684E+03  0.37411691016E+03  0.00000000000E+00 0. -1.
         11    1    1    2    0    0 -0.33496273230E+02  0.27640921016E+02 -0.92948442810E+02  0.10259353711E+03  0.00000000000E+00 0.  1.
</event>
<event>
 7    1  0.1538147E-010  0.1045586E+03  0.7561462E-02  0.1270992E+00
          1   -1    0    0  501    0  0.00000000000E+00  0.00000000000E+00  0.15756445139E+02  0.15756445139E+02  0.00000000000E+00 0. -1.
         -1   -1    0    0    0  501 -0.00000000000E+00 -0.00000000000E+00 -0.88937613781E+03  0.88937613781E+03  0.00000000000E+00 0.  1.
         25    2    1    2    0    0  0.19737354075E+02 -0.24392697630E+02 -0.58928943612E+03  0.60322802717E+03  0.12504977570E+03 0.  0.
          5    1    3    3  502    0 -0.43597392816E+01 -0.62702240743E+02 -0.16675656250E+03  0.17825768387E+03  0.41800000000E+01 0.  1.
         -5    1    3    3    0  502  0.24097093357E+02  0.38309543113E+02 -0.42253287362E+03  0.42497034330E+03  0.41800000000E+01 0.  1.
        -11    1    1    2    0    0  0.33252709933E+02 -0.13122574402E+02 -0.12006232199E+03  0.12527132888E+03  0.00000000000E+00 0. -1.
         11    1    1    2    0    0 -0.52990064008E+02  0.37515272032E+02 -0.16426793457E+03  0.17663322690E+03  0.00000000000E+00 0.  1.
</event>
<event>
 7    1  0.1538147E-010  0.1718197E+03  0.7561462E-02  0.1175963E+00
          3   -1    0    0  501    0  0.00000000000E+00  0.00000000000E+00  0.18653334277E+03  0.18653334277E+03  0.00000000000E+00 0. -1.
         -3   -1    0    0    0  501 -0.00000000000E+00 -0.00000000000E+00 -0.17531916113E+03  0.17531916113E+03  0.00000000000E+00 0.  1.
         25    2    1    2    0    0  0.10849169587E+03  0.93049068857E+02 -0.13332249499E+02  0.19037556471E+03  0.12504610939E+03 0.  0.
          5    1    3    3  502    0  0.13293054352E+03  0.93986291626E+02 -0.21471153075E+02  0.16426331066E+03  0.41800000000E+01 0. -1.
         -5    1    3    3    0  502 -0.24438847642E+02 -0.93722276942E+00  0.81389035764E+01  0.26112254059E+02  0.41800000000E+01 0. -1.
        -11    1    1    2    0    0 -0.57519149915E+02 -0.87483242023E+02 -0.16249862429E+02  0.10595200928E+03  0.00000000000E+00 0.  1.
         11    1    1    2    0    0 -0.50972545958E+02 -0.55658268335E+01  0.40796293573E+02  0.65524929906E+02  0.00000000000E+00 0. -1.
</event>
<event>
 7    1  0.1538147E-010  0.8120239E+02  0.7561462E-02  0.1325673E+00
         -2   -1    0    0    0  501 -0.00000000000E+00  0.00000000000E+00  0.61872541622E+02  0.61872541622E+02  0.00000000000E+00 0.  1.
          2   -1    0    0  501    0  0.00000000000E+00 -0.00000000000E+00 -0.33427882707E+03  0.33427882707E+03  0.00000000000E+00 0. -1.
         25    2    1    2    0    0  0.56520999119E+02 -0.16371684694E+02 -0.24870078026E+03  0.28455069772E+03  0.12511740915E+03 0.  0.
          5    1    3    3  502    0  0.15308171767E+02 -0.37405846015E+02 -0.23145487041E+03  0.23499439754E+03  0.41800000000E+01 0. -1.
         -5    1    3    3    0  502  0.41212827353E+02  0.21034161321E+02 -0.17245909844E+02  0.49556300176E+02  0.41800000000E+01 0. -1.
        -11    1    1    2    0    0 -0.15953100015E+02 -0.16609940975E+02 -0.48534425522E+02  0.53721336544E+02  0.00000000000E+00 0. -1.
         11    1    1    2    0    0 -0.40567899104E+02  0.32981625669E+02  0.24828920328E+02  0.57879334431E+02  0.00000000000E+00 0.  1.
</event>
<event>
 6    1  0.1538147E-010  0.1142030E+03  0.7561462E-02  0.1252979E+00
         -2   -1    0    0    0  501 -0.00000000000E+00  0.00000000000E+00  0.25695811990E+02  0.25695811990E+02  0.00000000000E+00 0.  1.
          2   -1    0    0  501    0  0.00000000000E+00 -0.00000000000E+00 -0.73756411129E+03  0.73756411129E+03  0.00000000000E+00 0. -1.
          5    1    1    2  502    0  0.15204373801E+02 -0.91806824633E+02 -0.34373776224E+03  0.35613591173E+03  0.41800000000E+01 0. -1.
         -5    1    1    2    0  502 -0.28294025008E+02  0.33889861155E+02 -0.21878989202E+03  0.22323880440E+03  0.41800000000E+01 0. -1.
        -11    1    1    2    0    0 -0.25041402971E+02  0.47593810554E+01 -0.58021112616E+01  0.26141692100E+02  0.00000000000E+00 0.  1.
         11    1    1    2    0    0  0.38131054178E+02  0.53157582423E+02 -0.14353853378E+03  0.15774351505E+03  0.00000000000E+00 0. -1.
</event>
<event>
 7    1  0.2021316E-010  0.9383566E+02  0.7561462E-02  0.1293820E+00
         -2   -1    0    0    0  501 -0.00000000000E+00  0.00000000000E+00  0.14866979991E+02  0.14866979991E+02  0.00000000000E+00 0.  1.
          2   -1    0    0  501    0  0.00000000000E+00 -0.00000000000E+00 -0.96346969393E+03  0.96346969393E+03  0.00000000000E+00 0. -1.
         25    2    1    2    0    0 -0.37082511897E+02  0.30793164932E+02 -0.47152681010E+03  0.49020556447E+03  0.12506250877E+03 0.  0.
          5    1    3    3  502    0 -0.17881238988E+02  0.53607098431E+02 -0.82910548131E+02  0.10042455427E+03  0.41800000000E+01 0.  1.
         -5    1    3    3    0  502 -0.19201272909E+02 -0.22813933499E+02 -0.38861626197E+03  0.38978101019E+03  0.41800000000E+01 0.  1.
        -11    1    1    2    0    0  0.62564400378E+02 -0.22103028441E+01 -0.34423454855E+03  0.34988085694E+03  0.00000000000E+00 0.  1.
         11    1    1    2    0    0 -0.25481888480E+02 -0.28582862088E+02 -0.13284135529E+03  0.13825025251E+03  0.00000000000E+00 0. -1.
</event>
<event>
 7    1  0.1538147E-010  0.1346664E+03  0.7561462E-02  0.1220691E+00
          1   -1    0    0  501    0  0.00000000000E+00  0.00000000000E+00  0.15000492580E+03  0.15000492580E+03  0.00000000000E+00 0. -1.
         -1   -1    0    0    0  501 -0.00000000000E+00 -0.00000000000E+00 -0.20569094851E+03  0.20569094851E+03  0.00000000000E+00 0.  1.
         25    2    1    2    0    0  0.12837333700E+03 -0.39281855520E+02  0.34000543326E+01  0.18354259063E+03  0.12511412543E+03 0.  0.
          5    1    3    3  502    0  0.59751276485E+02 -0.11887018773E+02 -0.60356890833E+02  0.85860019380E+02  0.41800000000E+01 0.  1.
         -5    1    3    3    0  502  0.68622060512E+02 -0.27394836747E+02  0.63756945166E+02  0.97682571251E+02  0.41800000000E+01 0.  1.
        -11    1    1    2    0    0 -0.10851011221E+03  0.33885187440E+02 -0.82886468362E+02  0.14068694686E+03  0.00000000000E+00 0.  1.
         11    1    1    2    0    0 -0.19863224790E+02  0.53966680802E+01  0.23800391329E+02  0.31466336820E+02  0.00000000000E+00 0. -1.
</event>
<event>
 6    1  0.1538147E-010  0.2226475E+03  0.7561462E-02  0.1131924E+00
          2   -1    0    0  501    0  0.00000000000E+00  0.00000000000E+00  0.16336452914E+04  0.16336452914E+04  0.00000000000E+00 0. -1.
         -2   -1    0    0    0  501 -0.00000000000E+00 -0.00000000000E+00 -0.31491612663E+02  0.31491612663E+02  0.00000000000E+00 0.  1.
          5    1    1    2  502    0  0.47281205650E+02  0.11492368246E+03  0.51736110999E+03  0.53209299538E+03  0.41800000000E+01 0.  1.
         -5    1    1    2    0  502  0.10674913349E+03  0.37554978155E+01  0.46608948019E+03  0.47819071217E+03  0.41800000000E+01 0.  1.
        -11    1    1    2    0    0 -0.50930456790E+02 -0.95729895606E+02  0.29084899525E+03  0.31040499735E+03  0.00000000000E+00 0.  1.
         11    1    1    2    0    0 -0.10309988235E+03 -0.22949284670E+02  0.32785409327E+03  0.34444819912E+03  0.00000000000E+00 0. -1.
</event>
<event>
 7    1  0.1538147E-010  0.1389219E+03  0.7561462E-02  0.1214787E+00
          1   -1    0    0  501    0  0.00000000000E+00  0.00000000000E+00  0.12599664030E+04  0.12599664030E+04  0.00000000000E+00 0. -1.
         -1   -1    0    0    0  501 -0.00000000000E+00 -0.00000000000E+00 -0.34913901724E+02  0.34913901724E+02  0.00000000000E+00 0.  1.
         25    2    1    2    0    0 -0.10214374556E+03 -0.88482332690E+02  0.10004627304E+04  0.10172645255E+04  0.12505587544E+03 0.  0.
          5    1    3    3  502    0 -0.56540507827E+02 -0.22631435791E+02  0.13580106439E+03  0.14889060548E+03  0.41800000000E+01 0. -1.
         -5    1    3    3    0  502 -0.45603237732E+02 -0.65850896899E+02  0.86466166598E+03  0.86837391999E+03  0.41800000000E+01 0. -1.
        -11    1    1    2    0    0  0.18087359046E+02  0.66291180616E+01 -0.48968169286E+01  0.19876533389E+02  0.00000000000E+00 0.  1.
         11    1    1    2    0    0  0.84056386513E+02  0.81853214628E+02  0.22948658784E+03  0.25773924586E+03  0.00000000000E+00 0. -1.
</event>
<event>
 6    1  0.1538147E-010  0.1209699E+03  0.7561462E-02  0.1241506E+00
          2   -1    0    0  501    0  0.00000000000E+00  0.00000000000E+00  0.38001065588E+03  0.38001065588E+03  0.00000000000E+00 0. -1.
         -2   -1    0    0    0  501 -0.00000000000E+00 -0.00000000000E+00 -0.51474283220E+02  0.51474283220E+02  0.00000000000E+00 0.  1.
          5    1    1    2  502    0 -0.37631879731E+02  0.57368216190E+01  0.17189788036E+02  0.41976549490E+02  0.41800000000E+01 0.  1.
         -5    1    1    2    0  502  0.41737647715E+02 -0.92169892341E+02  0.18714797121E+03  0.21278899365E+03  0.41800000000E+01 0.  1.
        -11    1    1    2    0    0  0.17342083233E+02  0.77033211333E+02  0.38439480516E+02  0.87820596454E+02  0.00000000000E+00 0. -1.
         11    1    1    2    0    0 -0.21447851217E+02  0.93998593885E+01  0.85759132895E+02  0.88898799504E+02  0.00000000000E+00 0.  1.
</event>
<event>
 7    1  0.1538147E-010  0.8964111E+02  0.7561462E-02  0.1303723E+00
          4   -1    0    0  501    0  0.00000000000E+00  0.00000000000E+00  0.26610672859E+03  0.26610672859E+03  0.00000000000E+00 0. -1.
         -4   -1    0    0    0  501 -0.00000000000E+00 -0.00000000000E+00 -0.68603516140E+02  0.68603516140E+02  0.00000000000E+00 0.  1.
         25    2    1    2    0    0  0.48587197410E+02 -0.24648068122E+02  0.34732772512E+02  0.14081156644E+03  0.12511310380E+03 0.  0.
          5    1    3    3  502    0  0.20570685743E+02  0.16743809803E+02 -0.41577274884E+02  0.49493943725E+02  0.41800000000E+01 0. -1.
         -5    1    3    3    0  502  0.28016511667E+02 -0.41391877926E+02  0.76310047396E+02  0.91317622712E+02  0.41800000000E+01 0. -1.
        -11    1    1    2    0    0 -0.71225905812E+01  0.52075003492E+02  0.60206261282E+02  0.79920780669E+02  0.00000000000E+00 0.  1.
         11    1    1    2    0    0 -0.41464606829E+02 -0.27426935369E+02  0.10256417866E+03  0.11397789762E+03  0.00000000000E+00 0. -1.
</event>
<event>
 7    1  0.1538147E-010  0.1017279E+03  0.7561462E-02  0.1276704E+00
          1   -1    0    0  501    0  0.00000000000E+00  0.00000000000E+00  0.17509739518E+04  0.17509739518E+04  0.00000000000E+00 0. -1.
         -1   -1    0    0    0  501 -0.00000000000E+00 -0.00000000000E+00 -0.10085611590E+02  0.10085611590E+02  0.00000000000E+00 0.  1.
         25    2    1    2    0    0  0.43805496933E+02 -0.48350276638E+02  0.12261348000E+04  0.12342270128E+04  0.12511235243E+03 0.  0.
          5    1    3    3  502    0  0.33897049067E+02  0.92330706809E+01  0.10000784017E+04  0.10007040230E+04  0.41800000000E+01 0. -1.
         -5    1    3    3    0  502  0.99084478669E+01 -0.57583347318E+02  0.22605639822E+03  0.23352298988E+03  0.41800000000E+01 0. -1.
        -11    1    1    2    0    0 -0.16533026565E+02  0.71707976257E+02  0.39558954623E+03  0.40237602303E+03  0.00000000000E+00 0.  1.
         11    1    1    2    0    0 -0.27272470369E+02 -0.23357699619E+02  0.11916399402E+03  0.12445652752E+03  0.00000000000E+00 0. -1.
</event>
<event>
 6    1  0.1538147E-010  0.1231954E+03  0.7561462E-02  0.1237917E+00
         -1   -1    0    0    0  501 -0.00000000000E+00  0.00000000000E+00  0.28144488487E+03  0.28144488487E+03  0.00000000000E+00 0.  1.
          1   -1    0    0  501    0  0.00000000000E+00 -0.00000000000E+00 -0.76249854004E+02  0.76249854004E+02  0.00000000000E+00 0. -1.
          5    1    1    2  502    0 -0.86719726264E+02  0.18635269020E+02  0.12547958065E+03  0.15372111675E+03  0.41800000000E+01 0. -1.
         -5    1    1    2    0  502  0.42939395591E+01 -0.58368856404E+02  0.30191173193E+02  0.65987427997E+02  0.41800000000E+01 0. -1.
        -11    1    1    2    0    0  0.64192607453E+02  0.46716940165E+02  0.72722600604E+02  0.10766494317E+03  0.00000000000E+00 0.  1.
         11    1    1    2    0    0  0.18233179252E+02 -0.69833527805E+01 -0.23198323588E+02  0.30321250947E+02  0.00000000000E+00 0. -1.
</event>
<event>
 6    1  0.1538147E-010  0.9285047E+02  0.7561462E-02  0.1296092E+00
         -1   -1    0    0    0  501 -0.00000000000E+00  0.00000000000E+00  0.41452375251E+02  0.41452375251E+02  0.00000000000E+00 0.  1.
          1   -1    0    0  501    0  0.00000000000E+00 -0.00000000000E+00 -0.31218358254E+03  0.31218358254E+03  0.00000000000E+00 0. -1.
          5    1    1    2  502    0  0.46906301258E+02 -0.46078327522E+02 -0.93214258114E+02  0.11414807787E+03  0.41800000000E+01 0. -1.
         -5    1    1    2    0  502 -0.20869909520E+02  0.50145291685E+02 -0.25112486589E+02  0.59985104686E+02  0.41800000000E+01 0. -1.
        -11    1    1    2    0    0 -0.17557209749E+02  0.27515145174E+02 -0.11117549716E+02  0.34480990992E+02  0.00000000000E+00 0.  1.
         11    1    1    2    0    0 -0.84791819889E+01 -0.31582109336E+02 -0.14128691287E+03  0.14502178424E+03  0.00000000000E+00 0. -1.
</event>
<event>
 6    1  0.1538147E-010  0.9926940E+02  0.7561462E-02  0.1281840E+00
          1   -1    0    0  501    0  0.00000000000E+00  0.00000000000E+00  0.76537209595E+02  0.76537209595E+02  0.00000000000E+00 0. -1.
         -1   -1    0    0    0  501 -0.00000000000E+00 -0.00000000000E+00 -0.18761322932E+03  0.18761322932E+03  0.00000000000E+00 0.  1.
          5    1    1    2  502    0 -0.54642027910E+02 -0.16539996347E+02 -0.35350562000E+02  0.67278951590E+02  0.41800000000E+01 0. -1.
         -5    1    1    2    0  502  0.39637808417E+02  0.64608385104E+02 -0.17744999168E+02  0.77959968428E+02  0.41800000000E+01 0. -1.
        -11    1    1    2    0    0  0.25344593611E+02 -0.12343444731E+02 -0.73417467383E+02  0.78643712845E+02  0.00000000000E+00 0.  1.
         11    1    1    2    0    0 -0.10340374117E+02 -0.35724944027E+02  0.15437008827E+02  0.40267806050E+02  0.00000000000E+00 0. -1.
</event>
<event>
 7    1  0.1538147E-010  0.1690441E+03  0.7561462E-02  0.1178848E+00
          2   -1    0    0  501    0  0.00000000000E+00  0.00000000000E+00  0.10916684763E+04  0.10916684763E+04  0.00000000000E+00 0. -1.
         -2   -1    0    0    0  501 -0.00000000000E+00 -0.00000000000E+00 -0.34457255395E+02  0.34457255395E+02  0.00000000000E+00 0.  1.
         25    2    1    2    0    0  0.56420177659E+02  0.14335942633E+03  0.64132989285E+03  0.67133814476E+03  0.12512278602E+03 0.  0.
          5    1    3    3  502    0  0.32082015864E+02  0.98502679669E+02  0.18440506909E+03  0.21155315065E+03  0.41800000000E+01 0.  1.
         -5    1    3    3    0  502  0.24338161795E+02  0.44856746663E+02  0.45692482376E+03  0.45978499411E+03  0.41800000000E+01 0.  1.
        -11    1    1    2    0    0 -0.84579293342E+02 -0.11884186747E+03  0.31239781148E+03  0.34477447548E+03  0.00000000000E+00 0.  1.
         11    1    1    2    0    0  0.28159115683E+02 -0.24517558859E+02  0.10348351657E+03  0.11001311144E+03  0.00000000000E+00 0. -1.
</event>
<event>
 7    1  0.1538147E-010  0.8493385E+02  0.7561462E-02  0.1315606E+00
         -1   -1    0    0    0  501 -0.00000000000E+00  0.00000000000E+00  0.69848362945E+02  0.69848362945E+02  0.00000000000E+00 0.  1.
          1   -1    0    0  501    0  0.00000000000E+00 -0.00000000000E+00 -0.19216020386E+03  0.19216020386E+03  0.00000000000E+00 0. -1.
         25    2    1    2    0    0  0.38891225847E+02  0.92050611775E+01 -0.73629709490E+02  0.15059493660E+03  0.12514088146E+03 0.  0.
          5    1    3    3  502    0  0.40136899804E+02 -0.53053031606E+02 -0.23960483247E+02  0.70831998743E+02  0.41800000000E+01 0. -1.
         -5    1    3    3    0  502 -0.12456739571E+01  0.62258092784E+02 -0.49669226243E+02  0.79762937861E+02  0.41800000000E+01 0. -1.
        -11    1    1    2    0    0 -0.10205634326E+02 -0.62402630926E+01  0.27482049219E+02  0.29972635599E+02  0.00000000000E+00 0.  1.
         11    1    1    2    0    0 -0.28685591521E+02 -0.29647980848E+01 -0.76164180643E+02  0.81440994601E+02  0.00000000000E+00 0. -1.
</event>
<event>
 7    1  0.1538147E-010  0.2057426E+03  0.7561462E-02  0.1144982E+00
          2   -1    0    0  501    0  0.00000000000E+00  0.00000000000E+00  0.16182555954E+04  0.16182555954E+04  0.00000000000E+00 0. -1.
         -2   -1    0    0    0  501 -0.00000000000E+00 -0.00000000000E+00 -0.29292664205E+02  0.29292664205E+02  0.00000000000E+00 0.  1.
         25    2    1    2    0    0 -0.14414208063E+03  0.10479002483E+03  0.58989363785E+03  0.62879812663E+03  0.12511870910E+03 0.  0.
          5    1    3    3  502    0 -0.95795561843E+02  0.12807516693E+03  0.48806477164E+03  0.51361924786E+03  0.41800000000E+01 0. -1.
         -5    1    3    3    0  502 -0.48346518786E+02 -0.23285142108E+02  0.10182886621E+03  0.11517887877E+03  0.41800000000E+01 0. -1.
        -11    1    1    2    0    0  0.83074394735E+02 -0.83138440090E+01  0.48709251893E+03  0.49419590959E+03  0.00000000000E+00 0. -1.
         11    1    1    2    0    0  0.61067685894E+02 -0.96476180817E+02  0.51197677442E+03  0.52455422338E+03  0.00000000000E+00 0.  1.
</event>
<event>
 6    1  0.1538147E-010  0.3481652E+03  0.7561462E-02  0.1063371E+00
         -3   -1    0    0    0  501 -0.00000000000E+00  0.00000000000E+00  0.58356856197E+03  0.58356856197E+03  0.00000000000E+00 0.  1.
          3   -1    0    0  501    0  0.00000000000E+00 -0.00000000000E+00 -0.25598241916E+03  0.25598241916E+03  0.00000000000E+00 0. -1.
          5    1    1    2  502    0  0.31362195794E+02 -0.12586483051E+03  0.19057194320E+03  0.23056600100E+03  0.41800000000E+01 0. -1.
         -5    1    1    2    0  502  0.11874143450E+03 -0.18565326273E+03  0.12142112419E+03  0.25164900960E+03  0.41800000000E+01 0. -1.
        -11    1    1    2    0    0 -0.11404192242E+03  0.25082581881E+03 -0.23680023367E+02  0.27654998636E+03  0.00000000000E+00 0. -1.
         11    1    1    2    0    0 -0.36061707869E+02  0.60692274439E+02  0.39273098778E+02  0.80785984172E+02  0.00000000000E+00 0.  1.
</event>
<event>
 7    1  0.1538147E-010  0.1396546E+03  0.7561462E-02  0.1213795E+00
          1   -1    0    0  501    0  0.00000000000E+00  0.00000000000E+00  0.31684592549E+02  0.31684592549E+02  0.00000000000E+00 0. -1.
         -1   -1    0    0    0  501 -0.00000000000E+00 -0.00000000000E+00 -0.65563015993E+03  0.65563015993E+03  0.00000000000E+00 0.  1.
         25    2    1    2    0    0  0.74994486200E+02 -0.59322760245E+02 -0.30863040862E+03  0.34646409838E+03  0.12506510103E+03 0.  0.
          5    1    3    3  502    0 -0.34934808127E+02 -0.20015952950E+02 -0.73340266327E+02  0.83769602221E+02  0.41800000000E+01 0.  1.
         -5    1    3    3    0  502  0.10992929433E+03 -0.39306807295E+02 -0.23529014230E+03  0.26269449616E+03  0.41800000000E+01 0.  1.
        -11    1    1    2    0    0 -0.64048071421E+01  0.52715072791E+02 -0.83018765133E+02  0.98549560212E+02  0.00000000000E+00 0. -1.
         11    1    1    2    0    0 -0.68589679057E+02  0.66076874537E+01 -0.23229639362E+03  0.24230109388E+03  0.00000000000E+00 0.  1.
</event>
<event>
 7    1  0.1538147E-010  0.1849470E+03  0.7561462E-02  0.1163099E+00
         -2   -1    0    0    0  501 -0.00000000000E+00  0.00000000000E+00  0.88765347420E+03  0.88765347420E+03  0.00000000000E+00 0.  1.
          2   -1    0    0  501    0  0.00000000000E+00 -0.00000000000E+00 -0.43293710105E+02  0.43293710105E+02  0.00000000000E+00 0. -1.
         25    2    1    2    0    0  0.20736526306E+02  0.16148801372E+03  0.36041105913E+03  0.41478472788E+03  0.12506740918E+03 0.  0.
          5    1    3    3  502    0  0.65426560170E+02  0.85476137541E+02  0.13504417328E+03  0.17274607377E+03  0.41800000000E+01 0.  1.
         -5    1    3    3    0  502 -0.44690033864E+02  0.76011876182E+02  0.22536688585E+03  0.24203865411E+03  0.41800000000E+01 0.  1.
        -11    1    1    2    0    0  0.69472606153E+01 -0.13627291437E+03  0.42461597398E+03  0.44600145401E+03  0.00000000000E+00 0.  1.
         11    1    1    2    0    0 -0.27683786921E+02 -0.25215099353E+02  0.59332730977E+02  0.70161002408E+02  0.00000000000E+00 0. -1.
</event>
<event>
 7    1  0.1538147E-010  0.1023990E+03  0.7561462E-02  0.1275331E+00
         -2   -1    0    0    0  501 -0.00000000000E+00  0.00000000000E+00  0.39960146919E+02  0.39960146919E+02  0.00000000000E+00 0. -1.
          2   -1    0    0  501    0  0.00000000000E+00 -0.00000000000E+00 -0.48313602788E+03  0.48313602788E+03  0.00000000000E+00 0.  1.
         25    2    1    2    0    0  0.76567119903E+02  0.23702578294E+02 -0.29548661753E+03  0.33074209623E+03  0.12511457555E+03 0.  0.
          5    1    3    3  502    0  0.70276235169E+02  0.36791235664E+02 -0.73439079219E+02  0.10818093643E+03  0.41800000000E+01 0.  1.
         -5    1    3    3    0  502  0.62908847340E+01 -0.13088657370E+02 -0.22204753831E+03  0.22256115980E+03  0.41800000000E+01 0.  1.
        -11    1    1    2    0    0  0.49161495989E+01 -0.28218700637E+02 -0.66488861741E+01  0.29405293399E+02  0.00000000000E+00 0. -1.
         11    1    1    2    0    0 -0.81483269502E+02  0.45161223431E+01 -0.14104037726E+03  0.16294878517E+03  0.00000000000E+00 0.  1.
</event>
<event>
 7    1  0.1538147E-010  0.1314882E+03  0.7561462E-02  0.1225264E+00
          2   -1    0    0  501    0  0.00000000000E+00  0.00000000000E+00  0.12742253031E+04  0.12742253031E+04  0.00000000000E+00 0.  1.
         -2   -1    0    0    0  501 -0.00000000000E+00 -0.00000000000E+00 -0.17732706276E+02  0.17732706276E+02  0.00000000000E+00 0. -1.
         25    2    1    2    0    0  0.41710501120E+02  0.94415136090E+02  0.77094937694E+03  0.78781544406E+03  0.12504498498E+03 0.  0.
          5    1    3    3  502    0  0.63668096438E+02  0.64846105881E+02  0.25875074188E+03  0.27427734645E+03  0.41800000000E+01 0.  1.
         -5    1    3    3    0  502 -0.21957595318E+02  0.29569030208E+02  0.51219863506E+03  0.51353809761E+03  0.41800000000E+01 0.  1.
        -11    1    1    2    0    0  0.26070376964E+02 -0.13419366869E+02  0.12870325644E+03  0.13200103099E+03  0.00000000000E+00 0.  1.
         11    1    1    2    0    0 -0.67780878084E+02 -0.80995769221E+02  0.35683996344E+03  0.37214153433E+03  0.00000000000E+00 0. -1.
</event>
<event>
 7    1  0.1538147E-010  0.1702225E+03  0.7561462E-02  0.1177616E+00
          1   -1    0    0  501    0  0.00000000000E+00  0.00000000000E+00  0.15056378776E+03  0.15056378776E+03  0.00000000000E+00 0. -1.
         -1   -1    0    0    0  501 -0.00000000000E+00 -0.00000000000E+00 -0.21223939578E+03  0.21223939578E+03  0.00000000000E+00 0.  1.
         25    2    1    2    0    0  0.90656523982E+02 -0.10870045345E+03 -0.33328880071E+02  0.19182764616E+03  0.12511050181E+03 0.  0.
          5    1    3    3  502    0  0.76400205391E+02  0.22210282424E+01 -0.20061942016E+02  0.79132030605E+02  0.41800000000E+01 0. -1.
         -5    1    3    3    0  502  0.14256318592E+02 -0.11092148169E+03 -0.13266938054E+02  0.11269561555E+03  0.41800000000E+01 0. -1.
        -11    1    1    2    0    0  0.78175833316E+00  0.33740123407E+02 -0.39802551803E+02  0.52184769843E+02  0.00000000000E+00 0.  1.
         11    1    1    2    0    0 -0.91438282315E+02  0.74960330039E+02  0.11455823845E+02  0.11879076754E+03  0.00000000000E+00 0. -1.
</event>
<event>
 7    1  0.1538147E-010  0.1160833E+03  0.7561462E-02  0.1249702E+00
         -2   -1    0    0    0  501 -0.00000000000E+00  0.00000000000E+00  0.11017468977E+03  0.11017468977E+03  0.00000000000E+00 0.  1.
          2   -1    0    0  501    0  0.00000000000E+00 -0.00000000000E+00 -0.24435535338E+03  0.24435535338E+03  0.00000000000E+00 0. -1.
         25    2    1    2    0    0  0.45687135644E+02  0.99698931562E+02 -0.13157328054E+03  0.21213332572E+03  0.12514722694E+03 0.  0.
          5    1    3    3  502    0  0.39576686793E+02  0.25607094104E+02 -0.12924470444E+03  0.13763612691E+03  0.41800000000E+01 0.  1.
         -5    1    3    3    0  502  0.61104488509E+01  0.74091837458E+02 -0.23285760955E+01  0.74497198805E+02  0.41800000000E+01 0.  1.
        -11    1    1    2    0    0 -0.46954644747E+01 -0.22401335182E+02  0.39226536216E+02  0.45415727982E+02  0.00000000000E+00 0.  1.
         11    1    1    2    0    0 -0.40991671169E+02 -0.77297596380E+02 -0.41833919290E+02  0.96980989449E+02  0.00000000000E+00 0. -1.
</event>
<event>
 7    1  0.1538147E-010  0.1156516E+03  0.7561462E-02  0.1250448E+00
         -1   -1    0    0    0  501 -0.00000000000E+00  0.00000000000E+00  0.55075999154E+03  0.55075999154E+03  0.00000000000E+00 0.  1.
          1   -1    0    0  501    0  0.00000000000E+00 -0.00000000000E+00 -0.38027658813E+02  0.38027658813E+02  0.00000000000E+00 0. -1.
         25    2    1    2    0    0 -0.14465522531E+02  0.69634842550E+02  0.41038648341E+03  0.43488885678E+03  0.12511190731E+03 0.  0.
          5    1    3    3  502    0 -0.64514228473E+02  0.22512708586E+02  0.13959415752E+03  0.15547639350E+03  0.41800000000E+01 0. -1.
         -5    1    3    3    0  502  0.50048705942E+02  0.47122133964E+02  0.27079232589E+03  0.27941246328E+03  0.41800000000E+01 0. -1.
        -11    1    1    2    0    0 -0.22779387666E+02 -0.41352571102E+02  0.70351559848E+01  0.47732892840E+02  0.00000000000E+00 0. -1.
         11    1    1    2    0    0  0.37244910197E+02 -0.28282271448E+02  0.95310693337E+02  0.10616590073E+03  0.00000000000E+00 0.  1.
</event>
<event>
 7    1  0.1538147E-010  0.8122823E+02  0.7561462E-02  0.1325602E+00
          1   -1    0    0  501    0  0.00000000000E+00  0.00000000000E+00  0.93190120855E+02  0.93190120855E+02  0.00000000000E+00 0. -1.
         -1   -1    0    0    0  501 -0.00000000000E+00 -0.00000000000E+00 -0.14015127977E+03  0.14015127977E+03  0.00000000000E+00 0.  1.
         25    2    1    2    0    0  0.22998093131E+02 -0.29060462247E+02 -0.14926981135E+02  0.13135029900E+03  0.12512659002E+03 0.  0.
          5    1    3    3  502    0 -0.12854316578E+02 -0.39092709121E+02  0.44718379842E+02  0.60915345003E+02  0.41800000000E+01 0. -1.
         -5    1    3    3    0  502  0.35852409709E+02  0.10032246874E+02 -0.59645360977E+02  0.70434954002E+02  0.41800000000E+01 0. -1.
        -11    1    1    2    0    0  0.23064542338E+02  0.29648035818E+02 -0.40407237165E+02  0.55169955197E+02  0.00000000000E+00 0.  1.
         11    1    1    2    0    0 -0.46062635469E+02 -0.58757357058E+00  0.83730593827E+01  0.46821146424E+02  0.00000000000E+00 0. -1.
</event>
<event>
 7    1  0.1538147E-010  0.9455558E+02  0.7561462E-02  0.1292180E+00
         -2   -1    0    0    0  501 -0.00000000000E+00  0.00000000000E+00  0.48272240079E+03  0.48272240079E+03  0.00000000000E+00 0.  1.
          2   -1    0    0  501    0  0.00000000000E+00 -0.00000000000E+00 -0.26505783740E+02  0.26505783740E+02  0.00000000000E+00 0. -1.
         25    2    1    2    0    0  0.22987052129E+02  0.80699145904E+01  0.20347258111E+03  0.24007709212E+03  0.12506954388E+03 0.  0.
          5    1    3    3  502    0  0.31556751326E+02 -0.47868307264E+02  0.49083711702E+02  0.75590254326E+02  0.41800000000E+01 0. -1.
         -5    1    3    3    0  502 -0.85696991972E+01  0.55938221854E+02  0.15438886941E+03  0.16448683779E+03  0.41800000000E+01 0. -1.
        -11    1    1    2    0    0 -0.41360670330E+02 -0.26286041805E+02  0.22849325552E+03  0.23368959939E+03  0.00000000000E+00 0.  1.
         11    1    1    2    0    0  0.18373618202E+02  0.18216127214E+02  0.24250780407E+02  0.35461493015E+02  0.00000000000E+00 0. -1.
</event>
<event>
 7    1  0.1538147E-010  0.1075029E+03  0.7561462E-02  0.1265265E+00
         -2   -1    0    0    0  501 -0.00000000000E+00  0.00000000000E+00  0.53808178039E+02  0.53808178039E+02  0.00000000000E+00 0. -1.
          2   -1    0    0  501    0  0.00000000000E+00 -0.00000000000E+00 -0.34793743806E+03  0.34793743806E+03  0.00000000000E+00 0.  1.
         25    2    1    2    0    0  0.55975200146E+00  0.35477638489E+02 -0.27947110464E+03  0.30824821291E+03  0.12511549175E+03 0.  0.
          5    1    3    3  502    0 -0.58211721294E+02  0.35523712213E+02 -0.18138454446E+03  0.19382560201E+03  0.41800000000E+01 0.  1.
         -5    1    3    3    0  502  0.58771473295E+02 -0.46073723612E-01 -0.98086560180E+02  0.11442261090E+03  0.41800000000E+01 0.  1.
        -11    1    1    2    0    0  0.35566650686E+02  0.21098616146E+01  0.82191589282E+01  0.36564911193E+02  0.00000000000E+00 0. -1.
         11    1    1    2    0    0 -0.36126402688E+02 -0.37587500104E+02 -0.22877314304E+02  0.56932491997E+02  0.00000000000E+00 0.  1.
</event>
<event>
 7    1  0.1538147E-010  0.6268692E+02  0.7561462E-02  0.1386890E+00
         -2   -1    0    0    0  501 -0.00000000000E+00  0.00000000000E+00  0.45779007117E+02  0.45779007117E+02  0.00000000000E+00 0.  1.
          2   -1    0    0  501    0  0.00000000000E+00 -0.00000000000E+00 -0.27992841555E+03  0.27992841555E+03  0.00000000000E+00 0. -1.
         25    2    1    2    0    0 -0.22755501224E+02  0.23401418068E+02 -0.12338676967E+03  0.17868986119E+03  0.12506131440E+03 0.  0.
          5    1    3    3  502    0 -0.18581524336E-01 -0.97382018003E+00  0.25602649425E+02  0.25959906175E+02  0.41800000000E+01 0. -1.
         -5    1    3    3    0  502 -0.22736919700E+02  0.24375238248E+02 -0.14898941909E+03  0.15272995501E+03  0.41800000000E+01 0. -1.
        -11    1    1    2    0    0  0.48800335850E+01  0.30402527959E+02 -0.11820275579E+02  0.32982530965E+02  0.00000000000E+00 0.  1.
         11    1    1    2    0    0  0.17875467639E+02 -0.53803946027E+02 -0.98942363185E+02  0.11403503051E+03  0.00000000000E+00 0. -1.
</event>
<event>
 7    1  0.1538147E-010  0.1436936E+03  0.7561462E-02  0.1208444E+00
         -2   -1    0    0    0  501 -0.00000000000E+00  0.00000000000E+00  0.13252459392E+03  0.13252459392E+03  0.00000000000E+00 0.  1.
          2   -1    0    0  501    0  0.00000000000E+00 -0.00000000000E+00 -0.23534893517E+03  0.23534893517E+03  0.00000000000E+00 0. -1.
         25    2    1    2    0    0  0.10811527575E+03  0.84208741885E+02 -0.80388799613E+02  0.20219855171E+03  0.12506746240E+03 0.  0.
          5    1    3    3  502    0  0.11156254378E+03  0.63430965225E+02 -0.10760679604E+03  0.16753024646E+03  0.41800000000E+01 0. -1.
         -5    1    3    3    0  502 -0.34472680329E+01  0.20777776660E+02  0.27217996426E+02  0.34668305255E+02  0.41800000000E+01 0. -1.
        -11    1    1    2    0    0 -0.68520680886E+02 -0.46305989914E+02  0.31764444886E+02  0.88590678798E+02  0.00000000000E+00 0.  1.
         11    1    1    2    0    0 -0.39594594860E+02 -0.37902751971E+02 -0.54199986516E+02  0.77084298579E+02  0.00000000000E+00 0. -1.
</event>
<event>
 7    1  0.1538147E-010  0.1274386E+03  0.7561462E-02  0.1231307E+00
          1   -1    0    0  501    0  0.00000000000E+00  0.00000000000E+00  0.24252356731E+03  0.24252356731E+03  0.00000000000E+00 0. -1.
         -1   -1    0    0    0  501 -0.00000000000E+00 -0.00000000000E+00 -0.89141916105E+02  0.89141916105E+02  0.00000000000E+00 0.  1.
         25    2    1    2    0    0 -0.80765154993E+02  0.18954104850E+01  0.17892008142E+02  0.15000261268E+03  0.12511617407E+03 0.  0.
          5    1    3    3  502    0 -0.10704169172E+03  0.75696548416E+01  0.40354767521E+02  0.11472228686E+03  0.41800000000E+01 0.  1.
         -5    1    3    3    0  502  0.26276536725E+02 -0.56742443566E+01 -0.22462759379E+02  0.35280325824E+02  0.41800000000E+01 0.  1.
        -11    1    1    2    0    0 -0.15349521219E+02 -0.17092186316E+02  0.18516822900E+02  0.29506327542E+02  0.00000000000E+00 0. -1.
         11    1    1    2    0    0  0.96114676212E+02  0.15196775831E+02  0.11697282016E+03  0.15215654319E+03  0.00000000000E+00 0.  1.
</event>
<event>
 7    1  0.1538147E-010  0.1019315E+03  0.7561462E-02  0.1276286E+00
          2   -1    0    0  501    0  0.00000000000E+00  0.00000000000E+00  0.51723140196E+02  0.51723140196E+02  0.00000000000E+00 0. -1.
         -2   -1    0    0    0  501 -0.00000000000E+00 -0.00000000000E+00 -0.36418222293E+03  0.36418222293E+03  0.00000000000E+00 0.  1.
         25    2    1    2    0    0  0.57457087349E+02 -0.12481878783E+02 -0.78924087300E+02  0.15918154003E+03  0.12511049894E+03 0.  0.
          5    1    3    3  502    0  0.19779364287E+02  0.33318745175E+02 -0.90568801063E+02  0.98597881102E+02  0.41800000000E+01 0.  1.
         -5    1    3    3    0  502  0.37677723061E+02 -0.45800623958E+02  0.11644713763E+02  0.60583658924E+02  0.41800000000E+01 0.  1.
        -11    1    1    2    0    0  0.22861197712E+02 -0.46066324886E+01 -0.69025673389E+02  0.72858760699E+02  0.00000000000E+00 0. -1.
         11    1    1    2    0    0 -0.80318285061E+02  0.17088511271E+02 -0.16450932204E+03  0.18386506240E+03  0.00000000000E+00 0.  1.
</event>
<event>
 7    1  0.1538147E-010  0.1347141E+03  0.7561462E-02  0.1220624E+00
         -1   -1    0    0    0  501 -0.00000000000E+00  0.00000000000E+00  0.29615088636E+02  0.29615088636E+02  0.00000000000E+00 0. -1.
          1   -1    0    0  501    0  0.00000000000E+00 -0.00000000000E+00 -0.81176172690E+03  0.81176172690E+03  0.00000000000E+00 0.  1.
         25    2    1    2    0    0 -0.86199265176E+02  0.61760565984E+02 -0.33590335016E+03  0.37380425207E+03  0.12511545626E+03 0.  0.
          5    1    3    3  502    0 -0.66974570495E+02  0.87077431294E+02 -0.31930538516E+03  0.33770027173E+03  0.41800000000E+01 0. -1.
         -5    1    3    3    0  502 -0.19224694681E+02 -0.25316865310E+02 -0.16597964995E+02  0.36103980344E+02  0.41800000000E+01 0. -1.
        -11    1    1    2    0    0  0.15817242359E+02 -0.54414747323E+02 -0.29756731466E+03  0.30291493300E+03  0.00000000000E+00 0.  1.
         11    1    1    2    0    0  0.70382022817E+02 -0.73458186616E+01 -0.14867597345E+03  0.16465763046E+03  0.00000000000E+00 0. -1.
</event>
<event>
 7    1  0.1538147E-010  0.9988327E+02  0.7561462E-02  0.1280542E+00
         -2   -1    0    0    0  501 -0.00000000000E+00  0.00000000000E+00  0.55535489861E+02  0.55535489861E+02  0.00000000000E+00 0.  1.
          2   -1    0    0  501    0  0.00000000000E+00 -0.00000000000E+00 -0.22190085075E+03  0.22190085075E+03  0.00000000000E+00 0. -1.
         25    2    1    2    0    0  0.15481130823E+02 -0.65436653911E+01 -0.10477458943E+03  0.16400833516E+03  0.12505412606E+03 0.  0.
          5    1    3    3  502    0 -0.49453654685E+02  0.85244688244E+01 -0.15846582447E+02  0.52791259747E+02  0.41800000000E+01 0.  1.
         -5    1    3    3    0  502  0.64934785508E+02 -0.15068134216E+02 -0.88928006986E+02  0.11121707542E+03  0.41800000000E+01 0.  1.
        -11    1    1    2    0    0 -0.70165180853E+01  0.43827742071E+02 -0.43574754215E+01  0.44599216284E+02  0.00000000000E+00 0.  1.
         11    1    1    2    0    0 -0.84646127380E+01 -0.37284076680E+02 -0.57233296029E+02  0.68828789159E+02  0.00000000000E+00 0. -1.
</event>
<event>
 6    1  0.1538147E-010  0.7964413E+02  0.7561462E-02  0.1330064E+00
         -1   -1    0    0    0  501 -0.00000000000E+00  0.00000000000E+00  0.20793298647E+03  0.20793298647E+03  0.00000000000E+00 0.  1.
          1   -1    0    0  501    0  0.00000000000E+00 -0.00000000000E+00 -0.63972122096E+02  0.63972122096E+02  0.00000000000E+00 0. -1.
          5    1    1    2  502    0 -0.42216068276E+02  0.19349442738E+02 -0.34945253505E+02  0.58268692258E+02  0.41800000000E+01 0. -1.
         -5    1    1    2    0  502  0.29369840191E+02  0.24198699918E+01  0.65715341660E+02  0.72141678752E+02  0.41800000000E+01 0. -1.
        -11    1    1    2    0    0 -0.14150859311E+02  0.25096685001E+02  0.25549322448E+02  0.38507899123E+02  0.00000000000E+00 0. -1.
         11    1    1    2    0    0  0.26997087396E+02 -0.46865997731E+02  0.87641453768E+02  0.10298683843E+03  0.00000000000E+00 0.  1.
</event>
<event>
 7    1  0.1538147E-010  0.8675026E+02  0.7561462E-02  0.1310918E+00
         -2   -1    0    0    0  501 -0.00000000000E+00  0.00000000000E+00  0.50131869948E+02  0.50131869948E+02  0.00000000000E+00 0.  1.
          2   -1    0    0  501    0  0.00000000000E+00 -0.00000000000E+00 -0.45593927742E+03  0.45593927742E+03  0.00000000000E+00 0. -1.
         25    2    1    2    0    0 -0.25511830683E+02  0.80720910183E+01 -0.38903858191E+03  0.40953632222E+03  0.12511182536E+03 0.  0.
          5    1    3    3  502    0  0.33930519263E+02  0.83608136900E+00 -0.30126646902E+03  0.30320114928E+03  0.41800000000E+01 0. -1.
         -5    1    3    3    0  502 -0.59442349946E+02  0.72360096493E+01 -0.87772112889E+02  0.10633517294E+03  0.41800000000E+01 0. -1.
        -11    1    1    2    0    0  0.27152490130E+02 -0.39430524603E+02 -0.35832622131E+02  0.59799672236E+02  0.00000000000E+00 0. -1.
         11    1    1    2    0    0 -0.16406594473E+01  0.31358433584E+02  0.19063796565E+02  0.36735152916E+02  0.00000000000E+00 0.  1.
</event>
<event>
 6    1  0.1538147E-010  0.4761607E+02  0.7561462E-02  0.1458641E+00
         -1   -1    0    0    0  501 -0.00000000000E+00  0.00000000000E+00  0.12247174673E+03  0.12247174673E+03  0.00000000000E+00 0.  1.
          1   -1    0    0  501    0  0.00000000000E+00 -0.00000000000E+00 -0.12261502069E+03  0.12261502069E+03  0.00000000000E+00 0. -1.
          5    1    1    2  502    0 -0.15205392524E+02  0.28555430165E+02 -0.41324241390E+02  0.52647714862E+02  0.41800000000E+01 0. -1.
         -5    1    1    2    0  502  0.93472544571E+01 -0.89690325714E+01  0.78608530898E+02  0.79778369507E+02  0.41800000000E+01 0. -1.
        -11    1    1    2    0    0 -0.15806664832E+02 -0.22120080879E+02  0.30769735934E+02  0.41060020466E+02  0.00000000000E+00 0.  1.
         11    1    1    2    0    0  0.21664802899E+02  0.25336832852E+01 -0.68197299402E+02  0.71600662577E+02  0.00000000000E+00 0. -1.
</event>
<event>
 7    1  0.1538147E-010  0.2068591E+03  0.7561462E-02  0.1144078E+00
          1   -1    0    0  501    0  0.00000000000E+00  0.00000000000E+00  0.15396436990E+03  0.15396436990E+03  0.00000000000E+00 0. -1.
         -1   -1    0    0    0  501 -0.00000000000E+00 -0.00000000000E+00 -0.31261026174E+03  0.31261026174E+03  0.00000000000E+00 0.  1.
         25    2    1    2    0    0 -0.18024392980E+03  0.59426288393E+02 -0.94845111097E+02  0.24631105256E+03  0.12511667169E+03 0.  0.
          5    1    3    3  502    0  0.63078761105E+00  0.19800910853E+02 -0.52572526556E+02  0.56336639162E+02  0.41800000000E+01 0. -1.
         -5    1    3    3    0  502 -0.18087471741E+03  0.39625377540E+02 -0.42272584541E+02  0.18997441340E+03  0.41800000000E+01 0. -1.
        -11    1    1    2    0    0  0.94879122100E+02 -0.75674880492E+02 -0.53937710593E+02  0.13280817735E+03  0.00000000000E+00 0.  1.
         11    1    1    2    0    0  0.85364807698E+02  0.16248592099E+02 -0.98630701560E+01  0.87455401728E+02  0.00000000000E+00 0. -1.
</event>
<event>
 6    1  0.1538147E-010  0.1829714E+03  0.7561462E-02  0.1164958E+00
          1   -1    0    0  501    0  0.00000000000E+00  0.00000000000E+00  0.75563464560E+02  0.75563464560E+02  0.00000000000E+00 0. -1.
         -1   -1    0    0    0  501 -0.00000000000E+00 -0.00000000000E+00 -0.48909062223E+03  0.48909062223E+03  0.00000000000E+00 0.  1.
          5    1    1    2  502    0  0.36390548004E+02 -0.10886092133E+03 -0.10157634806E+03  0.15333035923E+03  0.41800000000E+01 0. -1.
         -5    1    1    2    0  502  0.75781973089E+02  0.99407651740E+01 -0.40317116791E+02  0.86513979008E+02  0.41800000000E+01 0. -1.
        -11    1    1    2    0    0 -0.97634810897E+02  0.27189518964E+02 -0.18873396745E+03  0.21422496752E+03  0.00000000000E+00 0.  1.
         11    1    1    2    0    0 -0.14537710197E+02  0.71730637189E+02 -0.82899725378E+02  0.11058478104E+03  0.00000000000E+00 0. -1.
</event>
<event>
 7    1  0.1538147E-010  0.9240110E+02  0.7561462E-02  0.1297139E+00
         -2   -1    0    0    0  501 -0.00000000000E+00  0.00000000000E+00  0.20565659620E+02  0.20565659620E+02  0.00000000000E+00 0. -1.
          2   -1    0    0  501    0  0.00000000000E+00 -0.00000000000E+00 -0.63748665809E+03  0.63748665809E+03  0.00000000000E+00 0.  1.
         25    2    1    2    0    0  0.17092374271E+02  0.26151879256E+02 -0.36953771845E+03  0.39139336098E+03  0.12511821456E+03 0.  0.
          5    1    3    3  502    0  0.35870700408E+02 -0.16137506314E+02 -0.32376906120E+03  0.32617633827E+03  0.41800000000E+01 0.  1.
         -5    1    3    3    0  502 -0.18778326136E+02  0.42289385570E+02 -0.45768657252E+02  0.65217022709E+02  0.41800000000E+01 0.  1.
        -11    1    1    2    0    0 -0.12612936779E+02  0.35138574454E+02 -0.10983658532E+03  0.11600810775E+03  0.00000000000E+00 0.  1.
         11    1    1    2    0    0 -0.44794374925E+01 -0.61290453710E+02 -0.13754669470E+03  0.15065084898E+03  0.00000000000E+00 0. -1.
</event>
<event>
 7    1  0.1538147E-010  0.1193061E+03  0.7561462E-02  0.1244246E+00
          2   -1    0    0  501    0  0.00000000000E+00  0.00000000000E+00  0.69921491337E+02  0.69921491337E+02  0.00000000000E+00 0.  1.
         -2   -1    0    0    0  501 -0.00000000000E+00 -0.00000000000E+00 -0.22785932498E+03  0.22785932498E+03  0.00000000000E+00 0. -1.
         25    2    1    2    0    0  0.41498833269E+02 -0.40157518514E+02 -0.12123448340E+03  0.18350576360E+03  0.12506712539E+03 0.  0.
          5    1    3    3  502    0 -0.30178770748E+02 -0.51985384619E+02 -0.79046578192E+02  0.99393522634E+02  0.41800000000E+01 0. -1.
         -5    1    3    3    0  502  0.71677604017E+02  0.11827866105E+02 -0.42187905208E+02  0.84112240965E+02  0.41800000000E+01 0. -1.
        -11    1    1    2    0    0 -0.63880012746E+02  0.52129991499E+01 -0.34335568009E+02  0.72710127349E+02  0.00000000000E+00 0.  1.
         11    1    1    2    0    0  0.22381179477E+02  0.34944519365E+02 -0.23677822369E+01  0.41564925371E+02  0.00000000000E+00 0. -1.
</event>
<event>
 7    1  0.1538147E-010  0.1253252E+03  0.7561462E-02  0.1234562E+00
          2   -1    0    0  501    0  0.00000000000E+00  0.00000000000E+00  0.98586516817E+03  0.98586516817E+03  0.00000000000E+00 0.  1.
         -2   -1    0    0    0  501 -0.00000000000E+00 -0.00000000000E+00 -0.18320493354E+02  0.18320493354E+02  0.00000000000E+00 0. -1.
         25    2    1    2    0    0 -0.60870779369E+02  0.50675692601E+02  0.50423630606E+03  0.52551776746E+03  0.12506555870E+03 0.  0.
          5    1    3    3  502    0  0.33099909969E+02  0.17391414773E+02  0.24261767889E+03  0.24551756731E+03  0.41800000000E+01 0. -1.
         -5    1    3    3    0  502 -0.93970689338E+02  0.33284277828E+02  0.26161862716E+03  0.28000020015E+03  0.41800000000E+01 0. -1.
        -11    1    1    2    0    0 -0.14355651692E+02 -0.32979107685E+02  0.80996203762E+02  0.88623311285E+02  0.00000000000E+00 0. -1.
         11    1    1    2    0    0  0.75226431061E+02 -0.17696584916E+02  0.38231216500E+03  0.39004458278E+03  0.00000000000E+00 0.  1.
</event>
<event>
 7    1  0.1538147E-010  0.1058153E+03  0.7561462E-02  0.1268522E+00
         -1   -1    0    0    0  501 -0.00000000000E+00  0.00000000000E+00  0.46117240335E+02  0.46117240335E+02  0.00000000000E+00 0.  1.
          1   -1    0    0  501    0  0.00000000000E+00 -0.00000000000E+00 -0.40581669482E+03  0.40581669482E+03  0.00000000000E+00 0. -1.
         25    2    1    2    0    0 -0.57735067142E+02  0.52150313291E+02 -0.14684055651E+03  0.20803128772E+03  0.12514741100E+03 0.  0.
          5    1    3    3  502    0 -0.79866357791E+02  0.28883802086E+02 -0.15302596839E+03  0.17506378418E+03  0.41800000000E+01 0. -1.
         -5    1    3    3    0  502  0.22131290649E+02  0.23266511205E+02  0.61854118804E+01  0.32967503539E+02  0.41800000000E+01 0. -1.
        -11    1    1    2    0    0  0.20412075155E+02 -0.53093441078E+02 -0.46687241474E+02  0.73588482890E+02  0.00000000000E+00 0.  1.
         11    1    1    2    0    0  0.37322991987E+02  0.94312778738E+00 -0.16617165650E+03  0.17031416455E+03  0.00000000000E+00 0. -1.
</event>
<event>
 6    1  0.1538147E-010  0.1023523E+03  0.7561462E-02  0.1275426E+00
          2   -1    0    0  501    0  0.00000000000E+00  0.00000000000E+00  0.11736628001E+03  0.11736628001E+03  0.00000000000E+00 0.  1.
         -2   -1    0    0    0  501 -0.00000000000E+00 -0.00000000000E+00 -0.18693886346E+03  0.18693886346E+03  0.00000000000E+00 0. -1.
          5    1    1    2  502    0  0.16783835503E+02  0.24772125227E+02  0.61931311449E+02  0.68908018839E+02  0.41800000000E+01 0. -1.
         -5    1    1    2    0  502 -0.72224618073E+02 -0.16370304093E+02 -0.13433075783E+02  0.75381046935E+02  0.41800000000E+01 0. -1.
        -11    1    1    2    0    0  0.51180126199E+02  0.31560184578E+02 -0.40028533277E+02  0.72233884325E+02  0.00000000000E+00 0.  1.
         11    1    1    2    0    0  0.42606563713E+01 -0.39962005712E+02 -0.78042285841E+02  0.87782193368E+02  0.00000000000E+00 0. -1.
</event>
<event>
 7    1  0.1538147E-010  0.1265294E+03  0.7561462E-02  0.1232698E+00
         -2   -1    0    0    0  501 -0.00000000000E+00  0.00000000000E+00  0.10223522551E+03  0.10223522551E+03  0.00000000000E+00 0. -1.
          2   -1    0    0  501    0  0.00000000000E+00 -0.00000000000E+00 -0.21454894970E+03  0.21454894970E+03  0.00000000000E+00 0.  1.
         25    2    1    2    0    0  0.12762051646E+02  0.76698100209E+02  0.76530985428E+01  0.14750309010E+03  0.12511244197E+03 0.  0.
          5    1    3    3  502    0  0.63954430147E+02  0.24554187213E+02  0.23629799199E+02  0.72587306434E+02  0.41800000000E+01 0. -1.
         -5    1    3    3    0  502 -0.51192378502E+02  0.52143912996E+02 -0.15976700656E+02  0.74915783671E+02  0.41800000000E+01 0. -1.
        -11    1    1    2    0    0 -0.40333705077E+02 -0.73017444941E+02 -0.11326762240E+03  0.14066950386E+03  0.00000000000E+00 0.  1.
         11    1    1    2    0    0  0.27571653432E+02 -0.36806552677E+01 -0.66992003340E+01  0.28611581244E+02  0.00000000000E+00 0. -1.
</event>
<event>
 7    1  0.1538147E-010  0.3225312E+03  0.7561462E-02  0.1074490E+00
          1   -1    0    0  501    0  0.00000000000E+00  0.00000000000E+00  0.18155473339E+04  0.18155473339E+04  0.00000000000E+00 0. -1.
         -1   -1    0    0    0  501 -0.00000000000E+00 -0.00000000000E+00 -0.61658932791E+02  0.61658932791E+02  0.00000000000E+00 0.  1.
         25    2    1    2    0    0  0.25270633940E+03 -0.19266355243E+03  0.90214854765E+03  0.96462831918E+03  0.12512415325E+03 0.  0.
          5    1    3    3  502    0  0.19110472894E+03 -0.10594521698E+03  0.73194484687E+03  0.76387573445E+03  0.41800000000E+01 0.  1.
         -5    1    3    3    0  502  0.61601610457E+02 -0.86718335458E+02  0.17020370078E+03  0.20075258473E+03  0.41800000000E+01 0.  1.
        -11    1    1    2    0    0 -0.79420473798E+02  0.83601863897E+02  0.21852615801E+03  0.24708412543E+03  0.00000000000E+00 0.  1.
         11    1    1    2    0    0 -0.17328586560E+03  0.10906168854E+03  0.63321369544E+03  0.66549382207E+03  0.00000000000E+00 0. -1.
</event>
<event>
 6    1  0.1538147E-010  0.1783108E+03  0.7561462E-02  0.1169448E+00
         -1   -1    0    0    0  501 -0.00000000000E+00  0.00000000000E+00  0.26644468878E+02  0.26644468878E+02  0.00000000000E+00 0.  1.
          1   -1    0    0  501    0  0.00000000000E+00 -0.00000000000E+00 -0.13535643789E+04  0.13535643789E+04  0.00000000000E+00 0. -1.
          5    1    1    2  502    0  0.48213525025E+01 -0.37160243919E+02 -0.24218533034E+03  0.24510270459E+03  0.41800000000E+01 0. -1.
         -5    1    1    2    0  502 -0.13775941082E+03 -0.36003519754E+02 -0.32063035338E+03  0.35084926196E+03  0.41800000000E+01 0. -1.
        -11    1    1    2    0    0 -0.13752590756E+02  0.42219655955E+01 -0.53336891473E+02  0.55242942879E+02  0.00000000000E+00 0. -1.
         11    1    1    2    0    0  0.14669064908E+03  0.68941798078E+02 -0.71076733485E+03  0.72901393837E+03  0.00000000000E+00 0.  1.
</event>
<event>
 6    1  0.1538147E-010  0.3970027E+03  0.7561462E-02  0.1044823E+00
         -2   -1    0    0    0  501 -0.00000000000E+00  0.00000000000E+00  0.13762330409E+03  0.13762330409E+03  0.00000000000E+00 0.  1.
          2   -1    0    0  501    0  0.00000000000E+00 -0.00000000000E+00 -0.12117703905E+04  0.12117703905E+04  0.00000000000E+00 0. -1.
          5    1    1    2  502    0  0.15028746568E+03  0.24875736954E+03 -0.52217975189E+03  0.59762506384E+03  0.41800000000E+01 0. -1.
         -5    1    1    2    0  502 -0.46883844356E+01  0.11126850236E+03 -0.12528511433E+03  0.16767973294E+03  0.41800000000E+01 0. -1.
        -11    1    1    2    0    0 -0.71992007613E+02 -0.24481964118E+03 -0.32753064483E+03  0.41520576727E+03  0.00000000000E+00 0. -1.
         11    1    1    2    0    0 -0.73607073634E+02 -0.11520623071E+03 -0.99151575323E+02  0.16888313051E+03  0.00000000000E+00 0.  1.
</event>
<event>
 7    1  0.1538147E-010  0.1406011E+03  0.7561462E-02  0.1212522E+00
         -4   -1    0    0    0  501 -0.00000000000E+00  0.00000000000E+00  0.58804367975E+02  0.58804367975E+02  0.00000000000E+00 0.  1.
          4   -1    0    0  501    0  0.00000000000E+00 -0.00000000000E+00 -0.34744937615E+03  0.34744937615E+03  0.00000000000E+00 0. -1.
         25    2    1    2    0    0 -0.88119887327E+02  0.27696449407E+02 -0.16938647646E+03  0.22991092713E+03  0.12504018616E+03 0.  0.
          5    1    3    3  502    0 -0.11894846827E+03  0.15312471286E+02 -0.11607212747E+03  0.16695334994E+03  0.41800000000E+01 0.  1.
         -5    1    3    3    0  502  0.30828580947E+02  0.12383978121E+02 -0.53314348993E+02  0.62957577191E+02  0.41800000000E+01 0.  1.
        -11    1    1    2    0    0  0.19243736523E+02 -0.51391585309E+02 -0.35569259386E+02  0.65395631729E+02  0.00000000000E+00 0.  1.
         11    1    1    2    0    0  0.68876150803E+02  0.23695135902E+02 -0.83689272327E+02  0.11094718526E+03  0.00000000000E+00 0. -1.
</event>
<event>
 6    1  0.1538147E-010  0.1546015E+03  0.7561462E-02  0.1194930E+00
          2   -1    0    0  501    0  0.00000000000E+00  0.00000000000E+00  0.17377634991E+04  0.17377634991E+04  0.00000000000E+00 0. -1.
         -2   -1    0    0    0  501 -0.00000000000E+00 -0.00000000000E+00 -0.15908365630E+02  0.15908365630E+02  0.00000000000E+00 0.  1.
          5    1    1    2  502    0  0.15360866107E+02 -0.34399766568E+02  0.18740105362E+03  0.19119604453E+03  0.41800000000E+01 0. -1.
         -5    1    1    2    0  502  0.78544773367E+02  0.10538127335E+03  0.98001190373E+03  0.98879487157E+03  0.41800000000E+01 0. -1.
        -11    1    1    2    0    0 -0.65369076562E+02 -0.22822779253E+01  0.35150254970E+03  0.35753652598E+03  0.00000000000E+00 0. -1.
         11    1    1    2    0    0 -0.28536562912E+02 -0.68699228856E+02  0.20293962640E+03  0.21614442263E+03  0.00000000000E+00 0.  1.
</event>
<event>
 7    1  0.1538147E-010  0.1811395E+03  0.7561462E-02  0.1166705E+00
         -2   -1    0    0    0  501 -0.00000000000E+00  0.00000000000E+00  0.81069882693E+02  0.81069882693E+02  0.00000000000E+00 0.  1.
          2   -1    0    0  501    0  0.00000000000E+00 -0.00000000000E+00 -0.54213148783E+03  0.54213148783E+03  0.00000000000E+00 0. -1.
         25    2    1    2    0    0  0.68988256083E+02  0.14395462751E+03 -0.36046182992E+03  0.41358820193E+03  0.12506060807E+03 0.  0.
          5    1    3    3  502    0  0.79678613697E+02  0.32389346671E+02 -0.20066348818E+03  0.21835993027E+03  0.41800000000E+01 0.  1.
         -5    1    3    3    0  502 -0.10690357614E+02  0.11156528084E+03 -0.15979834174E+03  0.19522827166E+03  0.41800000000E+01 0.  1.
        -11    1    1    2    0    0 -0.19907717582E+02 -0.85010395746E+02 -0.10020884626E+03  0.13290935811E+03  0.00000000000E+00 0.  1.
         11    1    1    2    0    0 -0.49080538501E+02 -0.58944231760E+02 -0.39092895904E+00  0.76703810484E+02  0.00000000000E+00 0. -1.
</event>
<event>
 7    1  0.1676758E-010  0.1572540E+03  0.7561462E-02  0.1191832E+00
         -1   -1    0    0    0  501 -0.00000000000E+00  0.00000000000E+00  0.27623988338E+02  0.27623988338E+02  0.00000000000E+00 0.  1.
          1   -1    0    0  501    0  0.00000000000E+00 -0.00000000000E+00 -0.10248166216E+04  0.10248166216E+04  0.00000000000E+00 0. -1.
         25    2    1    2    0    0  0.92223797679E+01  0.12611912549E+03 -0.46445654190E+03  0.49735783746E+03  0.12511535904E+03 0.  0.
          5    1    3    3  502    0 -0.55705484060E+02  0.78150207633E+02 -0.22584551016E+03  0.24542661381E+03  0.41800000000E+01 0.  1.
         -5    1    3    3    0  502  0.64927863828E+02  0.47968917857E+02 -0.23861103174E+03  0.25193122365E+03  0.41800000000E+01 0.  1.
        -11    1    1    2    0    0  0.12975974077E+02 -0.10849357904E+03 -0.49991203876E+03  0.51171405989E+03  0.00000000000E+00 0. -1.
         11    1    1    2    0    0 -0.22198353845E+02 -0.17625546449E+02 -0.32824052566E+02  0.43368712546E+02  0.00000000000E+00 0.  1.
</event>
<event>
 7    1  0.1538147E-010  0.9734498E+02  0.7561462E-02  0.1285980E+00
         -2   -1    0    0    0  501 -0.00000000000E+00  0.00000000000E+00  0.67387638143E+02  0.67387638143E+02  0.00000000000E+00 0.  1.
          2   -1    0    0  501    0  0.00000000000E+00 -0.00000000000E+00 -0.20728404421E+03  0.20728404421E+03  0.00000000000E+00 0. -1.
         25    2    1    2    0    0 -0.35735513545E+02  0.24465259273E+02 -0.98583144766E+02  0.16500939278E+03  0.12503554469E+03 0.  0.
          5    1    3    3  502    0  0.20946306332E+02 -0.15926022582E+02 -0.91060810583E+02  0.94878498978E+02  0.41800000000E+01 0.  1.
         -5    1    3    3    0  502 -0.56681819877E+02  0.40391281855E+02 -0.75223341825E+01  0.70130893806E+02  0.41800000000E+01 0.  1.
        -11    1    1    2    0    0  0.63141446033E+02 -0.24871460258E+01 -0.12931909519E+02  0.64500096018E+02  0.00000000000E+00 0.  1.
         11    1    1    2    0    0 -0.27405932488E+02 -0.21978113247E+02 -0.28381351787E+02  0.45162193555E+02  0.00000000000E+00 0. -1.
</event>
<event>
 7    1  0.1538147E-010  0.1206030E+03  0.7561462E-02  0.1242106E+00
         -4   -1    0    0    0  501 -0.00000000000E+00  0.00000000000E+00  0.25484766448E+03  0.25484766448E+03  0.00000000000E+00 0.  1.
          4   -1    0    0  501    0  0.00000000000E+00 -0.00000000000E+00 -0.63418788555E+02  0.63418788555E+02  0.00000000000E+00 0. -1.
         25    2    1    2    0    0 -0.29093879588E+02 -0.57073680042E+02  0.12344725908E+03  0.18707395065E+03  0.12511426159E+03 0.  0.
          5    1    3    3  502    0  0.12164795005E+02 -0.80963192783E+02  0.40801191579E+02  0.91570903990E+02  0.41800000000E+01 0. -1.
         -5    1    3    3    0  502 -0.41258674593E+02  0.23889512741E+02  0.82646067498E+02  0.95503046658E+02  0.41800000000E+01 0. -1.
        -11    1    1    2    0    0 -0.22546499599E+02 -0.11671387541E+02  0.90435480930E+01  0.26950912664E+02  0.00000000000E+00 0. -1.
         11    1    1    2    0    0  0.51640379187E+02  0.68745067583E+02  0.58938068754E+02  0.10424158972E+03  0.00000000000E+00 0.  1.
</event>
<event>
 6    1  0.1538147E-010  0.1024281E+03  0.7561462E-02  0.1275271E+00
         -1   -1    0    0    0  501 -0.00000000000E+00  0.00000000000E+00  0.44491177101E+02  0.44491177101E+02  0.00000000000E+00 0.  1.
          1   -1    0    0  501    0  0.00000000000E+00 -0.00000000000E+00 -0.45145807030E+03  0.45145807030E+03  0.00000000000E+00 0. -1.
          5    1    1    2  502    0 -0.14262276523E+02  0.51571652146E+02 -0.23493669084E+03  0.24098914693E+03  0.41800000000E+01 0. -1.
         -5    1    1    2    0  502 -0.52893684282E+02 -0.42585175428E+02 -0.82694794925E+02  0.10708473519E+03  0.41800000000E+01 0. -1.
        -11    1    1    2    0    0  0.10489969714E+02  0.17653856957E+02  0.15524340937E+02  0.25743024135E+02  0.00000000000E+00 0.  1.
         11    1    1    2    0    0  0.56665991091E+02 -0.26640333675E+02 -0.10485974837E+03  0.12213234114E+03  0.00000000000E+00 0. -1.
</event>
<event>
 6    1  0.1538147E-010  0.1238960E+03  0.7561462E-02  0.1236805E+00
         -4   -1    0    0    0  501 -0.00000000000E+00  0.00000000000E+00  0.45322640780E+03  0.45322640780E+03  0.00000000000E+00 0.  1.
          4   -1    0    0  501    0  0.00000000000E+00 -0.00000000000E+00 -0.37419651100E+02  0.37419651100E+02  0.00000000000E+00 0. -1.
          5    1    1    2  502    0 -0.91443990934E+02  0.20529757658E+02  0.10763200400E+03  0.14277813247E+03  0.41800000000E+01 0. -1.
         -5    1    1    2    0  502  0.28695518600E+02 -0.35800852783E+02  0.53041207726E+02  0.70256501228E+02  0.41800000000E+01 0. -1.
        -11    1    1    2    0    0  0.46552312003E+01  0.43199004100E+02  0.12606873417E+03  0.13334598182E+03  0.00000000000E+00 0.  1.
         11    1    1    2    0    0  0.58093241134E+02 -0.27927908975E+02  0.12906481081E+03  0.14426544338E+03  0.00000000000E+00 0. -1.
</event>
<event>
 7    1  0.1538147E-010  0.1025094E+03  0.7561462E-02  0.1275106E+00
          2   -1    0    0  501    0  0.00000000000E+00  0.00000000000E+00  0.17726637075E+03  0.17726637075E+03  0.00000000000E+00 0.  1.
         -2   -1    0    0    0  501 -0.00000000000E+00 -0.00000000000E+00 -0.15945170544E+03  0.15945170544E+03  0.00000000000E+00 0. -1.
         25    2    1    2    0    0 -0.10297870376E+02 -0.55675117374E+02  0.12563997181E+03  0.18609734443E+03  0.12506420054E+03 0.  0.
          5    1    3    3  502    0 -0.56124108882E+02 -0.22422686387E+02  0.11257342066E+03  0.12783950838E+03  0.41800000000E+01 0. -1.
         -5    1    3    3    0  502  0.45826238506E+02 -0.33252430987E+02  0.13066551154E+02  0.58257836049E+02  0.41800000000E+01 0. -1.
        -11    1    1    2    0    0  0.37897555976E+02  0.20939026591E+02 -0.11854103940E+02  0.44890838305E+02  0.00000000000E+00 0.  1.
         11    1    1    2    0    0 -0.27599685599E+02  0.34736090783E+02 -0.95971202567E+02  0.10572989346E+03  0.00000000000E+00 0. -1.
</event>
<event>
 7    1  0.1538147E-010  0.1824829E+03  0.7561462E-02  0.1165421E+00
         -2   -1    0    0    0  501 -0.00000000000E+00  0.00000000000E+00  0.23215318072E+02  0.23215318072E+02  0.00000000000E+00 0.  1.
          2   -1    0    0  501    0  0.00000000000E+00 -0.00000000000E+00 -0.20053473278E+04  0.20053473278E+04  0.00000000000E+00 0. -1.
         25    2    1    2    0    0  0.16356952724E+03  0.68750108788E+01 -0.14438277776E+04  0.14584512216E+04  0.12505622068E+03 0.  0.
          5    1    3    3  502    0  0.89062622958E+02 -0.36262779210E+02 -0.10913898654E+04  0.10956260542E+04  0.41800000000E+01 0.  1.
         -5    1    3    3    0  502  0.74506904278E+02  0.43137790089E+02 -0.35243791222E+03  0.36282516739E+03  0.41800000000E+01 0.  1.
        -11    1    1    2    0    0 -0.62619147269E+02 -0.42260403799E+02 -0.15938891566E+03  0.17638573006E+03  0.00000000000E+00 0.  1.
         11    1    1    2    0    0 -0.10095037997E+03  0.35385392920E+02 -0.37891531647E+03  0.39372569424E+03  0.00000000000E+00 0. -1.
</event>
<event>
 6    1  0.1538147E-010  0.1085782E+03  0.7561462E-02  0.1263226E+00
         -1   -1    0    0    0  501 -0.00000000000E+00  0.00000000000E+00  0.12281159228E+03  0.12281159228E+03  0.00000000000E+00 0.  1.
          1   -1    0    0  501    0  0.00000000000E+00 -0.00000000000E+00 -0.20302330453E+03  0.20302330453E+03  0.00000000000E+00 0. -1.
          5    1    1    2  502    0 -0.89670765370E+01 -0.40909998920E+02 -0.76923914317E+01  0.42786467010E+02  0.41800000000E+01 0. -1.
         -5    1    1    2    0  502  0.78723691724E+02  0.50176639041E+02  0.54114308952E+02  0.10798585823E+03  0.41800000000E+01 0. -1.
        -11    1    1    2    0    0 -0.58952704422E+02  0.97440170915E+01 -0.13802746753E+03  0.15040594742E+03  0.00000000000E+00 0. -1.
         11    1    1    2    0    0 -0.10803910764E+02 -0.19010657213E+02  0.11393837757E+02  0.24656624146E+02  0.00000000000E+00 0.  1.
</event>
<event>
 6    1  0.1538147E-010  0.9688538E+02  0.7561462E-02  0.1286985E+00
          2   -1    0    0  501    0  0.00000000000E+00  0.00000000000E+00  0.68048380335E+03  0.68048380335E+03  0.00000000000E+00 0. -1.
         -2   -1    0    0    0  501 -0.00000000000E+00 -0.00000000000E+00 -0.20603066796E+02  0.20603066796E+02  0.00000000000E+00 0.  1.
          5    1    1    2  502    0  0.22525545417E+02 -0.15462332488E+02  0.18148712467E+02  0.33065572526E+02  0.41800000000E+01 0. -1.
         -5    1    1    2    0  502 -0.39400448153E+02  0.56128209858E+02  0.39372585582E+03  0.39967523466E+03  0.41800000000E+01 0. -1.
        -11    1    1    2    0    0  0.41682854317E+02  0.83313926349E+01  0.15103783364E+03  0.15690538435E+03  0.00000000000E+00 0. -1.
         11    1    1    2    0    0 -0.24807951580E+02 -0.48997270005E+02  0.96968334624E+02  0.11144067861E+03  0.00000000000E+00 0.  1.
</event>
<event>
 7    1  0.1538147E-010  0.7490338E+02  0.7561462E-02  0.1344170E+00
          2   -1    0    0  501    0  0.00000000000E+00  0.00000000000E+00  0.88723605719E+02  0.88723605719E+02  0.00000000000E+00 0. -1.
         -2   -1    0    0    0  501 -0.00000000000E+00 -0.00000000000E+00 -0.18692139966E+03  0.18692139966E+03  0.00000000000E+00 0.  1.
         25    2    1    2    0    0 -0.23698665238E+02  0.38252758627E+02  0.52144704507E+00  0.13296525569E+03  0.12511829217E+03 0.  0.
          5    1    3    3  502    0 -0.37987262647E+02  0.22927402767E+02  0.57131082416E+02  0.72457787015E+02  0.41800000000E+01 0.  1.
         -5    1    3    3    0  502  0.14288597410E+02  0.15325355860E+02 -0.56609635371E+02  0.60507468671E+02  0.41800000000E+01 0.  1.
        -11    1    1    2    0    0  0.20438535329E+02 -0.59223835112E+02 -0.27599878675E+02  0.68461300562E+02  0.00000000000E+00 0.  1.
         11    1    1    2    0    0  0.32601299085E+01  0.20971076486E+02 -0.71119362316E+02  0.74218449136E+02  0.00000000000E+00 0. -1.
</event>
<event>
 6    1  0.1538147E-010  0.1120852E+03  0.7561462E-02  0.1256756E+00
          1   -1    0    0  501    0  0.00000000000E+00  0.00000000000E+00  0.84607174292E+03  0.84607174292E+03  0.00000000000E+00 0. -1.
         -1   -1    0    0    0  501 -0.00000000000E+00 -0.00000000000E+00 -0.16766573515E+02  0.16766573515E+02  0.00000000000E+00 0.  1.
          5    1    1    2  502    0  0.32609686819E+02 -0.66899335803E+02  0.18879005629E+03  0.20297307841E+03  0.41800000000E+01 0.  1.
         -5    1    1    2    0  502 -0.48673642713E+02  0.17301607776E+02  0.29234209502E+03  0.29690039078E+03  0.41800000000E+01 0.  1.
        -11    1    1    2    0    0  0.49661347297E+02  0.21965371981E+02  0.13723155597E+03  0.14758464329E+03  0.00000000000E+00 0.  1.
         11    1    1    2    0    0 -0.33597391403E+02  0.27632356046E+02  0.21094146213E+03  0.21538020395E+03  0.00000000000E+00 0. -1.
</event>
<event>
 6    1  0.1538147E-010  0.1157752E+03  0.7561462E-02  0.1250234E+00
          1   -1    0    0  501    0  0.00000000000E+00  0.00000000000E+00  0.14558404423E+04  0.14558404423E+04  0.00000000000E+00 0. -1.
         -1   -1    0    0    0  501 -0.00000000000E+00 -0.00000000000E+00 -0.11878160665E+02  0.11878160665E+02  0.00000000000E+00 0.  1.
          5    1    1    2  502    0  0.56747317026E+01  0.51128431544E+02  0.56787551527E+03  0.57021609267E+03  0.41800000000E+01 0. -1.
         -5    1    1    2    0  502  0.37990283469E+02 -0.69298227385E+02  0.54500821102E+03  0.55072400387E+03  0.41800000000E+01 0. -1.
        -11    1    1    2    0    0 -0.38573252909E+02  0.53026913469E+02  0.24837789183E+03  0.25688777032E+03  0.00000000000E+00 0. -1.
         11    1    1    2    0    0 -0.50917622634E+01 -0.34857117627E+02  0.82700663528E+02  0.89890736120E+02  0.00000000000E+00 0.  1.
</event>
<event>
 6    1  0.1538147E-010  0.1004703E+03  0.7561462E-02  0.1279310E+00
          2   -1    0    0  501    0  0.00000000000E+00  0.00000000000E+00  0.30857479453E+03  0.30857479453E+03  0.00000000000E+00 0. -1.
         -2   -1    0    0    0  501 -0.00000000000E+00 -0.00000000000E+00 -0.10611569600E+03  0.10611569600E+03  0.00000000000E+00 0.  1.
          5    1    1    2  502    0 -0.51480251733E+02  0.51560807681E+01 -0.70041516895E+02  0.87178483449E+02  0.41800000000E+01 0. -1.
         -5    1    1    2    0  502 -0.46624703464E+02 -0.43484868423E+01  0.55117991989E+02  0.72444722043E+02  0.41800000000E+01 0. -1.
        -11    1    1    2    0    0  0.65980386947E+02  0.12666394209E+02  0.49094096467E+02  0.83211052822E+02  0.00000000000E+00 0.  1.
         11    1    1    2    0    0  0.32124568250E+02 -0.13473988134E+02  0.16828852697E+03  0.17185623221E+03  0.00000000000E+00 0. -1.
</event>
<event>
 7    1  0.1538147E-010  0.1370886E+03  0.7561462E-02  0.1217301E+00
          2   -1    0    0  501    0  0.00000000000E+00  0.00000000000E+00  0.83179003620E+03  0.83179003620E+03  0.00000000000E+00 0. -1.
         -2   -1    0    0    0  501 -0.00000000000E+00 -0.00000000000E+00 -0.29786579119E+02  0.29786579119E+02  0.00000000000E+00 0.  1.
         25    2    1    2    0    0  0.89287888692E+02 -0.64715883579E+02  0.35424717737E+03  0.39154074879E+03  0.12511044175E+03 0.  0.
          5    1    3    3  502    0  0.91649880803E+02 -0.89825647875E+02  0.33718828556E+03  0.36080709526E+03  0.41800000000E+01 0.  1.
         -5    1    3    3    0  502 -0.23619921114E+01  0.25109764296E+02  0.17058891806E+02  0.30733653531E+02  0.41800000000E+01 0.  1.
        -11    1    1    2    0    0 -0.49652834769E+02  0.69171512129E+01  0.71596591004E+02  0.87403219763E+02  0.00000000000E+00 0.  1.
         11    1    1    2    0    0 -0.39635053923E+02  0.57798732366E+02  0.37615968871E+03  0.38263264677E+03  0.00000000000E+00 0. -1.
</event>
<event>
 7    1  0.1538147E-010  0.1065871E+03  0.7561462E-02  0.1267024E+00
         -2   -1    0    0    0  501 -0.00000000000E+00  0.00000000000E+00  0.30291798549E+03  0.30291798549E+03  0.00000000000E+00 0.  1.
          2   -1    0    0  501    0  0.00000000000E+00 -0.00000000000E+00 -0.49643603592E+02  0.49643603592E+02  0.00000000000E+00 0. -1.
         25    2    1    2    0    0  0.86501216559E+01 -0.25663599288E+02  0.20494365436E+03  0.24160867880E+03  0.12505761581E+03 0.  0.
          5    1    3    3  502    0 -0.48763398130E+02  0.60215919325E+01  0.14316026914E+03  0.15141487254E+03  0.41800000000E+01 0. -1.
         -5    1    3    3    0  502  0.57413519786E+02 -0.31685191220E+02  0.61783385223E+02  0.90193806253E+02  0.41800000000E+01 0. -1.
        -11    1    1    2    0    0 -0.51449824833E+02  0.18958486213E+02  0.16719236865E+02  0.57324005061E+02  0.00000000000E+00 0.  1.
         11    1    1    2    0    0  0.42799703178E+02  0.67051130746E+01  0.31611490671E+02  0.53628905227E+02  0.00000000000E+00 0. -1.
</event>
<event>
 7    1  0.1538147E-010  0.1077982E+03  0.7561462E-02  0.1264702E+00
         -1   -1    0    0    0  501 -0.00000000000E+00  0.00000000000E+00  0.60866175640E+02  0.60866175640E+02  0.00000000000E+00 0.  1.
          1   -1    0    0  501    0  0.00000000000E+00 -0.00000000000E+00 -0.20803273200E+03  0.20803273200E+03  0.00000000000E+00 0. -1.
         25    2    1    2    0    0 -0.14549780327E+02  0.77635598989E+01 -0.60242491700E+02  0.13983744111E+03  0.12511348113E+03 0.  0.
          5    1    3    3  502    0 -0.48982473396E+02  0.47097818950E+02 -0.54252666185E+02  0.87053497564E+02  0.41800000000E+01 0.  1.
         -5    1    3    3    0  502  0.34432693069E+02 -0.39334259051E+02 -0.59898255147E+01  0.52783943551E+02  0.41800000000E+01 0.  1.
        -11    1    1    2    0    0  0.52050829074E+02 -0.19797019775E+02 -0.45607901224E+02  0.71981188190E+02  0.00000000000E+00 0. -1.
         11    1    1    2    0    0 -0.37501048747E+02  0.12033459876E+02 -0.41316163434E+02  0.57080278333E+02  0.00000000000E+00 0.  1.
</event>
<event>
 6    1  0.1538147E-010  0.8001931E+02  0.7561462E-02  0.1328997E+00
         -3   -1    0    0    0  501 -0.00000000000E+00  0.00000000000E+00  0.39458413586E+03  0.39458413586E+03  0.00000000000E+00 0.  1.
          3   -1    0    0  501    0  0.00000000000E+00 -0.00000000000E+00 -0.34924383169E+02  0.34924383169E+02  0.00000000000E+00 0. -1.
          5    1    1    2  502    0  0.38601444178E+02 -0.19570205536E+02  0.22525152805E+03  0.22940965047E+03  0.41800000000E+01 0.  1.
         -5    1    1    2    0  502  0.30630757602E+01  0.31425395130E+02  0.69258261215E-01  0.31849883656E+02  0.41800000000E+01 0.  1.
        -11    1    1    2    0    0 -0.28124326114E+02  0.29759539129E+02  0.11171953735E+03  0.11898681823E+03  0.00000000000E+00 0.  1.
         11    1    1    2    0    0 -0.13540193825E+02 -0.41614728723E+02  0.22619429030E+02  0.49262166671E+02  0.00000000000E+00 0. -1.
</event>
<event>
 7    1  0.1538147E-010  0.1906963E+03  0.7561462E-02  0.1157835E+00
          1   -1    0    0  501    0  0.00000000000E+00  0.00000000000E+00  0.16213793238E+03  0.16213793238E+03  0.00000000000E+00 0. -1.
         -1   -1    0    0    0  501 -0.00000000000E+00 -0.00000000000E+00 -0.24474089709E+03  0.24474089709E+03  0.00000000000E+00 0.  1.
         25    2    1    2    0    0 -0.14877599109E+02 -0.16447304629E+03 -0.68447037230E+02  0.21820449744E+03  0.12512186014E+03 0.  0.
          5    1    3    3  502    0  0.47724685103E+02 -0.91822597478E+02 -0.64743787807E+02  0.12214035138E+03  0.41800000000E+01 0.  1.
         -5    1    3    3    0  502 -0.62602284212E+02 -0.72650448812E+02 -0.37032494234E+01  0.96064146056E+02  0.41800000000E+01 0.  1.
        -11    1    1    2    0    0 -0.15607961248E+02  0.14460034973E+03  0.87016875614E+01  0.14570033962E+03  0.00000000000E+00 0. -1.
         11    1    1    2    0    0  0.30485560357E+02  0.19872696555E+02 -0.22857615049E+02  0.42973992419E+02  0.00000000000E+00 0.  1.
</event>
<event>
 7    1  0.2074948E-010  0.1406799E+03  0.7561462E-02  0.1212417E+00
          1   -1    0    0  501    0  0.00000000000E+00  0.00000000000E+00  0.74426113740E+03  0.74426113740E+03  0.00000000000E+00 0. -1.
         -1   -1    0    0    0  501 -0.00000000000E+00 -0.00000000000E+00 -0.39755192825E+02  0.39755192825E+02  0.00000000000E+00 0.  1.
         25    2    1    2    0    0  0.10875505617E+03  0.71700193195E+02  0.44266096176E+03  0.47807470394E+03  0.12505245113E+03 0.  0.
          5    1    3    3  502    0  0.87274737426E+02  0.48341742069E+02  0.43339906384E+03  0.44475389235E+03  0.41800000000E+01 0.  1.
         -5    1    3    3    0  502  0.21480318742E+02  0.23358451126E+02  0.92618979229E+01  0.33320811596E+02  0.41800000000E+01 0.  1.
        -11    1    1    2    0    0 -0.38418081842E+02 -0.69158531239E+02  0.87696749169E+02  0.11810830314E+03  0.00000000000E+00 0.  1.
         11    1    1    2    0    0 -0.70336974326E+02 -0.25416619563E+01  0.17414823365E+03  0.18783332315E+03  0.00000000000E+00 0. -1.
</event>
<event>
 6    1  0.1538147E-010  0.1082379E+03  0.7561462E-02  0.1263868E+00
          2   -1    0    0  501    0  0.00000000000E+00  0.00000000000E+00  0.52522209454E+03  0.52522209454E+03  0.00000000000E+00 0. -1.
         -2   -1    0    0    0  501 -0.00000000000E+00 -0.00000000000E+00 -0.27707240884E+02  0.27707240884E+02  0.00000000000E+00 0.  1.
          5    1    1    2  502    0  0.32519518346E+02 -0.25018510012E+02  0.18050797948E+03  0.18515952034E+03  0.41800000000E+01 0. -1.
         -5    1    1    2    0  502 -0.74765297428E+02  0.34113698967E+01  0.94621474456E+02  0.12071529718E+03  0.41800000000E+01 0. -1.
        -11    1    1    2    0    0  0.45250379252E+02 -0.26256342985E+02  0.70588027219E+02  0.87861606838E+02  0.00000000000E+00 0.  1.
         11    1    1    2    0    0 -0.30046001701E+01  0.47863483100E+02  0.15179737250E+03  0.15919291107E+03  0.00000000000E+00 0. -1.
</event>
<event>
 7    1  0.1538147E-010  0.1126385E+03  0.7561462E-02  0.1255760E+00
          2   -1    0    0  501    0  0.00000000000E+00  0.00000000000E+00  0.29876105148E+02  0.29876105148E+02  0.00000000000E+00 0. -1.
         -2   -1    0    0    0  501 -0.00000000000E+00 -0.00000000000E+00 -0.75611627004E+03  0.75611627004E+03  0.00000000000E+00 0.  1.
         25    2    1    2    0    0  0.92180620263E+02  0.45187236193E+02 -0.39702635152E+03  0.42872588627E+03  0.12504722582E+03 0.  0.
          5    1    3    3  502    0  0.69185383367E+02  0.23333743592E+02 -0.73727457038E+02  0.10384744187E+03  0.41800000000E+01 0.  1.
         -5    1    3    3    0  502  0.22995236896E+02  0.21853492600E+02 -0.32329889448E+03  0.32487844440E+03  0.41800000000E+01 0.  1.
        -11    1    1    2    0    0 -0.76569099301E+02 -0.61021092199E+02 -0.31725304387E+03  0.33201791293E+03  0.00000000000E+00 0.  1.
         11    1    1    2    0    0 -0.15611520962E+02  0.15833856006E+02 -0.11960769506E+02  0.25248575998E+02  0.00000000000E+00 0. -1.
</event>
<event>
 7    1  0.1538147E-010  0.8454697E+02  0.7561462E-02  0.1316622E+00
         -4   -1    0    0    0  501 -0.00000000000E+00  0.00000000000E+00  0.29507189497E+03  0.29507189497E+03  0.00000000000E+00 0.  1.
          4   -1    0    0  501    0  0.00000000000E+00 -0.00000000000E+00 -0.64686336161E+02  0.64686336161E+02  0.00000000000E+00 0. -1.
         25    2    1    2    0    0 -0.28878830133E+02 -0.73536662284E+02  0.83816350836E+02  0.17001683428E+03  0.12505565057E+03 0.  0.
          5    1    3    3  502    0 -0.13460271087E+02 -0.47421221852E+02  0.11568920249E+03  0.12582295162E+03  0.41800000000E+01 0.  1.
         -5    1    3    3    0  502 -0.15418559046E+02 -0.26115440432E+02 -0.31872851657E+02  0.44193882662E+02  0.41800000000E+01 0.  1.
        -11    1    1    2    0    0 -0.10550381532E+02  0.12683210542E+02 -0.84984152384E+01  0.18557948208E+02  0.00000000000E+00 0. -1.
         11    1    1    2    0    0  0.39429211665E+02  0.60853451742E+02  0.15506762321E+03  0.17118344864E+03  0.00000000000E+00 0.  1.
</event>
<event>
 7    1  0.1538147E-010  0.1043916E+03  0.7561462E-02  0.1271323E+00
          2   -1    0    0  501    0  0.00000000000E+00  0.00000000000E+00  0.46615416933E+03  0.46615416933E+03  0.00000000000E+00 0. -1.
         -2   -1    0    0    0  501 -0.00000000000E+00 -0.00000000000E+00 -0.37610616149E+02  0.37610616149E+02  0.00000000000E+00 0.  1.
         25    2    1    2    0    0  0.53665310920E+02  0.27787840518E+01  0.34136484681E+03  0.36750517095E+03  0.12506959982E+03 0.  0.
          5    1    3    3  502    0 -0.36441722583E+01 -0.38083500833E+02  0.31539375315E+02  0.49757789565E+02  0.41800000000E+01 0. -1.
         -5    1    3    3    0  502  0.57309483178E+02  0.40862284885E+02  0.30982547150E+03  0.31774738139E+03  0.41800000000E+01 0. -1.
        -11    1    1    2    0    0 -0.71424203571E+02  0.16781695555E+02  0.43741123906E+02  0.85418546475E+02  0.00000000000E+00 0.  1.
         11    1    1    2    0    0  0.17758892651E+02 -0.19560479606E+02  0.43437582464E+02  0.50841068055E+02  0.00000000000E+00 0. -1.
</event>
<event>
 7    1  0.1538147E-010  0.1239531E+03  0.7561462E-02  0.1236714E+00
          3   -1    0    0  501    0  0.00000000000E+00  0.00000000000E+00  0.35328814022E+02  0.35328814022E+02  0.00000000000E+00 0. -1.
         -3   -1    0    0    0  501 -0.00000000000E+00 -0.00000000000E+00 -0.53768218535E+03  0.53768218535E+03  0.00000000000E+00 0.  1.
         25    2    1    2    0    0  0.57327567021E+02  0.15902861141E+02 -0.38643653049E+03  0.41050242117E+03  0.12505876523E+03 0.  0.
          5    1    3    3  502    0 -0.25330541453E+02  0.43988216558E+02 -0.13296587436E+03  0.14238678194E+03  0.41800000000E+01 0. -1.
         -5    1    3    3    0  502  0.82658108474E+02 -0.28085355417E+02 -0.25347065612E+03  0.26811563923E+03  0.41800000000E+01 0. -1.
        -11    1    1    2    0    0 -0.82235288996E+02 -0.19208581459E+02 -0.10592526221E+03  0.13546871791E+03  0.00000000000E+00 0.  1.
         11    1    1    2    0    0  0.24907721975E+02  0.33057203175E+01 -0.99915786264E+01  0.27039860285E+02  0.00000000000E+00 0. -1.
</event>
<event>
 7    1  0.1538147E-010  0.1022172E+03  0.7561462E-02  0.1275701E+00
          1   -1    0    0  501    0  0.00000000000E+00  0.00000000000E+00  0.18378904792E+03  0.18378904792E+03  0.00000000000E+00 0. -1.
         -1   -1    0    0    0  501 -0.00000000000E+00 -0.00000000000E+00 -0.89632220468E+02  0.89632220468E+02  0.00000000000E+00 0.  1.
         25    2    1    2    0    0 -0.94829566732E+01 -0.13855511419E+02  0.12062015019E+03  0.17459934210E+03  0.12511517880E+03 0.  0.
          5    1    3    3  502    0 -0.60423617965E+02  0.21824459584E+01  0.26171337934E+02  0.66016573734E+02  0.41800000000E+01 0.  1.
         -5    1    3    3    0  502  0.50940661292E+02 -0.16037957378E+02  0.94448812254E+02  0.10858276836E+03  0.41800000000E+01 0.  1.
        -11    1    1    2    0    0 -0.17760339926E+02 -0.32185525081E+02 -0.26513595981E+02  0.45324479819E+02  0.00000000000E+00 0.  1.
         11    1    1    2    0    0  0.27243296599E+02  0.46041036500E+02  0.50273247085E-01  0.53497446472E+02  0.00000000000E+00 0. -1.
</event>
<event>
 7    1  0.1538147E-010  0.1705377E+03  0.7561462E-02  0.1177288E+00
         -2   -1    0    0    0  501 -0.00000000000E+00  0.00000000000E+00  0.30660995123E+02  0.30660995123E+02  0.00000000000E+00 0.  1.
          2   -1    0    0  501    0  0.00000000000E+00 -0.00000000000E+00 -0.12786646393E+04  0.12786646393E+04  0.00000000000E+00 0. -1.
         25    2    1    2    0    0 -0.99597445400E+02 -0.12716017801E+03 -0.76103892224E+03  0.78798719338E+03  0.12511680050E+03 0.  0.
          5    1    3    3  502    0  0.67804484371E+01 -0.21849499109E+02 -0.16441194008E+02  0.28480876966E+02  0.41800000000E+01 0. -1.
         -5    1    3    3    0  502 -0.10637789384E+03 -0.10531067890E+03 -0.74459772823E+03  0.75950631641E+03  0.41800000000E+01 0. -1.
        -11    1    1    2    0    0  0.19729724092E+02  0.61790085599E+02 -0.30791097319E+03  0.31466878476E+03  0.00000000000E+00 0. -1.
         11    1    1    2    0    0  0.79867721308E+02  0.65370092414E+02 -0.17905374878E+03  0.20666965632E+03  0.00000000000E+00 0.  1.
</event>
<event>
 7    1  0.1545082E-010  0.1583572E+03  0.7561462E-02  0.1190564E+00
          1   -1    0    0  501    0  0.00000000000E+00  0.00000000000E+00  0.76264522324E+03  0.76264522324E+03  0.00000000000E+00 0. -1.
         -1   -1    0    0    0  501 -0.00000000000E+00 -0.00000000000E+00 -0.36517117918E+02  0.36517117918E+02  0.00000000000E+00 0.  1.
         25    2    1    2    0    0 -0.12805201843E+02  0.12177319646E+03  0.47749024796E+03  0.50856900589E+03  0.12511119968E+03 0.  0.
          5    1    3    3  502    0 -0.31517867419E+02  0.13840361709E+03  0.33532058412E+03  0.36415148458E+03  0.41800000000E+01 0.  1.
         -5    1    3    3    0  502  0.18712665576E+02 -0.16630420632E+02  0.14216966384E+03  0.14441752131E+03  0.41800000000E+01 0.  1.
        -11    1    1    2    0    0  0.35212064566E+02 -0.11867591219E+02  0.47656073187E+02  0.60430377493E+02  0.00000000000E+00 0.  1.
         11    1    1    2    0    0 -0.22406862724E+02 -0.10990560524E+03  0.20098178418E+03  0.23016295777E+03  0.00000000000E+00 0. -1.
</event>
<event>
 6    1  0.1538147E-010  0.1098716E+03  0.7561462E-02  0.1260808E+00
          2   -1    0    0  501    0  0.00000000000E+00  0.00000000000E+00  0.76871070984E+03  0.76871070984E+03  0.00000000000E+00 0. -1.
         -2   -1    0    0    0  501 -0.00000000000E+00 -0.00000000000E+00 -0.19090556628E+02  0.19090556628E+02  0.00000000000E+00 0.  1.
          5    1    1    2  502    0  0.48586851879E+02 -0.62486821342E+02  0.13829749690E+03  0.15940186657E+03  0.41800000000E+01 0.  1.
         -5    1    1    2    0  502 -0.15454603466E+02  0.44371687443E+02  0.14801889481E+03  0.15535365151E+03  0.41800000000E+01 0.  1.
        -11    1    1    2    0    0  0.27025673344E+02 -0.73110392160E+01  0.96762828165E+02  0.10073173893E+03  0.00000000000E+00 0.  1.
         11    1    1    2    0    0 -0.60157921757E+02  0.25426173116E+02  0.36654093334E+03  0.37231400946E+03  0.00000000000E+00 0. -1.
</event>
<event>
 6    1  0.1538147E-010  0.8989236E+02  0.7561462E-02  0.1303113E+00
          2   -1    0    0  501    0  0.00000000000E+00  0.00000000000E+00  0.50513312886E+03  0.50513312886E+03  0.00000000000E+00 0. -1.
         -2   -1    0    0    0  501 -0.00000000000E+00 -0.00000000000E+00 -0.26851698131E+02  0.26851698131E+02  0.00000000000E+00 0.  1.
          5    1    1    2  502    0  0.13192239569E+02 -0.30031069217E+02  0.12790295594E+02  0.35453693243E+02  0.41800000000E+01 0. -1.
         -5    1    1    2    0  502 -0.52271368144E+02  0.45985595103E+02  0.23653088497E+03  0.24659947856E+03  0.41800000000E+01 0. -1.
        -11    1    1    2    0    0  0.91332878818E+00  0.22661028209E+02  0.10805113326E+02  0.25121839960E+02  0.00000000000E+00 0.  1.
         11    1    1    2    0    0  0.38165799787E+02 -0.38615554095E+02  0.21815513684E+03  0.22480981523E+03  0.00000000000E+00 0. -1.
</event>
<event>
 7    1  0.1538147E-010  0.1020866E+03  0.7561462E-02  0.1275968E+00
          1   -1    0    0  501    0  0.00000000000E+00  0.00000000000E+00  0.12045611813E+04  0.12045611813E+04  0.00000000000E+00 0. -1.
         -1   -1    0    0    0  501 -0.00000000000E+00 -0.00000000000E+00 -0.11605346429E+02  0.11605346429E+02  0.00000000000E+00 0.  1.
         25    2    1    2    0    0  0.23575412037E+02 -0.13355584099E+02  0.87577274409E+03  0.88507998582E+03  0.12511798566E+03 0.  0.
          5    1    3    3  502    0  0.57546696373E+02 -0.50707563918E+02  0.56677991170E+03  0.57196137982E+03  0.41800000000E+01 0.  1.
         -5    1    3    3    0  502 -0.33971284336E+02  0.37351979819E+02  0.30899283239E+03  0.31311860601E+03  0.41800000000E+01 0.  1.
        -11    1    1    2    0    0  0.20195307430E+02 -0.14457762563E+02  0.28593606561E+02  0.37874419820E+02  0.00000000000E+00 0.  1.
         11    1    1    2    0    0 -0.43770719467E+02  0.27813346662E+02  0.28858948424E+03  0.29321212210E+03  0.00000000000E+00 0. -1.
</event>
<event>
 6    1  0.1538147E-010  0.1164690E+03  0.7561462E-02  0.1249038E+00
         -1   -1    0    0    0  501 -0.00000000000E+00  0.00000000000E+00  0.29297622861E+02  0.29297622861E+02  0.00000000000E+00 0.  1.
          1   -1    0    0  501    0  0.00000000000E+00 -0.00000000000E+00 -0.55925808588E+03  0.55925808588E+03  0.00000000000E+00 0. -1.
          5    1    1    2  502    0  0.27791765504E+02 -0.30580508120E+02 -0.34353044519E+02  0.53899478424E+02  0.41800000000E+01 0. -1.
         -5    1    1    2    0  502  0.22457948968E+02  0.75069839399E+02 -0.28582849060E+03  0.29640384393E+03  0.41800000000E+01 0. -1.
        -11    1    1    2    0    0 -0.44589738656E+02 -0.72087524205E+02 -0.15886142471E+03  0.18006056815E+03  0.00000000000E+00 0. -1.
         11    1    1    2    0    0 -0.56599758160E+01  0.27598192926E+02 -0.50917503189E+02  0.58191818240E+02  0.00000000000E+00 0.  1.
</event>
<event>
 7    1  0.1538147E-010  0.1546139E+03  0.7561462E-02  0.1194915E+00
         -2   -1    0    0    0  501 -0.00000000000E+00  0.00000000000E+00  0.68844999519E+03  0.68844999519E+03  0.00000000000E+00 0.  1.
          2   -1    0    0  501    0  0.00000000000E+00 -0.00000000000E+00 -0.53757007479E+02  0.53757007479E+02  0.00000000000E+00 0. -1.
         25    2    1    2    0    0  0.77291450296E+02  0.10363392077E+03  0.15903959812E+03  0.24009649628E+03  0.12505509160E+03 0.  0.
          5    1    3    3  502    0  0.13094077240E+02  0.81423289022E+02  0.15028446919E+03  0.17147624014E+03  0.41800000000E+01 0.  1.
         -5    1    3    3    0  502  0.64197373056E+02  0.22210631750E+02  0.87551289239E+01  0.68620256139E+02  0.41800000000E+01 0.  1.
        -11    1    1    2    0    0  0.19929020620E+02 -0.32516318495E+02  0.15371243425E+03  0.15837294363E+03  0.00000000000E+00 0. -1.
         11    1    1    2    0    0 -0.97220470916E+02 -0.71117602277E+02  0.32194095534E+03  0.34373756275E+03  0.00000000000E+00 0.  1.
</event>
<event>
 6    1  0.1538147E-010  0.7009529E+02  0.7561462E-02  0.1359769E+00
          2   -1    0    0  501    0  0.00000000000E+00  0.00000000000E+00  0.18668305542E+03  0.18668305542E+03  0.00000000000E+00 0. -1.
         -2   -1    0    0    0  501 -0.00000000000E+00 -0.00000000000E+00 -0.75671763619E+02  0.75671763619E+02  0.00000000000E+00 0.  1.
          5    1    1    2  502    0 -0.29324594862E+02 -0.13710787734E+02  0.92251158952E+02  0.97855333489E+02  0.41800000000E+01 0. -1.
         -5    1    1    2    0  502 -0.11033436728E+02 -0.14526033517E+02 -0.41800118579E+02  0.45798086084E+02  0.41800000000E+01 0. -1.
        -11    1    1    2    0    0 -0.53096720947E+01  0.41060382917E+02  0.57917316058E+02  0.71193842166E+02  0.00000000000E+00 0. -1.
         11    1    1    2    0    0  0.45667703685E+02 -0.12823561666E+02  0.26429353740E+01  0.47507557305E+02  0.00000000000E+00 0.  1.
</event>
<event>
 6    1  0.1538147E-010  0.8916642E+02  0.7561462E-02  0.1304883E+00
          1   -1    0    0  501    0  0.00000000000E+00  0.00000000000E+00  0.17400404258E+04  0.17400404258E+04  0.00000000000E+00 0. -1.
         -1   -1    0    0    0  501 -0.00000000000E+00 -0.00000000000E+00 -0.85123081840E+01  0.85123081840E+01  0.00000000000E+00 0.  1.
          5    1    1    2  502    0  0.31392308849E+02  0.27617995602E+02  0.11384198391E+04  0.11391950813E+04  0.41800000000E+01 0.  1.
         -5    1    1    2    0  502 -0.56551703950E+02  0.78474724768E+01  0.30759177360E+03  0.31287353616E+03  0.41800000000E+01 0.  1.
        -11    1    1    2    0    0  0.44313476557E+02 -0.71587728047E+01  0.18279749149E+03  0.18822819961E+03  0.00000000000E+00 0. -1.
         11    1    1    2    0    0 -0.19154081456E+02 -0.28306695274E+02  0.10271901340E+03  0.10825591692E+03  0.00000000000E+00 0.  1.
</event>
<event>
 6    1  0.1538147E-010  0.1090507E+03  0.7561462E-02  0.1262338E+00
          1   -1    0    0  501    0  0.00000000000E+00  0.00000000000E+00  0.22614278859E+03  0.22614278859E+03  0.00000000000E+00 0. -1.
         -1   -1    0    0    0  501 -0.00000000000E+00 -0.00000000000E+00 -0.62898860304E+02  0.62898860304E+02  0.00000000000E+00 0.  1.
          5    1    1    2  502    0  0.14979611534E+02 -0.46194869798E+02  0.15748019966E+01  0.48767890653E+02  0.41800000000E+01 0.  1.
         -5    1    1    2    0  502 -0.23118444785E+02  0.72217922275E+02  0.40510145997E+02  0.86072266820E+02  0.41800000000E+01 0.  1.
        -11    1    1    2    0    0 -0.25411916225E+02 -0.47295134665E+02  0.53840800869E+02  0.76035696140E+02  0.00000000000E+00 0.  1.
         11    1    1    2    0    0  0.33550749475E+02  0.21272082189E+02  0.67318179418E+02  0.78165795276E+02  0.00000000000E+00 0. -1.
</event>
<event>
 6    1  0.1538147E-010  0.1722480E+03  0.7561462E-02  0.1175524E+00
         -1   -1    0    0    0  501 -0.00000000000E+00  0.00000000000E+00  0.32408459393E+02  0.32408459393E+02  0.00000000000E+00 0.  1.
          1   -1    0    0  501    0  0.00000000000E+00 -0.00000000000E+00 -0.97819349355E+03  0.97819349355E+03  0.00000000000E+00 0. -1.
          5    1    1    2  502    0 -0.73530702758E+02  0.65232084233E+02 -0.35397796793E+03  0.36739605774E+03  0.41800000000E+01 0. -1.
         -5    1    1    2    0  502 -0.65558545888E+02 -0.50455892057E+02 -0.16817800517E+03  0.18747008776E+03  0.41800000000E+01 0. -1.
        -11    1    1    2    0    0  0.88752056207E+02  0.32214446719E+02 -0.18995389222E+03  0.21212538563E+03  0.00000000000E+00 0.  1.
         11    1    1    2    0    0  0.50337192439E+02 -0.46990638894E+02 -0.23367516883E+03  0.24361042181E+03  0.00000000000E+00 0. -1.
</event>
<event>
 7    1  0.1538147E-010  0.2463395E+03  0.7561462E-02  0.1115640E+00
          1   -1    0    0  501    0  0.00000000000E+00  0.00000000000E+00  0.50312338447E+03  0.50312338447E+03  0.00000000000E+00 0. -1.
         -1   -1    0    0    0  501 -0.00000000000E+00 -0.00000000000E+00 -0.13876667941E+03  0.13876667941E+03  0.00000000000E+00 0.  1.
         25    2    1    2    0    0  0.11894998179E+03 -0.20689097296E+03  0.22156738960E+03  0.34885241376E+03  0.12511165249E+03 0.  0.
          5    1    3    3  502    0  0.85453121219E+02 -0.85203179778E+02  0.17835030391E+03  0.21537901726E+03  0.41800000000E+01 0. -1.
         -5    1    3    3    0  502  0.33496860574E+02 -0.12168779318E+03  0.43217085692E+02  0.13347339650E+03  0.41800000000E+01 0. -1.
        -11    1    1    2    0    0 -0.56604885472E+02  0.15337653102E+03  0.54262810580E+02  0.17225831167E+03  0.00000000000E+00 0.  1.
         11    1    1    2    0    0 -0.62345096321E+02  0.53514441940E+02  0.88526504875E+02  0.12077933845E+03  0.00000000000E+00 0. -1.
</event>
<event>
 6    1  0.1538147E-010  0.1162797E+03  0.7561462E-02  0.1249364E+00
         -3   -1    0    0    0  501 -0.00000000000E+00  0.00000000000E+00  0.35415184184E+03  0.35415184184E+03  0.00000000000E+00 0.  1.
          3   -1    0    0  501    0  0.00000000000E+00 -0.00000000000E+00 -0.57132987667E+02  0.57132987667E+02  0.00000000000E+00 0. -1.
          5    1    1    2  502    0  0.61547525063E+02  0.60424012118E+02  0.21333055909E+02  0.88947910353E+02  0.41800000000E+01 0.  1.
         -5    1    1    2    0  502  0.18328793498E+02 -0.20755317313E+02  0.10737459698E+03  0.11096623065E+03  0.41800000000E+01 0.  1.
        -11    1    1    2    0    0 -0.55462236987E+02  0.15742284923E+02  0.12267759413E+03  0.13554951629E+03  0.00000000000E+00 0.  1.
         11    1    1    2    0    0 -0.24414081574E+02 -0.55410979728E+02  0.45633607154E+02  0.75821172210E+02  0.00000000000E+00 0. -1.
</event>
<event>
 6    1  0.1538147E-010  0.1234265E+03  0.7561462E-02  0.1237549E+00
         -1   -1    0    0    0  501 -0.00000000000E+00  0.00000000000E+00  0.20958368870E+02  0.20958368870E+02  0.00000000000E+00 0.  1.
          1   -1    0    0  501    0  0.00000000000E+00 -0.00000000000E+00 -0.97456567250E+03  0.97456567250E+03  0.00000000000E+00 0. -1.
          5    1    1    2  502    0  0.15959105922E+02 -0.69283141671E+02 -0.45207527324E+03  0.45765092795E+03  0.41800000000E+01 0. -1.
         -5    1    1    2    0  502  0.66450948285E+02  0.25863256713E+02 -0.18652855108E+03  0.19973735089E+03  0.41800000000E+01 0. -1.
        -11    1    1    2    0    0 -0.36086068151E+02 -0.58717940407E+01 -0.36980516480E+02  0.52002316093E+02  0.00000000000E+00 0.  1.
         11    1    1    2    0    0 -0.46323986057E+02  0.49291678998E+02 -0.27802296284E+03  0.28613344644E+03  0.00000000000E+00 0. -1.
</event>
<event>
 6    1  0.1538147E-010  0.7377788E+02  0.7561462E-02  0.1347698E+00
         -2   -1    0    0    0  501 -0.00000000000E+00  0.00000000000E+00  0.60023701864E+02  0.60023701864E+02  0.00000000000E+00 0.  1.
          2   -1    0    0  501    0  0.00000000000E+00 -0.00000000000E+00 -0.23902947962E+03  0.23902947962E+03  0.00000000000E+00 0. -1.
          5    1    1    2  502    0 -0.15894157692E+02 -0.19751373437E+02  0.96124757546E+01  0.27433794698E+02  0.41800000000E+01 0.  1.
         -5    1    1    2    0  502  0.43346539532E+02  0.28938434086E+02 -0.17140750403E+03  0.17920479986E+03  0.41800000000E+01 0.  1.
        -11    1    1    2    0    0  0.12919808852E+02  0.17075539613E+02  0.21708959166E+02  0.30492202642E+02  0.00000000000E+00 0.  1.
         11    1    1    2    0    0 -0.40372190691E+02 -0.26262600262E+02 -0.38919708646E+02  0.61922384279E+02  0.00000000000E+00 0. -1.
</event>
<event>
 6    1  0.1538147E-010  0.1869535E+03  0.7561462E-02  0.1161238E+00
         -2   -1    0    0    0  501 -0.00000000000E+00  0.00000000000E+00  0.95142273385E+02  0.95142273385E+02  0.00000000000E+00 0.  1.
          2   -1    0    0  501    0  0.00000000000E+00 -0.00000000000E+00 -0.39457163035E+03  0.39457163035E+03  0.00000000000E+00 0. -1.
          5    1    1    2  502    0 -0.13632213447E+02  0.46235675797E+02 -0.54484034261E+02  0.72866709472E+02  0.41800000000E+01 0. -1.
         -5    1    1    2    0  502 -0.14562782100E+03 -0.47688264103E+02 -0.12593615512E+03  0.19839107931E+03  0.41800000000E+01 0. -1.
        -11    1    1    2    0    0  0.62666894569E+02  0.32727868668E+02 -0.13398021030E+02  0.71956653827E+02  0.00000000000E+00 0.  1.
         11    1    1    2    0    0  0.96593139881E+02 -0.31275280362E+02 -0.10561114655E+03  0.14649946112E+03  0.00000000000E+00 0. -1.
</event>
<event>
 7    1  0.1538147E-010  0.7335709E+02  0.7561462E-02  0.1349035E+00
          2   -1    0    0  501    0  0.00000000000E+00  0.00000000000E+00  0.64695155505E+03  0.64695155505E+03  0.00000000000E+00 0. -1.
         -2   -1    0    0    0  501 -0.00000000000E+00 -0.00000000000E+00 -0.16980000871E+02  0.16980000871E+02  0.00000000000E+00 0.  1.
         25    2    1    2    0    0  0.21241994462E+01 -0.27593137090E+02  0.42228518323E+03  0.44130680246E+03  0.12514401499E+03 0.  0.
          5    1    3    3  502    0 -0.31649574551E+02 -0.15281425553E+01  0.22159466924E+02  0.38891453602E+02  0.41800000000E+01 0. -1.
         -5    1    3    3    0  502  0.33773773997E+02 -0.26064994534E+02  0.40012571631E+03  0.40241534886E+03  0.41800000000E+01 0. -1.
        -11    1    1    2    0    0  0.44830975973E+01  0.49142884943E+02  0.18142732912E+03  0.18801860827E+03  0.00000000000E+00 0. -1.
         11    1    1    2    0    0 -0.66072970435E+01 -0.21549747854E+02  0.26259041820E+02  0.34606145178E+02  0.00000000000E+00 0.  1.
</event>
<event>
 7    1  0.1538147E-010  0.6920559E+02  0.7561462E-02  0.1362815E+00
         -2   -1    0    0    0  501 -0.00000000000E+00  0.00000000000E+00  0.11542121728E+02  0.11542121728E+02  0.00000000000E+00 0. -1.
          2   -1    0    0  501    0  0.00000000000E+00 -0.00000000000E+00 -0.10401389726E+04  0.10401389726E+04  0.00000000000E+00 0.  1.
         25    2    1    2    0    0 -0.19120673028E+01  0.49534153762E+01 -0.69461579443E+03  0.70579904538E+03  0.12503198895E+03 0.  0.
          5    1    3    3  502    0  0.20205603823E+02 -0.13187268020E+02 -0.23108206466E+02  0.33669453065E+02  0.41800000000E+01 0.  1.
         -5    1    3    3    0  502 -0.22117671125E+02  0.18140683396E+02 -0.67150758796E+03  0.67212959231E+03  0.41800000000E+01 0.  1.
        -11    1    1    2    0    0  0.29578290281E+02 -0.33888414765E+02 -0.11925663967E+03  0.12745762439E+03  0.00000000000E+00 0. -1.
         11    1    1    2    0    0 -0.27666222978E+02  0.28934999389E+02 -0.21472441677E+03  0.21842442455E+03  0.00000000000E+00 0.  1.
</event>
<event>
 7    1  0.1538147E-010  0.1092347E+03  0.7561462E-02  0.1261994E+00
         -1   -1    0    0    0  501 -0.00000000000E+00  0.00000000000E+00  0.46076889880E+03  0.46076889880E+03  0.00000000000E+00 0.  1.
          1   -1    0    0  501    0  0.00000000000E+00 -0.00000000000E+00 -0.49429260972E+02  0.49429260972E+02  0.00000000000E+00 0. -1.
         25    2    1    2    0    0 -0.67138931684E+02  0.64698372804E+02  0.14111482915E+03  0.21037948182E+03  0.12511041434E+03 0.  0.
          5    1    3    3  502    0 -0.41298087559E+02  0.38147443408E+02  0.15923816525E+03  0.16892313384E+03  0.41800000000E+01 0. -1.
         -5    1    3    3    0  502 -0.25840844125E+02  0.26550929395E+02 -0.18123336098E+02  0.41456347984E+02  0.41800000000E+01 0. -1.
        -11    1    1    2    0    0 -0.24475878866E+01 -0.54410673216E+02  0.16042639959E+03  0.16942001573E+03  0.00000000000E+00 0.  1.
         11    1    1    2    0    0  0.69586519571E+02 -0.10287699587E+02  0.10979840908E+03  0.13039866221E+03  0.00000000000E+00 0. -1.
</event>
<event>
 6    1  0.1538147E-010  0.1133560E+03  0.7561462E-02  0.1254478E+00
         -2   -1    0    0    0  501 -0.00000000000E+00  0.00000000000E+00  0.19853192081E+02  0.19853192081E+02  0.00000000000E+00 0.  1.
          2   -1    0    0  501    0  0.00000000000E+00 -0.00000000000E+00 -0.10157400219E+04  0.10157400219E+04  0.00000000000E+00 0. -1.
          5    1    1    2  502    0 -0.27129716007E+02  0.95224974504E+02 -0.61216707573E+03  0.62013693509E+03  0.41800000000E+01 0. -1.
         -5    1    1    2    0  502  0.35931006373E+02 -0.17949972204E+02 -0.11699209488E+03  0.12376534808E+03  0.41800000000E+01 0. -1.
        -11    1    1    2    0    0  0.30108169936E+01 -0.75168890746E+02 -0.26913674909E+03  0.27945306737E+03  0.00000000000E+00 0. -1.
         11    1    1    2    0    0 -0.11812107360E+02 -0.21061115530E+01  0.24090899191E+01  0.12237863392E+02  0.00000000000E+00 0.  1.
</event>
<event>
 7    1  0.1538147E-010  0.7168096E+02  0.7561462E-02  0.1354468E+00
          1   -1    0    0  501    0  0.00000000000E+00  0.00000000000E+00  0.13934441240E+03  0.13934441240E+03  0.00000000000E+00 0. -1.
         -1   -1    0    0    0  501 -0.00000000000E+00 -0.00000000000E+00 -0.99990437353E+02  0.99990437353E+02  0.00000000000E+00 0.  1.
         25    2    1    2    0    0  0.33733645014E+01 -0.34765022074E+02 -0.10110774991E+02  0.13021789839E+03  0.12503794201E+03 0.  0.
          5    1    3    3  502    0 -0.13095841111E+02  0.12334248789E+02 -0.58038436509E+02  0.60906216924E+02  0.41800000000E+01 0.  1.
         -5    1    3    3    0  502  0.16469205612E+02 -0.47099270863E+02  0.47927661517E+02  0.69311681468E+02  0.41800000000E+01 0.  1.
        -11    1    1    2    0    0  0.30404501207E+02  0.25798314632E+02 -0.91162586406E+01  0.40903458327E+02  0.00000000000E+00 0.  1.
         11    1    1    2    0    0 -0.33777865708E+02  0.89667074420E+01  0.58581008679E+02  0.68213493034E+02  0.00000000000E+00 0. -1.
</event>
<event>
 7    1  0.1538147E-010  0.1116652E+03  0.7561462E-02  0.1257517E+00
         -2   -1    0    0    0  501 -0.00000000000E+00  0.00000000000E+00  0.86408579679E+02  0.86408579679E+02  0.00000000000E+00 0. -1.
          2   -1    0    0  501    0  0.00000000000E+00 -0.00000000000E+00 -0.14886846578E+03  0.14886846578E+03  0.00000000000E+00 0.  1.
         25    2    1    2    0    0  0.27486492882E+02 -0.11046910492E+02 -0.28399583860E+02  0.13168248419E+03  0.12512473280E+03 0.  0.
          5    1    3    3  502    0 -0.47558749945E+02  0.11139736867E+02 -0.19695265555E+02  0.52832795866E+02  0.41800000000E+01 0. -1.
         -5    1    3    3    0  502  0.75045242826E+02 -0.22186647359E+02 -0.87043183051E+01  0.78849688325E+02  0.41800000000E+01 0. -1.
        -11    1    1    2    0    0 -0.11364262793E+02  0.51317247490E+02 -0.28703396032E+02  0.59887321718E+02  0.00000000000E+00 0.  1.
         11    1    1    2    0    0 -0.16122230089E+02 -0.40270336998E+02 -0.53569062099E+01  0.43707239550E+02  0.00000000000E+00 0. -1.
</event>
<event>
 6    1  0.1538147E-010  0.1119079E+03  0.7561462E-02  0.1257077E+00
         -2   -1    0    0    0  501 -0.00000000000E+00  0.00000000000E+00  0.53254129912E+02  0.53254129912E+02  0.00000000000E+00 0. -1.
          2   -1    0    0  501    0  0.00000000000E+00 -0.00000000000E+00 -0.26227965924E+03  0.26227965924E+03  0.00000000000E+00 0.  1.
          5    1    1    2  502    0  0.55032585124E+02 -0.69949155179E+02 -0.63238436430E+02  0.10926134713E+03  0.41800000000E+01 0. -1.
         -5    1    1    2    0  502 -0.11250697121E+02  0.42402504851E+02 -0.55759358344E+02  0.71071295516E+02  0.41800000000E+01 0. -1.
        -11    1    1    2    0    0  0.96090274819E+01  0.35400285107E+02 -0.67295422758E+02  0.76643248359E+02  0.00000000000E+00 0.  1.
         11    1    1    2    0    0 -0.53390915485E+02 -0.78536347795E+01 -0.22732311799E+02  0.58557898146E+02  0.00000000000E+00 0. -1.
</event>
<event>
 7    1  0.1538147E-010  0.1189197E+03  0.7561462E-02  0.1244890E+00
         -3   -1    0    0    0  501 -0.00000000000E+00  0.00000000000E+00  0.87177877349E+02  0.87177877349E+02  0.00000000000E+00 0.  1.
          3   -1    0    0  501    0  0.00000000000E+00 -0.00000000000E+00 -0.25210504727E+03  0.25210504727E+03  0.00000000000E+00 0. -1.
         25    2    1    2    0    0 -0.50157344746E+02  0.56263829382E+02 -0.16732428099E+03  0.22208210578E+03  0.12506665810E+03 0.  0.
          5    1    3    3  502    0 -0.82201772055E+02  0.39862572957E+02 -0.16119076481E+03  0.18532698431E+03  0.41800000000E+01 0.  1.
         -5    1    3    3    0  502  0.32044427309E+02  0.16401256425E+02 -0.61335161833E+01  0.36755121475E+02  0.41800000000E+01 0.  1.
        -11    1    1    2    0    0  0.68634219800E+02 -0.23525291734E+02 -0.17546280094E+02  0.74645612221E+02  0.00000000000E+00 0. -1.
         11    1    1    2    0    0 -0.18476875054E+02 -0.32738537648E+02  0.19943391166E+02  0.42555206618E+02  0.00000000000E+00 0.  1.
</event>
<event>
 6    1  0.1538147E-010  0.1736855E+03  0.7561462E-02  0.1174058E+00
          2   -1    0    0  501    0  0.00000000000E+00  0.00000000000E+00  0.36730651292E+03  0.36730651292E+03  0.00000000000E+00 0. -1.
         -2   -1    0    0    0  501 -0.00000000000E+00 -0.00000000000E+00 -0.10451592877E+03  0.10451592877E+03  0.00000000000E+00 0.  1.
          5    1    1    2  502    0 -0.88472547675E+02 -0.74991967496E+02  0.97868909994E+02  0.15181232764E+03  0.41800000000E+01 0.  1.
         -5    1    1    2    0  502 -0.64501687384E+02  0.31491666347E+02 -0.22242034597E+01  0.71934777442E+02  0.41800000000E+01 0.  1.
        -11    1    1    2    0    0  0.73105803021E+02  0.15103533058E+02  0.14070453557E+03  0.15928070026E+03  0.00000000000E+00 0.  1.
         11    1    1    2    0    0  0.79868432038E+02  0.28396768091E+02  0.26441342052E+02  0.88794636346E+02  0.00000000000E+00 0. -1.
</event>
<event>
 7    1  0.1538147E-010  0.1081522E+03  0.7561462E-02  0.1264030E+00
          3   -1    0    0  501    0  0.00000000000E+00  0.00000000000E+00  0.13611433769E+03  0.13611433769E+03  0.00000000000E+00 0. -1.
         -3   -1    0    0    0  501 -0.00000000000E+00 -0.00000000000E+00 -0.95811130793E+02  0.95811130793E+02  0.00000000000E+00 0.  1.
         25    2    1    2    0    0  0.26114969814E+02  0.28295990393E+00  0.50618025128E+02  0.13748367929E+03  0.12512995600E+03 0.  0.
          5    1    3    3  502    0  0.48960811266E+02  0.48463619895E+02  0.87707115109E+01  0.69572130006E+02  0.41800000000E+01 0. -1.
         -5    1    3    3    0  502 -0.22845841453E+02 -0.48180659991E+02  0.41847313617E+02  0.67911549282E+02  0.41800000000E+01 0. -1.
        -11    1    1    2    0    0 -0.46976295253E+02 -0.31280152663E+02 -0.43481181822E+01  0.56605003295E+02  0.00000000000E+00 0. -1.
         11    1    1    2    0    0  0.20861325439E+02  0.30997192759E+02 -0.59667000453E+01  0.37836785903E+02  0.00000000000E+00 0.  1.
</event>
<event>
 6    1  0.1538147E-010  0.9823569E+02  0.7561462E-02  0.1284050E+00
         -2   -1    0    0    0  501 -0.00000000000E+00  0.00000000000E+00  0.35684556832E+02  0.35684556832E+02  0.00000000000E+00 0.  1.
          2   -1    0    0  501    0  0.00000000000E+00 -0.00000000000E+00 -0.47123104432E+03  0.47123104432E+03  0.00000000000E+00 0. -1.
          5    1    1    2  502    0 -0.21791293676E+02 -0.73099037033E+02 -0.80480499442E+02  0.11096356558E+03  0.41800000000E+01 0.  1.
         -5    1    1    2    0  502  0.13869628835E+02  0.25347839028E+02 -0.23796885808E+03  0.23975305914E+03  0.41800000000E+01 0.  1.
        -11    1    1    2    0    0 -0.12532635816E+02  0.63715945152E+02 -0.43496025649E+02  0.78158127372E+02  0.00000000000E+00 0.  1.
         11    1    1    2    0    0  0.20454300656E+02 -0.15964747147E+02 -0.73601104310E+02  0.78040849063E+02  0.00000000000E+00 0. -1.
</event>
<event>
 7    1  0.1538147E-010  0.1122079E+03  0.7561462E-02  0.1256535E+00
         -2   -1    0    0    0  501 -0.00000000000E+00  0.00000000000E+00  0.59073428826E+02  0.59073428826E+02  0.00000000000E+00 0.  1.
          2   -1    0    0  501    0  0.00000000000E+00 -0.00000000000E+00 -0.27235418200E+03  0.27235418200E+03  0.00000000000E+00 0. -1.
         25    2    1    2    0    0 -0.12178912798E+02  0.52026696276E+02 -0.71615333150E+02  0.15376851683E+03  0.12514350876E+03 0.  0.
          5    1    3    3  502    0  0.33166333197E+01 -0.31710210232E+02  0.12025740184E+02  0.34331156644E+02  0.41800000000E+01 0. -1.
         -5    1    3    3    0  502 -0.15495546118E+02  0.83736906508E+02 -0.83641073333E+02  0.11943736019E+03  0.41800000000E+01 0. -1.
        -11    1    1    2    0    0  0.49909156098E+02 -0.47671157627E+02 -0.96615978906E+02  0.11873546442E+03  0.00000000000E+00 0. -1.
         11    1    1    2    0    0 -0.37730243300E+02 -0.43555386497E+01 -0.45049441118E+02  0.58923629568E+02  0.00000000000E+00 0.  1.
</event>
<event>
 7    1  0.1538147E-010  0.2179385E+03  0.7561462E-02  0.1135429E+00
          2   -1    0    0  501    0  0.00000000000E+00  0.00000000000E+00  0.67151653149E+03  0.67151653149E+03  0.00000000000E+00 0. -1.
         -2   -1    0    0    0  501 -0.00000000000E+00 -0.00000000000E+00 -0.86278920081E+02  0.86278920081E+02  0.00000000000E+00 0.  1.
         25    2    1    2    0    0  0.19776188383E+03 -0.63018973912E+02  0.32548927063E+03  0.40580525261E+03  0.12511388403E+03 0.  0.
          5    1    3    3  502    0  0.15560542454E+03 -0.79066357600E+01  0.28637774691E+03  0.32604485790E+03  0.41800000000E+01 0. -1.
         -5    1    3    3    0  502  0.42156459286E+02 -0.55112338152E+02  0.39111523724E+02  0.79760394709E+02  0.41800000000E+01 0. -1.
        -11    1    1    2    0    0 -0.15461453545E+03  0.64016538442E+02  0.25956264347E+03  0.30883092081E+03  0.00000000000E+00 0. -1.
         11    1    1    2    0    0 -0.43147348380E+02 -0.99756452959E+00  0.18569730634E+00  0.43159278153E+02  0.00000000000E+00 0.  1.
</event>
<event>
 7    1  0.1538147E-010  0.1333517E+03  0.7561462E-02  0.1222566E+00
          1   -1    0    0  501    0  0.00000000000E+00  0.00000000000E+00  0.10638502079E+03  0.10638502079E+03  0.00000000000E+00 0. -1.
         -1   -1    0    0    0  501 -0.00000000000E+00 -0.00000000000E+00 -0.33598326044E+03  0.33598326044E+03  0.00000000000E+00 0.  1.
         25    2    1    2    0    0  0.12509479071E+03 -0.38081691910E+02 -0.26662073553E+02  0.18289339429E+03  0.12506080756E+03 0.  0.
          5    1    3    3  502    0  0.97406607194E+02 -0.16739893983E+02 -0.74256298241E+02  0.12369212345E+03  0.41800000000E+01 0. -1.
         -5    1    3    3    0  502  0.27688183512E+02 -0.21341797927E+02  0.47594224689E+02  0.59201270836E+02  0.41800000000E+01 0. -1.
        -11    1    1    2    0    0 -0.57875247638E+02  0.29025637150E+02 -0.25622965039E+02  0.69631661179E+02  0.00000000000E+00 0. -1.
         11    1    1    2    0    0 -0.67219543067E+02  0.90560547602E+01 -0.17731320106E+03  0.18984322576E+03  0.00000000000E+00 0.  1.
</event>
<event>
 6    1  0.1538147E-010  0.9403089E+02  0.7561462E-02  0.1293374E+00
          2   -1    0    0  501    0  0.00000000000E+00  0.00000000000E+00  0.22064534672E+03  0.22064534672E+03  0.00000000000E+00 0. -1.
         -2   -1    0    0    0  501 -0.00000000000E+00 -0.00000000000E+00 -0.68296295422E+02  0.68296295422E+02  0.00000000000E+00 0.  1.
          5    1    1    2  502    0  0.19994118950E+02 -0.36637855691E+02  0.48382514876E+02  0.64034657866E+02  0.41800000000E+01 0. -1.
         -5    1    1    2    0  502 -0.20440451849E+02  0.53160267977E+02 -0.28183477671E+02  0.63683647641E+02  0.41800000000E+01 0. -1.
        -11    1    1    2    0    0 -0.30900176161E+01 -0.52632906219E+02  0.98574459667E+02  0.11178861805E+03  0.00000000000E+00 0.  1.
         11    1    1    2    0    0  0.35363505153E+01  0.36110493934E+02  0.33575554426E+02  0.49434718591E+02  0.00000000000E+00 0. -1.
</event>
<event>
 7    1  0.1538147E-010  0.1127159E+03  0.7561462E-02  0.1255621E+00
          4   -1    0    0  501    0  0.00000000000E+00  0.00000000000E+00  0.70845594985E+02  0.70845594985E+02  0.00000000000E+00 0. -1.
         -4   -1    0    0    0  501 -0.00000000000E+00 -0.00000000000E+00 -0.20671535073E+03  0.20671535073E+03  0.00000000000E+00 0.  1.
         25    2    1    2    0    0 -0.21281674690E+01  0.50670760488E+02 -0.88686523370E+02  0.16152642853E+03  0.12511367879E+03 0.  0.
          5    1    3    3  502    0  0.22169554511E+02 -0.30018190862E+02  0.20728132255E+01  0.37607843391E+02  0.41800000000E+01 0.  1.
         -5    1    3    3    0  502 -0.24297721980E+02  0.80688951350E+02 -0.90759336596E+02  0.12391858514E+03  0.41800000000E+01 0.  1.
        -11    1    1    2    0    0 -0.44027193975E+02 -0.26870397229E+02 -0.10993266529E+02  0.52737690180E+02  0.00000000000E+00 0.  1.
         11    1    1    2    0    0  0.46155361444E+02 -0.23800363260E+02 -0.36189965850E+02  0.63296827010E+02  0.00000000000E+00 0. -1.
</event>
<event>
 7    1  0.1538147E-010  0.1273546E+03  0.7561462E-02  0.1231435E+00
         -2   -1    0    0    0  501 -0.00000000000E+00  0.00000000000E+00  0.15599474473E+03  0.15599474473E+03  0.00000000000E+00 0.  1.
          2   -1    0    0  501    0  0.00000000000E+00 -0.00000000000E+00 -0.12060444072E+03  0.12060444072E+03  0.00000000000E+00 0. -1.
         25    2    1    2    0    0  0.86406325266E+02 -0.31287188922E+00  0.46337266557E+01  0.15207056637E+03  0.12505132865E+03 0.  0.
          5    1    3    3  502    0  0.62727482378E+02  0.60102578028E+02  0.29431797009E+01  0.87024086538E+02  0.41800000000E+01 0. -1.
         -5    1    3    3    0  502  0.23678842888E+02 -0.60415449917E+02  0.16905469549E+01  0.65046479830E+02  0.41800000000E+01 0. -1.
        -11    1    1    2    0    0 -0.82054725489E+02 -0.17900403951E+02 -0.50339661992E+01  0.84135267589E+02  0.00000000000E+00 0. -1.
         11    1    1    2    0    0 -0.43515997776E+01  0.18213275840E+02  0.35790543547E+02  0.40393351493E+02  0.00000000000E+00 0.  1.
</event>
<event>
 7    1  0.1538147E-010  0.1175052E+03  0.7561462E-02  0.1247270E+00
         -2   -1    0    0    0  501 -0.00000000000E+00  0.00000000000E+00  0.31141981308E+02  0.31141981308E+02  0.00000000000E+00 0.  1.
          2   -1    0    0  501    0  0.00000000000E+00 -0.00000000000E+00 -0.72162375444E+03  0.72162375444E+03  0.00000000000E+00 0. -1.
         25    2    1    2    0    0 -0.25416271377E+02  0.41060351626E+02 -0.60227327426E+03  0.61701049116E+03  0.12504763086E+03 0.  0.
          5    1    3    3  502    0  0.42151248132E+02 -0.14821481817E+02 -0.24773152515E+03  0.25176335118E+03  0.41800000000E+01 0. -1.
         -5    1    3    3    0  502 -0.67567519509E+02  0.55881833443E+02 -0.35454174911E+03  0.36524713998E+03  0.41800000000E+01 0. -1.
        -11    1    1    2    0    0  0.58033900409E+02 -0.13341290944E+02 -0.59731664128E+02  0.84343318290E+02  0.00000000000E+00 0.  1.
         11    1    1    2    0    0 -0.32617629032E+02 -0.27719060682E+02 -0.28476834740E+02  0.51411926297E+02  0.00000000000E+00 0. -1.
</event>
<event>
 7    1  0.1538147E-010  0.1111318E+03  0.7561462E-02  0.1258488E+00
         -3   -1    0    0    0  501 -0.00000000000E+00  0.00000000000E+00  0.74302461503E+02  0.74302461503E+02  0.00000000000E+00 0.  1.
          3   -1    0    0  501    0  0.00000000000E+00 -0.00000000000E+00 -0.22141070689E+03  0.22141070689E+03  0.00000000000E+00 0. -1.
         25    2    1    2    0    0  0.51125141118E+01 -0.58350059050E+02 -0.40654429352E+02  0.14400223563E+03  0.12511192609E+03 0.  0.
          5    1    3    3  502    0  0.37701640908E+02 -0.80294683986E+02 -0.51982831803E+02  0.10289964629E+03  0.41800000000E+01 0.  1.
         -5    1    3    3    0  502 -0.32589126796E+02  0.21944624936E+02  0.11328402451E+02  0.41102589347E+02  0.41800000000E+01 0.  1.
        -11    1    1    2    0    0 -0.24233227907E+02 -0.75095168974E+01 -0.69118648959E+02  0.73627642993E+02  0.00000000000E+00 0.  1.
         11    1    1    2    0    0  0.19120713795E+02  0.65859575948E+02 -0.37335167074E+02  0.78083289765E+02  0.00000000000E+00 0. -1.
</event>
<event>
 6    1  0.1538147E-010  0.1280261E+03  0.7561462E-02  0.1230414E+00
         -2   -1    0    0    0  501 -0.00000000000E+00  0.00000000000E+00  0.29205081185E+02  0.29205081185E+02  0.00000000000E+00 0.  1.
          2   -1    0    0  501    0  0.00000000000E+00 -0.00000000000E+00 -0.67644869053E+03  0.67644869053E+03  0.00000000000E+00 0. -1.
          5    1    1    2  502    0 -0.24108280001E+02  0.22738451813E+02 -0.24447975440E+02  0.41393505029E+02  0.41800000000E+01 0.  1.
         -5    1    1    2    0  502  0.10326407256E+03 -0.20943733778E+02 -0.23032727556E+03  0.25331844570E+03  0.41800000000E+01 0.  1.
        -11    1    1    2    0    0 -0.93701204068E+02 -0.18011095374E+02 -0.26565298753E+03  0.28226906487E+03  0.00000000000E+00 0.  1.
         11    1    1    2    0    0  0.14545411507E+02  0.16216377339E+02 -0.12681537081E+03  0.12867275611E+03  0.00000000000E+00 0. -1.
</event>
<event>
 7    1  0.1538147E-010  0.1189527E+03  0.7561462E-02  0.1244835E+00
          2   -1    0    0  501    0  0.00000000000E+00  0.00000000000E+00  0.40598970603E+03  0.40598970603E+03  0.00000000000E+00 0.  1.
         -2   -1    0    0    0  501 -0.00000000000E+00 -0.00000000000E+00 -0.38394311865E+02  0.38394311865E+02  0.00000000000E+00 0. -1.
         25    2    1    2    0    0 -0.57930393162E+02  0.11260179905E+02  0.16622751343E+03  0.21626251577E+03  0.12512061143E+03 0.  0.
          5    1    3    3  502    0 -0.96314072748E+02  0.11109846390E+02  0.13675807697E+03  0.16769040913E+03  0.41800000000E+01 0.  1.
         -5    1    3    3    0  502  0.38383679586E+02  0.15033351459E+00  0.29469436455E+02  0.48572106643E+02  0.41800000000E+01 0.  1.
        -11    1    1    2    0    0 -0.96217028626E+01  0.24139445561E+02  0.25402400765E+02  0.36339674773E+02  0.00000000000E+00 0. -1.
         11    1    1    2    0    0  0.67552096025E+02 -0.35399625466E+02  0.17596547997E+03  0.19178182735E+03  0.00000000000E+00 0.  1.
</event>
<event>
 7    1  0.1538147E-010  0.1465871E+03  0.7561462E-02  0.1204731E+00
         -1   -1    0    0    0  501 -0.00000000000E+00  0.00000000000E+00  0.71336566671E+02  0.71336566671E+02  0.00000000000E+00 0.  1.
          1   -1    0    0  501    0  0.00000000000E+00 -0.00000000000E+00 -0.52289889437E+03  0.52289889437E+03  0.00000000000E+00 0. -1.
         25    2    1    2    0    0  0.55443562355E+02  0.92199914822E+02 -0.40493859313E+03  0.43727301619E+03  0.12513038632E+03 0.  0.
          5    1    3    3  502    0  0.81697783636E+02  0.99368775055E+02 -0.26441543003E+03  0.29407766550E+03  0.41800000000E+01 0. -1.
         -5    1    3    3    0  502 -0.26254221281E+02 -0.71688602331E+01 -0.14052316309E+03  0.14319535069E+03  0.41800000000E+01 0. -1.
        -11    1    1    2    0    0 -0.74367306644E+02 -0.47117838754E+02  0.19277728667E+01  0.88058522215E+02  0.00000000000E+00 0.  1.
         11    1    1    2    0    0  0.18923744290E+02 -0.45082076068E+02 -0.48551507437E+02  0.68903922638E+02  0.00000000000E+00 0. -1.
</event>
<event>
 6    1  0.1538147E-010  0.8034655E+02  0.7561462E-02  0.1328071E+00
          2   -1    0    0  501    0  0.00000000000E+00  0.00000000000E+00  0.39985023833E+03  0.39985023833E+03  0.00000000000E+00 0. -1.
         -2   -1    0    0    0  501 -0.00000000000E+00 -0.00000000000E+00 -0.39260725294E+02  0.39260725294E+02  0.00000000000E+00 0.  1.
          5    1    1    2  502    0  0.38527168581E+02  0.39514858607E+02  0.15839290551E+02  0.57568414037E+02  0.41800000000E+01 0.  1.
         -5    1    1    2    0  502 -0.11222087774E+02  0.15770907051E+02  0.19057993078E+03  0.19160594767E+03  0.41800000000E+01 0.  1.
        -11    1    1    2    0    0 -0.43680684601E+02 -0.23053948705E+02  0.14421421713E+03  0.15243761734E+03  0.00000000000E+00 0. -1.
         11    1    1    2    0    0  0.16375603794E+02 -0.32231816953E+02  0.99560745714E+01  0.37498984581E+02  0.00000000000E+00 0.  1.
</event>
<event>
 7    1  0.1538147E-010  0.1225781E+03  0.7561462E-02  0.1238904E+00
          1   -1    0    0  501    0  0.00000000000E+00  0.00000000000E+00  0.22465657131E+03  0.22465657131E+03  0.00000000000E+00 0. -1.
         -1   -1    0    0    0  501 -0.00000000000E+00 -0.00000000000E+00 -0.74573495662E+02  0.74573495662E+02  0.00000000000E+00 0.  1.
         25    2    1    2    0    0 -0.56681117971E+02  0.17005991896E+02  0.12633171973E+03  0.18735909035E+03  0.12506707174E+03 0.  0.
          5    1    3    3  502    0 -0.81943310253E+02  0.50026775646E+02  0.95025834286E+02  0.13514720108E+03  0.41800000000E+01 0. -1.
         -5    1    3    3    0  502  0.25262192282E+02 -0.33020783750E+02  0.31305885443E+02  0.52211889276E+02  0.41800000000E+01 0. -1.
        -11    1    1    2    0    0  0.75195081164E+02 -0.33646385410E+02  0.88375454781E+01  0.82852167700E+02  0.00000000000E+00 0.  1.
         11    1    1    2    0    0 -0.18513963194E+02  0.16640393515E+02  0.14913810443E+02  0.29018808924E+02  0.00000000000E+00 0. -1.
</event>
<event>
 7    1  0.1538147E-010  0.1481568E+03  0.7561462E-02  0.1202756E+00
         -2   -1    0    0    0  501 -0.00000000000E+00  0.00000000000E+00  0.32377670205E+03  0.32377670205E+03  0.00000000000E+00 0. -1.
          2   -1    0    0  501    0  0.00000000000E+00 -0.00000000000E+00 -0.12411758042E+03  0.12411758042E+03  0.00000000000E+00 0.  1.
         25    2    1    2    0    0 -0.76797657602E+02 -0.81590188156E+02  0.24437760922E+03  0.29652654847E+03  0.12511090697E+03 0.  0.
          5    1    3    3  502    0 -0.42073494267E+02 -0.10639351174E+03  0.21786507856E+03  0.24611465442E+03  0.41800000000E+01 0.  1.
         -5    1    3    3    0  502 -0.34724163335E+02  0.24803323587E+02  0.26512530657E+02  0.50411894054E+02  0.41800000000E+01 0.  1.
        -11    1    1    2    0    0  0.94508504957E+02  0.65184221411E+02 -0.19492260512E+02  0.11645079841E+03  0.00000000000E+00 0. -1.
         11    1    1    2    0    0 -0.17710847355E+02  0.16405966745E+02 -0.25226227073E+02  0.34916935593E+02  0.00000000000E+00 0.  1.
</event>
<event>
 7    1  0.1538147E-010  0.1406105E+03  0.7561462E-02  0.1212510E+00
         -2   -1    0    0    0  501 -0.00000000000E+00  0.00000000000E+00  0.90792951201E+02  0.90792951201E+02  0.00000000000E+00 0. -1.
          2   -1    0    0  501    0  0.00000000000E+00 -0.00000000000E+00 -0.29059319026E+03  0.29059319026E+03  0.00000000000E+00 0.  1.
         25    2    1    2    0    0  0.11264175275E+03  0.21643848505E+02 -0.14136208892E+03  0.22085297006E+03  0.12504468626E+03 0.  0.
          5    1    3    3  502    0  0.72852499974E+01  0.50458368872E+02 -0.81515818223E+02  0.96236286698E+02  0.41800000000E+01 0.  1.
         -5    1    3    3    0  502  0.10535650275E+03 -0.28814520366E+02 -0.59846270694E+02  0.12461668336E+03  0.41800000000E+01 0.  1.
        -11    1    1    2    0    0 -0.34446539386E+02 -0.24893372692E+02 -0.69528086661E+02  0.81488642855E+02  0.00000000000E+00 0.  1.
         11    1    1    2    0    0 -0.78195213366E+02  0.32495241864E+01  0.11089936519E+02  0.79044528545E+02  0.00000000000E+00 0. -1.
</event>
<event>
 7    1  0.1538147E-010  0.1255224E+03  0.7561462E-02  0.1234255E+00
          2   -1    0    0  501    0  0.00000000000E+00  0.00000000000E+00  0.17359547352E+04  0.17359547352E+04  0.00000000000E+00 0.  1.
         -2   -1    0    0    0  501 -0.00000000000E+00 -0.00000000000E+00 -0.14762555010E+02  0.14762555010E+02  0.00000000000E+00 0. -1.
         25    2    1    2    0    0  0.42890971831E+01 -0.85495521322E+02  0.13745348436E+04  0.13828648604E+04  0.12506520426E+03 0.  0.
          5    1    3    3  502    0 -0.35333319702E+02  0.17678314096E+02  0.29088380301E+03  0.29358444360E+03  0.41800000000E+01 0.  1.
         -5    1    3    3    0  502  0.39622416885E+02 -0.10317383542E+03  0.10836510406E+04  0.10892804168E+04  0.41800000000E+01 0.  1.
        -11    1    1    2    0    0  0.24127084162E+02  0.31271619023E+02  0.44261390918E+02  0.59322011703E+02  0.00000000000E+00 0. -1.
         11    1    1    2    0    0 -0.28416181345E+02  0.54223902299E+02  0.30239594566E+03  0.30853041810E+03  0.00000000000E+00 0.  1.
</event>
<event>
 6    1  0.1538147E-010  0.1148158E+03  0.7561462E-02  0.1251903E+00
         -1   -1    0    0    0  501 -0.00000000000E+00  0.00000000000E+00  0.40517268694E+03  0.40517268694E+03  0.00000000000E+00 0. -1.
          1   -1    0    0  501    0  0.00000000000E+00 -0.00000000000E+00 -0.53933679994E+02  0.53933679994E+02  0.00000000000E+00 0.  1.
          5    1    1    2  502    0 -0.56331475000E+02 -0.94055734582E+01  0.13682881008E+03  0.14832833699E+03  0.41800000000E+01 0.  1.
         -5    1    1    2    0  502  0.50653690930E+02  0.57564974869E+02  0.18831413396E+03  0.20336963437E+03  0.41800000000E+01 0.  1.
        -11    1    1    2    0    0 -0.38232368651E+02 -0.27193476172E+02 -0.85313454305E+01  0.47686297967E+02  0.00000000000E+00 0.  1.
         11    1    1    2    0    0  0.43910152721E+02 -0.20965925239E+02  0.34627408334E+02  0.59722097595E+02  0.00000000000E+00 0. -1.
</event>
<event>
 7    1  0.1538147E-010  0.8609196E+02  0.7561462E-02  0.1312601E+00
         -1   -1    0    0    0  501 -0.00000000000E+00  0.00000000000E+00  0.20158474982E+02  0.20158474982E+02  0.00000000000E+00 0.  1.
          1   -1    0    0  501    0  0.00000000000E+00 -0.00000000000E+00 -0.71991698430E+03  0.71991698430E+03  0.00000000000E+00 0. -1.
         25    2    1    2    0    0 -0.39805239459E+02  0.31407721514E+02 -0.42120413811E+03  0.44229569784E+03  0.12506660747E+03 0.  0.
          5    1    3    3  502    0 -0.68498396409E+02  0.97704265664E+01 -0.38471836884E+03  0.39091327334E+03  0.41800000000E+01 0. -1.
         -5    1    3    3    0  502  0.28693156951E+02  0.21637294947E+02 -0.36485769271E+02  0.51382424502E+02  0.41800000000E+01 0. -1.
        -11    1    1    2    0    0 -0.84988044699E+01 -0.11829354975E+02 -0.17887396293E+00  0.14566925291E+02  0.00000000000E+00 0.  1.
         11    1    1    2    0    0  0.48304043929E+02 -0.19578366539E+02 -0.27837549725E+03  0.28321283616E+03  0.00000000000E+00 0. -1.
</event>
<event>
 6    1  0.1538147E-010  0.1249103E+03  0.7561462E-02  0.1235209E+00
          4   -1    0    0  501    0  0.00000000000E+00  0.00000000000E+00  0.19347881690E+03  0.19347881690E+03  0.00000000000E+00 0.  1.
         -4   -1    0    0    0  501 -0.00000000000E+00 -0.00000000000E+00 -0.10177753355E+03  0.10177753355E+03  0.00000000000E+00 0. -1.
          5    1    1    2  502    0  0.13583679045E+02  0.58213668763E+02  0.59484724819E+02  0.84434900687E+02  0.41800000000E+01 0.  1.
         -5    1    1    2    0  502 -0.82697477526E+02 -0.71066128395E+01  0.13935366790E+02  0.84267690028E+02  0.41800000000E+01 0.  1.
        -11    1    1    2    0    0  0.62311726310E+02 -0.65785588181E+02  0.40350395242E+02  0.99189965442E+02  0.00000000000E+00 0.  1.
         11    1    1    2    0    0  0.68020721699E+01  0.14678532258E+02 -0.22069203499E+02  0.27363794294E+02  0.00000000000E+00 0. -1.
</event>
<event>
 6    1  0.1538147E-010  0.1200065E+03  0.7561462E-02  0.1243086E+00
         -1   -1    0    0    0  501 -0.00000000000E+00  0.00000000000E+00  0.98244562665E+01  0.98244562665E+01  0.00000000000E+00 0.  1.
          1   -1    0    0  501    0  0.00000000000E+00 -0.00000000000E+00 -0.18628558744E+04  0.18628558744E+04  0.00000000000E+00 0. -1.
          5    1    1    2  502    0 -0.29543306611E+02  0.86384375870E+02 -0.57494072599E+03  0.58215923780E+03  0.41800000000E+01 0.  1.
         -5    1    1    2    0  502  0.27355386900E+02 -0.17156358274E+02 -0.69827775797E+03  0.69903644934E+03  0.41800000000E+01 0.  1.
        -11    1    1    2    0    0 -0.42318636832E+02 -0.54874868344E+02 -0.38054270326E+03  0.38680081075E+03  0.00000000000E+00 0. -1.
         11    1    1    2    0    0  0.44506556543E+02 -0.14353149251E+02 -0.19927023093E+03  0.20468383279E+03  0.00000000000E+00 0.  1.
</event>
<event>
 7    1  0.1538147E-010  0.7970051E+02  0.7561462E-02  0.1329903E+00
          4   -1    0    0  501    0  0.00000000000E+00  0.00000000000E+00  0.47058942928E+03  0.47058942928E+03  0.00000000000E+00 0. -1.
         -4   -1    0    0    0  501 -0.00000000000E+00 -0.00000000000E+00 -0.31859068232E+02  0.31859068232E+02  0.00000000000E+00 0.  1.
         25    2    1    2    0    0 -0.21414299417E+02 -0.51296778975E+02  0.26054791985E+03  0.29430736730E+03  0.12506668683E+03 0.  0.
          5    1    3    3  502    0  0.10596400174E+02  0.30242402441E+01 -0.10625885237E+02  0.15868571541E+02  0.41800000000E+01 0.  1.
         -5    1    3    3    0  502 -0.32010699591E+02 -0.54321019220E+02  0.27117380508E+03  0.27843879575E+03  0.41800000000E+01 0.  1.
        -11    1    1    2    0    0  0.33991679707E+01  0.62903538732E+02  0.17559758382E+03  0.18655540992E+03  0.00000000000E+00 0. -1.
         11    1    1    2    0    0  0.18015131447E+02 -0.11606759757E+02  0.25848573860E+01  0.21585720298E+02  0.00000000000E+00 0.  1.
</event>
<event>
 7    1  0.1538147E-010  0.1027298E+03  0.7561462E-02  0.1274658E+00
          3   -1    0    0  501    0  0.00000000000E+00  0.00000000000E+00  0.43698945762E+02  0.43698945762E+02  0.00000000000E+00 0. -1.
         -3   -1    0    0    0  501 -0.00000000000E+00 -0.00000000000E+00 -0.30496299971E+03  0.30496299971E+03  0.00000000000E+00 0.  1.
         25    2    1    2    0    0 -0.30537601657E+02 -0.10994613153E+02 -0.20488694461E+03  0.24221516277E+03  0.12504438560E+03 0.  0.
          5    1    3    3  502    0  0.45734665525E+02 -0.22624765299E+02 -0.69335738501E+02  0.86188494992E+02  0.41800000000E+01 0. -1.
         -5    1    3    3    0  502 -0.76272267182E+02  0.11630152146E+02 -0.13555120611E+03  0.15602666778E+03  0.41800000000E+01 0. -1.
        -11    1    1    2    0    0 -0.12809477742E+02 -0.19970515431E+02 -0.46591278916E+02  0.52284333003E+02  0.00000000000E+00 0.  1.
         11    1    1    2    0    0  0.43347079399E+02  0.30965128584E+02 -0.97858304254E+01  0.54162449703E+02  0.00000000000E+00 0. -1.
</event>
<event>
 6    1  0.1538147E-010  0.1189840E+03  0.7561462E-02  0.1244783E+00
          2   -1    0    0  501    0  0.00000000000E+00  0.00000000000E+00  0.14926011860E+03  0.14926011860E+03  0.00000000000E+00 0. -1.
         -2   -1    0    0    0  501 -0.00000000000E+00 -0.00000000000E+00 -0.12309278301E+03  0.12309278301E+03  0.00000000000E+00 0.  1.
          5    1    1    2  502    0 -0.46735909881E+01 -0.31626485565E+02  0.35059069970E+02  0.47630744578E+02  0.41800000000E+01 0.  1.
         -5    1    1    2    0  502 -0.32284197788E+02  0.99579017193E+02  0.48509652883E+01  0.10487733004E+03  0.41800000000E+01 0.  1.
        -11    1    1    2    0    0  0.54085451021E+02 -0.63205480586E+02 -0.36606329446E+02  0.90885599210E+02  0.00000000000E+00 0.  1.
         11    1    1    2    0    0 -0.17127662245E+02 -0.47470510422E+01  0.22863629775E+02  0.28959227788E+02  0.00000000000E+00 0. -1.
</event>
<event>
 7    1  0.1538147E-010  0.1005775E+03  0.7561462E-02  0.1279086E+00
          2   -1    0    0  501    0  0.00000000000E+00  0.00000000000E+00  0.36853826595E+03  0.36853826595E+03  0.00000000000E+00 0.  1.
         -2   -1    0    0    0  501 -0.00000000000E+00 -0.00000000000E+00 -0.53132827631E+02  0.53132827631E+02  0.00000000000E+00 0. -1.
         25    2    1    2    0    0  0.11019294602E+02 -0.44581506759E+02  0.28415843251E+03  0.31387206142E+03  0.12514280074E+03 0.  0.
          5    1    3    3  502    0  0.84854816622E+01 -0.81539691741E+02  0.11904678223E+03  0.14460405764E+03  0.41800000000E+01 0. -1.
         -5    1    3    3    0  502  0.25338129399E+01  0.36958184982E+02  0.16511165028E+03  0.16926800378E+03  0.41800000000E+01 0. -1.
        -11    1    1    2    0    0  0.27409242071E+02  0.30131394833E+02 -0.17269616323E+02  0.44242594335E+02  0.00000000000E+00 0. -1.
         11    1    1    2    0    0 -0.38428536673E+02  0.14450111926E+02  0.48516622135E+02  0.63556437824E+02  0.00000000000E+00 0.  1.
</event>
<event>
 7    1  0.1538147E-010  0.8292338E+02  0.7561462E-02  0.1320954E+00
         -1   -1    0    0    0  501 -0.00000000000E+00  0.00000000000E+00  0.60883933041E+02  0.60883933041E+02  0.00000000000E+00 0.  1.
          1   -1    0    0  501    0  0.00000000000E+00 -0.00000000000E+00 -0.22059312351E+03  0.22059312351E+03  0.00000000000E+00 0. -1.
         25    2    1    2    0    0 -0.21632601668E+02 -0.29568595199E+01 -0.13211418892E+03  0.18327398620E+03  0.12513385885E+03 0.  0.
          5    1    3    3  502    0 -0.53017544372E+02 -0.35797665197E+02 -0.28687392847E+02  0.70233693859E+02  0.41800000000E+01 0. -1.
         -5    1    3    3    0  502  0.31384942704E+02  0.32840805677E+02 -0.10342679607E+03  0.11304029234E+03  0.41800000000E+01 0. -1.
        -11    1    1    2    0    0 -0.13714998632E+02 -0.11532192458E+02  0.26493354909E+02  0.31984222746E+02  0.00000000000E+00 0.  1.
         11    1    1    2    0    0  0.35347600300E+02  0.14489051978E+02 -0.54088356460E+02  0.66218847610E+02  0.00000000000E+00 0. -1.
</event>
<event>
 7    1  0.1538147E-010  0.1507219E+03  0.7561462E-02  0.1199589E+00
          1   -1    0    0  501    0  0.00000000000E+00  0.00000000000E+00  0.17059103043E+03  0.17059103043E+03  0.00000000000E+00 0. -1.
         -1   -1    0    0    0  501 -0.00000000000E+00 -0.00000000000E+00 -0.14072988194E+03  0.14072988194E+03  0.00000000000E+00 0.  1.
         25    2    1    2    0    0 -0.98437814278E+02  0.35586757013E+02  0.50322464011E+02  0.17072295283E+03  0.12513015498E+03 0.  0.
          5    1    3    3  502    0 -0.12829232562E+03  0.27353235603E+02  0.46516515151E+02  0.13924215918E+03  0.41800000000E+01 0.  1.
         -5    1    3    3    0  502  0.29854511341E+02  0.82335214102E+01  0.38059488600E+01  0.31480793652E+02  0.41800000000E+01 0.  1.
        -11    1    1    2    0    0  0.62008262447E+02  0.26126928047E+02 -0.13167375594E+02  0.68563990264E+02  0.00000000000E+00 0.  1.
         11    1    1    2    0    0  0.36429551831E+02 -0.61713685060E+02 -0.72939399283E+01  0.72033969278E+02  0.00000000000E+00 0. -1.
</event>
<event>
 6    1  0.1538147E-010  0.8575367E+02  0.7561462E-02  0.1313473E+00
         -2   -1    0    0    0  501 -0.00000000000E+00  0.00000000000E+00  0.28760806150E+03  0.28760806150E+03  0.00000000000E+00 0.  1.
          2   -1    0    0  501    0  0.00000000000E+00 -0.00000000000E+00 -0.44689783129E+02  0.44689783129E+02  0.00000000000E+00 0. -1.
          5    1    1    2  502    0 -0.48078034594E+02  0.31103927650E+02  0.35386876891E+02  0.67443718624E+02  0.41800000000E+01 0. -1.
         -5    1    1    2    0  502  0.26366787903E+02 -0.43267864816E+02  0.14147585945E+03  0.15033365172E+03  0.41800000000E+01 0. -1.
        -11    1    1    2    0    0 -0.18343967554E+00 -0.22365416717E+02  0.69960328890E+02  0.73448574755E+02  0.00000000000E+00 0.  1.
         11    1    1    2    0    0  0.21894686367E+02  0.34529353884E+02 -0.39047868657E+01  0.41071899533E+02  0.00000000000E+00 0. -1.
</event>
<event>
 6    1  0.1538147E-010  0.2102993E+03  0.7561462E-02  0.1141329E+00
          2   -1    0    0  501    0  0.00000000000E+00  0.00000000000E+00  0.17065506074E+04  0.17065506074E+04  0.00000000000E+00 0. -1.
         -2   -1    0    0    0  501 -0.00000000000E+00 -0.00000000000E+00 -0.27394737331E+02  0.27394737331E+02  0.00000000000E+00 0.  1.
          5    1    1    2  502    0 -0.15302826925E+03  0.19241916003E+02  0.65756210627E+03  0.67542083069E+03  0.41800000000E+01 0.  1.
         -5    1    1    2    0  502 -0.23677430094E+02 -0.57934116091E+02  0.38765953671E+03  0.39270137676E+03  0.41800000000E+01 0.  1.
        -11    1    1    2    0    0  0.15299346952E+03  0.66687126896E+02  0.51806849925E+03  0.54428774056E+03  0.00000000000E+00 0. -1.
         11    1    1    2    0    0  0.23712229828E+02 -0.27994926808E+02  0.11586572785E+03  0.12153539674E+03  0.00000000000E+00 0.  1.
</event>
<event>
 7    1  0.1756899E-010  0.8421666E+02  0.7561462E-02  0.1317494E+00
          2   -1    0    0  501    0  0.00000000000E+00  0.00000000000E+00  0.58693973649E+03  0.58693973649E+03  0.00000000000E+00 0. -1.
         -2   -1    0    0    0  501 -0.00000000000E+00 -0.00000000000E+00 -0.32576241112E+02  0.32576241112E+02  0.00000000000E+00 0.  1.
         25    2    1    2    0    0 -0.44678571593E+02  0.64154432061E+02  0.38161247195E+03  0.40913939885E+03  0.12511995456E+03 0.  0.
          5    1    3    3  502    0 -0.33640104144E+02  0.69403737473E+02  0.38737057371E+03  0.39499616347E+03  0.41800000000E+01 0.  1.
         -5    1    3    3    0  502 -0.11038467450E+02 -0.52493054125E+01 -0.57581017606E+01  0.14143235374E+02  0.41800000000E+01 0.  1.
        -11    1    1    2    0    0  0.17676858121E+02 -0.28745960854E+02  0.18797746245E+01  0.33798448649E+02  0.00000000000E+00 0.  1.
         11    1    1    2    0    0  0.27001713473E+02 -0.35408471206E+02  0.17087124880E+03  0.17657813011E+03  0.00000000000E+00 0. -1.
</event>
<event>
 7    1  0.1538147E-010  0.1085735E+03  0.7561462E-02  0.1263235E+00
         -1   -1    0    0    0  501 -0.00000000000E+00  0.00000000000E+00  0.19883219759E+03  0.19883219759E+03  0.00000000000E+00 0.  1.
          1   -1    0    0  501    0  0.00000000000E+00 -0.00000000000E+00 -0.94794389782E+02  0.94794389782E+02  0.00000000000E+00 0. -1.
         25    2    1    2    0    0 -0.17008984440E+02 -0.55672252026E+02  0.11918737974E+03  0.18229643303E+03  0.12505060099E+03 0.  0.
          5    1    3    3  502    0 -0.41821280421E+02 -0.78416096900E+02  0.11874271007E+03  0.14837589879E+03  0.41800000000E+01 0.  1.
         -5    1    3    3    0  502  0.24812295981E+02  0.22743844874E+02  0.44466967481E+00  0.33920534233E+02  0.41800000000E+01 0.  1.
        -11    1    1    2    0    0  0.31160868122E+02 -0.53510435256E+01  0.21983526015E+02  0.38508554699E+02  0.00000000000E+00 0.  1.
         11    1    1    2    0    0 -0.14151883682E+02  0.61023295552E+02 -0.37133097949E+02  0.72821599646E+02  0.00000000000E+00 0. -1.
</event>
<event>
 7    1  0.1538147E-010  0.9372716E+02  0.7561462E-02  0.1294069E+00
          2   -1    0    0  501    0  0.00000000000E+00  0.00000000000E+00  0.51309701947E+03  0.51309701947E+03  0.00000000000E+00 0. -1.
         -2   -1    0    0    0  501 -0.00000000000E+00 -0.00000000000E+00 -0.27251649552E+02  0.27251649552E+02  0.00000000000E+00 0.  1.
         25    2    1    2    0    0 -0.17737706514E+02 -0.17046353357E+01  0.37906538233E+03  0.39955991831E+03  0.12506011443E+03 0.  0.
          5    1    3    3  502    0 -0.19506016290E+02  0.48525317395E+02  0.76147658018E+02  0.92472316514E+02  0.41800000000E+01 0.  1.
         -5    1    3    3    0  502  0.17683097762E+01 -0.50229952731E+02  0.30291772431E+03  0.30708760179E+03  0.41800000000E+01 0.  1.
        -11    1    1    2    0    0  0.15047514471E+02 -0.40013379627E+02  0.81236415703E+02  0.91797894732E+02  0.00000000000E+00 0.  1.
         11    1    1    2    0    0  0.26901920428E+01  0.41718014963E+02  0.25543571887E+02  0.48990855988E+02  0.00000000000E+00 0. -1.
</event>
<event>
 6    1  0.1538147E-010  0.1444899E+03  0.7561462E-02  0.1207412E+00
          2   -1    0    0  501    0  0.00000000000E+00  0.00000000000E+00  0.76031621137E+03  0.76031621137E+03  0.00000000000E+00 0. -1.
         -2   -1    0    0    0  501 -0.00000000000E+00 -0.00000000000E+00 -0.32966304741E+02  0.32966304741E+02  0.00000000000E+00 0.  1.
          5    1    1    2  502    0  0.91286636260E+02 -0.31593949088E+02  0.18246093740E+03  0.20649671585E+03  0.41800000000E+01 0. -1.
         -5    1    1    2    0  502  0.17499104381E+02  0.68176279929E+02  0.19519097569E+03  0.20753605275E+03  0.41800000000E+01 0. -1.
        -11    1    1    2    0    0 -0.56795129671E+02 -0.40324707640E+02  0.87091055359E+02  0.11151959794E+03  0.00000000000E+00 0.  1.
         11    1    1    2    0    0 -0.51990610971E+02  0.37423767994E+01  0.26260693818E+03  0.26773014958E+03  0.00000000000E+00 0. -1.
</event>
<event>
 6    1  0.1538147E-010  0.9670917E+02  0.7561462E-02  0.1287372E+00
         -2   -1    0    0    0  501 -0.00000000000E+00  0.00000000000E+00  0.12150948218E+03  0.12150948218E+03  0.00000000000E+00 0.  1.
          2   -1    0    0  501    0  0.00000000000E+00 -0.00000000000E+00 -0.12283352583E+03  0.12283352583E+03  0.00000000000E+00 0. -1.
          5    1    1    2  502    0 -0.60144285919E+02  0.49116827597E+02 -0.43442639087E+02  0.89075996614E+02  0.41800000000E+01 0.  1.
         -5    1    1    2    0  502  0.16692905982E+02 -0.45939634459E+02  0.23737938122E+01  0.49114258840E+02  0.41800000000E+01 0.  1.
        -11    1    1    2    0    0  0.49949664759E+02  0.10870975551E+02 -0.11690758992E+02  0.52438735347E+02  0.00000000000E+00 0. -1.
         11    1    1    2    0    0 -0.64982848222E+01 -0.14048168688E+02  0.51435560612E+02  0.53714017208E+02  0.00000000000E+00 0.  1.
</event>
<event>
 7    1  0.1538147E-010  0.1002206E+03  0.7561462E-02  0.1279833E+00
          2   -1    0    0  501    0  0.00000000000E+00  0.00000000000E+00  0.33984149716E+03  0.33984149716E+03  0.00000000000E+00 0. -1.
         -2   -1    0    0    0  501 -0.00000000000E+00 -0.00000000000E+00 -0.41026345503E+02  0.41026345503E+02  0.00000000000E+00 0.  1.
         25    2    1    2    0    0 -0.18228655741E+01 -0.45982165281E+02  0.18112101068E+03  0.22485150466E+03  0.12504277779E+03 0.  0.
          5    1    3    3  502    0  0.51018942820E+02  0.12695350348E+02  0.56769651740E+02  0.77487871345E+02  0.41800000000E+01 0.  1.
         -5    1    3    3    0  502 -0.52841808394E+02 -0.58677515629E+02  0.12435135894E+03  0.14736363332E+03  0.41800000000E+01 0.  1.
        -11    1    1    2    0    0  0.24081560815E+02  0.94958974140E+01  0.10947433025E+03  0.11249321145E+03  0.00000000000E+00 0. -1.
         11    1    1    2    0    0 -0.22258695241E+02  0.36486267867E+02  0.82198107370E+01  0.43523126557E+02  0.00000000000E+00 0.  1.
</event>
<event>
 6    1  0.1538147E-010  0.1512817E+03  0.7561462E-02  0.1198907E+00
          2   -1    0    0  501    0  0.00000000000E+00  0.00000000000E+00  0.10583612474E+04  0.10583612474E+04  0.00000000000E+00 0. -1.
         -2   -1    0    0    0  501 -0.00000000000E+00 -0.00000000000E+00 -0.22363032250E+02  0.22363032250E+02  0.00000000000E+00 0.  1.
          5    1    1    2  502    0 -0.31862563452E+02 -0.12572617362E+03  0.43979715986E+03  0.45854259116E+03  0.41800000000E+01 0. -1.
         -5    1    1    2    0  502 -0.14668252019E+02  0.28633616633E+02  0.17532664300E+03  0.17830296062E+03  0.41800000000E+01 0. -1.
        -11    1    1    2    0    0  0.54007427764E+02  0.12505973180E+02  0.14522744843E+03  0.15544842681E+03  0.00000000000E+00 0.  1.
         11    1    1    2    0    0 -0.74766122927E+01  0.84586583805E+02  0.27564696381E+03  0.28843030103E+03  0.00000000000E+00 0. -1.
</event>
<event>
 7    1  0.1538147E-010  0.9230224E+02  0.7561462E-02  0.1297370E+00
         -2   -1    0    0    0  501 -0.00000000000E+00  0.00000000000E+00  0.17812680846E+02  0.17812680846E+02  0.00000000000E+00 0.  1.
          2   -1    0    0  501    0  0.00000000000E+00 -0.00000000000E+00 -0.95870340309E+03  0.95870340309E+03  0.00000000000E+00 0. -1.
         25    2    1    2    0    0 -0.40189514245E+02 -0.76608941752E+02 -0.69068838301E+03  0.70724137395E+03  0.12512310574E+03 0.  0.
          5    1    3    3  502    0 -0.18402061139E+02 -0.60044606052E+02 -0.66930699436E+03  0.67225985725E+03  0.41800000000E+01 0. -1.
         -5    1    3    3    0  502 -0.21787453106E+02 -0.16564335700E+02 -0.21381388649E+02  0.34981516700E+02  0.41800000000E+01 0. -1.
        -11    1    1    2    0    0  0.30797476727E+02  0.20288522046E+02 -0.57668017414E+02  0.68452238327E+02  0.00000000000E+00 0.  1.
         11    1    1    2    0    0  0.93920375182E+01  0.56320419706E+02 -0.19253432182E+03  0.20082247166E+03  0.00000000000E+00 0. -1.
</event>
<event>
 7    1  0.1538147E-010  0.2216169E+03  0.7561462E-02  0.1132683E+00
          3   -1    0    0  501    0  0.00000000000E+00  0.00000000000E+00  0.77657751738E+02  0.77657751738E+02  0.00000000000E+00 0. -1.
         -3   -1    0    0    0  501 -0.00000000000E+00 -0.00000000000E+00 -0.75418777281E+03  0.75418777281E+03  0.00000000000E+00 0.  1.
         25    2    1    2    0    0  0.16005580168E+03 -0.14318697191E+03 -0.32264115521E+03  0.40727581356E+03  0.12512355771E+03 0.  0.
          5    1    3    3  502    0  0.32760763077E+02 -0.89750396221E+01 -0.15122743488E+03  0.15505169588E+03  0.41800000000E+01 0.  1.
         -5    1    3    3    0  502  0.12729503860E+03 -0.13421193228E+03 -0.17141372033E+03  0.25222411768E+03  0.41800000000E+01 0.  1.
        -11    1    1    2    0    0 -0.10767701184E+03  0.53770992101E+02 -0.25187999786E+03  0.27915800507E+03  0.00000000000E+00 0.  1.
         11    1    1    2    0    0 -0.52378789835E+02  0.89415979806E+02 -0.10200886800E+03  0.14541170592E+03  0.00000000000E+00 0. -1.
</event>
<event>
 7    1  0.1538147E-010  0.1176716E+03  0.7561462E-02  0.1246988E+00
         -2   -1    0    0    0  501 -0.00000000000E+00  0.00000000000E+00  0.31772158193E+03  0.31772158193E+03  0.00000000000E+00 0. -1.
          2   -1    0    0  501    0  0.00000000000E+00 -0.00000000000E+00 -0.50690190751E+02  0.50690190751E+02  0.00000000000E+00 0.  1.
         25    2    1    2    0    0 -0.39761151272E+02 -0.42509556859E+02  0.10264348067E+03  0.17193948618E+03  0.12505795140E+03 0.  0.
          5    1    3    3  502    0 -0.43586543220E+01 -0.81240180134E+02  0.42057255112E+02  0.91680149668E+02  0.41800000000E+01 0.  1.
         -5    1    3    3    0  502 -0.35402496950E+02  0.38730623275E+02  0.60586225557E+02  0.80259336509E+02  0.41800000000E+01 0.  1.
        -11    1    1    2    0    0 -0.25955276148E+02  0.15168485278E+02  0.21892927535E+02  0.37189509026E+02  0.00000000000E+00 0.  1.
         11    1    1    2    0    0  0.65716427420E+02  0.27341071580E+02  0.14249498298E+03  0.15928277748E+03  0.00000000000E+00 0. -1.
</event>
<event>
 6    1  0.1538147E-010  0.1068351E+03  0.7561462E-02  0.1266546E+00
         -2   -1    0    0    0  501 -0.00000000000E+00  0.00000000000E+00  0.88787875326E+02  0.88787875326E+02  0.00000000000E+00 0. -1.
          2   -1    0    0  501    0  0.00000000000E+00 -0.00000000000E+00 -0.25736545659E+03  0.25736545659E+03  0.00000000000E+00 0.  1.
          5    1    1    2  502    0 -0.19381039877E+01 -0.98085780821E+01 -0.95533973542E+02  0.96146642956E+02  0.41800000000E+01 0. -1.
         -5    1    1    2    0  502 -0.34055421057E+02  0.99915318372E+02 -0.42274125291E+02  0.11378671547E+03  0.41800000000E+01 0. -1.
        -11    1    1    2    0    0  0.15605611633E+02 -0.46613215090E+02  0.30891619564E+02  0.58057033120E+02  0.00000000000E+00 0. -1.
         11    1    1    2    0    0  0.20387913412E+02 -0.43493525200E+02 -0.61661101993E+02  0.78162940365E+02  0.00000000000E+00 0.  1.
</event>
<event>
 6    1  0.1538147E-010  0.1607877E+03  0.7561462E-02  0.1187810E+00
         -1   -1    0    0    0  501 -0.00000000000E+00  0.00000000000E+00  0.83292539907E+02  0.83292539907E+02  0.00000000000E+00 0.  1.
          1   -1    0    0  501    0  0.00000000000E+00 -0.00000000000E+00 -0.42470840578E+03  0.42470840578E+03  0.00000000000E+00 0. -1.
          5    1    1    2  502    0  0.65436287934E+02  0.22860562478E+02 -0.20893689379E+03  0.22017404724E+03  0.41800000000E+01 0.  1.
         -5    1    1    2    0  502  0.56655822408E+02  0.58494052988E+02 -0.29867237079E+02  0.86838705071E+02  0.41800000000E+01 0.  1.
        -11    1    1    2    0    0 -0.10715964451E+03 -0.22006236439E+02 -0.49987290902E+02  0.12027548838E+03  0.00000000000E+00 0.  1.
         11    1    1    2    0    0 -0.14932465828E+02 -0.59348379027E+02 -0.52624444111E+02  0.80712704991E+02  0.00000000000E+00 0. -1.
</event>
<event>
 7    1  0.1538147E-010  0.1263757E+03  0.7561462E-02  0.1232935E+00
          3   -1    0    0  501    0  0.00000000000E+00  0.00000000000E+00  0.26771416039E+03  0.26771416039E+03  0.00000000000E+00 0. -1.
         -3   -1    0    0    0  501 -0.00000000000E+00 -0.00000000000E+00 -0.74372643502E+02  0.74372643502E+02  0.00000000000E+00 0.  1.
         25    2    1    2    0    0 -0.80549621936E+02 -0.38542406885E+02  0.10126683097E+03  0.18408619396E+03  0.12513591423E+03 0.  0.
          5    1    3    3  502    0 -0.76681264154E+02  0.23748209585E+02  0.22439328371E+02  0.83456513158E+02  0.41800000000E+01 0. -1.
         -5    1    3    3    0  502 -0.38683577816E+01 -0.62290616470E+02  0.78827502596E+02  0.10062968080E+03  0.41800000000E+01 0. -1.
        -11    1    1    2    0    0  0.57592534337E+02  0.56493992962E+02  0.24346589004E+02  0.84268782169E+02  0.00000000000E+00 0.  1.
         11    1    1    2    0    0  0.22957087599E+02 -0.17951586077E+02  0.67728096920E+02  0.73731827769E+02  0.00000000000E+00 0. -1.
</event>
<event>
 6    1  0.1538147E-010  0.1365430E+03  0.7561462E-02  0.1218058E+00
          2   -1    0    0  501    0  0.00000000000E+00  0.00000000000E+00  0.23168197601E+03  0.23168197601E+03  0.00000000000E+00 0. -1.
         -2   -1    0    0    0  501 -0.00000000000E+00 -0.00000000000E+00 -0.11255876988E+03  0.11255876988E+03  0.00000000000E+00 0.  1.
          5    1    1    2  502    0 -0.95543620316E+02 -0.34085163894E+02 -0.74499375925E+01  0.10180056852E+03  0.41800000000E+01 0.  1.
         -5    1    1    2    0  502  0.32428764325E+01 -0.39664900107E+02  0.71384145604E+02  0.81835134213E+02  0.41800000000E+01 0.  1.
        -11    1    1    2    0    0  0.20041908520E+01  0.31997045329E+02 -0.18306713956E+02  0.36918335101E+02  0.00000000000E+00 0.  1.
         11    1    1    2    0    0  0.90296553032E+02  0.41753018672E+02  0.73495712067E+02  0.12368670806E+03  0.00000000000E+00 0. -1.
</event>
<event>
 7    1  0.1538147E-010  0.1927485E+03  0.7561462E-02  0.1156005E+00
          2   -1    0    0  501    0  0.00000000000E+00  0.00000000000E+00  0.25222064708E+03  0.25222064708E+03  0.00000000000E+00 0. -1.
         -2   -1    0    0    0  501 -0.00000000000E+00 -0.00000000000E+00 -0.18164041165E+03  0.18164041165E+03  0.00000000000E+00 0.  1.
         25    2    1    2    0    0  0.15770197506E+03  0.94306291133E+02  0.38200268789E+02  0.22551162924E+03  0.12503057587E+03 0.  0.
          5    1    3    3  502    0  0.11573326180E+02  0.42285806659E+02 -0.32759387765E+02  0.54887896757E+02  0.41800000000E+01 0. -1.
         -5    1    3    3    0  502  0.14612864888E+03  0.52020484474E+02  0.70959656554E+02  0.17062373248E+03  0.41800000000E+01 0. -1.
        -11    1    1    2    0    0 -0.15384016345E+03 -0.83991718857E+02  0.54572318474E+02  0.18357435189E+03  0.00000000000E+00 0. -1.
         11    1    1    2    0    0 -0.38618116076E+01 -0.10314572276E+02 -0.22192351839E+02  0.24775077604E+02  0.00000000000E+00 0.  1.
</event>
<event>
 7    1  0.1538147E-010  0.1049450E+03  0.7561462E-02  0.1270228E+00
         -1   -1    0    0    0  501 -0.00000000000E+00  0.00000000000E+00  0.54674036720E+02  0.54674036720E+02  0.00000000000E+00 0.  1.
          1   -1    0    0  501    0  0.00000000000E+00 -0.00000000000E+00 -0.28860920131E+03  0.28860920131E+03  0.00000000000E+00 0. -1.
         25    2    1    2    0    0  0.58415431914E+02 -0.76836687556E+01 -0.94582652741E+02  0.16757011845E+03  0.12514977006E+03 0.  0.
          5    1    3    3  502    0 -0.23180121959E+02  0.29010042427E+02 -0.61752454642E+02  0.72178519450E+02  0.41800000000E+01 0. -1.
         -5    1    3    3    0  502  0.81595553872E+02 -0.36693711182E+02 -0.32830198099E+02  0.95391598998E+02  0.41800000000E+01 0. -1.
        -11    1    1    2    0    0 -0.56912248917E+02  0.27413800827E+02 -0.40816011053E+02  0.75209489500E+02  0.00000000000E+00 0.  1.
         11    1    1    2    0    0 -0.15031829963E+01 -0.19730132071E+02 -0.98536500800E+02  0.10050363009E+03  0.00000000000E+00 0. -1.
</event>
<event>
 7    1  0.1538147E-010  0.1129344E+03  0.7561462E-02  0.1255230E+00
         -2   -1    0    0    0  501 -0.00000000000E+00  0.00000000000E+00  0.53657680190E+03  0.53657680190E+03  0.00000000000E+00 0. -1.
          2   -1    0    0  501    0  0.00000000000E+00 -0.00000000000E+00 -0.24949122494E+02  0.24949122494E+02  0.00000000000E+00 0.  1.
         25    2    1    2    0    0  0.34263389777E+02  0.11983439987E+02  0.34023160185E+03  0.36430312274E+03  0.12506654081E+03 0.  0.
          5    1    3    3  502    0  0.53120327308E+02 -0.44335364681E+02  0.15646126698E+03  0.17112858966E+03  0.41800000000E+01 0.  1.
         -5    1    3    3    0  502 -0.18856937531E+02  0.56318804668E+02  0.18377033488E+03  0.19317453308E+03  0.41800000000E+01 0.  1.
        -11    1    1    2    0    0  0.31002542306E+02 -0.36155404305E+01  0.45639403961E+02  0.55291816356E+02  0.00000000000E+00 0.  1.
         11    1    1    2    0    0 -0.65265932083E+02 -0.83678995564E+01  0.12575667359E+03  0.14193098530E+03  0.00000000000E+00 0. -1.
</event>
<event>
 7    1  0.1538147E-010  0.2087004E+03  0.7561462E-02  0.1142599E+00
          1   -1    0    0  501    0  0.00000000000E+00  0.00000000000E+00  0.28599665505E+03  0.28599665505E+03  0.00000000000E+00 0. -1.
         -1   -1    0    0    0  501 -0.00000000000E+00 -0.00000000000E+00 -0.19376193401E+03  0.19376193401E+03  0.00000000000E+00 0.  1.
         25    2    1    2    0    0  0.16511169177E+03 -0.12352272446E+03  0.79153989565E+02  0.25384994472E+03  0.12511876819E+03 0.  0.
          5    1    3    3  502    0  0.13637073507E+03 -0.97421550740E+02  0.11300034757E+03  0.20217439720E+03  0.41800000000E+01 0.  1.
         -5    1    3    3    0  502  0.28740956701E+02 -0.26101173722E+02 -0.33846358004E+02  0.51675547524E+02  0.41800000000E+01 0.  1.
        -11    1    1    2    0    0 -0.50411976859E+02  0.14492396168E+02  0.39242964125E+02  0.65508832922E+02  0.00000000000E+00 0.  1.
         11    1    1    2    0    0 -0.11469971491E+03  0.10903032829E+03 -0.26162232649E+02  0.16039981142E+03  0.00000000000E+00 0. -1.
</event>
<event>
 6    1  0.1538147E-010  0.2166095E+03  0.7561462E-02  0.1136436E+00
          1   -1    0    0  501    0  0.00000000000E+00  0.00000000000E+00  0.54566422030E+03  0.54566422030E+03  0.00000000000E+00 0. -1.
         -1   -1    0    0    0  501 -0.00000000000E+00 -0.00000000000E+00 -0.98992399365E+02  0.98992399365E+02  0.00000000000E+00 0.  1.
          5    1    1    2  502    0 -0.17226035294E+03  0.12550124908E+03  0.23015445489E+03  0.31370804615E+03  0.41800000000E+01 0. -1.
         -5    1    1    2    0  502  0.75463900483E+01 -0.35262106538E+01 -0.88570852423E+01  0.12857002890E+02  0.41800000000E+01 0. -1.
        -11    1    1    2    0    0  0.13984448114E+02 -0.32651624807E+02  0.39605918310E+01  0.35740448783E+02  0.00000000000E+00 0.  1.
         11    1    1    2    0    0  0.15072951478E+03 -0.89323413620E+02  0.22141385945E+03  0.28235112184E+03  0.00000000000E+00 0. -1.
</event>
<event>
 6    1  0.1538147E-010  0.1156807E+03  0.7561462E-02  0.1250398E+00
          1   -1    0    0  501    0  0.00000000000E+00  0.00000000000E+00  0.43931943981E+03  0.43931943981E+03  0.00000000000E+00 0. -1.
         -1   -1    0    0    0  501 -0.00000000000E+00 -0.00000000000E+00 -0.31470350327E+02  0.31470350327E+02  0.00000000000E+00 0.  1.
          5    1    1    2  502    0  0.69217065162E+02 -0.29312343645E+01  0.94423366597E+02  0.11718719556E+03  0.41800000000E+01 0. -1.
         -5    1    1    2    0  502 -0.48276683872E+02  0.38805983030E+02  0.10273401752E+03  0.12003455036E+03  0.41800000000E+01 0. -1.
        -11    1    1    2    0    0 -0.50292326410E+02 -0.46661060645E+02  0.12924512764E+03  0.14632455602E+03  0.00000000000E+00 0.  1.
         11    1    1    2    0    0  0.29351945119E+02  0.10786311980E+02  0.81446577729E+02  0.87243488194E+02  0.00000000000E+00 0. -1.
</event>
<event>
 7    1  0.1538147E-010  0.8789657E+02  0.7561462E-02  0.1308027E+00
          1   -1    0    0  501    0  0.00000000000E+00  0.00000000000E+00  0.87144605647E+02  0.87144605647E+02  0.00000000000E+00 0. -1.
         -1   -1    0    0    0  501 -0.00000000000E+00 -0.00000000000E+00 -0.15643382959E+03  0.15643382959E+03  0.00000000000E+00 0.  1.
         25    2    1    2    0    0  0.45813970185E+02  0.89017262182E+01 -0.50437054255E+02  0.14269118477E+03  0.12505485666E+03 0.  0.
          5    1    3    3  502    0  0.73282261245E+02 -0.18822924174E+02  0.36481822935E+01  0.75864180755E+02  0.41800000000E+01 0. -1.
         -5    1    3    3    0  502 -0.27468291060E+02  0.27724650392E+02 -0.54085236548E+02  0.66827004015E+02  0.41800000000E+01 0. -1.
        -11    1    1    2    0    0 -0.38766655398E+02 -0.22948841966E+02 -0.49201342175E+02  0.66710381427E+02  0.00000000000E+00 0.  1.
         11    1    1    2    0    0 -0.70473147868E+01  0.14047115748E+02  0.30349172489E+02  0.34176869039E+02  0.00000000000E+00 0. -1.
</event>
<event>
 7    1  0.1538147E-010  0.1131187E+03  0.7561462E-02  0.1254901E+00
          3   -1    0    0  501    0  0.00000000000E+00  0.00000000000E+00  0.94009470233E+02  0.94009470233E+02  0.00000000000E+00 0. -1.
         -3   -1    0    0    0  501 -0.00000000000E+00 -0.00000000000E+00 -0.17437019390E+03  0.17437019390E+03  0.00000000000E+00 0.  1.
         25    2    1    2    0    0  0.56262492957E+02 -0.22922494430E+02 -0.80584280507E+02  0.16067980620E+03  0.12503305559E+03 0.  0.
          5    1    3    3  502    0  0.23269185861E+02  0.40607971978E+02  0.69754361286E+01  0.47503594685E+02  0.41800000000E+01 0.  1.
         -5    1    3    3    0  502  0.32993307096E+02 -0.63530466408E+02 -0.87559716636E+02  0.11317621151E+03  0.41800000000E+01 0.  1.
        -11    1    1    2    0    0 -0.13669913555E+02  0.53428583804E+02  0.30447277910E+01  0.55233599115E+02  0.00000000000E+00 0.  1.
         11    1    1    2    0    0 -0.42592579402E+02 -0.30506089375E+02 -0.28211709518E+01  0.52466258820E+02  0.00000000000E+00 0. -1.
</event>
<event>
 6    1  0.1538147E-010  0.1188657E+03  0.7561462E-02  0.1244980E+00
          1   -1    0    0  501    0  0.00000000000E+00  0.00000000000E+00  0.55469371509E+02  0.55469371509E+02  0.00000000000E+00 0. -1.
         -1   -1    0    0    0  501 -0.00000000000E+00 -0.00000000000E+00 -0.27797930441E+03  0.27797930441E+03  0.00000000000E+00 0.  1.
          5    1    1    2  502    0 -0.42632233846E+02 -0.25203602827E+02 -0.14699723020E+02  0.51829366339E+02  0.41800000000E+01 0. -1.
         -5    1    1    2    0  502  0.13522226636E+02  0.78848713268E+02 -0.10360852865E+03  0.13096629263E+03  0.41800000000E+01 0. -1.
        -11    1    1    2    0    0 -0.32197373867E+02 -0.15700036364E+02 -0.43897748260E+02  0.56658400331E+02  0.00000000000E+00 0.  1.
         11    1    1    2    0    0  0.61307381077E+02 -0.37945074076E+02 -0.60303932978E+02  0.93994616622E+02  0.00000000000E+00 0. -1.
</event>
<event>
 7    1  0.1538147E-010  0.1259343E+03  0.7561462E-02  0.1233616E+00
         -2   -1    0    0    0  501 -0.00000000000E+00  0.00000000000E+00  0.82982398144E+02  0.82982398144E+02  0.00000000000E+00 0.  1.
          2   -1    0    0  501    0  0.00000000000E+00 -0.00000000000E+00 -0.23545209540E+03  0.23545209540E+03  0.00000000000E+00 0. -1.
         25    2    1    2    0    0 -0.40577261941E+02  0.67020693626E+02 -0.12541488275E+03  0.19366604406E+03  0.12505741180E+03 0.  0.
          5    1    3    3  502    0 -0.78711120514E+02  0.49445545865E+02 -0.11888336256E+03  0.15096697915E+03  0.41800000000E+01 0.  1.
         -5    1    3    3    0  502  0.38133858573E+02  0.17575147761E+02 -0.65315201891E+01  0.42699064913E+02  0.41800000000E+01 0.  1.
        -11    1    1    2    0    0  0.84093999357E+01 -0.81082783686E+02 -0.18290527685E+01  0.81538219575E+02  0.00000000000E+00 0.  1.
         11    1    1    2    0    0  0.32167862005E+02  0.14062090059E+02 -0.25225761736E+02  0.43230229909E+02  0.00000000000E+00 0. -1.
</event>
<event>
 7    1  0.1538147E-010  0.9400393E+02  0.7561462E-02  0.1293435E+00
         -2   -1    0    0    0  501 -0.00000000000E+00  0.00000000000E+00  0.28087739259E+03  0.28087739259E+03  0.00000000000E+00 0.  1.
          2   -1    0    0  501    0  0.00000000000E+00 -0.00000000000E+00 -0.46152555622E+02  0.46152555622E+02  0.00000000000E+00 0. -1.
         25    2    1    2    0    0 -0.28901556530E+01  0.14419862832E+02  0.88214202380E+02  0.15379956674E+03  0.12512504059E+03 0.  0.
          5    1    3    3  502    0  0.42817691732E+02  0.31488160581E+02  0.47012805108E+00  0.53315592489E+02  0.41800000000E+01 0. -1.
         -5    1    3    3    0  502 -0.45707847385E+02 -0.17068297750E+02  0.87744074329E+02  0.10048397425E+03  0.41800000000E+01 0. -1.
        -11    1    1    2    0    0  0.42116778763E+02  0.41577255866E+01  0.40073309180E+02  0.58283615572E+02  0.00000000000E+00 0. -1.
         11    1    1    2    0    0 -0.39226623110E+02 -0.18577588418E+02  0.10643732541E+03  0.11494676591E+03  0.00000000000E+00 0.  1.
</event>
<event>
 7    1  0.1538147E-010  0.6603799E+02  0.7561462E-02  0.1374109E+00
          2   -1    0    0  501    0  0.00000000000E+00  0.00000000000E+00  0.26779894136E+03  0.26779894136E+03  0.00000000000E+00 0. -1.
         -2   -1    0    0    0  501 -0.00000000000E+00 -0.00000000000E+00 -0.43149436194E+02  0.43149436194E+02  0.00000000000E+00 0.  1.
         25    2    1    2    0    0  0.65805883073E+01 -0.16154170569E+02  0.13318377773E+03  0.18353172987E+03  0.12506684553E+03 0.  0.
          5    1    3    3  502    0  0.26553615745E+02 -0.36736165165E+02 -0.17167955486E+01  0.45552827872E+02  0.41800000000E+01 0.  1.
         -5    1    3    3    0  502 -0.19973027437E+02  0.20581994596E+02  0.13490057328E+03  0.13797890200E+03  0.41800000000E+01 0.  1.
        -11    1    1    2    0    0 -0.30053557433E+02  0.16110934820E+02  0.97407169868E+02  0.10320336853E+03  0.00000000000E+00 0. -1.
         11    1    1    2    0    0  0.23472969126E+02  0.43235749035E-01 -0.59414424307E+01  0.24213279148E+02  0.00000000000E+00 0.  1.
</event>
<event>
 7    1  0.1538147E-010  0.1368076E+03  0.7561462E-02  0.1217690E+00
          2   -1    0    0  501    0  0.00000000000E+00  0.00000000000E+00  0.63385372785E+03  0.63385372785E+03  0.00000000000E+00 0. -1.
         -2   -1    0    0    0  501 -0.00000000000E+00 -0.00000000000E+00 -0.42533611478E+02  0.42533611478E+02  0.00000000000E+00 0.  1.
         25    2    1    2    0    0  0.80110261284E+02 -0.81486657575E+02  0.39108237124E+03  0.42619529144E+03  0.12505709105E+03 0.  0.
          5    1    3    3  502    0  0.35654602305E+02 -0.77770134714E+02  0.99934974310E+02  0.13162034801E+03  0.41800000000E+01 0.  1.
         -5    1    3    3    0  502  0.44455658979E+02 -0.37165228607E+01  0.29114739693E+03  0.29457494343E+03  0.41800000000E+01 0.  1.
        -11    1    1    2    0    0 -0.59271806791E+02  0.23542832136E+00  0.47579402741E+02  0.76006592293E+02  0.00000000000E+00 0. -1.
         11    1    1    2    0    0 -0.20838454493E+02  0.81251229254E+02  0.15265834239E+03  0.17418545560E+03  0.00000000000E+00 0.  1.
</event>
<event>
 6    1  0.1538147E-010  0.9358295E+02  0.7561462E-02  0.1294400E+00
          2   -1    0    0  501    0  0.00000000000E+00  0.00000000000E+00  0.43505619183E+03  0.43505619183E+03  0.00000000000E+00 0. -1.
         -2   -1    0    0    0  501 -0.00000000000E+00 -0.00000000000E+00 -0.29914647767E+02  0.29914647767E+02  0.00000000000E+00 0.  1.
          5    1    1    2  502    0  0.23555905712E+02 -0.40773312000E+02  0.23007844795E+02  0.52575440916E+02  0.41800000000E+01 0.  1.
         -5    1    1    2    0  502  0.19697453434E+01  0.46464922171E+02  0.19118331637E+03  0.19680295157E+03  0.41800000000E+01 0.  1.
        -11    1    1    2    0    0  0.20341119058E+02 -0.33767198068E+02  0.12162644314E+03  0.12785529500E+03  0.00000000000E+00 0. -1.
         11    1    1    2    0    0 -0.45866770113E+02  0.28075587897E+02  0.69323939767E+02  0.87737152114E+02  0.00000000000E+00 0.  1.
</event>
<event>
 6    1  0.1538147E-010  0.1882252E+03  0.7561462E-02  0.1160072E+00
         -2   -1    0    0    0  501 -0.00000000000E+00  0.00000000000E+00  0.67079700872E+02  0.67079700872E+02  0.00000000000E+00 0.  1.
          2   -1    0    0  501    0  0.00000000000E+00 -0.00000000000E+00 -0.54250465220E+03  0.54250465220E+03  0.00000000000E+00 0. -1.
          5    1    1    2  502    0  0.39666583962E+02  0.64552761949E+02 -0.11095000969E+03  0.13441679214E+03  0.41800000000E+01 0.  1.
         -5    1    1    2    0  502  0.11322275156E+03 -0.53493074114E+02 -0.16956861468E+03  0.21083616372E+03  0.41800000000E+01 0.  1.
        -11    1    1    2    0    0 -0.13122886064E+03  0.24637077280E+02 -0.16825210362E+03  0.21479471552E+03  0.00000000000E+00 0.  1.
         11    1    1    2    0    0 -0.21660474876E+02 -0.35696765115E+02 -0.26654223344E+02  0.49536681698E+02  0.00000000000E+00 0. -1.
</event>
<event>
 6    1  0.1538147E-010  0.8783792E+02  0.7561462E-02  0.1308174E+00
          2   -1    0    0  501    0  0.00000000000E+00  0.00000000000E+00  0.17563758010E+02  0.17563758010E+02  0.00000000000E+00 0. -1.
         -2   -1    0    0    0  501 -0.00000000000E+00 -0.00000000000E+00 -0.69457227730E+03  0.69457227730E+03  0.00000000000E+00 0.  1.
          5    1    1    2  502    0  0.44741724141E+02  0.15307353999E+02 -0.39789722940E+03  0.40071912174E+03  0.41800000000E+01 0. -1.
         -5    1    1    2    0  502 -0.31805603081E+02 -0.19255038614E+02 -0.38517204053E+02  0.53697302608E+02  0.41800000000E+01 0. -1.
        -11    1    1    2    0    0  0.52996918572E+01 -0.41490949552E+02 -0.13489887187E+03  0.14123487975E+03  0.00000000000E+00 0.  1.
         11    1    1    2    0    0 -0.18235812918E+02  0.45438634167E+02 -0.10569521397E+03  0.11648473121E+03  0.00000000000E+00 0. -1.
</event>
<event>
 7    1  0.1538147E-010  0.5673941E+02  0.7561462E-02  0.1412048E+00
         -3   -1    0    0    0  501 -0.00000000000E+00  0.00000000000E+00  0.74734349739E+02  0.74734349739E+02  0.00000000000E+00 0.  1.
          3   -1    0    0  501    0  0.00000000000E+00 -0.00000000000E+00 -0.18149411975E+03  0.18149411975E+03  0.00000000000E+00 0. -1.
         25    2    1    2    0    0  0.21875107576E+02 -0.17482417136E+02 -0.45937939601E+02  0.13614558448E+03  0.12506466582E+03 0.  0.
          5    1    3    3  502    0  0.26871441066E+02 -0.21036173921E+02 -0.87455069444E+02  0.93970508829E+02  0.41800000000E+01 0. -1.
         -5    1    3    3    0  502 -0.49963334893E+01  0.35537567850E+01  0.41517129842E+02  0.42175075649E+02  0.41800000000E+01 0. -1.
        -11    1    1    2    0    0 -0.17070330864E+02 -0.24257325119E+02  0.15120080885E+02  0.33293105348E+02  0.00000000000E+00 0.  1.
         11    1    1    2    0    0 -0.48047767119E+01  0.41739742255E+02 -0.75941911296E+02  0.86789779663E+02  0.00000000000E+00 0. -1.
</event>
<event>
 6    1  0.1538147E-010  0.1104504E+03  0.7561462E-02  0.1259738E+00
          2   -1    0    0  501    0  0.00000000000E+00  0.00000000000E+00  0.14191789489E+03  0.14191789489E+03  0.00000000000E+00 0. -1.
         -2   -1    0    0    0  501 -0.00000000000E+00 -0.00000000000E+00 -0.14543433196E+03  0.14543433196E+03  0.00000000000E+00 0.  1.
          5    1    1    2  502    0  0.12117184907E+02  0.39882809649E+02  0.39274239866E+02  0.57423017969E+02  0.41800000000E+01 0.  1.
         -5    1    1    2    0  502  0.59284550459E+02  0.35840503811E+01 -0.77535589888E+02  0.97758597779E+02  0.41800000000E+01 0.  1.
        -11    1    1    2    0    0 -0.35462169174E+02 -0.67490296144E+02  0.43909623990E+02  0.87980455756E+02  0.00000000000E+00 0.  1.
         11    1    1    2    0    0 -0.35939566193E+02  0.24023436114E+02 -0.91647110348E+01  0.44190155342E+02  0.00000000000E+00 0. -1.
</event>
<event>
 7    1  0.1538147E-010  0.1457735E+03  0.7561462E-02  0.1205765E+00
         -1   -1    0    0    0  501 -0.00000000000E+00  0.00000000000E+00  0.29094044672E+03  0.29094044672E+03  0.00000000000E+00 0.  1.
          1   -1    0    0  501    0  0.00000000000E+00 -0.00000000000E+00 -0.13791057863E+03  0.13791057863E+03  0.00000000000E+00 0. -1.
         25    2    1    2    0    0  0.49785378814E+02  0.12291372064E+03 -0.31453220785E+02  0.18497286148E+03  0.12505713783E+03 0.  0.
          5    1    3    3  502    0  0.12889129851E+02  0.70397379047E+02 -0.77726344349E+02  0.10573919638E+03  0.41800000000E+01 0.  1.
         -5    1    3    3    0  502  0.36896248963E+02  0.52516341592E+02  0.46273123564E+02  0.79233665106E+02  0.41800000000E+01 0.  1.
        -11    1    1    2    0    0 -0.69161009799E+02 -0.11583588599E+03  0.13783237784E+03  0.19287032468E+03  0.00000000000E+00 0. -1.
         11    1    1    2    0    0  0.19375630985E+02 -0.70778346471E+01  0.46650711026E+02  0.51007839188E+02  0.00000000000E+00 0.  1.
</event>
<event>
 7    1  0.1538147E-010  0.1726376E+03  0.7561462E-02  0.1175125E+00
          1   -1    0    0  501    0  0.00000000000E+00  0.00000000000E+00  0.71503677608E+03  0.71503677608E+03  0.00000000000E+00 0. -1.
         -1   -1    0    0    0  501 -0.00000000000E+00 -0.00000000000E+00 -0.59095354272E+02  0.59095354272E+02  0.00000000000E+00 0.  1.
         25    2    1    2    0    0 -0.15482587566E+03 -0.31511261755E+02  0.47689804687E+03  0.51771914572E+03  0.12504941164E+03 0.  0.
          5    1    3    3  502    0 -0.15339552089E+03 -0.38806500422E+02  0.48230983476E+03  0.50761834030E+03  0.41800000000E+01 0.  1.
         -5    1    3    3    0  502 -0.14303547692E+01  0.72952386670E+01 -0.54117878932E+01  0.10100805422E+02  0.41800000000E+01 0.  1.
        -11    1    1    2    0    0  0.87184814282E+02  0.59189495292E+02  0.13434513588E+03  0.17074309277E+03  0.00000000000E+00 0. -1.
         11    1    1    2    0    0  0.67641061375E+02 -0.27678233537E+02  0.44698239063E+02  0.85669891858E+02  0.00000000000E+00 0.  1.
</event>
<event>
 6    1  0.1538147E-010  0.2030744E+03  0.7561462E-02  0.1147171E+00
          2   -1    0    0  501    0  0.00000000000E+00  0.00000000000E+00  0.20640384527E+04  0.20640384527E+04  0.00000000000E+00 0. -1.
         -2   -1    0    0    0  501 -0.00000000000E+00 -0.00000000000E+00 -0.22989304135E+02  0.22989304135E+02  0.00000000000E+00 0.  1.
          5    1    1    2  502    0  0.11036586882E+02  0.40069166779E+02  0.40859782766E+03  0.41072740540E+03  0.41800000000E+01 0.  1.
         -5    1    1    2    0  502 -0.14707446701E+03  0.90171111430E+02  0.73145495926E+03  0.75153546690E+03  0.41800000000E+01 0.  1.
        -11    1    1    2    0    0  0.11987207523E+03 -0.94695714202E+02  0.82806385512E+03  0.84203701870E+03  0.00000000000E+00 0. -1.
         11    1    1    2    0    0  0.16165804895E+02 -0.35544564008E+02  0.72932506564E+02  0.82727865875E+02  0.00000000000E+00 0.  1.
</event>
<event>
 7    1  0.1538147E-010  0.9414960E+02  0.7561462E-02  0.1293103E+00
          1   -1    0    0  501    0  0.00000000000E+00  0.00000000000E+00  0.49456203818E+03  0.49456203818E+03  0.00000000000E+00 0. -1.
         -1   -1    0    0    0  501 -0.00000000000E+00 -0.00000000000E+00 -0.28590256114E+02  0.28590256114E+02  0.00000000000E+00 0.  1.
         25    2    1    2    0    0  0.37242356755E+02 -0.32272789056E+02  0.24632722677E+03  0.28060865768E+03  0.12504235309E+03 0.  0.
          5    1    3    3  502    0  0.18883304902E+02  0.22562290067E+02  0.21021294115E+03  0.21230305972E+03  0.41800000000E+01 0. -1.
         -5    1    3    3    0  502  0.18359051853E+02 -0.54835079123E+02  0.36114285620E+02  0.68305597964E+02  0.41800000000E+01 0. -1.
        -11    1    1    2    0    0 -0.21706436583E+02  0.62748654138E+02  0.11934914127E+03  0.13657518262E+03  0.00000000000E+00 0.  1.
         11    1    1    2    0    0 -0.15535920172E+02 -0.30475865082E+02  0.10029541402E+03  0.10596845400E+03  0.00000000000E+00 0. -1.
</event>
<event>
 7    1  0.1538147E-010  0.1571086E+03  0.7561462E-02  0.1192000E+00
         -2   -1    0    0    0  501 -0.00000000000E+00  0.00000000000E+00  0.51058606287E+02  0.51058606287E+02  0.00000000000E+00 0.  1.
          2   -1    0    0  501    0  0.00000000000E+00 -0.00000000000E+00 -0.77934946633E+03  0.77934946633E+03  0.00000000000E+00 0. -1.
         25    2    1    2    0    0  0.51490450617E+02 -0.14507684804E+03 -0.51206888246E+03  0.54913529846E+03  0.12504590074E+03 0.  0.
          5    1    3    3  502    0  0.52347974354E+02 -0.91425728852E+02 -0.15153156284E+03  0.18460298278E+03  0.41800000000E+01 0. -1.
         -5    1    3    3    0  502 -0.85752373700E+00 -0.53651119183E+02 -0.36053731962E+03  0.36453231568E+03  0.41800000000E+01 0. -1.
        -11    1    1    2    0    0 -0.29037420729E+02  0.55777526343E+02 -0.22511231952E+02  0.66791165670E+02  0.00000000000E+00 0.  1.
         11    1    1    2    0    0 -0.22453029888E+02  0.89299321692E+02 -0.19371074563E+03  0.21448160849E+03  0.00000000000E+00 0. -1.
</event>
<event>
 6    1  0.1538147E-010  0.8415140E+02  0.7561462E-02  0.1317667E+00
          2   -1    0    0  501    0  0.00000000000E+00  0.00000000000E+00  0.68842877693E+03  0.68842877693E+03  0.00000000000E+00 0. -1.
         -2   -1    0    0    0  501 -0.00000000000E+00 -0.00000000000E+00 -0.22120035591E+02  0.22120035591E+02  0.00000000000E+00 0.  1.
          5    1    1    2  502    0 -0.10812300724E+02  0.32880834013E+01  0.39455443408E+03  0.39473838323E+03  0.41800000000E+01 0.  1.
         -5    1    1    2    0  502  0.26810613033E+02 -0.49665956162E+02  0.76980169997E+02  0.95545461145E+02  0.41800000000E+01 0.  1.
        -11    1    1    2    0    0  0.22637255912E+02  0.55518524205E+02  0.14268804615E+03  0.15477283482E+03  0.00000000000E+00 0. -1.
         11    1    1    2    0    0 -0.38635568221E+02 -0.91406514443E+01  0.52086091117E+02  0.65492133333E+02  0.00000000000E+00 0.  1.
</event>
<event>
 7    1  0.1538147E-010  0.1027893E+03  0.7561462E-02  0.1274537E+00
          2   -1    0    0  501    0  0.00000000000E+00  0.00000000000E+00  0.20907572702E+03  0.20907572702E+03  0.00000000000E+00 0. -1.
         -2   -1    0    0    0  501 -0.00000000000E+00 -0.00000000000E+00 -0.16707561110E+03  0.16707561110E+03  0.00000000000E+00 0.  1.
         25    2    1    2    0    0  0.24495218154E+02  0.32409708758E+02 -0.12538025769E+03  0.18172945714E+03  0.12511986909E+03 0.  0.
          5    1    3    3  502    0 -0.76426630981E+01 -0.33838391403E+02  0.14980663900E+01  0.34973756374E+02  0.41800000000E+01 0. -1.
         -5    1    3    3    0  502  0.32137881252E+02  0.66248100161E+02 -0.12687832408E+03  0.14675570077E+03  0.41800000000E+01 0. -1.
        -11    1    1    2    0    0 -0.56938778302E+02 -0.10934095903E+02  0.80289467314E+02  0.99035233575E+02  0.00000000000E+00 0.  1.
         11    1    1    2    0    0  0.32443560148E+02 -0.21475612854E+02  0.87090906295E+02  0.95386647398E+02  0.00000000000E+00 0. -1.
</event>
<event>
 7    1  0.1538147E-010  0.1122985E+03  0.7561462E-02  0.1256372E+00
         -2   -1    0    0    0  501 -0.00000000000E+00  0.00000000000E+00  0.35329921372E+02  0.35329921372E+02  0.00000000000E+00 0.  1.
          2   -1    0    0  501    0  0.00000000000E+00 -0.00000000000E+00 -0.38902014532E+03  0.38902014532E+03  0.00000000000E+00 0. -1.
         25    2    1    2    0    0 -0.25570058730E+02  0.33274156362E+02 -0.23376721038E+03  0.26845444957E+03  0.12513866491E+03 0.  0.
          5    1    3    3  502    0 -0.73531347822E+02  0.10109892964E+02 -0.10156516036E+03  0.12586509940E+03  0.41800000000E+01 0. -1.
         -5    1    3    3    0  502  0.47961289091E+02  0.23164263398E+02 -0.13220205002E+03  0.14258935016E+03  0.41800000000E+01 0. -1.
        -11    1    1    2    0    0  0.55864689235E+01  0.29979179124E+02 -0.21930930956E+02  0.37562288915E+02  0.00000000000E+00 0. -1.
         11    1    1    2    0    0  0.19983589807E+02 -0.63253335486E+02 -0.97992082603E+02  0.11833332821E+03  0.00000000000E+00 0.  1.
</event>
<event>
 7    1  0.1798936E-010  0.5194093E+02  0.7561462E-02  0.1435145E+00
          4   -1    0    0  501    0  0.00000000000E+00  0.00000000000E+00  0.72799566175E+02  0.72799566175E+02  0.00000000000E+00 0. -1.
         -4   -1    0    0    0  501 -0.00000000000E+00 -0.00000000000E+00 -0.17217199098E+03  0.17217199098E+03  0.00000000000E+00 0.  1.
         25    2    1    2    0    0 -0.82606673158E+01  0.14566242387E+01 -0.86189990309E+02  0.15215759709E+03  0.12511138855E+03 0.  0.
          5    1    3    3  502    0  0.39269480944E+01 -0.13113918148E+02  0.30587841618E+02  0.33771056030E+02  0.41800000000E+01 0.  1.
         -5    1    3    3    0  502 -0.12187615410E+02  0.14570542387E+02 -0.11677783193E+03  0.11838654106E+03  0.41800000000E+01 0.  1.
        -11    1    1    2    0    0  0.37382954712E+02 -0.11820040266E+02  0.22817946825E+02  0.45363612645E+02  0.00000000000E+00 0. -1.
         11    1    1    2    0    0 -0.29122287396E+02  0.10363416027E+02 -0.36000381325E+02  0.47450347422E+02  0.00000000000E+00 0.  1.
</event>
<event>
 7    1  0.2845548E-010  0.1099257E+03  0.7561462E-02  0.1260708E+00
         -2   -1    0    0    0  501 -0.00000000000E+00  0.00000000000E+00  0.15813252739E+02  0.15813252739E+02  0.00000000000E+00 0.  1.
          2   -1    0    0  501    0  0.00000000000E+00 -0.00000000000E+00 -0.95983007381E+03  0.95983007381E+03  0.00000000000E+00 0. -1.
         25    2    1    2    0    0  0.43426646538E+02  0.34725323830E+02 -0.60352417927E+03  0.61884942144E+03  0.12506578152E+03 0.  0.
          5    1    3    3  502    0 -0.35276069465E+02  0.13168925324E+02 -0.35989554180E+03  0.36188409066E+03  0.41800000000E+01 0.  1.
         -5    1    3    3    0  502  0.78702716003E+02  0.21556398507E+02 -0.24362863747E+03  0.25696533077E+03  0.41800000000E+01 0.  1.
        -11    1    1    2    0    0  0.79552570380E+01 -0.46803868831E+02 -0.10167208719E+03  0.11221007783E+03  0.00000000000E+00 0.  1.
         11    1    1    2    0    0 -0.51381903576E+02  0.12078545001E+02 -0.23882055462E+03  0.24458382729E+03  0.00000000000E+00 0. -1.
</event>
<event>
 7    1  0.1538147E-010  0.8124836E+02  0.7561462E-02  0.1325546E+00
          1   -1    0    0  501    0  0.00000000000E+00  0.00000000000E+00  0.15664727448E+02  0.15664727448E+02  0.00000000000E+00 0. -1.
         -1   -1    0    0    0  501 -0.00000000000E+00 -0.00000000000E+00 -0.90629166948E+03  0.90629166948E+03  0.00000000000E+00 0.  1.
         25    2    1    2    0    0  0.33362539905E+02 -0.27167241035E+02 -0.40527962568E+03  0.42632787615E+03  0.12511101046E+03 0.  0.
          5    1    3    3  502    0  0.44727698800E+02 -0.23342424814E+02 -0.51136994301E+02  0.71957629354E+02  0.41800000000E+01 0.  1.
         -5    1    3    3    0  502 -0.11365158895E+02 -0.38248162209E+01 -0.35414263138E+03  0.35437024680E+03  0.41800000000E+01 0.  1.
        -11    1    1    2    0    0 -0.33658000537E+02 -0.28135565893E+02 -0.25418502753E+03  0.25794282175E+03  0.00000000000E+00 0.  1.
         11    1    1    2    0    0  0.29546063207E+00  0.55302806928E+02 -0.23116228882E+03  0.23768569903E+03  0.00000000000E+00 0. -1.
</event>
<event>
 7    1  0.1538147E-010  0.1672356E+03  0.7561462E-02  0.1180762E+00
          2   -1    0    0  501    0  0.00000000000E+00  0.00000000000E+00  0.55281228578E+03  0.55281228578E+03  0.00000000000E+00 0. -1.
         -2   -1    0    0    0  501 -0.00000000000E+00 -0.00000000000E+00 -0.51340612926E+02  0.51340612926E+02  0.00000000000E+00 0.  1.
         25    2    1    2    0    0  0.10490114996E+03 -0.75072193182E+02  0.26022434413E+03  0.31622599936E+03  0.12506833309E+03 0.  0.
          5    1    3    3  502    0  0.88002303423E+02  0.13738557306E+02  0.13036423135E+03  0.15794131372E+03  0.41800000000E+01 0. -1.
         -5    1    3    3    0  502  0.16898846539E+02 -0.88810750488E+02  0.12986011278E+03  0.15828468564E+03  0.41800000000E+01 0. -1.
        -11    1    1    2    0    0 -0.31697651390E+02  0.75192444182E+02  0.15180798156E+03  0.17234937781E+03  0.00000000000E+00 0. -1.
         11    1    1    2    0    0 -0.73203498572E+02 -0.12025099989E+00  0.89439347162E+02  0.11557752154E+03  0.00000000000E+00 0.  1.
</event>
<event>
 7    1  0.1538147E-010  0.1011726E+03  0.7561462E-02  0.1277849E+00
         -2   -1    0    0    0  501 -0.00000000000E+00  0.00000000000E+00  0.65913360328E+02  0.65913360328E+02  0.00000000000E+00 0. -1.
          2   -1    0    0  501    0  0.00000000000E+00 -0.00000000000E+00 -0.24063379575E+03  0.24063379575E+03  0.00000000000E+00 0.  1.
         25    2    1    2    0    0  0.60554225659E+02  0.83139731014E+01 -0.70968691276E+02  0.15623501053E+03  0.12504753888E+03 0.  0.
          5    1    3    3  502    0 -0.37395313445E+02  0.13869536702E+02 -0.12765271156E+02  0.42085603996E+02  0.41800000000E+01 0.  1.
         -5    1    3    3    0  502  0.97949539105E+02 -0.55555636010E+01 -0.58203420120E+02  0.11414940653E+03  0.41800000000E+01 0.  1.
        -11    1    1    2    0    0 -0.32734799971E+02 -0.14082062536E+02 -0.11451432911E+03  0.11993082667E+03  0.00000000000E+00 0.  1.
         11    1    1    2    0    0 -0.27819425689E+02  0.57680894345E+01  0.10762584969E+02  0.30381318875E+02  0.00000000000E+00 0. -1.
</event>
<event>
 7    1  0.1538147E-010  0.1397580E+03  0.7561462E-02  0.1213655E+00
         -2   -1    0    0    0  501 -0.00000000000E+00  0.00000000000E+00  0.32251949096E+02  0.32251949096E+02  0.00000000000E+00 0.  1.
          2   -1    0    0  501    0  0.00000000000E+00 -0.00000000000E+00 -0.20701201266E+04  0.20701201266E+04  0.00000000000E+00 0. -1.
         25    2    1    2    0    0 -0.53965769447E+02  0.73316970740E+02 -0.19266585692E+04  0.19328626309E+04  0.12512803592E+03 0.  0.
          5    1    3    3  502    0  0.40063031848E+02  0.25986136445E+02 -0.48653776120E+03  0.48889343550E+03  0.41800000000E+01 0. -1.
         -5    1    3    3    0  502 -0.94028801295E+02  0.47330834295E+02 -0.14401208080E+04  0.14439691954E+04  0.41800000000E+01 0. -1.
        -11    1    1    2    0    0  0.46034963550E+02 -0.93677612531E+02 -0.80473774248E+02  0.13179810811E+03  0.00000000000E+00 0.  1.
         11    1    1    2    0    0  0.79308058973E+01  0.20360641791E+02 -0.30735834055E+02  0.37711336643E+02  0.00000000000E+00 0. -1.
</event>
<event>
 7    1  0.1538147E-010  0.8215300E+02  0.7561462E-02  0.1323050E+00
          2   -1    0    0  501    0  0.00000000000E+00  0.00000000000E+00  0.44373190254E+03  0.44373190254E+03  0.00000000000E+00 0. -1.
         -2   -1    0    0    0  501 -0.00000000000E+00 -0.00000000000E+00 -0.30683471687E+02  0.30683471687E+02  0.00000000000E+00 0.  1.
         25    2    1    2    0    0  0.86447402910E+01  0.15455628392E+02  0.31663460022E+03  0.34091798491E+03  0.12511592384E+03 0.  0.
          5    1    3    3  502    0 -0.77935162049E+01  0.66552726974E+02  0.12530433585E+03  0.14215714314E+03  0.41800000000E+01 0. -1.
         -5    1    3    3    0  502  0.16438256496E+02 -0.51097098582E+02  0.19133026437E+03  0.19876084177E+03  0.41800000000E+01 0. -1.
        -11    1    1    2    0    0  0.15773552960E+02 -0.86071984057E+01 -0.12357858698E+02  0.21808381622E+02  0.00000000000E+00 0.  1.
         11    1    1    2    0    0 -0.24418293251E+02 -0.68484299862E+01  0.10877168933E+03  0.11168900769E+03  0.00000000000E+00 0. -1.
</event>
<event>
 7    1  0.1538147E-010  0.9500705E+02  0.7561462E-02  0.1291160E+00
         -1   -1    0    0    0  501 -0.00000000000E+00  0.00000000000E+00  0.53429331662E+02  0.53429331662E+02  0.00000000000E+00 0.  1.
          1   -1    0    0  501    0  0.00000000000E+00 -0.00000000000E+00 -0.34996968496E+03  0.34996968496E+03  0.00000000000E+00 0. -1.
         25    2    1    2    0    0  0.39832395428E+02  0.12513515766E+02 -0.26789480860E+03  0.29860267002E+03  0.12511082393E+03 0.  0.
          5    1    3    3  502    0 -0.20446346407E+02 -0.41978586974E+02 -0.13355125302E+03  0.14154032793E+03  0.41800000000E+01 0. -1.
         -5    1    3    3    0  502  0.60278741835E+02  0.54492102740E+02 -0.13434355558E+03  0.15706234209E+03  0.41800000000E+01 0. -1.
        -11    1    1    2    0    0  0.34576999777E+01 -0.17821745130E+02 -0.52172714998E+02  0.55240949294E+02  0.00000000000E+00 0. -1.
         11    1    1    2    0    0 -0.43290095406E+02  0.53082293639E+01  0.23527170307E+02  0.49555397303E+02  0.00000000000E+00 0.  1.
</event>
<event>
 6    1  0.1538147E-010  0.9202867E+02  0.7561462E-02  0.1298012E+00
         -2   -1    0    0    0  501 -0.00000000000E+00  0.00000000000E+00  0.70981189309E+02  0.70981189309E+02  0.00000000000E+00 0. -1.
          2   -1    0    0  501    0  0.00000000000E+00 -0.00000000000E+00 -0.30150553725E+03  0.30150553725E+03  0.00000000000E+00 0.  1.
          5    1    1    2  502    0  0.31200581821E+02 -0.37537883158E+02  0.30238446895E+01  0.49083449498E+02  0.41800000000E+01 0.  1.
         -5    1    1    2    0  502  0.38591667774E+02 -0.17632328188E+02 -0.18125380227E+03  0.18620050767E+03  0.41800000000E+01 0.  1.
        -11    1    1    2    0    0 -0.34810102327E+02  0.11894401579E+02 -0.69772373761E+02  0.78875878145E+02  0.00000000000E+00 0.  1.
         11    1    1    2    0    0 -0.34982147268E+02  0.43275809767E+02  0.17477983403E+02  0.58326891245E+02  0.00000000000E+00 0. -1.
</event>
<event>
 6    1  0.1538147E-010  0.1143581E+03  0.7561462E-02  0.1252706E+00
          3   -1    0    0  501    0  0.00000000000E+00  0.00000000000E+00  0.35262917510E+02  0.35262917510E+02  0.00000000000E+00 0. -1.
         -3   -1    0    0    0  501 -0.00000000000E+00 -0.00000000000E+00 -0.57286939005E+03  0.57286939005E+03  0.00000000000E+00 0.  1.
          5    1    1    2  502    0 -0.70522929109E+02 -0.26977044286E+02 -0.28978230885E+03  0.29948706712E+03  0.41800000000E+01 0.  1.
         -5    1    1    2    0  502 -0.18907025130E+02  0.53038220826E+02 -0.54630395176E+02  0.78565138228E+02  0.41800000000E+01 0.  1.
        -11    1    1    2    0    0  0.50023041486E+02 -0.27719580942E+02 -0.17940123678E+03  0.18829626551E+03  0.00000000000E+00 0.  1.
         11    1    1    2    0    0  0.39406912753E+02  0.16584044028E+01 -0.13792531732E+02  0.41783836701E+02  0.00000000000E+00 0. -1.
</event>
<event>
 7    1  0.1538147E-010  0.1065990E+03  0.7561462E-02  0.1267001E+00
         -1   -1    0    0    0  501 -0.00000000000E+00  0.00000000000E+00  0.22269012874E+02  0.22269012874E+02  0.00000000000E+00 0.  1.
          1   -1    0    0  501    0  0.00000000000E+00 -0.00000000000E+00 -0.90595562655E+03  0.90595562655E+03  0.00000000000E+00 0. -1.
         25    2    1    2    0    0  0.71757480842E+02 -0.32228066754E+02 -0.63397855192E+03  0.65098007236E+03  0.12513379231E+03 0.  0.
          5    1    3    3  502    0  0.60843551261E+02 -0.52222264455E+02 -0.18834011895E+03  0.20474026336E+03  0.41800000000E+01 0. -1.
         -5    1    3    3    0  502  0.10913929581E+02  0.19994197701E+02 -0.44563843297E+03  0.44623980900E+03  0.41800000000E+01 0. -1.
        -11    1    1    2    0    0 -0.48585366661E+02 -0.20053659667E+02 -0.17758813138E+03  0.18520321684E+03  0.00000000000E+00 0.  1.
         11    1    1    2    0    0 -0.23172114180E+02  0.52281726422E+02 -0.72119930373E+02  0.92041350220E+02  0.00000000000E+00 0. -1.
</event>
<event>
 6    1  0.1538147E-010  0.9232970E+02  0.7561462E-02  0.1297306E+00
          1   -1    0    0  501    0  0.00000000000E+00  0.00000000000E+00  0.76390013960E+02  0.76390013960E+02  0.00000000000E+00 0. -1.
         -1   -1    0    0    0  501 -0.00000000000E+00 -0.00000000000E+00 -0.15786381345E+03  0.15786381345E+03  0.00000000000E+00 0.  1.
          5    1    1    2  502    0  0.55500495748E+02 -0.18363292424E+02 -0.59788306146E+02  0.83723530078E+02  0.41800000000E+01 0. -1.
         -5    1    1    2    0  502 -0.34011115060E+02  0.11159787562E+02  0.29853619420E+02  0.46797519150E+02  0.41800000000E+01 0. -1.
        -11    1    1    2    0    0  0.43943982998E+01 -0.37822297315E+02 -0.20994968391E+02  0.43481324823E+02  0.00000000000E+00 0.  1.
         11    1    1    2    0    0 -0.25883778988E+02  0.45025802177E+02 -0.30544144373E+02  0.60251453359E+02  0.00000000000E+00 0. -1.
</event>
<event>
 6    1  0.1538147E-010  0.1109537E+03  0.7561462E-02  0.1258814E+00
         -1   -1    0    0    0  501 -0.00000000000E+00  0.00000000000E+00  0.43166099701E+02  0.43166099701E+02  0.00000000000E+00 0.  1.
          1   -1    0    0  501    0  0.00000000000E+00 -0.00000000000E+00 -0.40614045668E+03  0.40614045668E+03  0.00000000000E+00 0. -1.
          5    1    1    2  502    0 -0.15418829583E+02 -0.45849587756E+02 -0.71461785208E+02  0.86395510000E+02  0.41800000000E+01 0. -1.
         -5    1    1    2    0  502  0.57381031228E+02  0.44024832452E+02 -0.23024392211E+02  0.76015548764E+02  0.41800000000E+01 0. -1.
        -11    1    1    2    0    0 -0.18643520931E+02  0.46729419454E+02 -0.12484742098E+03  0.13460348450E+03  0.00000000000E+00 0. -1.
         11    1    1    2    0    0 -0.23318680714E+02 -0.44904664150E+02 -0.14364075858E+03  0.15229201312E+03  0.00000000000E+00 0.  1.
</event>
<event>
 7    1  0.1538147E-010  0.9634891E+02  0.7561462E-02  0.1288167E+00
          1   -1    0    0  501    0  0.00000000000E+00  0.00000000000E+00  0.14882148476E+03  0.14882148476E+03  0.00000000000E+00 0. -1.
         -1   -1    0    0    0  501 -0.00000000000E+00 -0.00000000000E+00 -0.95216916218E+02  0.95216916218E+02  0.00000000000E+00 0.  1.
         25    2    1    2    0    0 -0.21088219319E+02 -0.43932005224E+02  0.30248074397E+02  0.13755945574E+03  0.12503169110E+03 0.  0.
          5    1    3    3  502    0  0.25767034865E+02 -0.26145480606E+01  0.62026437801E+02  0.67346323831E+02  0.41800000000E+01 0. -1.
         -5    1    3    3    0  502 -0.46855254184E+02 -0.41317457164E+02 -0.31778363404E+02  0.70213131904E+02  0.41800000000E+01 0. -1.
        -11    1    1    2    0    0  0.53391446080E+02  0.55384284881E+01  0.13401223345E+02  0.55325522969E+02  0.00000000000E+00 0.  1.
         11    1    1    2    0    0 -0.32303226761E+02  0.38393576736E+02  0.99552708013E+01  0.51153422275E+02  0.00000000000E+00 0. -1.
</event>
<event>
 7    1  0.1538147E-010  0.1259511E+03  0.7561462E-02  0.1233590E+00
          3   -1    0    0  501    0  0.00000000000E+00  0.00000000000E+00  0.26101308038E+03  0.26101308038E+03  0.00000000000E+00 0. -1.
         -3   -1    0    0    0  501 -0.00000000000E+00 -0.00000000000E+00 -0.97408476329E+02  0.97408476329E+02  0.00000000000E+00 0.  1.
         25    2    1    2    0    0 -0.12820195182E+02 -0.11398333613E+03  0.68012958392E+02  0.18281633690E+03  0.12505795541E+03 0.  0.
          5    1    3    3  502    0 -0.14199060787E+02 -0.73953447110E+02 -0.26612709960E+02  0.79977711883E+02  0.41800000000E+01 0.  1.
         -5    1    3    3    0  502  0.13788656054E+01 -0.40029889020E+02  0.94625668352E+02  0.10283862502E+03  0.41800000000E+01 0.  1.
        -11    1    1    2    0    0  0.31823268132E+02  0.14574469550E+02  0.57797509649E+02  0.67569872568E+02  0.00000000000E+00 0. -1.
         11    1    1    2    0    0 -0.19003072950E+02  0.99408866579E+02  0.37794136013E+02  0.10803534724E+03  0.00000000000E+00 0.  1.
</event>
<event>
 6    1  0.1538147E-010  0.2140167E+03  0.7561462E-02  0.1138424E+00
         -1   -1    0    0    0  501 -0.00000000000E+00  0.00000000000E+00  0.29114290609E+03  0.29114290609E+03  0.00000000000E+00 0.  1.
          1   -1    0    0  501    0  0.00000000000E+00 -0.00000000000E+00 -0.20453785917E+03  0.20453785917E+03  0.00000000000E+00 0. -1.
          5    1    1    2  502    0  0.15203797718E+02 -0.72185748441E+02 -0.26201543210E+02  0.78395988479E+02  0.41800000000E+01 0.  1.
         -5    1    1    2    0  502 -0.60734408469E+01 -0.13844601750E+03  0.12725929644E+03  0.18819295251E+03  0.41800000000E+01 0.  1.
        -11    1    1    2    0    0  0.17890213530E+02  0.10230653544E+03  0.31244973629E+02  0.10845706667E+03  0.00000000000E+00 0.  1.
         11    1    1    2    0    0 -0.27020570402E+02  0.10832523050E+03 -0.45697679948E+02  0.12063475759E+03  0.00000000000E+00 0. -1.
</event>
<event>
 7    1  0.1538147E-010  0.1163287E+03  0.7561462E-02  0.1249279E+00
         -1   -1    0    0    0  501 -0.00000000000E+00  0.00000000000E+00  0.50316677243E+03  0.50316677243E+03  0.00000000000E+00 0.  1.
          1   -1    0    0  501    0  0.00000000000E+00 -0.00000000000E+00 -0.35394545777E+02  0.35394545777E+02  0.00000000000E+00 0. -1.
         25    2    1    2    0    0 -0.73405710842E+02 -0.66048248115E+01  0.30421017020E+03  0.33709242966E+03  0.12512176624E+03 0.  0.
          5    1    3    3  502    0 -0.88499093167E+02 -0.46949752979E+02  0.18768269221E+03  0.21278776786E+03  0.41800000000E+01 0.  1.
         -5    1    3    3    0  502  0.15093382325E+02  0.40344928168E+02  0.11652747799E+03  0.12430466180E+03  0.41800000000E+01 0.  1.
        -11    1    1    2    0    0  0.32678631548E+02 -0.21953800278E+02  0.10815310824E+02  0.40826869274E+02  0.00000000000E+00 0. -1.
         11    1    1    2    0    0  0.40727079294E+02  0.28558625090E+02  0.15274674563E+03  0.16064201927E+03  0.00000000000E+00 0.  1.
</event>
<event>
 7    1  0.1538147E-010  0.2295861E+03  0.7561462E-02  0.1126931E+00
         -2   -1    0    0    0  501 -0.00000000000E+00  0.00000000000E+00  0.75550937203E+02  0.75550937203E+02  0.00000000000E+00 0.  1.
          2   -1    0    0  501    0  0.00000000000E+00 -0.00000000000E+00 -0.77678507725E+03  0.77678507725E+03  0.00000000000E+00 0. -1.
         25    2    1    2    0    0  0.45614526657E+02  0.20786217352E+03 -0.42431001754E+03  0.49087734441E+03  0.12503682678E+03 0.  0.
          5    1    3    3  502    0 -0.22831724144E+02  0.53517779804E+02 -0.38980850343E+02  0.70159956357E+02  0.41800000000E+01 0.  1.
         -5    1    3    3    0  502  0.68446250800E+02  0.15434439371E+03 -0.38532916720E+03  0.42071738805E+03  0.41800000000E+01 0.  1.
        -11    1    1    2    0    0  0.28600291822E+02 -0.62553760115E+02 -0.91471423934E+02  0.11444636732E+03  0.00000000000E+00 0.  1.
         11    1    1    2    0    0 -0.74214818478E+02 -0.14530841340E+03 -0.18545269858E+03  0.24701230272E+03  0.00000000000E+00 0. -1.
</event>
<event>
 7    1  0.1538147E-010  0.1073069E+03  0.7561462E-02  0.1265640E+00
          1   -1    0    0  501    0  0.00000000000E+00  0.00000000000E+00  0.27553609387E+03  0.27553609387E+03  0.00000000000E+00 0. -1.
         -1   -1    0    0    0  501 -0.00000000000E+00 -0.00000000000E+00 -0.61500881008E+02  0.61500881008E+02  0.00000000000E+00 0.  1.
         25    2    1    2    0    0 -0.68697502434E+02  0.83797524462E+01  0.14174657397E+03  0.20134108362E+03  0.12512623078E+03 0.  0.
          5    1    3    3  502    0 -0.18810783455E+02  0.55172123366E+02  0.11262549143E+03  0.12688491829E+03  0.41800000000E+01 0. -1.
         -5    1    3    3    0  502 -0.49886718979E+02 -0.46792370920E+02  0.29121082537E+02  0.74456165325E+02  0.41800000000E+01 0. -1.
        -11    1    1    2    0    0  0.75473329016E+02 -0.16312062947E+02  0.16524532618E+02  0.78964339855E+02  0.00000000000E+00 0.  1.
         11    1    1    2    0    0 -0.67758265823E+01  0.79323105011E+01  0.55764106283E+02  0.56731551409E+02  0.00000000000E+00 0. -1.
</event>
<event>
 7    1  0.1538147E-010  0.1128477E+03  0.7561462E-02  0.1255385E+00
         -3   -1    0    0    0  501 -0.00000000000E+00  0.00000000000E+00  0.83272244745E+02  0.83272244745E+02  0.00000000000E+00 0.  1.
          3   -1    0    0  501    0  0.00000000000E+00 -0.00000000000E+00 -0.18963661658E+03  0.18963661658E+03  0.00000000000E+00 0. -1.
         25    2    1    2    0    0 -0.29687141485E+02 -0.46390992004E+02 -0.97250992717E+02  0.16777120200E+03  0.12512381919E+03 0.  0.
          5    1    3    3  502    0 -0.52223275350E+02 -0.79886808482E+02 -0.60964861837E+02  0.11332854643E+03  0.41800000000E+01 0.  1.
         -5    1    3    3    0  502  0.22536133865E+02  0.33495816478E+02 -0.36286130880E+02  0.54442655568E+02  0.41800000000E+01 0.  1.
        -11    1    1    2    0    0  0.39997258714E+02  0.60240002196E+02  0.16576525611E+02  0.74185037376E+02  0.00000000000E+00 0.  1.
         11    1    1    2    0    0 -0.10310117229E+02 -0.13849010192E+02 -0.25689904730E+02  0.30952621951E+02  0.00000000000E+00 0. -1.
</event>
<event>
 6    1  0.1538147E-010  0.1823112E+03  0.7561462E-02  0.1165585E+00
         -1   -1    0    0    0  501 -0.00000000000E+00  0.00000000000E+00  0.58806751486E+03  0.58806751486E+03  0.00000000000E+00 0.  1.
          1   -1    0    0  501    0  0.00000000000E+00 -0.00000000000E+00 -0.96517618342E+02  0.96517618342E+02  0.00000000000E+00 0. -1.
          5    1    1    2  502    0  0.60178554341E+02  0.11261523727E+03  0.10340595518E+03  0.16435910086E+03  0.41800000000E+01 0. -1.
         -5    1    1    2    0  502 -0.44683996569E+01  0.47961316959E+02 -0.32467533460E+02  0.58239742864E+02  0.41800000000E+01 0. -1.
        -11    1    1    2    0    0  0.68573801156E+01 -0.10381132140E+03  0.26914587538E+03  0.28855383614E+03  0.00000000000E+00 0. -1.
         11    1    1    2    0    0 -0.62567534799E+02 -0.56765232823E+02  0.15146559941E+03  0.17343245335E+03  0.00000000000E+00 0.  1.
</event>
<event>
 7    1  0.2083035E-010  0.1039434E+03  0.7561462E-02  0.1272215E+00
          1   -1    0    0  501    0  0.00000000000E+00  0.00000000000E+00  0.33623838034E+03  0.33623838034E+03  0.00000000000E+00 0. -1.
         -1   -1    0    0    0  501 -0.00000000000E+00 -0.00000000000E+00 -0.44979822140E+02  0.44979822140E+02  0.00000000000E+00 0.  1.
         25    2    1    2    0    0  0.29737980778E+02  0.47545598510E+02  0.16556125275E+03  0.21496074194E+03  0.12511059398E+03 0.  0.
          5    1    3    3  502    0 -0.34302094360E+02  0.55292704599E+02  0.11761056287E+03  0.13447540206E+03  0.41800000000E+01 0. -1.
         -5    1    3    3    0  502  0.64040075138E+02 -0.77471060889E+01  0.47950689879E+02  0.80485339885E+02  0.41800000000E+01 0. -1.
        -11    1    1    2    0    0 -0.68975005364E+01 -0.53895526194E+02  0.13112541577E+03  0.14193723232E+03  0.00000000000E+00 0. -1.
         11    1    1    2    0    0 -0.22840480242E+02  0.63499276840E+01 -0.54281103171E+01  0.24320228224E+02  0.00000000000E+00 0.  1.
</event>
<event>
 6    1  0.1538147E-010  0.4634551E+03  0.7561462E-02  0.1023784E+00
         -2   -1    0    0    0  501 -0.00000000000E+00  0.00000000000E+00  0.32095588931E+03  0.32095588931E+03  0.00000000000E+00 0.  1.
          2   -1    0    0  501    0  0.00000000000E+00 -0.00000000000E+00 -0.67409588149E+03  0.67409588149E+03  0.00000000000E+00 0. -1.
          5    1    1    2  502    0 -0.65268109303E+01 -0.31832903283E+02 -0.12361764373E+02  0.35017404398E+02  0.41800000000E+01 0. -1.
         -5    1    1    2    0  502 -0.41980504588E+03 -0.11803644578E+03 -0.17388777177E+03  0.46949260766E+03  0.41800000000E+01 0. -1.
        -11    1    1    2    0    0  0.34047574745E+03  0.15032951359E+03 -0.15761587433E+03  0.40418493428E+03  0.00000000000E+00 0. -1.
         11    1    1    2    0    0  0.85856109357E+02 -0.46016453249E+00 -0.92745816998E+01  0.86356824461E+02  0.00000000000E+00 0.  1.
</event>
<event>
 7    1  0.1538147E-010  0.2079656E+03  0.7561462E-02  0.1143187E+00
         -2   -1    0    0    0  501 -0.00000000000E+00  0.00000000000E+00  0.10809084380E+03  0.10809084380E+03  0.00000000000E+00 0. -1.
          2   -1    0    0  501    0  0.00000000000E+00 -0.00000000000E+00 -0.66579064884E+03  0.66579064884E+03  0.00000000000E+00 0.  1.
         25    2    1    2    0    0  0.46814262087E+02  0.17209930856E+03 -0.44936132491E+02  0.22242049317E+03  0.12506747233E+03 0.  0.
          5    1    3    3  502    0  0.67543310438E+02  0.17873898739E+03 -0.25260544181E+02  0.19278301764E+03  0.41800000000E+01 0.  1.
         -5    1    3    3    0  502 -0.20729048351E+02 -0.66396788268E+01 -0.19675588310E+02  0.29637475530E+02  0.41800000000E+01 0.  1.
        -11    1    1    2    0    0 -0.35510380545E+02 -0.18331469398E+03 -0.47980050779E+03  0.51485317463E+03  0.00000000000E+00 0.  1.
         11    1    1    2    0    0 -0.11303881542E+02  0.11215385419E+02 -0.32963164765E+02  0.36607824838E+02  0.00000000000E+00 0. -1.
</event>
<event>
 7    1  0.1538147E-010  0.1064868E+03  0.7561462E-02  0.1267218E+00
          1   -1    0    0  501    0  0.00000000000E+00  0.00000000000E+00  0.55771369798E+03  0.55771369798E+03  0.00000000000E+00 0. -1.
         -1   -1    0    0    0  501 -0.00000000000E+00 -0.00000000000E+00 -0.30594618597E+02  0.30594618597E+02  0.00000000000E+00 0.  1.
         25    2    1    2    0    0 -0.44621557287E+02  0.48436435133E+02  0.35551700144E+03  0.38257975106E+03  0.12505101353E+03 0.  0.
          5    1    3    3  502    0  0.27584247257E+02 -0.58807591370E+01  0.19354125668E+02  0.34460536925E+02  0.41800000000E+01 0. -1.
         -5    1    3    3    0  502 -0.72205804545E+02  0.54317194270E+02  0.33616287577E+03  0.34811921414E+03  0.41800000000E+01 0. -1.
        -11    1    1    2    0    0  0.57947958644E+02 -0.17831761641E+02  0.15879491241E+03  0.16997576840E+03  0.00000000000E+00 0. -1.
         11    1    1    2    0    0 -0.13326401357E+02 -0.30604673493E+02  0.12807165528E+02  0.35752797116E+02  0.00000000000E+00 0.  1.
</event>
<event>
 7    1  0.1538147E-010  0.1177701E+03  0.7561462E-02  0.1246822E+00
         -1   -1    0    0    0  501 -0.00000000000E+00  0.00000000000E+00  0.28282479401E+03  0.28282479401E+03  0.00000000000E+00 0.  1.
          1   -1    0    0  501    0  0.00000000000E+00 -0.00000000000E+00 -0.51968675755E+02  0.51968675755E+02  0.00000000000E+00 0. -1.
         25    2    1    2    0    0  0.33053262986E+02  0.31625929745E+02  0.97647741396E+02  0.16513289767E+03  0.12506428294E+03 0.  0.
          5    1    3    3  502    0  0.69100239466E+02  0.55961980986E+02  0.71816373988E+02  0.11437504266E+03  0.41800000000E+01 0.  1.
         -5    1    3    3    0  502 -0.36046976480E+02 -0.24336051241E+02  0.25831367408E+02  0.50757855013E+02  0.41800000000E+01 0.  1.
        -11    1    1    2    0    0 -0.45604963491E+02  0.19928742492E+02  0.81987225342E+02  0.95910753264E+02  0.00000000000E+00 0.  1.
         11    1    1    2    0    0  0.12551700505E+02 -0.51554672237E+02  0.51221151516E+02  0.73749818831E+02  0.00000000000E+00 0. -1.
</event>
<event>
 6    1  0.1538147E-010  0.2717663E+03  0.7561462E-02  0.1100273E+00
         -2   -1    0    0    0  501 -0.00000000000E+00  0.00000000000E+00  0.74497806626E+02  0.74497806626E+02  0.00000000000E+00 0.  1.
          2   -1    0    0  501    0  0.00000000000E+00 -0.00000000000E+00 -0.10692472881E+04  0.10692472881E+04  0.00000000000E+00 0. -1.
          5    1    1    2  502    0  0.23691837621E+02 -0.20955526270E+03 -0.41050837083E+03  0.46152931241E+03  0.41800000000E+01 0.  1.
         -5    1    1    2    0  502  0.66598002819E+02 -0.32480790910E+02 -0.82388853539E+02  0.11088593845E+03  0.41800000000E+01 0.  1.
        -11    1    1    2    0    0 -0.45826071681E+02  0.13064411744E+03 -0.35919455329E+03  0.38495277812E+03  0.00000000000E+00 0.  1.
         11    1    1    2    0    0 -0.44463768760E+02  0.11139193617E+03 -0.14265770379E+03  0.18637706572E+03  0.00000000000E+00 0. -1.
</event>
<event>
 7    1  0.1599610E-010  0.1174459E+03  0.7561462E-02  0.1247371E+00
          2   -1    0    0  501    0  0.00000000000E+00  0.00000000000E+00  0.44475332207E+03  0.44475332207E+03  0.00000000000E+00 0. -1.
         -2   -1    0    0    0  501 -0.00000000000E+00 -0.00000000000E+00 -0.51367607395E+02  0.51367607395E+02  0.00000000000E+00 0.  1.
         25    2    1    2    0    0 -0.98188250959E+02  0.31207400636E+02  0.24808291766E+03  0.29633236277E+03  0.12511155305E+03 0.  0.
          5    1    3    3  502    0 -0.33094623323E+02  0.51855289583E+02  0.20820141781E+03  0.21713942048E+03  0.41800000000E+01 0. -1.
         -5    1    3    3    0  502 -0.65093627636E+02 -0.20647888948E+02  0.39881499857E+02  0.79192942285E+02  0.41800000000E+01 0. -1.
        -11    1    1    2    0    0  0.76309453819E+02 -0.32404406410E+02  0.39669651785E+02  0.91906798278E+02  0.00000000000E+00 0.  1.
         11    1    1    2    0    0  0.21878797140E+02  0.11970057747E+01  0.10563314523E+03  0.10788176842E+03  0.00000000000E+00 0. -1.
</event>
<event>
 6    1  0.1538147E-010  0.8276159E+02  0.7561462E-02  0.1321392E+00
          2   -1    0    0  501    0  0.00000000000E+00  0.00000000000E+00  0.25654212214E+03  0.25654212214E+03  0.00000000000E+00 0. -1.
         -2   -1    0    0    0  501 -0.00000000000E+00 -0.00000000000E+00 -0.16304267224E+03  0.16304267224E+03  0.00000000000E+00 0.  1.
          5    1    1    2  502    0 -0.89073747988E+01  0.14558014886E+02 -0.13433317483E+03  0.13547749401E+03  0.41800000000E+01 0. -1.
         -5    1    1    2    0  502 -0.17676262559E+02  0.39660815670E+02  0.16330463967E+02  0.46578825780E+02  0.41800000000E+01 0. -1.
        -11    1    1    2    0    0 -0.85638230660E+00  0.22672549042E+02  0.76174028799E+02  0.79481196104E+02  0.00000000000E+00 0. -1.
         11    1    1    2    0    0  0.27440019665E+02 -0.76891379598E+02  0.13532813197E+03  0.15804727849E+03  0.00000000000E+00 0.  1.
</event>
<event>
 7    1  0.1538147E-010  0.1293962E+03  0.7561462E-02  0.1228354E+00
         -1   -1    0    0    0  501 -0.00000000000E+00  0.00000000000E+00  0.49180423657E+03  0.49180423657E+03  0.00000000000E+00 0. -1.
          1   -1    0    0  501    0  0.00000000000E+00 -0.00000000000E+00 -0.65657412352E+02  0.65657412352E+02  0.00000000000E+00 0.  1.
         25    2    1    2    0    0 -0.95325557292E+01 -0.73025568609E+02  0.41682066172E+03  0.44138313691E+03  0.12512396341E+03 0.  0.
          5    1    3    3  502    0  0.24762493678E+02 -0.97592446732E+02  0.25742318118E+03  0.27644462982E+03  0.41800000000E+01 0.  1.
         -5    1    3    3    0  502 -0.34295049407E+02  0.24566878123E+02  0.15939748055E+03  0.16493850709E+03  0.41800000000E+01 0.  1.
        -11    1    1    2    0    0  0.37791964841E+02  0.50443666839E+00  0.10855603745E+01  0.37810917791E+02  0.00000000000E+00 0.  1.
         11    1    1    2    0    0 -0.28259409112E+02  0.72521131940E+02  0.82406021153E+01  0.78267594217E+02  0.00000000000E+00 0. -1.
</event>
<event>
 7    1  0.1538147E-010  0.8345017E+02  0.7561462E-02  0.1319536E+00
          2   -1    0    0  501    0  0.00000000000E+00  0.00000000000E+00  0.46443950360E+03  0.46443950360E+03  0.00000000000E+00 0.  1.
         -2   -1    0    0    0  501 -0.00000000000E+00 -0.00000000000E+00 -0.37084609743E+02  0.37084609743E+02  0.00000000000E+00 0. -1.
         25    2    1    2    0    0  0.13848233683E+02  0.21823087404E+02  0.12412692849E+03  0.17808620566E+03  0.12505671334E+03 0.  0.
          5    1    3    3  502    0  0.41462671623E+02  0.25504108512E+02  0.13820999432E+03  0.14659156735E+03  0.41800000000E+01 0. -1.
         -5    1    3    3    0  502 -0.27614437941E+02 -0.36810211081E+01 -0.14083065829E+02  0.31494638311E+02  0.41800000000E+01 0. -1.
        -11    1    1    2    0    0  0.29210316067E+02 -0.34290016567E+02  0.24918294716E+03  0.25322162023E+03  0.00000000000E+00 0.  1.
         11    1    1    2    0    0 -0.43058549750E+02  0.12466929163E+02  0.54045018215E+02  0.70216287449E+02  0.00000000000E+00 0. -1.
</event>
<event>
 7    1  0.1538147E-010  0.1492727E+03  0.7561462E-02  0.1201370E+00
          2   -1    0    0  501    0  0.00000000000E+00  0.00000000000E+00  0.12305176376E+04  0.12305176376E+04  0.00000000000E+00 0.  1.
         -2   -1    0    0    0  501 -0.00000000000E+00 -0.00000000000E+00 -0.19918146119E+02  0.19918146119E+02  0.00000000000E+00 0. -1.
         25    2    1    2    0    0 -0.94820709871E+02  0.43822699462E+02  0.81313501484E+03  0.82931039282E+03  0.12512305656E+03 0.  0.
          5    1    3    3  502    0 -0.51776535935E+02  0.85195147111E+02  0.58535953936E+03  0.59380323802E+03  0.41800000000E+01 0. -1.
         -5    1    3    3    0  502 -0.43044173935E+02 -0.41372447649E+02  0.22777547548E+03  0.23550715481E+03  0.41800000000E+01 0. -1.
        -11    1    1    2    0    0 -0.43459486779E+01  0.20340574305E+02  0.50878752175E+02  0.54966113705E+02  0.00000000000E+00 0. -1.
         11    1    1    2    0    0  0.99166658548E+02 -0.64163273767E+02  0.34658572451E+03  0.36615927723E+03  0.00000000000E+00 0.  1.
</event>
<event>
 7    1  0.1538147E-010  0.8257002E+02  0.7561462E-02  0.1321912E+00
         -2   -1    0    0    0  501 -0.00000000000E+00  0.00000000000E+00  0.14231437224E+03  0.14231437224E+03  0.00000000000E+00 0.  1.
          2   -1    0    0  501    0  0.00000000000E+00 -0.00000000000E+00 -0.13395490690E+03  0.13395490690E+03  0.00000000000E+00 0. -1.
         25    2    1    2    0    0 -0.26595975309E+02  0.50747005891E+02 -0.57743729955E+02  0.14924320409E+03  0.12512630062E+03 0.  0.
          5    1    3    3  502    0 -0.25235238138E+02  0.66112312154E+02 -0.89213324667E+02  0.11394799147E+03  0.41800000000E+01 0.  1.
         -5    1    3    3    0  502 -0.13607371716E+01 -0.15365306263E+02  0.31469594712E+02  0.35295212615E+02  0.41800000000E+01 0.  1.
        -11    1    1    2    0    0  0.42794827431E+02 -0.31643184163E+02 -0.32164334058E+01  0.53320106926E+02  0.00000000000E+00 0. -1.
         11    1    1    2    0    0 -0.16198852122E+02 -0.19103821728E+02  0.69319628696E+02  0.73705968125E+02  0.00000000000E+00 0.  1.
</event>
<event>
 6    1  0.1538147E-010  0.3720047E+03  0.7561462E-02  0.1053929E+00
         -2   -1    0    0    0  501 -0.00000000000E+00  0.00000000000E+00  0.22627688635E+03  0.22627688635E+03  0.00000000000E+00 0.  1.
          2   -1    0    0  501    0  0.00000000000E+00 -0.00000000000E+00 -0.83505686750E+03  0.83505686750E+03  0.00000000000E+00 0. -1.
          5    1    1    2  502    0  0.35807444833E+02  0.74475660543E+02 -0.66061123636E+02  0.10587890052E+03  0.41800000000E+01 0.  1.
         -5    1    1    2    0  502  0.16738246559E+03  0.23050438403E+03  0.11900159920E+02  0.28514601005E+03  0.41800000000E+01 0.  1.
        -11    1    1    2    0    0 -0.83426052554E+02 -0.20152044292E+03 -0.31471562677E+03  0.38290510690E+03  0.00000000000E+00 0. -1.
         11    1    1    2    0    0 -0.11976385787E+03 -0.10345960165E+03 -0.23990339067E+03  0.28740373638E+03  0.00000000000E+00 0.  1.
</event>
<event>
 6    1  0.1538147E-010  0.1147623E+03  0.7561462E-02  0.1251996E+00
         -2   -1    0    0    0  501 -0.00000000000E+00  0.00000000000E+00  0.39525373947E+02  0.39525373947E+02  0.00000000000E+00 0.  1.
          2   -1    0    0  501    0  0.00000000000E+00 -0.00000000000E+00 -0.48549262828E+03  0.48549262828E+03  0.00000000000E+00 0. -1.
          5    1    1    2  502    0  0.22277773483E+02 -0.40654969369E+02 -0.10153930221E+02  0.47641373036E+02  0.41800000000E+01 0. -1.
         -5    1    1    2    0  502 -0.58442409318E+02 -0.34370965754E+02 -0.19601958229E+03  0.20745608580E+03  0.41800000000E+01 0. -1.
        -11    1    1    2    0    0  0.49497461078E+02  0.12410266458E+02 -0.15809544211E+03  0.16612700618E+03  0.00000000000E+00 0. -1.
         11    1    1    2    0    0 -0.13332825243E+02  0.62615668666E+02 -0.81698299718E+02  0.10379353722E+03  0.00000000000E+00 0.  1.
</event>
<event>
 7    1  0.1538147E-010  0.1881636E+03  0.7561462E-02  0.1160128E+00
          2   -1    0    0  501    0  0.00000000000E+00  0.00000000000E+00  0.91623166422E+03  0.91623166422E+03  0.00000000000E+00 0. -1.
         -2   -1    0    0    0  501 -0.00000000000E+00 -0.00000000000E+00 -0.42789936164E+02  0.42789936164E+02  0.00000000000E+00 0.  1.
         25    2    1    2    0    0  0.70539817136E+02  0.14791338612E+03  0.39984435836E+03  0.44985540007E+03  0.12506052318E+03 0.  0.
          5    1    3    3  502    0  0.33763714521E+02  0.15167152225E+03  0.37266003633E+03  0.40377866977E+03  0.41800000000E+01 0. -1.
         -5    1    3    3    0  502  0.36776102614E+02 -0.37581361304E+01  0.27184322034E+02  0.46076730300E+02  0.41800000000E+01 0. -1.
        -11    1    1    2    0    0  0.12053123711E+02  0.22911239760E+01  0.63692140266E+02  0.64863053982E+02  0.00000000000E+00 0.  1.
         11    1    1    2    0    0 -0.82592940846E+02 -0.15020451010E+03  0.40990522943E+03  0.44430314633E+03  0.00000000000E+00 0. -1.
</event>
<event>
 7    1  0.1538147E-010  0.2202940E+03  0.7561462E-02  0.1133664E+00
          2   -1    0    0  501    0  0.00000000000E+00  0.00000000000E+00  0.69153884748E+03  0.69153884748E+03  0.00000000000E+00 0. -1.
         -2   -1    0    0    0  501 -0.00000000000E+00 -0.00000000000E+00 -0.77166271965E+02  0.77166271965E+02  0.00000000000E+00 0.  1.
         25    2    1    2    0    0 -0.14466042655E+03 -0.13783963614E+03  0.28044227756E+03  0.36635567827E+03  0.12506881168E+03 0.  0.
          5    1    3    3  502    0 -0.48229814210E+02 -0.10703881304E+03  0.21716128087E+03  0.24690062128E+03  0.41800000000E+01 0.  1.
         -5    1    3    3    0  502 -0.96430612336E+02 -0.30800823103E+02  0.63280996684E+02  0.11945505699E+03  0.41800000000E+01 0.  1.
        -11    1    1    2    0    0  0.13433606837E+03  0.66836103443E+02  0.25341113773E+03  0.29450033738E+03  0.00000000000E+00 0. -1.
         11    1    1    2    0    0  0.10324358173E+02  0.71003532699E+02  0.80519160229E+02  0.10784910380E+03  0.00000000000E+00 0.  1.
</event>
<event>
 7    1  0.1538147E-010  0.1386382E+03  0.7561462E-02  0.1215173E+00
         -2   -1    0    0    0  501 -0.00000000000E+00  0.00000000000E+00  0.39190932366E+02  0.39190932366E+02  0.00000000000E+00 0.  1.
          2   -1    0    0  501    0  0.00000000000E+00 -0.00000000000E+00 -0.51897049085E+03  0.51897049085E+03  0.00000000000E+00 0. -1.
         25    2    1    2    0    0 -0.20258419861E+02 -0.89813634043E+02 -0.24609003694E+03  0.29098899287E+03  0.12504957121E+03 0.  0.
          5    1    3    3  502    0  0.50802180911E+02 -0.58130542924E+02 -0.11860857697E+03  0.14158209116E+03  0.41800000000E+01 0. -1.
         -5    1    3    3    0  502 -0.71060600772E+02 -0.31683091120E+02 -0.12748145996E+03  0.14940690171E+03  0.41800000000E+01 0. -1.
        -11    1    1    2    0    0 -0.18882743386E+02 -0.49470714089E+01 -0.80546766374E+02  0.82878302870E+02  0.00000000000E+00 0.  1.
         11    1    1    2    0    0  0.39141163247E+02  0.94760705452E+02 -0.15314275517E+03  0.18429412747E+03  0.00000000000E+00 0. -1.
</event>
<event>
 7    1  0.1538147E-010  0.2239313E+03  0.7561462E-02  0.1130986E+00
         -1   -1    0    0    0  501 -0.00000000000E+00  0.00000000000E+00  0.85888809153E+02  0.85888809153E+02  0.00000000000E+00 0.  1.
          1   -1    0    0  501    0  0.00000000000E+00 -0.00000000000E+00 -0.12153957251E+04  0.12153957251E+04  0.00000000000E+00 0. -1.
         25    2    1    2    0    0 -0.18673366058E+03  0.73535196691E+02 -0.10207635690E+04  0.10477962326E+04  0.12506716631E+03 0.  0.
          5    1    3    3  502    0  0.17625946839E+02 -0.18930738970E+01 -0.64187080133E+02  0.66721146473E+02  0.41800000000E+01 0.  1.
         -5    1    3    3    0  502 -0.20435960742E+03  0.75428270588E+02 -0.95657648887E+03  0.98107508612E+03  0.41800000000E+01 0.  1.
        -11    1    1    2    0    0  0.18295613442E+03 -0.52412158891E+02 -0.12401046805E+03  0.22715320316E+03  0.00000000000E+00 0. -1.
         11    1    1    2    0    0  0.37775261648E+01 -0.21123037799E+02  0.15267121059E+02  0.26335098542E+02  0.00000000000E+00 0.  1.
</event>
<event>
 6    1  0.1538147E-010  0.1283063E+03  0.7561462E-02  0.1229991E+00
         -1   -1    0    0    0  501 -0.00000000000E+00  0.00000000000E+00  0.40972737094E+02  0.40972737094E+02  0.00000000000E+00 0.  1.
          1   -1    0    0  501    0  0.00000000000E+00 -0.00000000000E+00 -0.48964778541E+03  0.48964778541E+03  0.00000000000E+00 0. -1.
          5    1    1    2  502    0  0.78562574375E+02 -0.59355290792E+02 -0.18720775849E+03  0.21156404675E+03  0.41800000000E+01 0. -1.
         -5    1    1    2    0  502 -0.45808381000E+02 -0.93407888536E+01 -0.11802352333E+03  0.12701449746E+03  0.41800000000E+01 0. -1.
        -11    1    1    2    0    0 -0.59748705072E+02  0.41106065366E+02 -0.42707595181E+02  0.84163858359E+02  0.00000000000E+00 0.  1.
         11    1    1    2    0    0  0.26994511696E+02  0.27590014279E+02 -0.10073617130E+03  0.10787811993E+03  0.00000000000E+00 0. -1.
</event>
<event>
 6    1  0.1538147E-010  0.1442078E+03  0.7561462E-02  0.1207777E+00
          1   -1    0    0  501    0  0.00000000000E+00  0.00000000000E+00  0.35855409109E+03  0.35855409109E+03  0.00000000000E+00 0. -1.
         -1   -1    0    0    0  501 -0.00000000000E+00 -0.00000000000E+00 -0.87376169819E+02  0.87376169819E+02  0.00000000000E+00 0.  1.
          5    1    1    2  502    0 -0.33623213144E+02 -0.10878349845E+03  0.22498691023E+03  0.25219229206E+03  0.41800000000E+01 0.  1.
         -5    1    1    2    0  502 -0.29779490597E+02  0.28909279365E+02  0.38027255329E+02  0.56445629073E+02  0.41800000000E+01 0.  1.
        -11    1    1    2    0    0  0.29778428436E+02  0.92247938905E+02 -0.94003863212E+01  0.97389959931E+02  0.00000000000E+00 0.  1.
         11    1    1    2    0    0  0.33624275304E+02 -0.12373719816E+02  0.17564142026E+02  0.39902379840E+02  0.00000000000E+00 0. -1.
</event>
<event>
 6    1  0.1538147E-010  0.1536976E+03  0.7561462E-02  0.1196002E+00
         -1   -1    0    0    0  501 -0.00000000000E+00  0.00000000000E+00  0.99157184823E+02  0.99157184823E+02  0.00000000000E+00 0.  1.
          1   -1    0    0  501    0  0.00000000000E+00 -0.00000000000E+00 -0.42889556543E+03  0.42889556543E+03  0.00000000000E+00 0. -1.
          5    1    1    2  502    0  0.37962557000E+02  0.17765574941E+02 -0.19522032453E+03  0.19971284109E+03  0.41800000000E+01 0. -1.
         -5    1    1    2    0  502  0.11093489715E+03 -0.32381852289E+02 -0.93823976913E+02  0.14891456211E+03  0.41800000000E+01 0. -1.
        -11    1    1    2    0    0 -0.47593184933E+02  0.35175105333E+01 -0.58999120146E+02  0.75883992452E+02  0.00000000000E+00 0. -1.
         11    1    1    2    0    0 -0.10130426922E+03  0.11098766815E+02  0.18305040989E+02  0.10354135460E+03  0.00000000000E+00 0.  1.
</event>
<event>
 6    1  0.1538147E-010  0.1240771E+03  0.7561462E-02  0.1236519E+00
         -2   -1    0    0    0  501 -0.00000000000E+00  0.00000000000E+00  0.14159518705E+03  0.14159518705E+03  0.00000000000E+00 0.  1.
          2   -1    0    0  501    0  0.00000000000E+00 -0.00000000000E+00 -0.13902509461E+03  0.13902509461E+03  0.00000000000E+00 0. -1.
          5    1    1    2  502    0  0.28251222228E+01  0.99856412226E+02  0.36448300813E+02  0.10642008932E+03  0.41800000000E+01 0.  1.
         -5    1    1    2    0  502 -0.40166240875E+02 -0.22802772618E+02 -0.98890039288E+01  0.47418963968E+02  0.41800000000E+01 0.  1.
        -11    1    1    2    0    0 -0.20412202414E+01 -0.58015632475E+02  0.23128251117E+02  0.62489168592E+02  0.00000000000E+00 0.  1.
         11    1    1    2    0    0  0.39382338893E+02 -0.19038007132E+02 -0.47117455568E+02  0.64292059786E+02  0.00000000000E+00 0. -1.
</event>
<event>
 6    1  0.1538147E-010  0.1613310E+03  0.7561462E-02  0.1187202E+00
         -2   -1    0    0    0  501 -0.00000000000E+00  0.00000000000E+00  0.26141454770E+02  0.26141454770E+02  0.00000000000E+00 0.  1.
          2   -1    0    0  501    0  0.00000000000E+00 -0.00000000000E+00 -0.11708421417E+04  0.11708421417E+04  0.00000000000E+00 0. -1.
          5    1    1    2  502    0  0.63234613686E+02  0.80358441848E+02 -0.32965158546E+03  0.34517203789E+03  0.41800000000E+01 0. -1.
         -5    1    1    2    0  502  0.62664640179E+02 -0.25102818140E+02 -0.39460355547E+03  0.40035789863E+03  0.41800000000E+01 0. -1.
        -11    1    1    2    0    0 -0.11492945234E+03 -0.21148915448E+02 -0.37931081725E+03  0.39690395780E+03  0.00000000000E+00 0. -1.
         11    1    1    2    0    0 -0.10969801526E+02 -0.34106708260E+02 -0.41134728728E+02  0.54549702121E+02  0.00000000000E+00 0.  1.
</event>
<event>
 7    1  0.1538147E-010  0.2743286E+03  0.7561462E-02  0.1098827E+00
         -1   -1    0    0    0  501 -0.00000000000E+00  0.00000000000E+00  0.24719896045E+03  0.24719896045E+03  0.00000000000E+00 0.  1.
          1   -1    0    0  501    0  0.00000000000E+00 -0.00000000000E+00 -0.35396086499E+03  0.35396086499E+03  0.00000000000E+00 0. -1.
         25    2    1    2    0    0  0.14462552431E+02 -0.26863706307E+03 -0.94202726970E+02  0.31125861761E+03  0.12503094093E+03 0.  0.
          5    1    3    3  502    0  0.42746876848E+02 -0.21051352274E+03 -0.24723647584E+02  0.21626828220E+03  0.41800000000E+01 0.  1.
         -5    1    3    3    0  502 -0.28284324417E+02 -0.58123540328E+02 -0.69479079387E+02  0.94990335405E+02  0.41800000000E+01 0.  1.
        -11    1    1    2    0    0 -0.73530857085E+01  0.15241786636E+03 -0.60273504121E+02  0.16406757496E+03  0.00000000000E+00 0. -1.
         11    1    1    2    0    0 -0.71094667222E+01  0.11621919672E+03  0.47714326557E+02  0.12583363287E+03  0.00000000000E+00 0.  1.
</event>
<event>
 7    1  0.1538147E-010  0.1093641E+03  0.7561462E-02  0.1261752E+00
         -3   -1    0    0    0  501 -0.00000000000E+00  0.00000000000E+00  0.68706874506E+02  0.68706874506E+02  0.00000000000E+00 0.  1.
          3   -1    0    0  501    0  0.00000000000E+00 -0.00000000000E+00 -0.25930247411E+03  0.25930247411E+03  0.00000000000E+00 0. -1.
         25    2    1    2    0    0  0.33026721734E+01  0.74941017187E+02 -0.11821136049E+03  0.18776047299E+03  0.12511197293E+03 0.  0.
          5    1    3    3  502    0  0.49977257078E+02  0.80711761210E+02 -0.58310519872E+02  0.11148858126E+03  0.41800000000E+01 0. -1.
         -5    1    3    3    0  502 -0.46674584905E+02 -0.57707440239E+01 -0.59900840617E+02  0.76271891738E+02  0.41800000000E+01 0. -1.
        -11    1    1    2    0    0  0.57151229459E+01 -0.39836961119E+02  0.17081980937E+02  0.43720020291E+02  0.00000000000E+00 0.  1.
         11    1    1    2    0    0 -0.90177951193E+01 -0.35104056067E+02 -0.89466220052E+02  0.96528855331E+02  0.00000000000E+00 0. -1.
</event>
<event>
 7    1  0.1538147E-010  0.1484540E+03  0.7561462E-02  0.1202386E+00
          2   -1    0    0  501    0  0.00000000000E+00  0.00000000000E+00  0.90375247272E+03  0.90375247272E+03  0.00000000000E+00 0.  1.
         -2   -1    0    0    0  501 -0.00000000000E+00 -0.00000000000E+00 -0.30579978305E+02  0.30579978305E+02  0.00000000000E+00 0. -1.
         25    2    1    2    0    0 -0.12125900891E+03  0.57803087574E+00  0.52189927263E+03  0.55021683162E+03  0.12512245867E+03 0.  0.
          5    1    3    3  502    0 -0.42396909457E+02 -0.57416905361E+02  0.15921978858E+03  0.17453541884E+03  0.41800000000E+01 0. -1.
         -5    1    3    3    0  502 -0.78862099455E+02  0.57994936237E+02  0.36267948405E+03  0.37568141279E+03  0.41800000000E+01 0. -1.
        -11    1    1    2    0    0  0.59896756068E+02  0.19301208642E+02  0.64252143748E+02  0.89936066284E+02  0.00000000000E+00 0. -1.
         11    1    1    2    0    0  0.61362252843E+02 -0.19879239518E+02  0.28702107804E+03  0.29417955312E+03  0.00000000000E+00 0.  1.
</event>
<event>
 7    1  0.1538147E-010  0.1882441E+03  0.7561462E-02  0.1160055E+00
         -1   -1    0    0    0  501 -0.00000000000E+00  0.00000000000E+00  0.37769210510E+03  0.37769210510E+03  0.00000000000E+00 0.  1.
          1   -1    0    0  501    0  0.00000000000E+00 -0.00000000000E+00 -0.11261522443E+03  0.11261522443E+03  0.00000000000E+00 0. -1.
         25    2    1    2    0    0  0.11709054788E+02  0.16332641253E+03  0.21270882541E+03  0.29613921485E+03  0.12506306876E+03 0.  0.
          5    1    3    3  502    0  0.54826830000E+02  0.79346535855E+02  0.16281052761E+03  0.18927914396E+03  0.41800000000E+01 0. -1.
         -5    1    3    3    0  502 -0.43117775211E+02  0.83979876671E+02  0.49898297805E+02  0.10686007088E+03  0.41800000000E+01 0. -1.
        -11    1    1    2    0    0 -0.40262772372E+02 -0.14732010777E+03  0.52312946982E+02  0.16143404045E+03  0.00000000000E+00 0.  1.
         11    1    1    2    0    0  0.28553717584E+02 -0.16006304751E+02  0.55108275371E-01  0.32734074243E+02  0.00000000000E+00 0. -1.
</event>
<event>
 6    1  0.1538147E-010  0.9007371E+02  0.7561462E-02  0.1302673E+00
         -1   -1    0    0    0  501 -0.00000000000E+00  0.00000000000E+00  0.18342110236E+02  0.18342110236E+02  0.00000000000E+00 0.  1.
          1   -1    0    0  501    0  0.00000000000E+00 -0.00000000000E+00 -0.72493783427E+03  0.72493783427E+03  0.00000000000E+00 0. -1.
          5    1    1    2  502    0 -0.17182879236E+02  0.18350260501E+02 -0.34221507779E+03  0.34316266590E+03  0.41800000000E+01 0. -1.
         -5    1    1    2    0  502  0.51279187966E+02 -0.35867616592E+02 -0.10079886320E+03  0.11871783464E+03  0.41800000000E+01 0. -1.
        -11    1    1    2    0    0 -0.14137323831E+02 -0.33932472200E+02 -0.15851419547E+03  0.16272070170E+03  0.00000000000E+00 0. -1.
         11    1    1    2    0    0 -0.19958984899E+02  0.51449828291E+02 -0.10506758757E+03  0.11867874227E+03  0.00000000000E+00 0.  1.
</event>
<event>
 7    1  0.1538147E-010  0.1728325E+03  0.7561462E-02  0.1174926E+00
          2   -1    0    0  501    0  0.00000000000E+00  0.00000000000E+00  0.12108074153E+03  0.12108074153E+03  0.00000000000E+00 0. -1.
         -2   -1    0    0    0  501 -0.00000000000E+00 -0.00000000000E+00 -0.29400375879E+03  0.29400375879E+03  0.00000000000E+00 0.  1.
         25    2    1    2    0    0 -0.95336874430E+02 -0.99929222990E+02 -0.16604746409E+03  0.24960877403E+03  0.12513117321E+03 0.  0.
          5    1    3    3  502    0 -0.28686884433E+02 -0.11100119633E+03 -0.12826465935E+03  0.17208572911E+03  0.41800000000E+01 0. -1.
         -5    1    3    3    0  502 -0.66649989997E+02  0.11071973335E+02 -0.37782804740E+02  0.77523044923E+02  0.41800000000E+01 0. -1.
        -11    1    1    2    0    0 -0.90226987395E+01 -0.87552001520E+01 -0.78030756082E+01  0.14796979800E+02  0.00000000000E+00 0. -1.
         11    1    1    2    0    0  0.10435957317E+03  0.10868442314E+03  0.92752243347E+00  0.15067874649E+03  0.00000000000E+00 0.  1.
</event>
<event>
 7    1  0.1538147E-010  0.1032757E+03  0.7561462E-02  0.1273555E+00
          2   -1    0    0  501    0  0.00000000000E+00  0.00000000000E+00  0.17807668310E+03  0.17807668310E+03  0.00000000000E+00 0. -1.
         -2   -1    0    0    0  501 -0.00000000000E+00 -0.00000000000E+00 -0.85132727020E+02  0.85132727020E+02  0.00000000000E+00 0.  1.
         25    2    1    2    0    0 -0.22282275970E+02 -0.61199863647E+00 -0.64180394870E+01  0.12717961129E+03  0.12504634313E+03 0.  0.
          5    1    3    3  502    0 -0.24652595800E+02  0.54489155600E+02  0.23383950824E+02  0.64351380046E+02  0.41800000000E+01 0. -1.
         -5    1    3    3    0  502  0.23703198296E+01 -0.55101154236E+02 -0.29801990311E+02  0.62828231240E+02  0.41800000000E+01 0. -1.
        -11    1    1    2    0    0  0.36924151795E+02 -0.36177063474E+02  0.43514405347E+02  0.67569788960E+02  0.00000000000E+00 0. -1.
         11    1    1    2    0    0 -0.14641875825E+02  0.36789062110E+02  0.55847590221E+02  0.68460009875E+02  0.00000000000E+00 0.  1.
</event>
<event>
 7    1  0.1538147E-010  0.2319824E+03  0.7561462E-02  0.1125252E+00
          2   -1    0    0  501    0  0.00000000000E+00  0.00000000000E+00  0.55943260055E+03  0.55943260055E+03  0.00000000000E+00 0. -1.
         -2   -1    0    0    0  501 -0.00000000000E+00 -0.00000000000E+00 -0.27355379160E+03  0.27355379160E+03  0.00000000000E+00 0.  1.
         25    2    1    2    0    0  0.34807036893E+02  0.21701456485E+03 -0.17962224329E+03  0.31019944096E+03  0.12511071784E+03 0.  0.
          5    1    3    3  502    0  0.40799765082E+02  0.21647662908E+03 -0.19432044010E+03  0.29377654367E+03  0.41800000000E+01 0. -1.
         -5    1    3    3    0  502 -0.59927281898E+01  0.53793576242E+00  0.14698196811E+02  0.16422897294E+02  0.41800000000E+01 0. -1.
        -11    1    1    2    0    0 -0.61956324376E+02 -0.11365449044E+03  0.22429720688E+03  0.25896943129E+03  0.00000000000E+00 0.  1.
         11    1    1    2    0    0  0.27149287483E+02 -0.10336007440E+03  0.24120384536E+03  0.26381751990E+03  0.00000000000E+00 0. -1.
</event>
<event>
 6    1  0.1538147E-010  0.2333053E+03  0.7561462E-02  0.1124335E+00
         -4   -1    0    0    0  501 -0.00000000000E+00  0.00000000000E+00  0.16832223664E+04  0.16832223664E+04  0.00000000000E+00 0.  1.
          4   -1    0    0  501    0  0.00000000000E+00 -0.00000000000E+00 -0.37459511813E+02  0.37459511813E+02  0.00000000000E+00 0. -1.
          5    1    1    2  502    0 -0.50144518727E+01 -0.20173662524E+03  0.52408725502E+03  0.56161172883E+03  0.41800000000E+01 0.  1.
         -5    1    1    2    0  502  0.11681028625E+02 -0.29425152875E+02  0.34282344389E+03  0.34430752553E+03  0.41800000000E+01 0.  1.
        -11    1    1    2    0    0  0.85105535238E+01  0.32558728695E+02  0.19467071065E+03  0.19755805709E+03  0.00000000000E+00 0.  1.
         11    1    1    2    0    0 -0.15177130276E+02  0.19860304942E+03  0.58418144499E+03  0.61720456673E+03  0.00000000000E+00 0. -1.
</event>
<event>
 7    1  0.1538147E-010  0.2295306E+03  0.7561462E-02  0.1126971E+00
         -1   -1    0    0    0  501 -0.00000000000E+00  0.00000000000E+00  0.10428213226E+04  0.10428213226E+04  0.00000000000E+00 0.  1.
          1   -1    0    0  501    0  0.00000000000E+00 -0.00000000000E+00 -0.89290365137E+02  0.89290365137E+02  0.00000000000E+00 0. -1.
         25    2    1    2    0    0 -0.13162059298E+03  0.18307933790E+03  0.80993225343E+03  0.84999368335E+03  0.12512786310E+03 0.  0.
          5    1    3    3  502    0 -0.10452242638E+03  0.17337007460E+03  0.51108134110E+03  0.54973059766E+03  0.41800000000E+01 0. -1.
         -5    1    3    3    0  502 -0.27098166607E+02  0.97092632980E+01  0.29885091233E+03  0.30026308569E+03  0.41800000000E+01 0. -1.
        -11    1    1    2    0    0  0.95500010908E+02 -0.10795431182E+03  0.40853132422E+02  0.14981109422E+03  0.00000000000E+00 0. -1.
         11    1    1    2    0    0  0.36120582077E+02 -0.75125026084E+02  0.10274557165E+03  0.13230691020E+03  0.00000000000E+00 0.  1.
</event>
<event>
 7    1  0.1538147E-010  0.1146704E+03  0.7561462E-02  0.1252158E+00
         -2   -1    0    0    0  501 -0.00000000000E+00  0.00000000000E+00  0.22563245905E+03  0.22563245905E+03  0.00000000000E+00 0.  1.
          2   -1    0    0  501    0  0.00000000000E+00 -0.00000000000E+00 -0.78203875439E+02  0.78203875439E+02  0.00000000000E+00 0. -1.
         25    2    1    2    0    0 -0.58320320881E+02 -0.22914487006E+02  0.13421960886E+03  0.19384149861E+03  0.12503315416E+03 0.  0.
          5    1    3    3  502    0 -0.14645026354E+01  0.44599323071E+02  0.75322341686E+02  0.87648000225E+02  0.41800000000E+01 0. -1.
         -5    1    3    3    0  502 -0.56855818246E+02 -0.67513810077E+02  0.58897267174E+02  0.10619349839E+03  0.41800000000E+01 0. -1.
        -11    1    1    2    0    0 -0.16311539049E+02  0.13025194435E+02  0.26304144960E+02  0.33580203071E+02  0.00000000000E+00 0.  1.
         11    1    1    2    0    0  0.74631859930E+02  0.98892925707E+01 -0.13095170206E+02  0.76414632806E+02  0.00000000000E+00 0. -1.
</event>
<event>
 7    1  0.1538147E-010  0.1136786E+03  0.7561462E-02  0.1253905E+00
          2   -1    0    0  501    0  0.00000000000E+00  0.00000000000E+00  0.61539576867E+03  0.61539576867E+03  0.00000000000E+00 0. -1.
         -2   -1    0    0    0  501 -0.00000000000E+00 -0.00000000000E+00 -0.25949976363E+02  0.25949976363E+02  0.00000000000E+00 0.  1.
         25    2    1    2    0    0  0.45322999970E+02  0.91648745733E+01  0.44778885358E+03  0.46722005416E+03  0.12506619195E+03 0.  0.
          5    1    3    3  502    0  0.80332324277E+02 -0.19206129787E+02  0.34729750581E+03  0.35700866613E+03  0.41800000000E+01 0. -1.
         -5    1    3    3    0  502 -0.35009324307E+02  0.28371004360E+02  0.10049134777E+03  0.11021138803E+03  0.41800000000E+01 0. -1.
        -11    1    1    2    0    0 -0.39977369278E+02  0.36073438581E+02  0.59979487323E+02  0.80604106129E+02  0.00000000000E+00 0.  1.
         11    1    1    2    0    0 -0.53456306924E+01 -0.45238313154E+02  0.81677451405E+02  0.93521584742E+02  0.00000000000E+00 0. -1.
</event>
<event>
 7    1  0.1538147E-010  0.1017284E+03  0.7561462E-02  0.1276703E+00
          1   -1    0    0  501    0  0.00000000000E+00  0.00000000000E+00  0.46328770083E+03  0.46328770083E+03  0.00000000000E+00 0.  1.
         -1   -1    0    0    0  501 -0.00000000000E+00 -0.00000000000E+00 -0.29954803550E+02  0.29954803550E+02  0.00000000000E+00 0. -1.
         25    2    1    2    0    0  0.32799641660E+02  0.26641205498E+01  0.18025755544E+03  0.22188135366E+03  0.12512247910E+03 0.  0.
          5    1    3    3  502    0  0.37258465109E+02  0.52884241814E+02  0.14880014271E+03  0.16230801313E+03  0.41800000000E+01 0. -1.
         -5    1    3    3    0  502 -0.44588234491E+01 -0.50220121264E+02  0.31457412733E+02  0.59573340533E+02  0.41800000000E+01 0. -1.
        -11    1    1    2    0    0 -0.91309685887E+01  0.39036810778E+02  0.58188370440E+02  0.70662108923E+02  0.00000000000E+00 0.  1.
         11    1    1    2    0    0 -0.23668673071E+02 -0.41700931328E+02  0.19488697139E+03  0.20069904179E+03  0.00000000000E+00 0. -1.
</event>
<event>
 6    1  0.1538147E-010  0.1844233E+03  0.7561462E-02  0.1163589E+00
         -2   -1    0    0    0  501 -0.00000000000E+00  0.00000000000E+00  0.18527981041E+02  0.18527981041E+02  0.00000000000E+00 0.  1.
          2   -1    0    0  501    0  0.00000000000E+00 -0.00000000000E+00 -0.20800345081E+04  0.20800345081E+04  0.00000000000E+00 0. -1.
          5    1    1    2  502    0  0.76002872837E+02 -0.13380557439E+02 -0.29772368881E+03  0.30759119505E+03  0.41800000000E+01 0.  1.
         -5    1    1    2    0  502  0.58862793987E+02  0.10499079810E+03 -0.83437286988E+03  0.84302043545E+03  0.41800000000E+01 0.  1.
        -11    1    1    2    0    0 -0.12349461835E+03 -0.98379114038E+02 -0.91443816722E+03  0.92796903640E+03  0.00000000000E+00 0. -1.
         11    1    1    2    0    0 -0.11371048478E+02  0.67688733791E+01 -0.14971801154E+02  0.19981822242E+02  0.00000000000E+00 0.  1.
</event>
<event>
 7    1  0.1538147E-010  0.1646720E+03  0.7561462E-02  0.1183521E+00
          1   -1    0    0  501    0  0.00000000000E+00  0.00000000000E+00  0.52406706030E+03  0.52406706030E+03  0.00000000000E+00 0. -1.
         -1   -1    0    0    0  501 -0.00000000000E+00 -0.00000000000E+00 -0.57885145741E+02  0.57885145741E+02  0.00000000000E+00 0.  1.
         25    2    1    2    0    0  0.14539369877E+02  0.13502774919E+03  0.24394887807E+03  0.30595438987E+03  0.12511253830E+03 0.  0.
          5    1    3    3  502    0 -0.24875017741E+02 -0.14987684854E+01  0.20213324841E+01  0.25348984193E+02  0.41800000000E+01 0.  1.
         -5    1    3    3    0  502  0.39414387618E+02  0.13652651768E+03  0.24192754558E+03  0.28060540567E+03  0.41800000000E+01 0.  1.
        -11    1    1    2    0    0 -0.32214001295E+02 -0.13991400800E+03  0.18225010694E+03  0.23201028640E+03  0.00000000000E+00 0.  1.
         11    1    1    2    0    0  0.17674631418E+02  0.48862588058E+01  0.39982929544E+02  0.43987529776E+02  0.00000000000E+00 0. -1.
</event>
<event>
 7    1  0.1538147E-010  0.9379429E+02  0.7561462E-02  0.1293915E+00
          2   -1    0    0  501    0  0.00000000000E+00  0.00000000000E+00  0.58185756142E+03  0.58185756142E+03  0.00000000000E+00 0. -1.
         -2   -1    0    0    0  501 -0.00000000000E+00 -0.00000000000E+00 -0.27243091883E+02  0.27243091883E+02  0.00000000000E+00 0.  1.
         25    2    1    2    0    0  0.99947368839E+01 -0.52550820229E+02  0.40110186882E+03  0.42352902085E+03  0.12503055168E+03 0.  0.
          5    1    3    3  502    0  0.57875297917E+02 -0.35745648623E+02  0.32429136157E+03  0.33137540810E+03  0.41800000000E+01 0.  1.
         -5    1    3    3    0  502 -0.47880561034E+02 -0.16805171606E+02  0.76810507253E+02  0.92153612746E+02  0.41800000000E+01 0.  1.
        -11    1    1    2    0    0  0.15827185102E+02  0.99209443184E+01 -0.50584475190E+01  0.19352333599E+02  0.00000000000E+00 0.  1.
         11    1    1    2    0    0 -0.25821921986E+02  0.42629875911E+02  0.15857104823E+03  0.16621929885E+03  0.00000000000E+00 0. -1.
</event>
<event>
 6    1  0.1538147E-010  0.1074824E+03  0.7561462E-02  0.1265304E+00
         -2   -1    0    0    0  501 -0.00000000000E+00  0.00000000000E+00  0.82332711931E+02  0.82332711931E+02  0.00000000000E+00 0. -1.
          2   -1    0    0  501    0  0.00000000000E+00 -0.00000000000E+00 -0.20148705834E+03  0.20148705834E+03  0.00000000000E+00 0.  1.
          5    1    1    2  502    0 -0.74945202227E+02 -0.48450022981E+02 -0.96547231390E+02  0.13154097595E+03  0.41800000000E+01 0. -1.
         -5    1    1    2    0  502  0.12092108816E+02  0.16803747142E+02  0.21632708143E+02  0.30232953466E+02  0.41800000000E+01 0. -1.
        -11    1    1    2    0    0  0.35211471773E+02 -0.23834131520E+02  0.50956964566E+01  0.42823821550E+02  0.00000000000E+00 0. -1.
         11    1    1    2    0    0  0.27641621638E+02  0.55480407359E+02 -0.49335519620E+02  0.79222019311E+02  0.00000000000E+00 0.  1.
</event>
<event>
 7    1  0.1538147E-010  0.8756485E+02  0.7561462E-02  0.1308858E+00
         -1   -1    0    0    0  501 -0.00000000000E+00  0.00000000000E+00  0.51294929621E+03  0.51294929621E+03  0.00000000000E+00 0.  1.
          1   -1    0    0  501    0  0.00000000000E+00 -0.00000000000E+00 -0.26528496624E+02  0.26528496624E+02  0.00000000000E+00 0. -1.
         25    2    1    2    0    0 -0.27926944999E+02 -0.32929787555E+02  0.28393464626E+03  0.31324906996E+03  0.12506722719E+03 0.  0.
          5    1    3    3  502    0 -0.24325220843E+02  0.13057546023E+02  0.25067209247E+01  0.28035190868E+02  0.41800000000E+01 0.  1.
         -5    1    3    3    0  502 -0.36017241559E+01 -0.45987333578E+02  0.28142792533E+03  0.28521387909E+03  0.41800000000E+01 0.  1.
        -11    1    1    2    0    0  0.90625998227E+00  0.61534161513E+02  0.12321221897E+03  0.13772626926E+03  0.00000000000E+00 0. -1.
         11    1    1    2    0    0  0.27020685017E+02 -0.28604373958E+02  0.79273934350E+02  0.88502453614E+02  0.00000000000E+00 0.  1.
</event>
<event>
 7    1  0.1538147E-010  0.7798276E+02  0.7561462E-02  0.1334876E+00
         -2   -1    0    0    0  501 -0.00000000000E+00  0.00000000000E+00  0.15761566544E+03  0.15761566544E+03  0.00000000000E+00 0.  1.
          2   -1    0    0  501    0  0.00000000000E+00 -0.00000000000E+00 -0.78034462821E+02  0.78034462821E+02  0.00000000000E+00 0. -1.
         25    2    1    2    0    0 -0.23554978255E+02 -0.14849844875E+02  0.38718242637E+02  0.13389218627E+03  0.12511059243E+03 0.  0.
          5    1    3    3  502    0  0.21255216511E+02 -0.38831928578E+02  0.63239482778E+02  0.77307227916E+02  0.41800000000E+01 0.  1.
         -5    1    3    3    0  502 -0.44810194766E+02  0.23982083703E+02 -0.24521240142E+02  0.56584958353E+02  0.41800000000E+01 0.  1.
        -11    1    1    2    0    0  0.33632607572E+02 -0.88273116645E+01 -0.16797228623E+02  0.38616325728E+02  0.00000000000E+00 0. -1.
         11    1    1    2    0    0 -0.10077629317E+02  0.23677156540E+02  0.57660188607E+02  0.63141616265E+02  0.00000000000E+00 0.  1.
</event>
<event>
 7    1  0.1538147E-010  0.1162254E+03  0.7561462E-02  0.1249457E+00
          3   -1    0    0  501    0  0.00000000000E+00  0.00000000000E+00  0.39625548592E+02  0.39625548592E+02  0.00000000000E+00 0. -1.
         -3   -1    0    0    0  501 -0.00000000000E+00 -0.00000000000E+00 -0.50706121687E+03  0.50706121687E+03  0.00000000000E+00 0.  1.
         25    2    1    2    0    0  0.44088067858E+02 -0.10884657109E+02 -0.40646794416E+03  0.42770806434E+03  0.12512300024E+03 0.  0.
          5    1    3    3  502    0 -0.25642814758E+02 -0.46479995813E+02 -0.19624875519E+03  0.20334451129E+03  0.41800000000E+01 0. -1.
         -5    1    3    3    0  502  0.69730882616E+02  0.35595338704E+02 -0.21021918897E+03  0.22436355305E+03  0.41800000000E+01 0. -1.
        -11    1    1    2    0    0 -0.58398099332E+02 -0.23967004600E+02 -0.47381047017E+02  0.78928568538E+02  0.00000000000E+00 0.  1.
         11    1    1    2    0    0  0.14310031474E+02  0.34851661709E+02 -0.13586677101E+02  0.40050132576E+02  0.00000000000E+00 0. -1.
</event>
<event>
 6    1  0.1538147E-010  0.1401488E+03  0.7561462E-02  0.1213129E+00
         -1   -1    0    0    0  501 -0.00000000000E+00  0.00000000000E+00  0.38997344817E+02  0.38997344817E+02  0.00000000000E+00 0.  1.
          1   -1    0    0  501    0  0.00000000000E+00 -0.00000000000E+00 -0.52602863077E+03  0.52602863077E+03  0.00000000000E+00 0. -1.
          5    1    1    2  502    0  0.12178340860E+03 -0.57449103317E+01 -0.25527775373E+03  0.28292827104E+03  0.41800000000E+01 0. -1.
         -5    1    1    2    0  502 -0.31808256407E+02  0.29705421398E+01 -0.60945883366E+02  0.68938105540E+02  0.41800000000E+01 0. -1.
        -11    1    1    2    0    0 -0.43076879715E+02 -0.42777935513E+02 -0.66386744650E+02  0.89959819908E+02  0.00000000000E+00 0.  1.
         11    1    1    2    0    0 -0.46898272476E+02  0.45552303705E+02 -0.10442090420E+03  0.12319977909E+03  0.00000000000E+00 0. -1.
</event>
<event>
 7    1  0.1538147E-010  0.8431036E+02  0.7561462E-02  0.1317246E+00
         -1   -1    0    0    0  501 -0.00000000000E+00  0.00000000000E+00  0.23437474426E+03  0.23437474426E+03  0.00000000000E+00 0. -1.
          1   -1    0    0  501    0  0.00000000000E+00 -0.00000000000E+00 -0.54173344720E+02  0.54173344720E+02  0.00000000000E+00 0.  1.
         25    2    1    2    0    0 -0.18951601721E+02 -0.22912846075E+02  0.87405405838E+02  0.15544480542E+03  0.12505687042E+03 0.  0.
          5    1    3    3  502    0  0.16558891997E+02 -0.52807110288E+02  0.93206409234E+02  0.10847900683E+03  0.41800000000E+01 0. -1.
         -5    1    3    3    0  502 -0.35510493718E+02  0.29894264212E+02 -0.58010033956E+01  0.46965798591E+02  0.41800000000E+01 0. -1.
        -11    1    1    2    0    0  0.22881802485E+02  0.41568046681E+02  0.10460115691E+02  0.48589025614E+02  0.00000000000E+00 0.  1.
         11    1    1    2    0    0 -0.39302007634E+01 -0.18655200606E+02  0.82335878010E+02  0.84514257941E+02  0.00000000000E+00 0. -1.
</event>
<event>
 6    1  0.1538147E-010  0.1569766E+03  0.7561462E-02  0.1192153E+00
          2   -1    0    0  501    0  0.00000000000E+00  0.00000000000E+00  0.77741376106E+02  0.77741376106E+02  0.00000000000E+00 0. -1.
         -2   -1    0    0    0  501 -0.00000000000E+00 -0.00000000000E+00 -0.36873934383E+03  0.36873934383E+03  0.00000000000E+00 0.  1.
          5    1    1    2  502    0 -0.30428534016E+02 -0.34174081685E+02 -0.66979858377E+02  0.81225226190E+02  0.41800000000E+01 0.  1.
         -5    1    1    2    0  502  0.11339777306E+03 -0.61228000990E+02 -0.10533512373E+03  0.16649589703E+03  0.41800000000E+01 0.  1.
        -11    1    1    2    0    0 -0.50283758784E+02  0.15313292384E+02 -0.83253923776E+00  0.52570395116E+02  0.00000000000E+00 0. -1.
         11    1    1    2    0    0 -0.32685480255E+02  0.80088790292E+02 -0.11785044638E+03  0.14618920159E+03  0.00000000000E+00 0.  1.
</event>
<event>
 7    1  0.1538147E-010  0.1050889E+03  0.7561462E-02  0.1269945E+00
          2   -1    0    0  501    0  0.00000000000E+00  0.00000000000E+00  0.14353663472E+04  0.14353663472E+04  0.00000000000E+00 0. -1.
         -2   -1    0    0    0  501 -0.00000000000E+00 -0.00000000000E+00 -0.12218136134E+02  0.12218136134E+02  0.00000000000E+00 0.  1.
         25    2    1    2    0    0 -0.31005754470E+02  0.17692630429E+02  0.11305901847E+04  0.11380460390E+04  0.12506092543E+03 0.  0.
          5    1    3    3  502    0 -0.62879127146E+02 -0.19929413829E+02  0.37068353801E+03  0.37652984466E+03  0.41800000000E+01 0. -1.
         -5    1    3    3    0  502  0.31873372676E+02  0.37622044258E+02  0.75990664673E+03  0.76151619434E+03  0.41800000000E+01 0. -1.
        -11    1    1    2    0    0 -0.17492967257E+01  0.33650899886E+02  0.16209674425E+03  0.16556206570E+03  0.00000000000E+00 0. -1.
         11    1    1    2    0    0  0.32755051195E+02 -0.51343530315E+02  0.13046128207E+03  0.14397637863E+03  0.00000000000E+00 0.  1.
</event>
<event>
 6    1  0.1538147E-010  0.8959877E+02  0.7561462E-02  0.1303826E+00
          1   -1    0    0  501    0  0.00000000000E+00  0.00000000000E+00  0.11446175284E+03  0.11446175284E+03  0.00000000000E+00 0. -1.
         -1   -1    0    0    0  501 -0.00000000000E+00 -0.00000000000E+00 -0.11336710307E+03  0.11336710307E+03  0.00000000000E+00 0.  1.
          5    1    1    2  502    0  0.34856988396E+02  0.27784882347E+02 -0.62145511987E+02  0.76593383443E+02  0.41800000000E+01 0.  1.
         -5    1    1    2    0  502 -0.38811209574E+02 -0.25777874263E+02  0.26317771810E+02  0.53674074777E+02  0.41800000000E+01 0.  1.
        -11    1    1    2    0    0 -0.29667269441E+02 -0.31248476286E+02  0.64234471269E+01  0.43564605120E+02  0.00000000000E+00 0.  1.
         11    1    1    2    0    0  0.33621490619E+02  0.29241468202E+02  0.30498942822E+02  0.53996792565E+02  0.00000000000E+00 0. -1.
</event>
<event>
 7    1  0.1538147E-010  0.2344247E+03  0.7561462E-02  0.1123564E+00
         -1   -1    0    0    0  501 -0.00000000000E+00  0.00000000000E+00  0.10881806509E+03  0.10881806509E+03  0.00000000000E+00 0.  1.
          1   -1    0    0  501    0  0.00000000000E+00 -0.00000000000E+00 -0.58516930356E+03  0.58516930356E+03  0.00000000000E+00 0. -1.
         25    2    1    2    0    0  0.86169448819E+02 -0.20834308296E+03 -0.28593685658E+03  0.38500122856E+03  0.12503617842E+03 0.  0.
          5    1    3    3  502    0  0.57918719532E+01 -0.25753559961E+02  0.96085893928E+01  0.28400510937E+02  0.41800000000E+01 0.  1.
         -5    1    3    3    0  502  0.80377576866E+02 -0.18258952300E+03 -0.29554544598E+03  0.35660071762E+03  0.41800000000E+01 0.  1.
        -11    1    1    2    0    0 -0.10468094051E+03  0.18719587323E+03 -0.17573787996E+03  0.27727999696E+03  0.00000000000E+00 0. -1.
         11    1    1    2    0    0  0.18511491693E+02  0.21147209724E+02 -0.14676501920E+02  0.31706143134E+02  0.00000000000E+00 0.  1.
</event>
<event>
 7    1  0.1538147E-010  0.1267440E+03  0.7561462E-02  0.1232369E+00
         -1   -1    0    0    0  501 -0.00000000000E+00  0.00000000000E+00  0.70677481745E+02  0.70677481745E+02  0.00000000000E+00 0.  1.
          1   -1    0    0  501    0  0.00000000000E+00 -0.00000000000E+00 -0.26405992559E+03  0.26405992559E+03  0.00000000000E+00 0. -1.
         25    2    1    2    0    0  0.74595263628E+02 -0.42033678594E+01 -0.64159758689E+02  0.15918727593E+03  0.12506795164E+03 0.  0.
          5    1    3    3  502    0 -0.11625231342E+02  0.39617058651E+02 -0.43655330804E+02  0.60232197764E+02  0.41800000000E+01 0. -1.
         -5    1    3    3    0  502  0.86220494970E+02 -0.43820426510E+02 -0.20504427885E+02  0.98955078168E+02  0.41800000000E+01 0. -1.
        -11    1    1    2    0    0 -0.58018718345E+02 -0.38327164325E+02 -0.98329731521E+02  0.12043205265E+03  0.00000000000E+00 0. -1.
         11    1    1    2    0    0 -0.16576545283E+02  0.42530532184E+02 -0.30892953635E+02  0.55118078755E+02  0.00000000000E+00 0.  1.
</event>
<event>
 7    1  0.1538147E-010  0.1656808E+03  0.7561462E-02  0.1182428E+00
          2   -1    0    0  501    0  0.00000000000E+00  0.00000000000E+00  0.43211053420E+03  0.43211053420E+03  0.00000000000E+00 0. -1.
         -2   -1    0    0    0  501 -0.00000000000E+00 -0.00000000000E+00 -0.95388741424E+02  0.95388741424E+02  0.00000000000E+00 0.  1.
         25    2    1    2    0    0  0.13046019168E+03 -0.33130276837E+02  0.37995884627E+02  0.18762591521E+03  0.12506926063E+03 0.  0.
          5    1    3    3  502    0  0.19070312571E+01  0.34954112982E+02 -0.56221768503E+01  0.35700252871E+02  0.41800000000E+01 0.  1.
         -5    1    3    3    0  502  0.12855316042E+03 -0.68084389818E+02  0.43618061477E+02  0.15192566234E+03  0.41800000000E+01 0.  1.
        -11    1    1    2    0    0 -0.10809563207E+03  0.53244946415E+02  0.27898303737E+03  0.30389344372E+03  0.00000000000E+00 0. -1.
         11    1    1    2    0    0 -0.22364559607E+02 -0.20114669578E+02  0.19742870770E+02  0.35979916688E+02  0.00000000000E+00 0.  1.
</event>
<event>
 7    1  0.1538147E-010  0.2115754E+03  0.7561462E-02  0.1140325E+00
         -1   -1    0    0    0  501 -0.00000000000E+00  0.00000000000E+00  0.26631187619E+02  0.26631187619E+02  0.00000000000E+00 0.  1.
          1   -1    0    0  501    0  0.00000000000E+00 -0.00000000000E+00 -0.18064741832E+04  0.18064741832E+04  0.00000000000E+00 0. -1.
         25    2    1    2    0    0 -0.10968213415E+03 -0.15377841912E+03 -0.10402403385E+04  0.10646280656E+04  0.12511987615E+03 0.  0.
          5    1    3    3  502    0 -0.68526463227E+02 -0.16290526697E+03 -0.70978641866E+03  0.73146991372E+03  0.41800000000E+01 0. -1.
         -5    1    3    3    0  502 -0.41155670921E+02  0.91268478508E+01 -0.33045391984E+03  0.33315815184E+03  0.41800000000E+01 0. -1.
        -11    1    1    2    0    0  0.50126713709E+02  0.13960772301E+02 -0.12571562766E+03  0.13605884620E+03  0.00000000000E+00 0. -1.
         11    1    1    2    0    0  0.59555420439E+02  0.13981764682E+03 -0.61388702943E+03  0.63241845907E+03  0.00000000000E+00 0.  1.
</event>
<event>
 7    1  0.1538147E-010  0.1177091E+03  0.7561462E-02  0.1246925E+00
         -1   -1    0    0    0  501 -0.00000000000E+00  0.00000000000E+00  0.77201219952E+02  0.77201219952E+02  0.00000000000E+00 0.  1.
          1   -1    0    0  501    0  0.00000000000E+00 -0.00000000000E+00 -0.18596665668E+03  0.18596665668E+03  0.00000000000E+00 0. -1.
         25    2    1    2    0    0  0.37202785128E+02  0.30637472491E+02 -0.39365919402E+02  0.13974264335E+03  0.12512245529E+03 0.  0.
          5    1    3    3  502    0 -0.33078095210E+02 -0.27126437722E+02 -0.14053290734E+02  0.45221359850E+02  0.41800000000E+01 0. -1.
         -5    1    3    3    0  502  0.70280880338E+02  0.57763910213E+02 -0.25312628669E+02  0.94521283499E+02  0.41800000000E+01 0. -1.
        -11    1    1    2    0    0 -0.44856579903E+02 -0.57790176351E+02 -0.56349635351E+02  0.92342290677E+02  0.00000000000E+00 0.  1.
         11    1    1    2    0    0  0.76537947746E+01  0.27152703861E+02 -0.13049881971E+02  0.31082942603E+02  0.00000000000E+00 0. -1.
</event>
<event>
 7    1  0.1538147E-010  0.8861756E+02  0.7561462E-02  0.1306234E+00
          1   -1    0    0  501    0  0.00000000000E+00  0.00000000000E+00  0.91193980187E+02  0.91193980187E+02  0.00000000000E+00 0. -1.
         -1   -1    0    0    0  501 -0.00000000000E+00 -0.00000000000E+00 -0.16587116882E+03  0.16587116882E+03  0.00000000000E+00 0.  1.
         25    2    1    2    0    0 -0.23956914861E+02  0.53979764219E+01  0.12969634916E+02  0.12810599907E+03  0.12505944046E+03 0.  0.
          5    1    3    3  502    0  0.10962919058E+02  0.35805367468E+02  0.54170129013E+02  0.65985492429E+02  0.41800000000E+01 0.  1.
         -5    1    3    3    0  502 -0.34919833919E+02 -0.30407391046E+02 -0.41200494098E+02  0.62120506639E+02  0.41800000000E+01 0.  1.
        -11    1    1    2    0    0 -0.31005049702E+02 -0.19106019543E+02 -0.23315661003E+02  0.43243186028E+02  0.00000000000E+00 0.  1.
         11    1    1    2    0    0  0.54961964564E+02  0.13708043121E+02 -0.64331162548E+02  0.85715963914E+02  0.00000000000E+00 0. -1.
</event>
<event>
 7    1  0.1538147E-010  0.1499824E+03  0.7561462E-02  0.1200495E+00
         -1   -1    0    0    0  501 -0.00000000000E+00  0.00000000000E+00  0.34301093433E+02  0.34301093433E+02  0.00000000000E+00 0.  1.
          1   -1    0    0  501    0  0.00000000000E+00 -0.00000000000E+00 -0.92856733954E+03  0.92856733954E+03  0.00000000000E+00 0. -1.
         25    2    1    2    0    0  0.13037413706E+03 -0.36754934704E+02 -0.59171786870E+03  0.61977003127E+03  0.12504605027E+03 0.  0.
          5    1    3    3  502    0  0.96960522068E+02 -0.39738195707E+02 -0.57004976257E+03  0.57961596877E+03  0.41800000000E+01 0.  1.
         -5    1    3    3    0  502  0.33413614988E+02  0.29832610031E+01 -0.21668106125E+02  0.40154062507E+02  0.41800000000E+01 0.  1.
        -11    1    1    2    0    0 -0.83526217243E+02  0.65656360737E+02 -0.21199264795E+03  0.23712500808E+03  0.00000000000E+00 0.  1.
         11    1    1    2    0    0 -0.46847919813E+02 -0.28901426033E+02 -0.90555729463E+02  0.10597339362E+03  0.00000000000E+00 0. -1.
</event>
<event>
 7    1  0.1538147E-010  0.1709209E+03  0.7561462E-02  0.1176891E+00
          2   -1    0    0  501    0  0.00000000000E+00  0.00000000000E+00  0.39010635402E+03  0.39010635402E+03  0.00000000000E+00 0.  1.
         -2   -1    0    0    0  501 -0.00000000000E+00 -0.00000000000E+00 -0.88820923442E+02  0.88820923442E+02  0.00000000000E+00 0. -1.
         25    2    1    2    0    0 -0.12945310093E+03  0.60221225373E+02  0.11024149777E+03  0.21954392780E+03  0.12514650245E+03 0.  0.
          5    1    3    3  502    0 -0.12393316106E+03  0.19967549212E+02  0.12394703000E+03  0.17646095907E+03  0.41800000000E+01 0.  1.
         -5    1    3    3    0  502 -0.55199398720E+01  0.40253676161E+02 -0.13705532228E+02  0.43082968726E+02  0.41800000000E+01 0.  1.
        -11    1    1    2    0    0  0.18691073502E+02 -0.61859760539E+02  0.73442325456E+02  0.97825157147E+02  0.00000000000E+00 0. -1.
         11    1    1    2    0    0  0.11076202743E+03  0.16385351660E+01  0.11760160735E+03  0.16155819252E+03  0.00000000000E+00 0.  1.
</event>
<event>
 7    1  0.1538147E-010  0.1255525E+03  0.7561462E-02  0.1234208E+00
          2   -1    0    0  501    0  0.00000000000E+00  0.00000000000E+00  0.12613449915E+03  0.12613449915E+03  0.00000000000E+00 0. -1.
         -2   -1    0    0    0  501 -0.00000000000E+00 -0.00000000000E+00 -0.16801674340E+03  0.16801674340E+03  0.00000000000E+00 0.  1.
         25    2    1    2    0    0  0.57363434217E+02 -0.28107200594E+02  0.51239239673E+02  0.14949305261E+03  0.12506852036E+03 0.  0.
          5    1    3    3  502    0  0.68293724810E+02  0.34582435962E+02  0.27767283113E+02  0.81538163684E+02  0.41800000000E+01 0. -1.
         -5    1    3    3    0  502 -0.10930290593E+02 -0.62689636556E+02  0.23471956560E+02  0.67954888925E+02  0.41800000000E+01 0. -1.
        -11    1    1    2    0    0 -0.70463779183E+02 -0.92611132709E+01 -0.58136465904E+02  0.91819175903E+02  0.00000000000E+00 0.  1.
         11    1    1    2    0    0  0.13100344966E+02  0.37368313865E+02 -0.34985018018E+02  0.52839014043E+02  0.00000000000E+00 0. -1.
</event>
<event>
 7    1  0.1538147E-010  0.1070829E+03  0.7561462E-02  0.1266069E+00
         -2   -1    0    0    0  501 -0.00000000000E+00  0.00000000000E+00  0.15773332268E+02  0.15773332268E+02  0.00000000000E+00 0.  1.
          2   -1    0    0  501    0  0.00000000000E+00 -0.00000000000E+00 -0.14735319638E+04  0.14735319638E+04  0.00000000000E+00 0. -1.
         25    2    1    2    0    0 -0.62120058440E+02 -0.17394338925E+02 -0.12033918551E+04  0.12115914212E+04  0.12506138628E+03 0.  0.
          5    1    3    3  502    0 -0.33602933497E+02  0.33058672605E+02 -0.96721255190E+03  0.96836957095E+03  0.41800000000E+01 0.  1.
         -5    1    3    3    0  502 -0.28517124943E+02 -0.50453011531E+02 -0.23617930323E+03  0.24322185030E+03  0.41800000000E+01 0.  1.
        -11    1    1    2    0    0  0.63068657255E+02 -0.23890276823E+02 -0.12665745981E+03  0.14349394754E+03  0.00000000000E+00 0.  1.
         11    1    1    2    0    0 -0.94859881505E+00  0.41284615748E+02 -0.12770931657E+03  0.13421992727E+03  0.00000000000E+00 0. -1.
</event>
<event>
 7    1  0.1538147E-010  0.4608657E+03  0.7561462E-02  0.1024530E+00
         -1   -1    0    0    0  501 -0.00000000000E+00  0.00000000000E+00  0.19211121600E+03  0.19211121600E+03  0.00000000000E+00 0.  1.
          1   -1    0    0  501    0  0.00000000000E+00 -0.00000000000E+00 -0.12874404786E+04  0.12874404786E+04  0.00000000000E+00 0. -1.
         25    2    1    2    0    0 -0.23435310711E+03  0.38169786213E+03 -0.82952486759E+03  0.95098177061E+03  0.12506072650E+03 0.  0.
          5    1    3    3  502    0 -0.50377322702E+02  0.19986313857E+03 -0.35513856933E+03  0.41063855716E+03  0.41800000000E+01 0. -1.
         -5    1    3    3    0  502 -0.18397578441E+03  0.18183472355E+03 -0.47438629827E+03  0.54034321345E+03  0.41800000000E+01 0. -1.
        -11    1    1    2    0    0  0.18493200182E+03 -0.21799961011E+03 -0.16752043385E+03  0.33134086839E+03  0.00000000000E+00 0.  1.
         11    1    1    2    0    0  0.49421105291E+02 -0.16369825202E+03 -0.98283961191E+02  0.19722905564E+03  0.00000000000E+00 0. -1.
</event>
<event>
 6    1  0.1538147E-010  0.1841249E+03  0.7561462E-02  0.1163870E+00
         -1   -1    0    0    0  501 -0.00000000000E+00  0.00000000000E+00  0.13196656415E+03  0.13196656415E+03  0.00000000000E+00 0.  1.
          1   -1    0    0  501    0  0.00000000000E+00 -0.00000000000E+00 -0.30643461067E+03  0.30643461067E+03  0.00000000000E+00 0. -1.
          5    1    1    2  502    0  0.65087693532E+02 -0.32750862717E+01 -0.63160437171E+01  0.65608679666E+02  0.41800000000E+01 0.  1.
         -5    1    1    2    0  502  0.49774305051E+02  0.12538832543E+03 -0.10786127479E+03  0.17277511567E+03  0.41800000000E+01 0.  1.
        -11    1    1    2    0    0 -0.75240012324E+02 -0.72547716741E+02 -0.82110503243E+02  0.13291488029E+03  0.00000000000E+00 0. -1.
         11    1    1    2    0    0 -0.39621986258E+02 -0.49565522415E+02  0.21819775233E+02  0.67102499197E+02  0.00000000000E+00 0.  1.
</event>
<event>
 6    1  0.1538147E-010  0.1535500E+03  0.7561462E-02  0.1196177E+00
          2   -1    0    0  501    0  0.00000000000E+00  0.00000000000E+00  0.74363795731E+03  0.74363795731E+03  0.00000000000E+00 0. -1.
         -2   -1    0    0    0  501 -0.00000000000E+00 -0.00000000000E+00 -0.90107851760E+02  0.90107851760E+02  0.00000000000E+00 0.  1.
          5    1    1    2  502    0  0.87702413185E+02  0.18030101880E+02 -0.38195099096E+02  0.97432724724E+02  0.41800000000E+01 0.  1.
         -5    1    1    2    0  502  0.17822697093E+02  0.56898255026E+02  0.58713592165E+02  0.83784355709E+02  0.41800000000E+01 0.  1.
        -11    1    1    2    0    0 -0.37207951718E+02 -0.80971513545E+02  0.38779024320E+03  0.39789708518E+03  0.00000000000E+00 0.  1.
         11    1    1    2    0    0 -0.68317158560E+02  0.60431566388E+01  0.24522136928E+03  0.25463164346E+03  0.00000000000E+00 0. -1.
</event>
<event>
 7    1  0.1538147E-010  0.1051362E+03  0.7561462E-02  0.1269852E+00
          1   -1    0    0  501    0  0.00000000000E+00  0.00000000000E+00  0.28643630446E+03  0.28643630446E+03  0.00000000000E+00 0. -1.
         -1   -1    0    0    0  501 -0.00000000000E+00 -0.00000000000E+00 -0.62611851288E+02  0.62611851288E+02  0.00000000000E+00 0.  1.
         25    2    1    2    0    0  0.38507433196E+02 -0.52130283765E+02  0.18056753541E+03  0.22905671769E+03  0.12514773741E+03 0.  0.
          5    1    3    3  502    0  0.53918152543E+02 -0.60211144041E+02  0.45573143344E+02  0.92881283554E+02  0.41800000000E+01 0.  1.
         -5    1    3    3    0  502 -0.15410719347E+02  0.80808602762E+01  0.13499439206E+03  0.13617543414E+03  0.41800000000E+01 0.  1.
        -11    1    1    2    0    0  0.29500117427E+00  0.69094780616E+02  0.21391575943E+02  0.72331011713E+02  0.00000000000E+00 0.  1.
         11    1    1    2    0    0 -0.38802434371E+02 -0.16964496851E+02  0.21865341825E+02  0.47660426347E+02  0.00000000000E+00 0. -1.
</event>
<event>
 7    1  0.1538147E-010  0.9953308E+02  0.7561462E-02  0.1281281E+00
          1   -1    0    0  501    0  0.00000000000E+00  0.00000000000E+00  0.28284101064E+02  0.28284101064E+02  0.00000000000E+00 0. -1.
         -1   -1    0    0    0  501 -0.00000000000E+00 -0.00000000000E+00 -0.51160231839E+03  0.51160231839E+03  0.00000000000E+00 0.  1.
         25    2    1    2    0    0  0.14286216513E+02 -0.50060669107E+02 -0.28970225987E+03  0.31983781508E+03  0.12513457559E+03 0.  0.
          5    1    3    3  502    0  0.47363926916E+02  0.24360863796E+02 -0.10074006311E+03  0.11402993455E+03  0.41800000000E+01 0.  1.
         -5    1    3    3    0  502 -0.33077710403E+02 -0.74421532903E+02 -0.18896219675E+03  0.20580788053E+03  0.41800000000E+01 0.  1.
        -11    1    1    2    0    0 -0.24511270952E+02  0.17917194031E+02 -0.80070927095E+01  0.31399709860E+02  0.00000000000E+00 0. -1.
         11    1    1    2    0    0  0.10225054439E+02  0.32143475075E+02 -0.18560886475E+03  0.18864889451E+03  0.00000000000E+00 0.  1.
</event>
<event>
 6    1  0.1538147E-010  0.7369603E+02  0.7561462E-02  0.1347957E+00
          1   -1    0    0  501    0  0.00000000000E+00  0.00000000000E+00  0.10687748579E+03  0.10687748579E+03  0.00000000000E+00 0. -1.
         -1   -1    0    0    0  501 -0.00000000000E+00 -0.00000000000E+00 -0.11168167693E+03  0.11168167693E+03  0.00000000000E+00 0.  1.
          5    1    1    2  502    0 -0.29751007604E+02 -0.42320667902E+02  0.38896819292E+02  0.64858278856E+02  0.41800000000E+01 0.  1.
         -5    1    1    2    0  502  0.35933047942E+02  0.36240085835E+02 -0.32445967627E+02  0.60619641792E+02  0.41800000000E+01 0.  1.
        -11    1    1    2    0    0 -0.12101873581E+02  0.23203066800E+02  0.34828470847E+02  0.43564435433E+02  0.00000000000E+00 0. -1.
         11    1    1    2    0    0  0.59198332430E+01 -0.17122484733E+02 -0.46083513653E+02  0.49516806638E+02  0.00000000000E+00 0.  1.
</event>
<event>
 7    1  0.1538147E-010  0.6397177E+02  0.7561462E-02  0.1381882E+00
         -2   -1    0    0    0  501 -0.00000000000E+00  0.00000000000E+00  0.38995605569E+03  0.38995605569E+03  0.00000000000E+00 0.  1.
          2   -1    0    0  501    0  0.00000000000E+00 -0.00000000000E+00 -0.33976563361E+02  0.33976563361E+02  0.00000000000E+00 0. -1.
         25    2    1    2    0    0 -0.35326861874E+02 -0.14692605435E+02  0.19630886654E+03  0.23592655104E+03  0.12514114662E+03 0.  0.
          5    1    3    3  502    0 -0.33944077595E+02 -0.14266761777E+02 -0.24318634354E+01  0.37136602634E+02  0.41800000000E+01 0.  1.
         -5    1    3    3    0  502 -0.13827842791E+01 -0.42584365744E+00  0.19874072998E+03  0.19878994841E+03  0.41800000000E+01 0.  1.
        -11    1    1    2    0    0  0.22162409663E+02 -0.31452927296E+02  0.27222590517E+02  0.47133093173E+02  0.00000000000E+00 0.  1.
         11    1    1    2    0    0  0.13164452212E+02  0.46145532731E+02  0.13244803527E+03  0.14087297484E+03  0.00000000000E+00 0. -1.
</event>
<event>
 7    1  0.1538147E-010  0.1287276E+03  0.7561462E-02  0.1229356E+00
          1   -1    0    0  501    0  0.00000000000E+00  0.00000000000E+00  0.23769203188E+03  0.23769203188E+03  0.00000000000E+00 0. -1.
         -1   -1    0    0    0  501 -0.00000000000E+00 -0.00000000000E+00 -0.91218024991E+02  0.91218024991E+02  0.00000000000E+00 0.  1.
         25    2    1    2    0    0  0.88346738051E+02 -0.43402608349E+01  0.12089393515E+03  0.19512626361E+03  0.12503971851E+03 0.  0.
          5    1    3    3  502    0 -0.24828237404E+02 -0.26259653174E+02  0.18175839090E+02  0.40667484358E+02  0.41800000000E+01 0.  1.
         -5    1    3    3    0  502  0.11317497546E+03  0.21919392339E+02  0.10271809606E+03  0.15445877925E+03  0.41800000000E+01 0.  1.
        -11    1    1    2    0    0 -0.30499464622E+02 -0.26289076114E+02 -0.28124970584E+02  0.49115647563E+02  0.00000000000E+00 0.  1.
         11    1    1    2    0    0 -0.57847273429E+02  0.30629336949E+02  0.53705042322E+02  0.84668145698E+02  0.00000000000E+00 0. -1.
</event>
<event>
 7    1  0.1538147E-010  0.1518538E+03  0.7561462E-02  0.1198213E+00
         -2   -1    0    0    0  501 -0.00000000000E+00  0.00000000000E+00  0.25464256934E+03  0.25464256934E+03  0.00000000000E+00 0.  1.
          2   -1    0    0  501    0  0.00000000000E+00 -0.00000000000E+00 -0.91025524038E+02  0.91025524038E+02  0.00000000000E+00 0. -1.
         25    2    1    2    0    0 -0.47773247199E+02  0.95186197796E+02  0.78546792392E+02  0.18208252529E+03  0.12506699014E+03 0.  0.
          5    1    3    3  502    0 -0.53046643535E+02  0.12378185392E+03  0.61372489716E+02  0.14805387075E+03  0.41800000000E+01 0.  1.
         -5    1    3    3    0  502  0.52733963357E+01 -0.28595656121E+02  0.17174302676E+02  0.34028654547E+02  0.41800000000E+01 0.  1.
        -11    1    1    2    0    0 -0.23469217294E+02 -0.49995609511E+02  0.37114678032E+02  0.66542200566E+02  0.00000000000E+00 0.  1.
         11    1    1    2    0    0  0.71242464493E+02 -0.45190588286E+02  0.47955574873E+02  0.97043367512E+02  0.00000000000E+00 0. -1.
</event>
<event>
 7    1  0.1538147E-010  0.1261802E+03  0.7561462E-02  0.1233236E+00
         -2   -1    0    0    0  501 -0.00000000000E+00  0.00000000000E+00  0.43954548556E+03  0.43954548556E+03  0.00000000000E+00 0.  1.
          2   -1    0    0  501    0  0.00000000000E+00 -0.00000000000E+00 -0.46620069072E+02  0.46620069072E+02  0.00000000000E+00 0. -1.
         25    2    1    2    0    0 -0.42695644289E+02 -0.17759203368E+02  0.10161355162E+03  0.16762697312E+03  0.12504071696E+03 0.  0.
          5    1    3    3  502    0 -0.63908274962E+02  0.36497763076E+02  0.45457770417E+02  0.86603900659E+02  0.41800000000E+01 0.  1.
         -5    1    3    3    0  502  0.21212630673E+02 -0.54256966444E+02  0.56155781203E+02  0.81023072456E+02  0.41800000000E+01 0.  1.
        -11    1    1    2    0    0  0.57123531535E+02  0.55616575580E+02  0.13246657414E+03  0.15460819706E+03  0.00000000000E+00 0.  1.
         11    1    1    2    0    0 -0.14427887247E+02 -0.37857372212E+02  0.15884529072E+03  0.16393038445E+03  0.00000000000E+00 0. -1.
</event>
<event>
 6    1  0.1538147E-010  0.1262337E+03  0.7561462E-02  0.1233154E+00
          3   -1    0    0  501    0  0.00000000000E+00  0.00000000000E+00  0.16972081202E+02  0.16972081202E+02  0.00000000000E+00 0. -1.
         -3   -1    0    0    0  501 -0.00000000000E+00 -0.00000000000E+00 -0.10089518032E+04  0.10089518032E+04  0.00000000000E+00 0.  1.
          5    1    1    2  502    0  0.94307761774E+02  0.18789275605E+02 -0.40112108234E+03  0.41250767981E+03  0.41800000000E+01 0.  1.
         -5    1    1    2    0  502 -0.34307273916E+02  0.25862803149E+02 -0.90892647365E+02  0.10062216145E+03  0.41800000000E+01 0.  1.
        -11    1    1    2    0    0 -0.81892858466E+02 -0.36926549074E+02 -0.42145178728E+03  0.43091950442E+03  0.00000000000E+00 0.  1.
         11    1    1    2    0    0  0.21892370608E+02 -0.77255296798E+01 -0.78514204985E+02  0.81874538680E+02  0.00000000000E+00 0. -1.
</event>
<event>
 6    1  0.1538147E-010  0.1232153E+03  0.7561462E-02  0.1237885E+00
          2   -1    0    0  501    0  0.00000000000E+00  0.00000000000E+00  0.35877777850E+03  0.35877777850E+03  0.00000000000E+00 0. -1.
         -2   -1    0    0    0  501 -0.00000000000E+00 -0.00000000000E+00 -0.49471886722E+02  0.49471886722E+02  0.00000000000E+00 0.  1.
          5    1    1    2  502    0  0.56521983266E+02  0.51599962990E+02  0.11861150290E+03  0.14122128662E+03  0.41800000000E+01 0.  1.
         -5    1    1    2    0  502  0.13165801563E+02 -0.65341438661E+02  0.87133077857E+02  0.10978382210E+03  0.41800000000E+01 0.  1.
        -11    1    1    2    0    0 -0.59984046447E+02 -0.23567576037E+02  0.23883662450E+02  0.68730966823E+02  0.00000000000E+00 0.  1.
         11    1    1    2    0    0 -0.97037383818E+01  0.37309051707E+02  0.79677648570E+02  0.88513589688E+02  0.00000000000E+00 0. -1.
</event>
<event>
 6    1  0.1538147E-010  0.1429059E+03  0.7561462E-02  0.1209472E+00
         -2   -1    0    0    0  501 -0.00000000000E+00  0.00000000000E+00  0.89117477186E+03  0.89117477186E+03  0.00000000000E+00 0.  1.
          2   -1    0    0  501    0  0.00000000000E+00 -0.00000000000E+00 -0.23576342437E+02  0.23576342437E+02  0.00000000000E+00 0. -1.
          5    1    1    2  502    0  0.34618759036E+02 -0.50997755860E+02  0.16489539848E+03  0.17608859821E+03  0.41800000000E+01 0.  1.
         -5    1    1    2    0  502 -0.90682600790E+02 -0.26932649413E+02  0.32602910586E+03  0.33950132836E+03  0.41800000000E+01 0.  1.
        -11    1    1    2    0    0  0.69940104895E+02  0.24449270185E+02  0.25468561475E+03  0.26524356249E+03  0.00000000000E+00 0.  1.
         11    1    1    2    0    0 -0.13876263141E+02  0.53481135089E+02  0.12198831034E+03  0.13391762523E+03  0.00000000000E+00 0. -1.
</event>
<event>
 7    1  0.1772644E-010  0.1058371E+03  0.7561462E-02  0.1268479E+00
         -2   -1    0    0    0  501 -0.00000000000E+00  0.00000000000E+00  0.79481656897E+01  0.79481656897E+01  0.00000000000E+00 0. -1.
          2   -1    0    0  501    0  0.00000000000E+00 -0.00000000000E+00 -0.29002507656E+04  0.29002507656E+04  0.00000000000E+00 0.  1.
         25    2    1    2    0    0  0.35188720819E+02 -0.12494055838E+02 -0.25105301363E+04  0.25139208443E+04  0.12506837587E+03 0.  0.
          5    1    3    3  502    0  0.24950051536E+02 -0.60725424820E+02 -0.80861120866E+03  0.81128271364E+03  0.41800000000E+01 0. -1.
         -5    1    3    3    0  502  0.10238669283E+02  0.48231368982E+02 -0.17019189276E+04  0.17026381307E+04  0.41800000000E+01 0. -1.
        -11    1    1    2    0    0 -0.39436652415E+02 -0.32567397144E+02 -0.24252613036E+03  0.24786046239E+03  0.00000000000E+00 0.  1.
         11    1    1    2    0    0  0.42479315957E+01  0.45061452982E+02 -0.13924633322E+03  0.14641762456E+03  0.00000000000E+00 0. -1.
</event>
<event>
 7    1  0.1538147E-010  0.1446348E+03  0.7561462E-02  0.1207225E+00
          1   -1    0    0  501    0  0.00000000000E+00  0.00000000000E+00  0.14788979618E+03  0.14788979618E+03  0.00000000000E+00 0. -1.
         -1   -1    0    0    0  501 -0.00000000000E+00 -0.00000000000E+00 -0.17464483367E+03  0.17464483367E+03  0.00000000000E+00 0.  1.
         25    2    1    2    0    0 -0.10741263987E+03  0.51138918985E+02 -0.73316583816E+01  0.17282440852E+03  0.12514734806E+03 0.  0.
          5    1    3    3  502    0 -0.11787123023E+03  0.53647939515E+02 -0.42060459892E+02  0.13622878924E+03  0.41800000000E+01 0. -1.
         -5    1    3    3    0  502  0.10458590361E+02 -0.25090205306E+01  0.34728801510E+02  0.36595619283E+02  0.41800000000E+01 0. -1.
        -11    1    1    2    0    0 -0.29668942870E+01 -0.36720547997E+02 -0.82115244386E+00  0.36849360893E+02  0.00000000000E+00 0. -1.
         11    1    1    2    0    0  0.11037953416E+03 -0.14418370988E+02 -0.18602226669E+02  0.11286086044E+03  0.00000000000E+00 0.  1.
</event>
<event>
 7    1  0.1538147E-010  0.2849856E+03  0.7561462E-02  0.1092997E+00
         -2   -1    0    0    0  501 -0.00000000000E+00  0.00000000000E+00  0.15330823068E+03  0.15330823068E+03  0.00000000000E+00 0.  1.
          2   -1    0    0  501    0  0.00000000000E+00 -0.00000000000E+00 -0.70178704407E+03  0.70178704407E+03  0.00000000000E+00 0. -1.
         25    2    1    2    0    0  0.26356109229E+03  0.88820133930E+02 -0.10110079251E+03  0.32127166181E+03  0.12506256385E+03 0.  0.
          5    1    3    3  502    0  0.33146205231E+02  0.36080456354E+02 -0.65947372153E+02  0.82261768433E+02  0.41800000000E+01 0.  1.
         -5    1    3    3    0  502  0.23041488706E+03  0.52739677576E+02 -0.35153420354E+02  0.23900989338E+03  0.41800000000E+01 0.  1.
        -11    1    1    2    0    0 -0.16264279047E+03 -0.23894605232E+02 -0.31386385329E+03  0.35430798446E+03  0.00000000000E+00 0.  1.
         11    1    1    2    0    0 -0.10091830183E+03 -0.64925528698E+02 -0.13351416760E+03  0.17951562848E+03  0.00000000000E+00 0. -1.
</event>
<event>
 7    1  0.5708945E-010  0.2193351E+03  0.7561462E-02  0.1134380E+00
         -2   -1    0    0    0  501 -0.00000000000E+00  0.00000000000E+00  0.51448191301E+03  0.51448191301E+03  0.00000000000E+00 0.  1.
          2   -1    0    0  501    0  0.00000000000E+00 -0.00000000000E+00 -0.97873492023E+02  0.97873492023E+02  0.00000000000E+00 0. -1.
         25    2    1    2    0    0  0.15066813518E+03 -0.12027276702E+03  0.26524033460E+03  0.35095839050E+03  0.12511167538E+03 0.  0.
          5    1    3    3  502    0  0.10456167953E+02 -0.80139915231E+02  0.12270015317E+03  0.14698482048E+03  0.41800000000E+01 0.  1.
         -5    1    3    3    0  502  0.14021196723E+03 -0.40132851787E+02  0.14254018143E+03  0.20397357003E+03  0.41800000000E+01 0.  1.
        -11    1    1    2    0    0 -0.49103137356E+02  0.95367679619E+02  0.62388088825E+02  0.12409023347E+03  0.00000000000E+00 0.  1.
         11    1    1    2    0    0 -0.10156499782E+03  0.24905087399E+02  0.88979997556E+02  0.13730678107E+03  0.00000000000E+00 0. -1.
</event>
<event>
 7    1  0.1538147E-010  0.1341734E+03  0.7561462E-02  0.1221391E+00
          3   -1    0    0  501    0  0.00000000000E+00  0.00000000000E+00  0.33119566529E+03  0.33119566529E+03  0.00000000000E+00 0. -1.
         -3   -1    0    0    0  501 -0.00000000000E+00 -0.00000000000E+00 -0.10158085576E+03  0.10158085576E+03  0.00000000000E+00 0.  1.
         25    2    1    2    0    0 -0.12914224076E+03  0.89595772371E+01  0.35068596104E+02  0.18337699899E+03  0.12505728670E+03 0.  0.
          5    1    3    3  502    0 -0.85084791394E+02  0.24411455513E+02 -0.38117333015E+02  0.96466286147E+02  0.41800000000E+01 0.  1.
         -5    1    3    3    0  502 -0.44057449363E+02 -0.15451878276E+02  0.73185929119E+02  0.86910712847E+02  0.41800000000E+01 0.  1.
        -11    1    1    2    0    0  0.80050242616E+02 -0.20057084077E+02  0.17836623949E+03  0.19653204154E+03  0.00000000000E+00 0. -1.
         11    1    1    2    0    0  0.49091998142E+02  0.11097506840E+02  0.16179973940E+02  0.52867480518E+02  0.00000000000E+00 0.  1.
</event>
<event>
 7    1  0.1538147E-010  0.9265494E+02  0.7561462E-02  0.1296547E+00
          1   -1    0    0  501    0  0.00000000000E+00  0.00000000000E+00  0.26134004939E+03  0.26134004939E+03  0.00000000000E+00 0. -1.
         -1   -1    0    0    0  501 -0.00000000000E+00 -0.00000000000E+00 -0.77736250188E+02  0.77736250188E+02  0.00000000000E+00 0.  1.
         25    2    1    2    0    0  0.29299376729E+01  0.31382723316E+01 -0.98172046659E+01  0.12549931267E+03  0.12504105999E+03 0.  0.
          5    1    3    3  502    0  0.17272831779E+02  0.47352588948E+02 -0.44488699677E+02  0.67359744630E+02  0.41800000000E+01 0. -1.
         -5    1    3    3    0  502 -0.14342894107E+02 -0.44214316616E+02  0.34671495011E+02  0.58139568036E+02  0.41800000000E+01 0. -1.
        -11    1    1    2    0    0  0.19730091567E+02 -0.40109333107E+02  0.73131733952E+02  0.85710475593E+02  0.00000000000E+00 0.  1.
         11    1    1    2    0    0 -0.22660029240E+02  0.36971060775E+02  0.12028926991E+03  0.12786651131E+03  0.00000000000E+00 0. -1.
</event>
<event>
 7    1  0.1538147E-010  0.9903186E+02  0.7561462E-02  0.1282345E+00
          1   -1    0    0  501    0  0.00000000000E+00  0.00000000000E+00  0.34666962542E+02  0.34666962542E+02  0.00000000000E+00 0. -1.
         -1   -1    0    0    0  501 -0.00000000000E+00 -0.00000000000E+00 -0.54548146229E+03  0.54548146229E+03  0.00000000000E+00 0.  1.
         25    2    1    2    0    0 -0.28854123282E+02 -0.74922043711E+02 -0.22308281020E+03  0.26804467134E+03  0.12504452232E+03 0.  0.
          5    1    3    3  502    0  0.24662533843E+02 -0.33133108207E+02 -0.77640118303E+01  0.42235005797E+02  0.41800000000E+01 0.  1.
         -5    1    3    3    0  502 -0.53516657125E+02 -0.41788935504E+02 -0.21531879837E+03  0.22580966554E+03  0.41800000000E+01 0.  1.
        -11    1    1    2    0    0  0.15113309566E+02  0.73115711909E+02 -0.28871251832E+03  0.29821005632E+03  0.00000000000E+00 0.  1.
         11    1    1    2    0    0  0.13740813716E+02  0.18063318016E+01  0.98082877134E+00  0.13893697177E+02  0.00000000000E+00 0. -1.
</event>
<event>
 6    1  0.1538147E-010  0.1246096E+03  0.7561462E-02  0.1235681E+00
          1   -1    0    0  501    0  0.00000000000E+00  0.00000000000E+00  0.16593715997E+03  0.16593715997E+03  0.00000000000E+00 0. -1.
         -1   -1    0    0    0  501 -0.00000000000E+00 -0.00000000000E+00 -0.10223255536E+03  0.10223255536E+03  0.00000000000E+00 0.  1.
          5    1    1    2  502    0  0.10006926320E+02 -0.59340616597E+02 -0.26629462116E+01  0.60382207934E+02  0.41800000000E+01 0.  1.
         -5    1    1    2    0  502  0.51398049156E+02  0.59458480244E+02  0.48245988299E+01  0.78853151388E+02  0.41800000000E+01 0.  1.
        -11    1    1    2    0    0 -0.55632466058E+02 -0.40869978003E+02  0.52669632011E+02  0.86829813531E+02  0.00000000000E+00 0. -1.
         11    1    1    2    0    0 -0.57725094184E+01  0.40752114356E+02  0.88733199870E+01  0.42104542475E+02  0.00000000000E+00 0.  1.
</event>
<event>
 7    1  0.1538147E-010  0.6110693E+02  0.7561462E-02  0.1393244E+00
         -2   -1    0    0    0  501 -0.00000000000E+00  0.00000000000E+00  0.94419866934E+02  0.94419866934E+02  0.00000000000E+00 0.  1.
          2   -1    0    0  501    0  0.00000000000E+00 -0.00000000000E+00 -0.16263418130E+03  0.16263418130E+03  0.00000000000E+00 0. -1.
         25    2    1    2    0    0  0.13644651054E+02  0.18103460940E+01 -0.10002930847E+03  0.16078503700E+03  0.12512598337E+03 0.  0.
          5    1    3    3  502    0  0.29937513149E+02  0.57751446818E+01  0.21814344105E+02  0.37721943195E+02  0.41800000000E+01 0.  1.
         -5    1    3    3    0  502 -0.16292862095E+02 -0.39647985878E+01 -0.12184365258E+03  0.12306309380E+03  0.41800000000E+01 0.  1.
        -11    1    1    2    0    0  0.43615695601E+01 -0.35601931391E+02  0.43363859941E+02  0.56275617782E+02  0.00000000000E+00 0.  1.
         11    1    1    2    0    0 -0.18006220614E+02  0.33791585297E+02 -0.11548865831E+02  0.39993393450E+02  0.00000000000E+00 0. -1.
</event>
<event>
 7    1  0.1538147E-010  0.6845165E+02  0.7561462E-02  0.1365439E+00
          1   -1    0    0  501    0  0.00000000000E+00  0.00000000000E+00  0.33919029749E+03  0.33919029749E+03  0.00000000000E+00 0. -1.
         -1   -1    0    0    0  501 -0.00000000000E+00 -0.00000000000E+00 -0.43672229883E+02  0.43672229883E+02  0.00000000000E+00 0.  1.
         25    2    1    2    0    0  0.23612235024E+02 -0.51757118250E+02  0.16461005552E+03  0.21445419901E+03  0.12513111587E+03 0.  0.
          5    1    3    3  502    0  0.57773412493E+01 -0.53492706751E+02  0.18157606643E+03  0.18942594238E+03  0.41800000000E+01 0. -1.
         -5    1    3    3    0  502  0.17834893774E+02  0.17355885016E+01 -0.16966010908E+02  0.25028256622E+02  0.41800000000E+01 0. -1.
        -11    1    1    2    0    0 -0.27706441343E+02  0.24533150082E+02  0.13553112962E+03  0.14049273803E+03  0.00000000000E+00 0. -1.
         11    1    1    2    0    0  0.40942063191E+01  0.27223968168E+02 -0.46231175301E+01  0.27915590337E+02  0.00000000000E+00 0.  1.
</event>
<event>
 6    1  0.1538147E-010  0.1526981E+03  0.7561462E-02  0.1197196E+00
         -2   -1    0    0    0  501 -0.00000000000E+00  0.00000000000E+00  0.36138841953E+03  0.36138841953E+03  0.00000000000E+00 0.  1.
          2   -1    0    0  501    0  0.00000000000E+00 -0.00000000000E+00 -0.70837171353E+02  0.70837171353E+02  0.00000000000E+00 0. -1.
          5    1    1    2  502    0  0.12530739385E+02 -0.61563586379E+02  0.11556355879E+03  0.13160358323E+03  0.41800000000E+01 0.  1.
         -5    1    1    2    0  502  0.77314690238E+02  0.30172539512E+02  0.51829190872E+02  0.97937127248E+02  0.41800000000E+01 0.  1.
        -11    1    1    2    0    0 -0.44071139815E+02  0.80763539759E+02  0.56651579082E+02  0.10804821207E+03  0.00000000000E+00 0.  1.
         11    1    1    2    0    0 -0.45774289807E+02 -0.49372492892E+02  0.66506919426E+02  0.94636668333E+02  0.00000000000E+00 0. -1.
</event>
<event>
 7    1  0.1538147E-010  0.1055978E+03  0.7561462E-02  0.1268946E+00
          1   -1    0    0  501    0  0.00000000000E+00  0.00000000000E+00  0.56166959388E+02  0.56166959388E+02  0.00000000000E+00 0. -1.
         -1   -1    0    0    0  501 -0.00000000000E+00 -0.00000000000E+00 -0.28663010390E+03  0.28663010390E+03  0.00000000000E+00 0.  1.
         25    2    1    2    0    0  0.46025939871E+02  0.45402702131E+02 -0.11723579605E+03  0.18325167936E+03  0.12512854834E+03 0.  0.
          5    1    3    3  502    0 -0.16634587241E+02 -0.59958158065E+01 -0.98240184437E+02  0.99906283777E+02  0.41800000000E+01 0. -1.
         -5    1    3    3    0  502  0.62660527112E+02  0.51398517937E+02 -0.18995611612E+02  0.83345395581E+02  0.41800000000E+01 0. -1.
        -11    1    1    2    0    0 -0.39797533870E+01  0.27461800494E+02 -0.21669690985E+02  0.35207448513E+02  0.00000000000E+00 0. -1.
         11    1    1    2    0    0 -0.42046186484E+02 -0.72864502625E+02 -0.91557657478E+02  0.12433793542E+03  0.00000000000E+00 0.  1.
</event>
<event>
 7    1  0.1718762E-010  0.1143122E+03  0.7561462E-02  0.1252786E+00
         -2   -1    0    0    0  501 -0.00000000000E+00  0.00000000000E+00  0.14470193349E+02  0.14470193349E+02  0.00000000000E+00 0.  1.
          2   -1    0    0  501    0  0.00000000000E+00 -0.00000000000E+00 -0.13376077469E+04  0.13376077469E+04  0.00000000000E+00 0. -1.
         25    2    1    2    0    0  0.52310413782E+02  0.27707639366E+02 -0.10328463752E+04  0.10420725322E+04  0.12505772652E+03 0.  0.
          5    1    3    3  502    0 -0.14342782534E+02  0.55924546190E+02 -0.63837109980E+03  0.64099017444E+03  0.41800000000E+01 0. -1.
         -5    1    3    3    0  502  0.66653196316E+02 -0.28216906823E+02 -0.39447527537E+03  0.40108235774E+03  0.41800000000E+01 0. -1.
        -11    1    1    2    0    0 -0.37274454410E+02  0.24037452901E+02 -0.67334748415E+02  0.80629724281E+02  0.00000000000E+00 0.  1.
         11    1    1    2    0    0 -0.15035959372E+02 -0.51745092267E+02 -0.22295642993E+03  0.22937568375E+03  0.00000000000E+00 0. -1.
</event>
<event>
 7    1  0.1538147E-010  0.1106877E+03  0.7561462E-02  0.1259302E+00
          4   -1    0    0  501    0  0.00000000000E+00  0.00000000000E+00  0.48978473187E+03  0.48978473187E+03  0.00000000000E+00 0. -1.
         -4   -1    0    0    0  501 -0.00000000000E+00 -0.00000000000E+00 -0.43886775019E+02  0.43886775019E+02  0.00000000000E+00 0.  1.
         25    2    1    2    0    0  0.69747207874E+02  0.61195818019E+02  0.29397221708E+03  0.33269443431E+03  0.12512522150E+03 0.  0.
          5    1    3    3  502    0  0.78587189357E+02  0.20857007538E+02  0.77929777612E+02  0.11270085950E+03  0.41800000000E+01 0.  1.
         -5    1    3    3    0  502 -0.88399814830E+01  0.40338810481E+02  0.21604243947E+03  0.21999357480E+03  0.41800000000E+01 0.  1.
        -11    1    1    2    0    0 -0.33415797847E+02 -0.50546072459E+02  0.15144177509E+03  0.16311386278E+03  0.00000000000E+00 0. -1.
         11    1    1    2    0    0 -0.36331410027E+02 -0.10649745560E+02  0.48396468023E+00  0.37863209807E+02  0.00000000000E+00 0.  1.
</event>
<event>
 7    1  0.1538147E-010  0.7565379E+02  0.7561462E-02  0.1341858E+00
          2   -1    0    0  501    0  0.00000000000E+00  0.00000000000E+00  0.16931392939E+04  0.16931392939E+04  0.00000000000E+00 0. -1.
         -2   -1    0    0    0  501 -0.00000000000E+00 -0.00000000000E+00 -0.18078808490E+02  0.18078808490E+02  0.00000000000E+00 0.  1.
         25    2    1    2    0    0 -0.88972115796E+01 -0.33743270702E+02  0.15347733913E+04  0.15402599102E+04  0.12511378669E+03 0.  0.
          5    1    3    3  502    0  0.15254887560E+02 -0.20450715327E+01  0.13886672129E+04  0.13887587964E+04  0.41800000000E+01 0. -1.
         -5    1    3    3    0  502 -0.24152099140E+02 -0.31698199169E+02  0.14610617840E+03  0.15150111383E+03  0.41800000000E+01 0. -1.
        -11    1    1    2    0    0 -0.39776484600E+02  0.94217000847E+01  0.79375079317E+02  0.89282363187E+02  0.00000000000E+00 0. -1.
         11    1    1    2    0    0  0.48673696180E+02  0.24321570617E+02  0.60912014769E+02  0.81675828984E+02  0.00000000000E+00 0.  1.
</event>
<event>
 7    1  0.1538147E-010  0.1994482E+03  0.7561462E-02  0.1150205E+00
          1   -1    0    0  501    0  0.00000000000E+00  0.00000000000E+00  0.20653831764E+03  0.20653831764E+03  0.00000000000E+00 0. -1.
         -1   -1    0    0    0  501 -0.00000000000E+00 -0.00000000000E+00 -0.25888577780E+03  0.25888577780E+03  0.00000000000E+00 0.  1.
         25    2    1    2    0    0 -0.14915874398E+03  0.11322106330E+03 -0.10361254457E+03  0.24790262561E+03  0.12511119979E+03 0.  0.
          5    1    3    3  502    0  0.67581211142E+01  0.29735565651E+02 -0.57279481779E+02  0.65025283532E+02  0.41800000000E+01 0. -1.
         -5    1    3    3    0  502 -0.15591686509E+03  0.83485497653E+02 -0.46333062793E+02  0.18287734208E+03  0.41800000000E+01 0. -1.
        -11    1    1    2    0    0  0.96293814944E+02 -0.49056423596E+02 -0.17691957560E+02  0.10950815885E+03  0.00000000000E+00 0.  1.
         11    1    1    2    0    0  0.52864929031E+02 -0.64164639708E+02  0.68957041975E+02  0.10801331098E+03  0.00000000000E+00 0. -1.
</event>
<event>
 7    1  0.1538147E-010  0.1079934E+03  0.7561462E-02  0.1264332E+00
         -2   -1    0    0    0  501 -0.00000000000E+00  0.00000000000E+00  0.10541368845E+02  0.10541368845E+02  0.00000000000E+00 0. -1.
          2   -1    0    0  501    0  0.00000000000E+00 -0.00000000000E+00 -0.11285189048E+04  0.11285189048E+04  0.00000000000E+00 0.  1.
         25    2    1    2    0    0  0.77236238425E+00  0.13206125442E+02 -0.71348544295E+03  0.72448503956E+03  0.12506836910E+03 0.  0.
          5    1    3    3  502    0  0.18420360079E+02  0.66672304547E+02 -0.38832937542E+03  0.39446379057E+03  0.41800000000E+01 0. -1.
         -5    1    3    3    0  502 -0.17647997695E+02 -0.53466179105E+02 -0.32515606753E+03  0.33002124898E+03  0.41800000000E+01 0. -1.
        -11    1    1    2    0    0 -0.33832729606E+02 -0.36516092223E+02 -0.19832217651E+03  0.20447436093E+03  0.00000000000E+00 0.  1.
         11    1    1    2    0    0  0.33060367222E+02  0.23309966781E+02 -0.20616991654E+03  0.21010087319E+03  0.00000000000E+00 0. -1.
</event>
<event>
 7    1  0.1538147E-010  0.1247382E+03  0.7561462E-02  0.1235479E+00
          1   -1    0    0  501    0  0.00000000000E+00  0.00000000000E+00  0.43600770708E+02  0.43600770708E+02  0.00000000000E+00 0. -1.
         -1   -1    0    0    0  501 -0.00000000000E+00 -0.00000000000E+00 -0.43073282726E+03  0.43073282726E+03  0.00000000000E+00 0.  1.
         25    2    1    2    0    0  0.65614758884E+02 -0.51915878578E+02 -0.20348089299E+03  0.25309713406E+03  0.12511247110E+03 0.  0.
          5    1    3    3  502    0  0.24159337566E+02  0.34776370410E+02 -0.11417085114E+03  0.12184221428E+03  0.41800000000E+01 0.  1.
         -5    1    3    3    0  502  0.41455421318E+02 -0.86692248987E+02 -0.89310041854E+02  0.13125491978E+03  0.41800000000E+01 0.  1.
        -11    1    1    2    0    0 -0.37236656128E+02 -0.13361856334E+02 -0.23586850052E+02  0.46059171287E+02  0.00000000000E+00 0. -1.
         11    1    1    2    0    0 -0.28378102756E+02  0.65277734912E+02 -0.16006431351E+03  0.17517729262E+03  0.00000000000E+00 0.  1.
</event>
<event>
 6    1  0.1538147E-010  0.1093752E+03  0.7561462E-02  0.1261731E+00
          1   -1    0    0  501    0  0.00000000000E+00  0.00000000000E+00  0.25598718577E+02  0.25598718577E+02  0.00000000000E+00 0. -1.
         -1   -1    0    0    0  501 -0.00000000000E+00 -0.00000000000E+00 -0.77935995490E+03  0.77935995490E+03  0.00000000000E+00 0.  1.
          5    1    1    2  502    0  0.67755628081E+02  0.10548174652E+01 -0.29254685140E+03  0.30032161168E+03  0.41800000000E+01 0. -1.
         -5    1    1    2    0  502 -0.40079520500E+02  0.63294766555E+02 -0.28661070860E+03  0.29626975229E+03  0.41800000000E+01 0. -1.
        -11    1    1    2    0    0  0.36438286288E+01 -0.26258202964E+02 -0.15169109420E+03  0.15399012556E+03  0.00000000000E+00 0.  1.
         11    1    1    2    0    0 -0.31319936210E+02 -0.38091381056E+02 -0.22912582122E+02  0.54377183951E+02  0.00000000000E+00 0. -1.
</event>
<event>
 7    1  0.1538147E-010  0.3426762E+03  0.7561462E-02  0.1065662E+00
          2   -1    0    0  501    0  0.00000000000E+00  0.00000000000E+00  0.37902506370E+03  0.37902506370E+03  0.00000000000E+00 0.  1.
         -2   -1    0    0    0  501 -0.00000000000E+00 -0.00000000000E+00 -0.32902270217E+03  0.32902270217E+03  0.00000000000E+00 0. -1.
         25    2    1    2    0    0 -0.32811283981E+03 -0.13201580475E+02  0.95064987540E+02  0.36401071692E+03  0.12503652588E+03 0.  0.
          5    1    3    3  502    0 -0.21525336825E+02 -0.37833681214E+02  0.13773492187E+02  0.45846581625E+02  0.41800000000E+01 0. -1.
         -5    1    3    3    0  502 -0.30658750298E+03  0.24632100739E+02  0.81291495353E+02  0.31816413530E+03  0.41800000000E+01 0. -1.
        -11    1    1    2    0    0  0.17937534772E+03  0.37656669508E+02  0.10005788744E+02  0.18355831754E+03  0.00000000000E+00 0.  1.
         11    1    1    2    0    0  0.14873749209E+03 -0.24455089033E+02 -0.55068414762E+02  0.16047873141E+03  0.00000000000E+00 0. -1.
</event>
<event>
 7    1  0.1538147E-010  0.9711857E+02  0.7561462E-02  0.1286475E+00
          1   -1    0    0  501    0  0.00000000000E+00  0.00000000000E+00  0.32383170312E+03  0.32383170312E+03  0.00000000000E+00 0. -1.
         -1   -1    0    0    0  501 -0.00000000000E+00 -0.00000000000E+00 -0.44832704361E+02  0.44832704361E+02  0.00000000000E+00 0.  1.
         25    2    1    2    0    0 -0.38933465008E+02  0.17743286846E+02  0.11378751956E+03  0.17441233054E+03  0.12506567279E+03 0.  0.
          5    1    3    3  502    0  0.10705056375E+02  0.61187829464E+02  0.76111642141E+02  0.98331089569E+02  0.41800000000E+01 0. -1.
         -5    1    3    3    0  502 -0.49638521384E+02 -0.43444542618E+02  0.37675877420E+02  0.76081240972E+02  0.41800000000E+01 0. -1.
        -11    1    1    2    0    0 -0.11990214793E+02 -0.68401222076E+01 -0.61792141153E+01  0.15123994501E+02  0.00000000000E+00 0.  1.
         11    1    1    2    0    0  0.50923679801E+02 -0.10903164639E+02  0.17139069332E+03  0.17912808244E+03  0.00000000000E+00 0. -1.
</event>
<event>
 7    1  0.1538147E-010  0.1188950E+03  0.7561462E-02  0.1244931E+00
         -1   -1    0    0    0  501 -0.00000000000E+00  0.00000000000E+00  0.19549418408E+02  0.19549418408E+02  0.00000000000E+00 0.  1.
          1   -1    0    0  501    0  0.00000000000E+00 -0.00000000000E+00 -0.75908962603E+03  0.75908962603E+03  0.00000000000E+00 0. -1.
         25    2    1    2    0    0  0.28439148600E+02  0.32519785253E+02 -0.35821343504E+03  0.38188558626E+03  0.12511360575E+03 0.  0.
          5    1    3    3  502    0 -0.47905369581E+02  0.17618683454E+02 -0.10268824427E+03  0.11475055709E+03  0.41800000000E+01 0.  1.
         -5    1    3    3    0  502  0.76344518181E+02  0.14901101799E+02 -0.25552519077E+03  0.26713502917E+03  0.41800000000E+01 0.  1.
        -11    1    1    2    0    0 -0.54887532792E+02  0.12658603239E+02 -0.22260608654E+03  0.22962219243E+03  0.00000000000E+00 0. -1.
         11    1    1    2    0    0  0.26448384192E+02 -0.45178388492E+02 -0.15872068605E+03  0.16713126575E+03  0.00000000000E+00 0.  1.
</event>
<event>
 6    1  0.1538147E-010  0.1219562E+03  0.7561462E-02  0.1239904E+00
         -1   -1    0    0    0  501 -0.00000000000E+00  0.00000000000E+00  0.18044686165E+02  0.18044686165E+02  0.00000000000E+00 0.  1.
          1   -1    0    0  501    0  0.00000000000E+00 -0.00000000000E+00 -0.10988889474E+04  0.10988889474E+04  0.00000000000E+00 0. -1.
          5    1    1    2  502    0 -0.38644388737E+02 -0.96770425021E+01 -0.11696739212E+03  0.12363606736E+03  0.41800000000E+01 0.  1.
         -5    1    1    2    0  502  0.75887333673E+02 -0.44436764747E+02 -0.69328084924E+03  0.69884856857E+03  0.41800000000E+01 0.  1.
        -11    1    1    2    0    0  0.22027929346E+02 -0.13551854853E+02 -0.52290104587E+02  0.58336416405E+02  0.00000000000E+00 0.  1.
         11    1    1    2    0    0 -0.59270874281E+02  0.67665662102E+02 -0.21830591530E+03  0.23611258124E+03  0.00000000000E+00 0. -1.
</event>
<event>
 7    1  0.1538147E-010  0.1067203E+03  0.7561462E-02  0.1266767E+00
         -1   -1    0    0    0  501 -0.00000000000E+00  0.00000000000E+00  0.14254940311E+02  0.14254940311E+02  0.00000000000E+00 0.  1.
          1   -1    0    0  501    0  0.00000000000E+00 -0.00000000000E+00 -0.10356767766E+04  0.10356767766E+04  0.00000000000E+00 0. -1.
         25    2    1    2    0    0 -0.16202061255E+01  0.21033438556E+00 -0.78876150967E+03  0.79861264866E+03  0.12503909048E+03 0.  0.
          5    1    3    3  502    0  0.39635045034E+02  0.43170802264E+02 -0.51941364527E+03  0.52272618287E+03  0.41800000000E+01 0. -1.
         -5    1    3    3    0  502 -0.41255251159E+02 -0.42960467878E+02 -0.26934786440E+03  0.27588646579E+03  0.41800000000E+01 0. -1.
        -11    1    1    2    0    0 -0.11325461477E+02  0.45800580792E+02 -0.11969732233E+03  0.12866004916E+03  0.00000000000E+00 0.  1.
         11    1    1    2    0    0  0.12945667603E+02 -0.46010915177E+02 -0.11296300427E+03  0.12265901907E+03  0.00000000000E+00 0. -1.
</event>
<event>
 7    1  0.1538147E-010  0.1336858E+03  0.7561462E-02  0.1222087E+00
         -2   -1    0    0    0  501 -0.00000000000E+00  0.00000000000E+00  0.14488475125E+02  0.14488475125E+02  0.00000000000E+00 0.  1.
          2   -1    0    0  501    0  0.00000000000E+00 -0.00000000000E+00 -0.13688043639E+04  0.13688043639E+04  0.00000000000E+00 0. -1.
         25    2    1    2    0    0  0.37561950220E+01 -0.85372141476E+02 -0.92397813770E+03  0.93630726114E+03  0.12503270282E+03 0.  0.
          5    1    3    3  502    0 -0.16438732414E+02  0.27226364748E+02 -0.31784170586E+03  0.31945630255E+03  0.41800000000E+01 0.  1.
         -5    1    3    3    0  502  0.20194927436E+02 -0.11259850622E+03 -0.60613643185E+03  0.61685095859E+03  0.41800000000E+01 0.  1.
        -11    1    1    2    0    0 -0.20587192549E+02  0.97772570912E+02 -0.35197388460E+03  0.36588102378E+03  0.00000000000E+00 0.  1.
         11    1    1    2    0    0  0.16830997527E+02 -0.12400429436E+02 -0.78363866420E+02  0.81104554053E+02  0.00000000000E+00 0. -1.
</event>
<event>
 7    1  0.1538147E-010  0.9751193E+02  0.7561462E-02  0.1285617E+00
          2   -1    0    0  501    0  0.00000000000E+00  0.00000000000E+00  0.70926624488E+03  0.70926624488E+03  0.00000000000E+00 0. -1.
         -2   -1    0    0    0  501 -0.00000000000E+00 -0.00000000000E+00 -0.51400215232E+02  0.51400215232E+02  0.00000000000E+00 0.  1.
         25    2    1    2    0    0 -0.59630393156E+02  0.54671672514E+02  0.62244947052E+03  0.64003871301E+03  0.12514565610E+03 0.  0.
          5    1    3    3  502    0  0.17293672750E+01 -0.30782097781E+01 -0.47164845742E+01  0.72238295487E+01  0.41800000000E+01 0. -1.
         -5    1    3    3    0  502 -0.61359760431E+02  0.57749882293E+02  0.62716595509E+03  0.63281488346E+03  0.41800000000E+01 0. -1.
        -11    1    1    2    0    0  0.69346485125E+02 -0.24593741139E+02  0.56909669921E+00  0.73580642654E+02  0.00000000000E+00 0.  1.
         11    1    1    2    0    0 -0.97160919692E+01 -0.30077931376E+02  0.34847462433E+02  0.47047104448E+02  0.00000000000E+00 0. -1.
</event>
<event>
 7    1  0.1538147E-010  0.2927726E+03  0.7561462E-02  0.1088910E+00
          2   -1    0    0  501    0  0.00000000000E+00  0.00000000000E+00  0.19944142574E+04  0.19944142574E+04  0.00000000000E+00 0.  1.
         -2   -1    0    0    0  501 -0.00000000000E+00 -0.00000000000E+00 -0.50038179147E+02  0.50038179147E+02  0.00000000000E+00 0. -1.
         25    2    1    2    0    0  0.27358954855E+03 -0.74581738719E+02  0.71926963737E+03  0.78320843857E+03  0.12511183068E+03 0.  0.
          5    1    3    3  502    0  0.22687630712E+03 -0.93022350774E+02  0.48381276679E+03  0.54241891761E+03  0.41800000000E+01 0. -1.
         -5    1    3    3    0  502  0.46713241427E+02  0.18440612054E+02  0.23545687059E+03  0.24078952096E+03  0.41800000000E+01 0. -1.
        -11    1    1    2    0    0 -0.85310779040E+02  0.52910885603E+02  0.28336014720E+03  0.30061680568E+03  0.00000000000E+00 0. -1.
         11    1    1    2    0    0 -0.18827876951E+03  0.21670853117E+02  0.94174629365E+03  0.96062719227E+03  0.00000000000E+00 0.  1.
</event>
<event>
 7    1  0.1538147E-010  0.6946902E+02  0.7561462E-02  0.1361908E+00
         -3   -1    0    0    0  501 -0.00000000000E+00  0.00000000000E+00  0.20349583520E+03  0.20349583520E+03  0.00000000000E+00 0.  1.
          3   -1    0    0  501    0  0.00000000000E+00 -0.00000000000E+00 -0.63324001764E+02  0.63324001764E+02  0.00000000000E+00 0. -1.
         25    2    1    2    0    0  0.25587871689E+02 -0.12961398283E+02  0.86437128762E+02  0.15470229437E+03  0.12505473055E+03 0.  0.
          5    1    3    3  502    0 -0.30251190245E+01 -0.25357295872E+02  0.11150924758E+03  0.11447239185E+03  0.41800000000E+01 0. -1.
         -5    1    3    3    0  502  0.28612990713E+02  0.12395897589E+02 -0.25072118823E+02  0.40229902521E+02  0.41800000000E+01 0. -1.
        -11    1    1    2    0    0  0.15004504833E+02  0.33058679609E+02  0.56030916829E+02  0.66764325080E+02  0.00000000000E+00 0.  1.
         11    1    1    2    0    0 -0.40592376521E+02 -0.20097281325E+02 -0.22962121570E+01  0.45353217511E+02  0.00000000000E+00 0. -1.
</event>
<event>
 7    1  0.1538147E-010  0.9553246E+02  0.7561462E-02  0.1289981E+00
          1   -1    0    0  501    0  0.00000000000E+00  0.00000000000E+00  0.89340909211E+02  0.89340909211E+02  0.00000000000E+00 0. -1.
         -1   -1    0    0    0  501 -0.00000000000E+00 -0.00000000000E+00 -0.13718462873E+03  0.13718462873E+03  0.00000000000E+00 0.  1.
         25    2    1    2    0    0 -0.14922036625E+02  0.58333517593E+01 -0.43506562036E+02  0.13337637905E+03  0.12505895561E+03 0.  0.
          5    1    3    3  502    0  0.39342741653E+02  0.38306301908E+02 -0.43210347280E+02  0.69998789980E+02  0.41800000000E+01 0. -1.
         -5    1    3    3    0  502 -0.54264778277E+02 -0.32472950149E+02 -0.29621475646E+00  0.63377589068E+02  0.41800000000E+01 0. -1.
        -11    1    1    2    0    0 -0.20137672715E+02  0.20525864632E+02  0.26839881555E+02  0.39334669481E+02  0.00000000000E+00 0. -1.
         11    1    1    2    0    0  0.35059709339E+02 -0.26359216392E+02 -0.31177039042E+02  0.53814489417E+02  0.00000000000E+00 0.  1.
</event>
<event>
 7    1  0.1538147E-010  0.7568594E+02  0.7561462E-02  0.1341760E+00
          2   -1    0    0  501    0  0.00000000000E+00  0.00000000000E+00  0.34230106947E+02  0.34230106947E+02  0.00000000000E+00 0. -1.
         -2   -1    0    0    0  501 -0.00000000000E+00 -0.00000000000E+00 -0.39678634697E+03  0.39678634697E+03  0.00000000000E+00 0.  1.
         25    2    1    2    0    0 -0.37462889435E+02 -0.31634955584E+02 -0.18096642720E+03  0.22540506160E+03  0.12511736699E+03 0.  0.
          5    1    3    3  502    0 -0.43772674467E+01  0.21173719742E+02 -0.15695349366E+03  0.15849087813E+03  0.41800000000E+01 0.  1.
         -5    1    3    3    0  502 -0.33085621988E+02 -0.52808675326E+02 -0.24012933533E+02  0.66914183466E+02  0.41800000000E+01 0.  1.
        -11    1    1    2    0    0  0.26385706542E+02 -0.65060682314E+01 -0.91778359465E+01  0.28683917205E+02  0.00000000000E+00 0. -1.
         11    1    1    2    0    0  0.11077182893E+02  0.38141023815E+02 -0.17241197688E+03  0.17692747511E+03  0.00000000000E+00 0.  1.
</event>
<event>
 6    1  0.1538147E-010  0.1114469E+03  0.7561462E-02  0.1257914E+00
          2   -1    0    0  501    0  0.00000000000E+00  0.00000000000E+00  0.41450610903E+03  0.41450610903E+03  0.00000000000E+00 0. -1.
         -2   -1    0    0    0  501 -0.00000000000E+00 -0.00000000000E+00 -0.39536205894E+02  0.39536205894E+02  0.00000000000E+00 0.  1.
          5    1    1    2  502    0 -0.36307789392E+02 -0.26522437028E+02  0.37200475766E+02  0.58506777673E+02  0.41800000000E+01 0. -1.
         -5    1    1    2    0  502  0.74819705920E+02 -0.20916903270E+02  0.22920011854E+03  0.24204477266E+03  0.41800000000E+01 0. -1.
        -11    1    1    2    0    0 -0.12851077119E+02 -0.22237597861E+02  0.58625583428E+02  0.64004843364E+02  0.00000000000E+00 0. -1.
         11    1    1    2    0    0 -0.25660839409E+02  0.69676938158E+02  0.49943725408E+02  0.89485921227E+02  0.00000000000E+00 0.  1.
</event>
<event>
 6    1  0.1538147E-010  0.1615466E+03  0.7561462E-02  0.1186962E+00
          2   -1    0    0  501    0  0.00000000000E+00  0.00000000000E+00  0.11996305848E+03  0.11996305848E+03  0.00000000000E+00 0. -1.
         -2   -1    0    0    0  501 -0.00000000000E+00 -0.00000000000E+00 -0.25590617690E+03  0.25590617690E+03  0.00000000000E+00 0.  1.
          5    1    1    2  502    0 -0.95028387389E+02  0.61397049070E+02 -0.12002929397E+03  0.16499847228E+03  0.41800000000E+01 0.  1.
         -5    1    1    2    0  502  0.21697678814E+02  0.46611926971E+02  0.71998359673E+00  0.51589260300E+02  0.41800000000E+01 0.  1.
        -11    1    1    2    0    0  0.72469667402E+02 -0.27084121955E+02 -0.11173356519E+02  0.78168064140E+02  0.00000000000E+00 0.  1.
         11    1    1    2    0    0  0.86104117261E+00 -0.80924854086E+02 -0.54604515223E+01  0.81113438662E+02  0.00000000000E+00 0. -1.
</event>
<event>
 7    1  0.1556482E-010  0.9761513E+02  0.7561462E-02  0.1285392E+00
          3   -1    0    0  501    0  0.00000000000E+00  0.00000000000E+00  0.10399688848E+03  0.10399688848E+03  0.00000000000E+00 0. -1.
         -3   -1    0    0    0  501 -0.00000000000E+00 -0.00000000000E+00 -0.26993555788E+03  0.26993555788E+03  0.00000000000E+00 0.  1.
         25    2    1    2    0    0 -0.24146794697E+02  0.36601915923E+01 -0.22791000889E+03  0.26111483181E+03  0.12506605671E+03 0.  0.
          5    1    3    3  502    0  0.47718710089E+02  0.30849713596E+01 -0.50587587285E+02  0.69736423254E+02  0.41800000000E+01 0.  1.
         -5    1    3    3    0  502 -0.71865504786E+02  0.57522023275E+00 -0.17732242160E+03  0.19137840855E+03  0.41800000000E+01 0.  1.
        -11    1    1    2    0    0 -0.87950322366E+01 -0.31129626062E+02  0.61993290478E+02  0.69925490882E+02  0.00000000000E+00 0. -1.
         11    1    1    2    0    0  0.32941826934E+02  0.27469434470E+02 -0.21950990872E-01  0.42892123679E+02  0.00000000000E+00 0.  1.
</event>
<event>
 6    1  0.1538147E-010  0.1428053E+03  0.7561462E-02  0.1209603E+00
          1   -1    0    0  501    0  0.00000000000E+00  0.00000000000E+00  0.57466268657E+03  0.57466268657E+03  0.00000000000E+00 0. -1.
         -1   -1    0    0    0  501 -0.00000000000E+00 -0.00000000000E+00 -0.48235591937E+02  0.48235591937E+02  0.00000000000E+00 0.  1.
          5    1    1    2  502    0 -0.12204718028E+02  0.71892188216E+01  0.13371298945E+03  0.13452611626E+03  0.41800000000E+01 0.  1.
         -5    1    1    2    0  502  0.50699318418E+02  0.10927524205E+03  0.94261186503E+02  0.15301680657E+03  0.41800000000E+01 0.  1.
        -11    1    1    2    0    0 -0.43339588410E+02 -0.12941468113E+03  0.28533921390E+03  0.31629882485E+03  0.00000000000E+00 0. -1.
         11    1    1    2    0    0  0.48449880198E+01  0.12950220262E+02  0.13113704791E+02  0.19056530825E+02  0.00000000000E+00 0.  1.
</event>
<event>
 7    1  0.1538147E-010  0.1438182E+03  0.7561462E-02  0.1208282E+00
          2   -1    0    0  501    0  0.00000000000E+00  0.00000000000E+00  0.46750045102E+03  0.46750045102E+03  0.00000000000E+00 0. -1.
         -2   -1    0    0    0  501 -0.00000000000E+00 -0.00000000000E+00 -0.61816492409E+02  0.61816492409E+02  0.00000000000E+00 0.  1.
         25    2    1    2    0    0  0.14690517489E+02 -0.12498566707E+03  0.26703126606E+03  0.32062592465E+03  0.12513216303E+03 0.  0.
          5    1    3    3  502    0 -0.99068940282E+01 -0.11849939339E+03  0.26962898067E+03  0.29471598600E+03  0.41800000000E+01 0. -1.
         -5    1    3    3    0  502  0.24597411517E+02 -0.64862736792E+01 -0.25977146125E+01  0.25909938649E+02  0.41800000000E+01 0. -1.
        -11    1    1    2    0    0 -0.27788590819E+02  0.14001981182E+02  0.66312144731E+00  0.31123961617E+02  0.00000000000E+00 0.  1.
         11    1    1    2    0    0  0.13098073330E+02  0.11098368589E+03  0.13798957110E+03  0.17756705717E+03  0.00000000000E+00 0. -1.
</event>
<event>
 6    1  0.1538147E-010  0.1820992E+03  0.7561462E-02  0.1165787E+00
          2   -1    0    0  501    0  0.00000000000E+00  0.00000000000E+00  0.50260021376E+03  0.50260021376E+03  0.00000000000E+00 0.  1.
         -2   -1    0    0    0  501 -0.00000000000E+00 -0.00000000000E+00 -0.13347134686E+03  0.13347134686E+03  0.00000000000E+00 0. -1.
          5    1    1    2  502    0  0.47728201268E+02  0.16414151650E+03  0.37752543749E+03  0.41444341832E+03  0.41800000000E+01 0. -1.
         -5    1    1    2    0  502 -0.14335405858E+02 -0.17713679451E+02  0.33798442584E+02  0.40976644835E+02  0.41800000000E+01 0. -1.
        -11    1    1    2    0    0  0.16735346219E+02 -0.10103956463E+03 -0.47349521575E+02  0.11283192203E+03  0.00000000000E+00 0. -1.
         11    1    1    2    0    0 -0.50128141628E+02 -0.45388272418E+02  0.51545084049E+01  0.67819575441E+02  0.00000000000E+00 0.  1.
</event>
<event>
 7    1  0.1538147E-010  0.1295341E+03  0.7561462E-02  0.1228149E+00
          1   -1    0    0  501    0  0.00000000000E+00  0.00000000000E+00  0.11362189897E+03  0.11362189897E+03  0.00000000000E+00 0. -1.
         -1   -1    0    0    0  501 -0.00000000000E+00 -0.00000000000E+00 -0.52453113525E+03  0.52453113525E+03  0.00000000000E+00 0.  1.
         25    2    1    2    0    0 -0.37744975439E+01  0.73246397637E+02  0.56999967786E+02  0.15577697836E+03  0.12505274512E+03 0.  0.
          5    1    3    3  502    0  0.40870790917E+02  0.88529676796E+02  0.38788936384E+02  0.10502370785E+03  0.41800000000E+01 0.  1.
         -5    1    3    3    0  502 -0.44645288461E+02 -0.15283279160E+02  0.18211031401E+02  0.50753270519E+02  0.41800000000E+01 0.  1.
        -11    1    1    2    0    0  0.44642784740E+02 -0.26140095233E+02 -0.15797746627E+03  0.16623225516E+03  0.00000000000E+00 0. -1.
         11    1    1    2    0    0 -0.40868287196E+02 -0.47106302404E+02 -0.30993173779E+03  0.31614380069E+03  0.00000000000E+00 0.  1.
</event>
<event>
 7    1  0.1538147E-010  0.1443565E+03  0.7561462E-02  0.1207584E+00
          1   -1    0    0  501    0  0.00000000000E+00  0.00000000000E+00  0.12964699774E+03  0.12964699774E+03  0.00000000000E+00 0.  1.
         -1   -1    0    0    0  501 -0.00000000000E+00 -0.00000000000E+00 -0.21572966810E+03  0.21572966810E+03  0.00000000000E+00 0. -1.
         25    2    1    2    0    0 -0.12123919880E+03  0.58805157699E+01 -0.15594526722E+02  0.17498026186E+03  0.12506549877E+03 0.  0.
          5    1    3    3  502    0 -0.56588404914E+02 -0.54558285019E+02  0.17077117008E+02  0.80547838954E+02  0.41800000000E+01 0.  1.
         -5    1    3    3    0  502 -0.64650793889E+02  0.60438800789E+02 -0.32671643730E+02  0.94432422903E+02  0.41800000000E+01 0.  1.
        -11    1    1    2    0    0  0.73543415275E+02 -0.44683815687E+01  0.12438293151E+02  0.74721559811E+02  0.00000000000E+00 0.  1.
         11    1    1    2    0    0  0.47695783528E+02 -0.14121342012E+01 -0.82926436789E+02  0.95674844175E+02  0.00000000000E+00 0. -1.
</event>
<event>
 7    1  0.1538147E-010  0.1101895E+03  0.7561462E-02  0.1260219E+00
          2   -1    0    0  501    0  0.00000000000E+00  0.00000000000E+00  0.15585465787E+04  0.15585465787E+04  0.00000000000E+00 0. -1.
         -2   -1    0    0    0  501 -0.00000000000E+00 -0.00000000000E+00 -0.85714013020E+01  0.85714013020E+01  0.00000000000E+00 0.  1.
         25    2    1    2    0    0  0.26892306320E+02 -0.30904857579E+01  0.10882555036E+04  0.10957581259E+04  0.12511227855E+03 0.  0.
          5    1    3    3  502    0 -0.47688124203E+02 -0.16176563735E+02  0.52368338755E+03  0.52611557779E+03  0.41800000000E+01 0.  1.
         -5    1    3    3    0  502  0.74580430523E+02  0.13086077977E+02  0.56457211601E+03  0.56964254812E+03  0.41800000000E+01 0.  1.
        -11    1    1    2    0    0  0.32625766141E+01  0.43483776183E+02  0.24545325169E+03  0.24929657431E+03  0.00000000000E+00 0. -1.
         11    1    1    2    0    0 -0.30154882934E+02 -0.40393290425E+02  0.21626642219E+03  0.22206327981E+03  0.00000000000E+00 0.  1.
</event>
<event>
 6    1  0.1538147E-010  0.9944818E+02  0.7561462E-02  0.1281461E+00
         -2   -1    0    0    0  501 -0.00000000000E+00  0.00000000000E+00  0.20289770296E+03  0.20289770296E+03  0.00000000000E+00 0.  1.
          2   -1    0    0  501    0  0.00000000000E+00 -0.00000000000E+00 -0.59721319802E+02  0.59721319802E+02  0.00000000000E+00 0. -1.
          5    1    1    2  502    0  0.54581866650E+02  0.20848245171E+02  0.82672446887E+02  0.10132144575E+03  0.41800000000E+01 0. -1.
         -5    1    1    2    0  502 -0.46778655865E+02 -0.12012802305E+02 -0.30094778593E+01  0.48570355370E+02  0.41800000000E+01 0. -1.
        -11    1    1    2    0    0  0.20186339253E+02 -0.43103336531E+02  0.42223980037E+02  0.63625862687E+02  0.00000000000E+00 0.  1.
         11    1    1    2    0    0 -0.27989550037E+02  0.34267893666E+02  0.21289434090E+02  0.49101358957E+02  0.00000000000E+00 0. -1.
</event>
<event>
 7    1  0.1538147E-010  0.1266866E+03  0.7561462E-02  0.1232457E+00
         -1   -1    0    0    0  501 -0.00000000000E+00  0.00000000000E+00  0.13980189424E+04  0.13980189424E+04  0.00000000000E+00 0.  1.
          1   -1    0    0  501    0  0.00000000000E+00 -0.00000000000E+00 -0.16501783073E+02  0.16501783073E+02  0.00000000000E+00 0. -1.
         25    2    1    2    0    0 -0.57369874658E+02 -0.64898435839E+02  0.10077864152E+04  0.10192106963E+04  0.12511544831E+03 0.  0.
          5    1    3    3  502    0  0.58678326753E+01 -0.64002455093E+02  0.23004873786E+03  0.23889462093E+03  0.41800000000E+01 0. -1.
         -5    1    3    3    0  502 -0.63237707333E+02 -0.89598074567E+00  0.77773767733E+03  0.78031607541E+03  0.41800000000E+01 0. -1.
        -11    1    1    2    0    0  0.44489235041E+02 -0.13219591951E+02  0.97946435068E+02  0.10838613282E+03  0.00000000000E+00 0.  1.
         11    1    1    2    0    0  0.12880639616E+02  0.78118027789E+02  0.27578430905E+03  0.28692389628E+03  0.00000000000E+00 0. -1.
</event>
<event>
 6    1  0.1538147E-010  0.1594161E+03  0.7561462E-02  0.1189358E+00
          2   -1    0    0  501    0  0.00000000000E+00  0.00000000000E+00  0.12695194321E+03  0.12695194321E+03  0.00000000000E+00 0.  1.
         -2   -1    0    0    0  501 -0.00000000000E+00 -0.00000000000E+00 -0.30182080783E+03  0.30182080783E+03  0.00000000000E+00 0. -1.
          5    1    1    2  502    0  0.28741052644E+02  0.40073252688E+02 -0.13661451832E+02  0.51342198572E+02  0.41800000000E+01 0. -1.
         -5    1    1    2    0  502 -0.95463086931E+02  0.84602621627E+02 -0.16523580666E+03  0.20878493421E+03  0.41800000000E+01 0. -1.
        -11    1    1    2    0    0  0.23644010616E+02 -0.53943109468E+02  0.46991754567E+02  0.75346687348E+02  0.00000000000E+00 0.  1.
         11    1    1    2    0    0  0.43078023671E+02 -0.70732764847E+02 -0.42963360692E+02  0.93298930906E+02  0.00000000000E+00 0. -1.
</event>
<event>
 6    1  0.1538147E-010  0.1005734E+03  0.7561462E-02  0.1279095E+00
         -2   -1    0    0    0  501 -0.00000000000E+00  0.00000000000E+00  0.18041575620E+02  0.18041575620E+02  0.00000000000E+00 0.  1.
          2   -1    0    0  501    0  0.00000000000E+00 -0.00000000000E+00 -0.18309674296E+04  0.18309674296E+04  0.00000000000E+00 0. -1.
          5    1    1    2  502    0  0.10158605946E+02  0.50952470746E+02 -0.12920975825E+04  0.12931484782E+04  0.41800000000E+01 0.  1.
         -5    1    1    2    0  502 -0.48674022860E+02 -0.28122423549E+02 -0.37293521084E+03  0.37717128084E+03  0.41800000000E+01 0.  1.
        -11    1    1    2    0    0  0.62797006087E+02 -0.26383251937E+02 -0.72838085415E+02  0.99724253034E+02  0.00000000000E+00 0.  1.
         11    1    1    2    0    0 -0.24281589173E+02  0.35532047406E+01 -0.75054975159E+02  0.78964993084E+02  0.00000000000E+00 0. -1.
</event>
<event>
 7    1  0.1538147E-010  0.1157275E+03  0.7561462E-02  0.1250317E+00
          1   -1    0    0  501    0  0.00000000000E+00  0.00000000000E+00  0.37151897041E+03  0.37151897041E+03  0.00000000000E+00 0. -1.
         -1   -1    0    0    0  501 -0.00000000000E+00 -0.00000000000E+00 -0.47534244171E+02  0.47534244171E+02  0.00000000000E+00 0.  1.
         25    2    1    2    0    0 -0.54442706114E+02  0.34003143888E+02  0.25366794730E+03  0.29004301657E+03  0.12512914101E+03 0.  0.
          5    1    3    3  502    0  0.14275381311E+02 -0.36575554345E+02  0.49531890570E+02  0.63343810042E+02  0.41800000000E+01 0.  1.
         -5    1    3    3    0  502 -0.68718087425E+02  0.70578698233E+02  0.20413605672E+03  0.22669920652E+03  0.41800000000E+01 0.  1.
        -11    1    1    2    0    0  0.65014231806E+02 -0.44256677260E+02  0.26831807620E+02  0.83099035612E+02  0.00000000000E+00 0.  1.
         11    1    1    2    0    0 -0.10571525692E+02  0.10253533371E+02  0.43484971327E+02  0.45911162405E+02  0.00000000000E+00 0. -1.
</event>
<event>
 7    1  0.1538147E-010  0.1546366E+03  0.7561462E-02  0.1194889E+00
          2   -1    0    0  501    0  0.00000000000E+00  0.00000000000E+00  0.11599046015E+04  0.11599046015E+04  0.00000000000E+00 0. -1.
         -2   -1    0    0    0  501 -0.00000000000E+00 -0.00000000000E+00 -0.27671292045E+02  0.27671292045E+02  0.00000000000E+00 0.  1.
         25    2    1    2    0    0  0.12676758537E+03 -0.13785223731E+02  0.79641002979E+03  0.81619290352E+03  0.12506745025E+03 0.  0.
          5    1    3    3  502    0  0.30165283185E+02  0.34671709208E+02  0.47153423108E+03  0.47378695129E+03  0.41800000000E+01 0. -1.
         -5    1    3    3    0  502  0.96602302184E+02 -0.48456932940E+02  0.32487579871E+03  0.34240595224E+03  0.41800000000E+01 0. -1.
        -11    1    1    2    0    0 -0.97054975858E+01  0.34720588917E+02  0.11575664621E+03  0.12124074034E+03  0.00000000000E+00 0.  1.
         11    1    1    2    0    0 -0.11706208778E+03 -0.20935365185E+02  0.22006663341E+03  0.25014224964E+03  0.00000000000E+00 0. -1.
</event>
<event>
 7    1  0.1538147E-010  0.1083453E+03  0.7561462E-02  0.1263665E+00
         -3   -1    0    0    0  501 -0.00000000000E+00  0.00000000000E+00  0.17345839661E+03  0.17345839661E+03  0.00000000000E+00 0.  1.
          3   -1    0    0  501    0  0.00000000000E+00 -0.00000000000E+00 -0.10948239504E+03  0.10948239504E+03  0.00000000000E+00 0. -1.
         25    2    1    2    0    0  0.65938833729E+02  0.20095505432E+02 -0.15992827886E+02  0.14367080455E+03  0.12503507670E+03 0.  0.
          5    1    3    3  502    0  0.88161940916E+02 -0.25457716928E+02 -0.12315955316E+02  0.92681057032E+02  0.41800000000E+01 0.  1.
         -5    1    3    3    0  502 -0.22223107187E+02  0.45553222360E+02 -0.36768725699E+01  0.50989747522E+02  0.41800000000E+01 0.  1.
        -11    1    1    2    0    0 -0.27533942422E+02 -0.22408193178E+02  0.92280782998E+02  0.98873596160E+02  0.00000000000E+00 0.  1.
         11    1    1    2    0    0 -0.38404891307E+02  0.23126877458E+01 -0.12311953535E+02  0.40396390937E+02  0.00000000000E+00 0. -1.
</event>
<event>
 7    1  0.1538147E-010  0.1375820E+03  0.7561462E-02  0.1216620E+00
         -2   -1    0    0    0  501 -0.00000000000E+00  0.00000000000E+00  0.10684525345E+03  0.10684525345E+03  0.00000000000E+00 0.  1.
          2   -1    0    0  501    0  0.00000000000E+00 -0.00000000000E+00 -0.53030381695E+03  0.53030381695E+03  0.00000000000E+00 0. -1.
         25    2    1    2    0    0  0.11917275918E+03 -0.29705941670E+02  0.12148566752E+02  0.17575315854E+03  0.12512791680E+03 0.  0.
          5    1    3    3  502    0  0.39922070807E+01 -0.12496218463E+02 -0.44211412032E+02  0.46305664309E+02  0.41800000000E+01 0. -1.
         -5    1    3    3    0  502  0.11518055210E+03 -0.17209723206E+02  0.56359978784E+02  0.12944749423E+03  0.41800000000E+01 0. -1.
        -11    1    1    2    0    0 -0.19970744206E+02  0.40418234905E+02 -0.77610146445E+02  0.89754103907E+02  0.00000000000E+00 0.  1.
         11    1    1    2    0    0 -0.99202014973E+02 -0.10712293235E+02 -0.35799698381E+03  0.37164180795E+03  0.00000000000E+00 0. -1.
</event>
<event>
 6    1  0.1538147E-010  0.1104209E+03  0.7561462E-02  0.1259792E+00
         -2   -1    0    0    0  501 -0.00000000000E+00  0.00000000000E+00  0.51132772106E+03  0.51132772106E+03  0.00000000000E+00 0.  1.
          2   -1    0    0  501    0  0.00000000000E+00 -0.00000000000E+00 -0.34941112841E+02  0.34941112841E+02  0.00000000000E+00 0. -1.
          5    1    1    2  502    0  0.67712964305E+02  0.29727464425E+02  0.89467857416E+02  0.11614963447E+03  0.41800000000E+01 0.  1.
         -5    1    1    2    0  502 -0.51306327433E+02  0.44350139082E+02  0.14704432589E+03  0.16198388885E+03  0.41800000000E+01 0.  1.
        -11    1    1    2    0    0  0.14056719414E+01 -0.42868085537E+02  0.22531824999E+03  0.22936425713E+03  0.00000000000E+00 0.  1.
         11    1    1    2    0    0 -0.17812308813E+02 -0.31209517970E+02  0.14556174922E+02  0.38771053449E+02  0.00000000000E+00 0. -1.
</event>
<event>
 7    1  0.1538147E-010  0.1055544E+03  0.7561462E-02  0.1269031E+00
         -3   -1    0    0    0  501 -0.00000000000E+00  0.00000000000E+00  0.45996096134E+02  0.45996096134E+02  0.00000000000E+00 0.  1.
          3   -1    0    0  501    0  0.00000000000E+00 -0.00000000000E+00 -0.33140767200E+03  0.33140767200E+03  0.00000000000E+00 0. -1.
         25    2    1    2    0    0  0.73808347946E+02 -0.13477132954E+02 -0.15339280251E+03  0.21166181145E+03  0.12506824227E+03 0.  0.
          5    1    3    3  502    0  0.54955605551E+02  0.46754379082E+02 -0.12013510216E+03  0.14019987773E+03  0.41800000000E+01 0.  1.
         -5    1    3    3    0  502  0.18852742395E+02 -0.60231512036E+02 -0.33257700353E+02  0.71461933718E+02  0.41800000000E+01 0.  1.
        -11    1    1    2    0    0 -0.40221426394E+02  0.27101045668E+01 -0.12285578646E+03  0.12930062674E+03  0.00000000000E+00 0. -1.
         11    1    1    2    0    0 -0.33586921552E+02  0.10767028388E+02 -0.91629868943E+01  0.36441329950E+02  0.00000000000E+00 0.  1.
</event>
<event>
 6    1  0.1538147E-010  0.9367916E+02  0.7561462E-02  0.1294179E+00
         -2   -1    0    0    0  501 -0.00000000000E+00  0.00000000000E+00  0.21107438971E+02  0.21107438971E+02  0.00000000000E+00 0.  1.
          2   -1    0    0  501    0  0.00000000000E+00 -0.00000000000E+00 -0.66821397873E+03  0.66821397873E+03  0.00000000000E+00 0. -1.
          5    1    1    2  502    0 -0.39727337086E+02 -0.40030330344E+02 -0.69170896916E+02  0.89346371161E+02  0.41800000000E+01 0.  1.
         -5    1    1    2    0  502  0.37574716909E+02  0.12203899490E+02 -0.37304677404E+03  0.37515618419E+03  0.41800000000E+01 0.  1.
        -11    1    1    2    0    0  0.43976232693E+02  0.20882352349E+02 -0.12916057045E+03  0.13803055691E+03  0.00000000000E+00 0. -1.
         11    1    1    2    0    0 -0.41823612516E+02  0.69440785047E+01 -0.75728298353E+02  0.86788305443E+02  0.00000000000E+00 0.  1.
</event>
<event>
 7    1  0.1538147E-010  0.1080310E+03  0.7561462E-02  0.1264260E+00
         -2   -1    0    0    0  501 -0.00000000000E+00  0.00000000000E+00  0.96390505859E+02  0.96390505859E+02  0.00000000000E+00 0. -1.
          2   -1    0    0  501    0  0.00000000000E+00 -0.00000000000E+00 -0.40496740167E+03  0.40496740167E+03  0.00000000000E+00 0.  1.
         25    2    1    2    0    0  0.83298543004E+02  0.51138263278E+01 -0.33982551564E+03  0.37159820188E+03  0.12505616368E+03 0.  0.
          5    1    3    3  502    0  0.37013668021E+02  0.19484757516E+02 -0.31346358077E+03  0.31626975237E+03  0.41800000000E+01 0.  1.
         -5    1    3    3    0  502  0.46284874983E+02 -0.14370931188E+02 -0.26361934876E+02  0.55328449515E+02  0.41800000000E+01 0.  1.
        -11    1    1    2    0    0  0.17640919436E+02 -0.16050492575E+02  0.12166027939E+01  0.23880964654E+02  0.00000000000E+00 0.  1.
         11    1    1    2    0    0 -0.10093946244E+03  0.10936666247E+02  0.30032017040E+02  0.10587874099E+03  0.00000000000E+00 0. -1.
</event>
<event>
 7    1  0.1538147E-010  0.1533317E+03  0.7561462E-02  0.1196438E+00
          2   -1    0    0  501    0  0.00000000000E+00  0.00000000000E+00  0.10406694157E+03  0.10406694157E+03  0.00000000000E+00 0. -1.
         -2   -1    0    0    0  501 -0.00000000000E+00 -0.00000000000E+00 -0.23137753947E+03  0.23137753947E+03  0.00000000000E+00 0.  1.
         25    2    1    2    0    0  0.96140083991E+02 -0.47866194364E+02 -0.43418136964E+02  0.17050667048E+03  0.12511315577E+03 0.  0.
          5    1    3    3  502    0  0.85779871955E+02 -0.88117803423E+02 -0.34511065062E+02  0.12779444325E+03  0.41800000000E+01 0.  1.
         -5    1    3    3    0  502  0.10360212036E+02  0.40251609059E+02 -0.89070719018E+01  0.42712227233E+02  0.41800000000E+01 0.  1.
        -11    1    1    2    0    0 -0.11437062052E+03  0.35271859542E+02 -0.73609844153E+02  0.14051032727E+03  0.00000000000E+00 0.  1.
         11    1    1    2    0    0  0.18230536529E+02  0.12594334822E+02 -0.10282616787E+02  0.24427483287E+02  0.00000000000E+00 0. -1.
</event>
<event>
 7    1  0.1538147E-010  0.8464860E+02  0.7561462E-02  0.1316354E+00
         -2   -1    0    0    0  501 -0.00000000000E+00  0.00000000000E+00  0.41797642536E+03  0.41797642536E+03  0.00000000000E+00 0.  1.
          2   -1    0    0  501    0  0.00000000000E+00 -0.00000000000E+00 -0.34432002367E+02  0.34432002367E+02  0.00000000000E+00 0. -1.
         25    2    1    2    0    0  0.19605772250E+02  0.59192932462E+01  0.30663877139E+03  0.33179011215E+03  0.12505166159E+03 0.  0.
          5    1    3    3  502    0 -0.10268707276E+02 -0.42641645817E+02  0.23990797780E+03  0.24392020523E+03  0.41800000000E+01 0. -1.
         -5    1    3    3    0  502  0.29874479525E+02  0.48560939063E+02  0.66730793586E+02  0.87869906921E+02  0.41800000000E+01 0. -1.
        -11    1    1    2    0    0  0.20078260820E+00  0.28424097486E+02  0.75803305312E+02  0.80957462459E+02  0.00000000000E+00 0.  1.
         11    1    1    2    0    0 -0.19806554858E+02 -0.34343390732E+02  0.11023462889E+01  0.39660853113E+02  0.00000000000E+00 0. -1.
</event>
<event>
 7    1  0.1538147E-010  0.1776051E+03  0.7561462E-02  0.1170141E+00
         -2   -1    0    0    0  501 -0.00000000000E+00  0.00000000000E+00  0.22189833054E+02  0.22189833054E+02  0.00000000000E+00 0.  1.
          2   -1    0    0  501    0  0.00000000000E+00 -0.00000000000E+00 -0.23233185912E+04  0.23233185912E+04  0.00000000000E+00 0. -1.
         25    2    1    2    0    0  0.11108899913E+03 -0.12386459963E+03 -0.17583283943E+04  0.17706054256E+04  0.12506648813E+03 0.  0.
          5    1    3    3  502    0  0.73720586587E+02 -0.92544487318E+02 -0.16113656111E+04  0.16157090741E+04  0.41800000000E+01 0. -1.
         -5    1    3    3    0  502  0.37368412541E+02 -0.31320112313E+02 -0.14696278314E+03  0.15489635154E+03  0.41800000000E+01 0. -1.
        -11    1    1    2    0    0 -0.57300040391E+02  0.12115784486E+03 -0.41849058672E+03  0.43942791124E+03  0.00000000000E+00 0.  1.
         11    1    1    2    0    0 -0.53788958736E+02  0.27067547735E+01 -0.12430977717E+03  0.13547508739E+03  0.00000000000E+00 0. -1.
</event>
<event>
 6    1  0.1538147E-010  0.7624740E+02  0.7561462E-02  0.1340051E+00
         -2   -1    0    0    0  501 -0.00000000000E+00  0.00000000000E+00  0.45986584948E+02  0.45986584948E+02  0.00000000000E+00 0.  1.
          2   -1    0    0  501    0  0.00000000000E+00 -0.00000000000E+00 -0.42965209511E+03  0.42965209511E+03  0.00000000000E+00 0. -1.
          5    1    1    2  502    0 -0.12722380005E+01  0.32763597422E+02 -0.11638067964E+03  0.12098349846E+03  0.41800000000E+01 0.  1.
         -5    1    1    2    0  502 -0.27294092485E+02  0.14484342219E+02  0.28026125266E+02  0.41924929953E+02  0.41800000000E+01 0.  1.
        -11    1    1    2    0    0  0.44008729780E+02 -0.62495865919E+01 -0.68023076480E+02  0.81258627623E+02  0.00000000000E+00 0.  1.
         11    1    1    2    0    0 -0.15442399294E+02 -0.40998353050E+02 -0.22728787931E+03  0.23147162403E+03  0.00000000000E+00 0. -1.
</event>
<event>
 7    1  0.1538147E-010  0.9135181E+02  0.7561462E-02  0.1299611E+00
          1   -1    0    0  501    0  0.00000000000E+00  0.00000000000E+00  0.25694948745E+02  0.25694948745E+02  0.00000000000E+00 0. -1.
         -1   -1    0    0    0  501 -0.00000000000E+00 -0.00000000000E+00 -0.47387798718E+03  0.47387798718E+03  0.00000000000E+00 0.  1.
         25    2    1    2    0    0 -0.79409420243E+01  0.15863659347E+02 -0.29918083867E+03  0.32477432667E+03  0.12511784362E+03 0.  0.
          5    1    3    3  502    0 -0.62895393130E+02  0.48703701037E+01 -0.10442432440E+03  0.12207154832E+03  0.41800000000E+01 0.  1.
         -5    1    3    3    0  502  0.54954451106E+02  0.10993289243E+02 -0.19475651426E+03  0.20270277835E+03  0.41800000000E+01 0.  1.
        -11    1    1    2    0    0  0.34540374255E+02 -0.10939278708E+02 -0.14242215870E+03  0.14695841780E+03  0.00000000000E+00 0.  1.
         11    1    1    2    0    0 -0.26599432231E+02 -0.49243806389E+01 -0.65800410672E+01  0.27840191453E+02  0.00000000000E+00 0. -1.
</event>
<event>
 7    1  0.1538147E-010  0.1176384E+03  0.7561462E-02  0.1247045E+00
         -2   -1    0    0    0  501 -0.00000000000E+00  0.00000000000E+00  0.27929735742E+02  0.27929735742E+02  0.00000000000E+00 0. -1.
          2   -1    0    0  501    0  0.00000000000E+00 -0.00000000000E+00 -0.52514642144E+03  0.52514642144E+03  0.00000000000E+00 0.  1.
         25    2    1    2    0    0  0.26815437571E+02  0.43132165629E+02 -0.25713530516E+03  0.29043250872E+03  0.12511205201E+03 0.  0.
          5    1    3    3  502    0 -0.48287169611E+02  0.30359325538E+02 -0.13224159047E+03  0.14407862453E+03  0.41800000000E+01 0.  1.
         -5    1    3    3    0  502  0.75102607182E+02  0.12772840090E+02 -0.12489371469E+03  0.14635388419E+03  0.41800000000E+01 0.  1.
        -11    1    1    2    0    0 -0.49609522497E+02  0.36568988711E+01 -0.78942152378E+02  0.93307775955E+02  0.00000000000E+00 0. -1.
         11    1    1    2    0    0  0.22794084926E+02 -0.46789064500E+02 -0.16113922816E+03  0.16933587250E+03  0.00000000000E+00 0.  1.
</event>
<event>
 6    1  0.1538147E-010  0.1074292E+03  0.7561462E-02  0.1265406E+00
          1   -1    0    0  501    0  0.00000000000E+00  0.00000000000E+00  0.25706420986E+03  0.25706420986E+03  0.00000000000E+00 0. -1.
         -1   -1    0    0    0  501 -0.00000000000E+00 -0.00000000000E+00 -0.65563776758E+02  0.65563776758E+02  0.00000000000E+00 0.  1.
          5    1    1    2  502    0 -0.37575023441E+02 -0.23716714942E+02  0.11829215926E+03  0.12643129477E+03  0.41800000000E+01 0. -1.
         -5    1    1    2    0  502  0.30028520370E+02  0.65953392765E+02  0.51896996405E+02  0.89231903984E+02  0.41800000000E+01 0. -1.
        -11    1    1    2    0    0 -0.38383058656E+02 -0.33374145844E+02 -0.83961346103E+01  0.51551798019E+02  0.00000000000E+00 0.  1.
         11    1    1    2    0    0  0.45929561727E+02 -0.88625319797E+01  0.29707412053E+02  0.55412989853E+02  0.00000000000E+00 0. -1.
</event>
<event>
 7    1  0.1538147E-010  0.1147010E+03  0.7561462E-02  0.1252104E+00
          2   -1    0    0  501    0  0.00000000000E+00  0.00000000000E+00  0.77824847197E+03  0.77824847197E+03  0.00000000000E+00 0. -1.
         -2   -1    0    0    0  501 -0.00000000000E+00 -0.00000000000E+00 -0.22951160432E+02  0.22951160432E+02  0.00000000000E+00 0.  1.
         25    2    1    2    0    0 -0.21309122658E+02  0.52428303535E+02  0.58661622299E+03  0.60246360961E+03  0.12506399204E+03 0.  0.
          5    1    3    3  502    0 -0.35301078999E+02  0.86594550243E+02  0.32465209871E+03  0.33787755165E+03  0.41800000000E+01 0.  1.
         -5    1    3    3    0  502  0.13991956340E+02 -0.34166246708E+02  0.26196412428E+03  0.26458605796E+03  0.41800000000E+01 0.  1.
        -11    1    1    2    0    0  0.52164513846E+02 -0.27484155247E+02  0.65186410854E+02  0.87896435960E+02  0.00000000000E+00 0.  1.
         11    1    1    2    0    0 -0.30855391187E+02 -0.24944148288E+02  0.10349467769E+03  0.11083958683E+03  0.00000000000E+00 0. -1.
</event>
<event>
 7    1  0.1538147E-010  0.1004659E+03  0.7561462E-02  0.1279319E+00
         -2   -1    0    0    0  501 -0.00000000000E+00  0.00000000000E+00  0.38053761019E+02  0.38053761019E+02  0.00000000000E+00 0.  1.
          2   -1    0    0  501    0  0.00000000000E+00 -0.00000000000E+00 -0.36475354990E+03  0.36475354990E+03  0.00000000000E+00 0. -1.
         25    2    1    2    0    0 -0.33042968162E+02  0.21386841080E+02 -0.14862902084E+03  0.19822671490E+03  0.12511598597E+03 0.  0.
          5    1    3    3  502    0 -0.43408885294E+02  0.68793691145E+02 -0.80880074048E+02  0.11478659348E+03  0.41800000000E+01 0.  1.
         -5    1    3    3    0  502  0.10365917133E+02 -0.47406850066E+02 -0.67748946791E+02  0.83440121419E+02  0.41800000000E+01 0.  1.
        -11    1    1    2    0    0 -0.70758969212E+01 -0.29075935869E+02 -0.98998324116E+01  0.31519597804E+02  0.00000000000E+00 0.  1.
         11    1    1    2    0    0  0.40118865083E+02  0.76890947896E+01 -0.16817093563E+03  0.17306099822E+03  0.00000000000E+00 0. -1.
</event>
<event>
 7    1  0.1538147E-010  0.1123038E+03  0.7561462E-02  0.1256362E+00
         -1   -1    0    0    0  501 -0.00000000000E+00  0.00000000000E+00  0.58988426309E+02  0.58988426309E+02  0.00000000000E+00 0.  1.
          1   -1    0    0  501    0  0.00000000000E+00 -0.00000000000E+00 -0.31769257579E+03  0.31769257579E+03  0.00000000000E+00 0. -1.
         25    2    1    2    0    0  0.63548534825E+02  0.43293527596E+02 -0.17098428493E+03  0.22539793207E+03  0.12512336424E+03 0.  0.
          5    1    3    3  502    0 -0.12413342380E+02  0.57448215548E+02 -0.33893558276E+02  0.67975247196E+02  0.41800000000E+01 0. -1.
         -5    1    3    3    0  502  0.75961877206E+02 -0.14154687952E+02 -0.13709072666E+03  0.15742268488E+03  0.41800000000E+01 0. -1.
        -11    1    1    2    0    0 -0.37644826858E+02  0.23977422018E+00  0.11934826688E+02  0.39492158322E+02  0.00000000000E+00 0.  1.
         11    1    1    2    0    0 -0.25903707967E+02 -0.43533301816E+02 -0.99654691239E+02  0.11179091170E+03  0.00000000000E+00 0. -1.
</event>
<event>
 7    1  0.1538147E-010  0.1306697E+03  0.7561462E-02  0.1226465E+00
          2   -1    0    0  501    0  0.00000000000E+00  0.00000000000E+00  0.42066484622E+02  0.42066484622E+02  0.00000000000E+00 0.  1.
         -2   -1    0    0    0  501 -0.00000000000E+00 -0.00000000000E+00 -0.57407348864E+03  0.57407348864E+03  0.00000000000E+00 0. -1.
         25    2    1    2    0    0 -0.10698812432E+03 -0.23225890389E+02 -0.25299658104E+03  0.30273189870E+03  0.12511367528E+03 0.  0.
          5    1    3    3  502    0 -0.12671679754E+02  0.22000397733E+02  0.32426697392E+01  0.25934075561E+02  0.41800000000E+01 0.  1.
         -5    1    3    3    0  502 -0.94316444564E+02 -0.45226288122E+02 -0.25623925078E+03  0.27679782314E+03  0.41800000000E+01 0.  1.
        -11    1    1    2    0    0  0.77193225024E+01  0.30432219499E+02 -0.23560136100E+02  0.39252871698E+02  0.00000000000E+00 0.  1.
         11    1    1    2    0    0  0.99268801816E+02 -0.72063291094E+01 -0.25545028688E+03  0.27415520287E+03  0.00000000000E+00 0. -1.
</event>
<event>
 7    1  0.1538147E-010  0.9356059E+02  0.7561462E-02  0.1294451E+00
         -2   -1    0    0    0  501 -0.00000000000E+00  0.00000000000E+00  0.20754679819E+02  0.20754679819E+02  0.00000000000E+00 0.  1.
          2   -1    0    0  501    0  0.00000000000E+00 -0.00000000000E+00 -0.83964211012E+03  0.83964211012E+03  0.00000000000E+00 0. -1.
         25    2    1    2    0    0  0.14602581724E+02 -0.33435284566E+01 -0.68760219253E+03  0.69904336693E+03  0.12506174114E+03 0.  0.
          5    1    3    3  502    0 -0.38961417640E+02 -0.40110040837E+02 -0.41521428444E+03  0.41898351023E+03  0.41800000000E+01 0.  1.
         -5    1    3    3    0  502  0.53563999364E+02  0.36766512381E+02 -0.27238790809E+03  0.28005985670E+03  0.41800000000E+01 0.  1.
        -11    1    1    2    0    0 -0.25060059633E+02  0.28947230486E+02 -0.13866316537E+02  0.40721290205E+02  0.00000000000E+00 0.  1.
         11    1    1    2    0    0  0.10457477910E+02 -0.25603702029E+02 -0.11741892123E+03  0.12063213280E+03  0.00000000000E+00 0. -1.
</event>
<event>
 6    1  0.1538147E-010  0.9984756E+02  0.7561462E-02  0.1280617E+00
          2   -1    0    0  501    0  0.00000000000E+00  0.00000000000E+00  0.21191211343E+03  0.21191211343E+03  0.00000000000E+00 0. -1.
         -2   -1    0    0    0  501 -0.00000000000E+00 -0.00000000000E+00 -0.80819197341E+02  0.80819197341E+02  0.00000000000E+00 0.  1.
          5    1    1    2  502    0  0.23660764579E+02 -0.33531135446E+02  0.32990753866E+02  0.52820744651E+02  0.41800000000E+01 0. -1.
         -5    1    1    2    0  502 -0.58880235777E+02  0.38333055714E+02 -0.32240158176E+02  0.77415796352E+02  0.41800000000E+01 0. -1.
        -11    1    1    2    0    0  0.17247349937E+02  0.37949874947E+02  0.96394039538E+02  0.10502130711E+03  0.00000000000E+00 0. -1.
         11    1    1    2    0    0  0.17972121261E+02 -0.42751795215E+02  0.33948280861E+02  0.57473462660E+02  0.00000000000E+00 0.  1.
</event>
<event>
 6    1  0.1538147E-010  0.1000680E+03  0.7561462E-02  0.1280153E+00
         -2   -1    0    0    0  501 -0.00000000000E+00  0.00000000000E+00  0.43816151822E+02  0.43816151822E+02  0.00000000000E+00 0. -1.
          2   -1    0    0  501    0  0.00000000000E+00 -0.00000000000E+00 -0.40204814083E+03  0.40204814083E+03  0.00000000000E+00 0.  1.
          5    1    1    2  502    0  0.16710971012E+01  0.82210453776E+01 -0.13543035555E+03  0.13575430659E+03  0.41800000000E+01 0.  1.
         -5    1    1    2    0  502 -0.73186401032E+02  0.75558034396E+01 -0.21097485558E+02  0.76654522101E+02  0.41800000000E+01 0.  1.
        -11    1    1    2    0    0  0.79076745118E+02  0.19125816683E+02 -0.14952770751E+03  0.17022768223E+03  0.00000000000E+00 0. -1.
         11    1    1    2    0    0 -0.75614411873E+01 -0.34902665500E+02 -0.52176440389E+02  0.63227781738E+02  0.00000000000E+00 0.  1.
</event>
<event>
 7    1  0.1538147E-010  0.1001639E+03  0.7561462E-02  0.1279952E+00
         -2   -1    0    0    0  501 -0.00000000000E+00  0.00000000000E+00  0.14591645955E+02  0.14591645955E+02  0.00000000000E+00 0.  1.
          2   -1    0    0  501    0  0.00000000000E+00 -0.00000000000E+00 -0.14434517057E+04  0.14434517057E+04  0.00000000000E+00 0. -1.
         25    2    1    2    0    0  0.66793954987E+00  0.86193329364E+02 -0.10042858389E+04  0.10157175686E+04  0.12514949775E+03 0.  0.
          5    1    3    3  502    0 -0.42718671889E+01  0.70093683225E+02 -0.21450131702E+03  0.22574246539E+03  0.41800000000E+01 0. -1.
         -5    1    3    3    0  502  0.49398067388E+01  0.16099646139E+02 -0.78978452189E+03  0.78997510322E+03  0.41800000000E+01 0. -1.
        -11    1    1    2    0    0 -0.36077577131E+02 -0.34121063148E+02 -0.99435111936E+02  0.11114486046E+03  0.00000000000E+00 0.  1.
         11    1    1    2    0    0  0.35409637581E+02 -0.52072266217E+02 -0.32513910886E+03  0.33118092254E+03  0.00000000000E+00 0. -1.
</event>
<event>
 6    1  0.1538147E-010  0.1189314E+03  0.7561462E-02  0.1244870E+00
          4   -1    0    0  501    0  0.00000000000E+00  0.00000000000E+00  0.95634507720E+02  0.95634507720E+02  0.00000000000E+00 0. -1.
         -4   -1    0    0    0  501 -0.00000000000E+00 -0.00000000000E+00 -0.15519906448E+03  0.15519906448E+03  0.00000000000E+00 0.  1.
          5    1    1    2  502    0 -0.88894149110E+02  0.74991668848E+01 -0.18293739050E+02  0.91162166157E+02  0.41800000000E+01 0.  1.
         -5    1    1    2    0  502  0.41347166365E+02  0.18903109302E+02  0.50664003723E+01  0.45935351533E+02  0.41800000000E+01 0.  1.
        -11    1    1    2    0    0  0.68486647907E+02  0.89964745673E+00 -0.38021291634E+02  0.78338042640E+02  0.00000000000E+00 0.  1.
         11    1    1    2    0    0 -0.20939665162E+02 -0.27301923644E+02 -0.83159264482E+01  0.35398011871E+02  0.00000000000E+00 0. -1.
</event>
<event>
 7    1  0.1538147E-010  0.1090952E+03  0.7561462E-02  0.1262255E+00
          2   -1    0    0  501    0  0.00000000000E+00  0.00000000000E+00  0.31314116169E+02  0.31314116169E+02  0.00000000000E+00 0. -1.
         -2   -1    0    0    0  501 -0.00000000000E+00 -0.00000000000E+00 -0.42547382796E+03  0.42547382796E+03  0.00000000000E+00 0.  1.
         25    2    1    2    0    0 -0.19398736849E+02 -0.34567102696E+02 -0.25569054196E+03  0.28737815991E+03  0.12504942208E+03 0.  0.
          5    1    3    3  502    0  0.98300337123E+01 -0.72088897148E+02 -0.20579970544E+03  0.21832184914E+03  0.41800000000E+01 0. -1.
         -5    1    3    3    0  502 -0.29228770561E+02  0.37521794452E+02 -0.49890836528E+02  0.69056310768E+02  0.41800000000E+01 0. -1.
        -11    1    1    2    0    0  0.53901348348E+02  0.90517628386E+01 -0.75386823573E+02  0.93115320612E+02  0.00000000000E+00 0.  1.
         11    1    1    2    0    0 -0.34502611499E+02  0.25515339858E+02 -0.63082346253E+02  0.76294463607E+02  0.00000000000E+00 0. -1.
</event>
<event>
 6    1  0.1538147E-010  0.9948444E+02  0.7561462E-02  0.1281384E+00
          2   -1    0    0  501    0  0.00000000000E+00  0.00000000000E+00  0.48632964806E+02  0.48632964806E+02  0.00000000000E+00 0. -1.
         -2   -1    0    0    0  501 -0.00000000000E+00 -0.00000000000E+00 -0.41679044848E+03  0.41679044848E+03  0.00000000000E+00 0.  1.
          5    1    1    2  502    0  0.88881977981E+02 -0.13189284455E+02 -0.89338508900E+02  0.12677856604E+03  0.41800000000E+01 0.  1.
         -5    1    1    2    0  502 -0.10979263220E+02 -0.12981754201E+02 -0.18245017863E+03  0.18328832545E+03  0.41800000000E+01 0.  1.
        -11    1    1    2    0    0 -0.45048005989E+02  0.35499804224E+02 -0.10543043551E+03  0.12002139674E+03  0.00000000000E+00 0.  1.
         11    1    1    2    0    0 -0.32854708772E+02 -0.93287655672E+01  0.90616393613E+01  0.35335125066E+02  0.00000000000E+00 0. -1.
</event>
<event>
 6    1  0.1538147E-010  0.1082428E+03  0.7561462E-02  0.1263859E+00
          2   -1    0    0  501    0  0.00000000000E+00  0.00000000000E+00  0.38687038859E+03  0.38687038859E+03  0.00000000000E+00 0. -1.
         -2   -1    0    0    0  501 -0.00000000000E+00 -0.00000000000E+00 -0.48450987551E+02  0.48450987551E+02  0.00000000000E+00 0.  1.
          5    1    1    2  502    0 -0.35604297475E+02  0.71837955995E+02  0.39873053254E+02  0.89642014123E+02  0.41800000000E+01 0.  1.
         -5    1    1    2    0  502  0.11903234427E+02  0.72795753261E+01  0.15627086846E+03  0.15694819507E+03  0.41800000000E+01 0.  1.
        -11    1    1    2    0    0  0.57946351763E+02 -0.45868549678E+02  0.67916092593E+02  0.10037080833E+03  0.00000000000E+00 0.  1.
         11    1    1    2    0    0 -0.34245288715E+02 -0.33248981643E+02  0.74359386730E+02  0.88360358614E+02  0.00000000000E+00 0. -1.
</event>
<event>
 6    1  0.1538147E-010  0.1067705E+03  0.7561462E-02  0.1266670E+00
         -1   -1    0    0    0  501 -0.00000000000E+00  0.00000000000E+00  0.93128441765E+02  0.93128441765E+02  0.00000000000E+00 0.  1.
          1   -1    0    0  501    0  0.00000000000E+00 -0.00000000000E+00 -0.37453277304E+03  0.37453277304E+03  0.00000000000E+00 0. -1.
          5    1    1    2  502    0  0.16576838891E+02 -0.60126831377E+02 -0.29043664263E+03  0.29708743363E+03  0.41800000000E+01 0.  1.
         -5    1    1    2    0  502 -0.29290876937E+02 -0.26846031878E+02 -0.11907709574E+02  0.41688497774E+02  0.41800000000E+01 0.  1.
        -11    1    1    2    0    0 -0.41974329612E+01  0.93023357525E+02  0.41186643209E+02  0.10181995417E+03  0.00000000000E+00 0.  1.
         11    1    1    2    0    0  0.16911471007E+02 -0.60504942702E+01 -0.20246622281E+02  0.27065329230E+02  0.00000000000E+00 0. -1.
</event>
<event>
 7    1  0.1538147E-010  0.9247032E+02  0.7561462E-02  0.1296977E+00
         -1   -1    0    0    0  501 -0.00000000000E+00  0.00000000000E+00  0.11033883702E+03  0.11033883702E+03  0.00000000000E+00 0.  1.
          1   -1    0    0  501    0  0.00000000000E+00 -0.00000000000E+00 -0.99740901161E+02  0.99740901161E+02  0.00000000000E+00 0. -1.
         25    2    1    2    0    0  0.94813473533E+00 -0.14223242211E+02 -0.89215065474E+01  0.12618709085E+03  0.12506154101E+03 0.  0.
          5    1    3    3  502    0  0.45165120418E+02  0.18241215009E+02 -0.39852400939E+02  0.63073895456E+02  0.41800000000E+01 0. -1.
         -5    1    3    3    0  502 -0.44216985682E+02 -0.32464457221E+02  0.30930894392E+02  0.63113195398E+02  0.41800000000E+01 0. -1.
        -11    1    1    2    0    0  0.39204697058E+02  0.11190987078E+02  0.49467187287E+01  0.41069654118E+02  0.00000000000E+00 0. -1.
         11    1    1    2    0    0 -0.40152831793E+02  0.30322551328E+01  0.14572723681E+02  0.42822993213E+02  0.00000000000E+00 0.  1.
</event>
<event>
 7    1  0.2009123E-010  0.9704544E+02  0.7561462E-02  0.1286635E+00
          4   -1    0    0  501    0  0.00000000000E+00  0.00000000000E+00  0.12328209464E+03  0.12328209464E+03  0.00000000000E+00 0. -1.
         -4   -1    0    0    0  501 -0.00000000000E+00 -0.00000000000E+00 -0.15943008904E+03  0.15943008904E+03  0.00000000000E+00 0.  1.
         25    2    1    2    0    0 -0.51073867936E+02 -0.54358234212E+02 -0.71391165348E+02  0.16221356489E+03  0.12511268734E+03 0.  0.
          5    1    3    3  502    0 -0.41216250588E+02 -0.24827493409E+02  0.29466995151E+02  0.56577026652E+02  0.41800000000E+01 0.  1.
         -5    1    3    3    0  502 -0.98576173479E+01 -0.29530740803E+02 -0.10085816050E+03  0.10563653824E+03  0.41800000000E+01 0.  1.
        -11    1    1    2    0    0  0.28977417942E+02 -0.21041136727E+02  0.17906221209E+02  0.40038143605E+02  0.00000000000E+00 0. -1.
         11    1    1    2    0    0  0.22096449994E+02  0.75399370939E+02  0.17336949740E+02  0.80460475182E+02  0.00000000000E+00 0.  1.
</event>
<event>
 7    1  0.1538147E-010  0.1380020E+03  0.7561462E-02  0.1216043E+00
         -2   -1    0    0    0  501 -0.00000000000E+00  0.00000000000E+00  0.12455831335E+03  0.12455831335E+03  0.00000000000E+00 0.  1.
          2   -1    0    0  501    0  0.00000000000E+00 -0.00000000000E+00 -0.18241280696E+03  0.18241280696E+03  0.00000000000E+00 0. -1.
         25    2    1    2    0    0 -0.18531827789E+02 -0.10081422917E+03 -0.11400388526E+02  0.16210800980E+03  0.12506838345E+03 0.  0.
          5    1    3    3  502    0 -0.37984374823E+02 -0.12480912714E+03 -0.85862795279E+01  0.13081027308E+03  0.41800000000E+01 0. -1.
         -5    1    3    3    0  502  0.19452547034E+02  0.23994897965E+02 -0.28141089982E+01  0.31297736722E+02  0.41800000000E+01 0. -1.
        -11    1    1    2    0    0 -0.14852185796E+02  0.10985842348E+02  0.20775752879E+02  0.27801224122E+02  0.00000000000E+00 0.  1.
         11    1    1    2    0    0  0.33384013586E+02  0.89828386825E+02 -0.67229857960E+02  0.11706188638E+03  0.00000000000E+00 0. -1.
</event>
<event>
 7    1  0.1538147E-010  0.8717257E+02  0.7561462E-02  0.1309847E+00
          1   -1    0    0  501    0  0.00000000000E+00  0.00000000000E+00  0.63315555712E+03  0.63315555712E+03  0.00000000000E+00 0. -1.
         -1   -1    0    0    0  501 -0.00000000000E+00 -0.00000000000E+00 -0.25519310639E+02  0.25519310639E+02  0.00000000000E+00 0.  1.
         25    2    1    2    0    0 -0.16506806956E+02 -0.63693390163E+02  0.34713639120E+03  0.37481429271E+03  0.12511097992E+03 0.  0.
          5    1    3    3  502    0  0.44740884644E+01 -0.21356548766E+02  0.31877288891E+03  0.31954615746E+03  0.41800000000E+01 0.  1.
         -5    1    3    3    0  502 -0.20980895421E+02 -0.42336841397E+02  0.28363502296E+02  0.55268135256E+02  0.41800000000E+01 0.  1.
        -11    1    1    2    0    0  0.48661504025E+02  0.26082462689E+02  0.18906557336E+03  0.19696199599E+03  0.00000000000E+00 0. -1.
         11    1    1    2    0    0 -0.32154697069E+02  0.37610927475E+02  0.71434281911E+02  0.86898579052E+02  0.00000000000E+00 0.  1.
</event>
<event>
 7    1  0.1538147E-010  0.1291927E+03  0.7561462E-02  0.1228659E+00
         -2   -1    0    0    0  501 -0.00000000000E+00  0.00000000000E+00  0.52944794021E+03  0.52944794021E+03  0.00000000000E+00 0.  1.
          2   -1    0    0  501    0  0.00000000000E+00 -0.00000000000E+00 -0.36515588957E+02  0.36515588957E+02  0.00000000000E+00 0. -1.
         25    2    1    2    0    0 -0.71870895372E+02  0.46950795348E+02  0.30380788307E+03  0.33957162526E+03  0.12505941022E+03 0.  0.
          5    1    3    3  502    0  0.64198390824E+01 -0.27818635404E+02  0.18221307838E+02  0.34125932499E+02  0.41800000000E+01 0.  1.
         -5    1    3    3    0  502 -0.78290734455E+02  0.74769430753E+02  0.28558657523E+03  0.30544569276E+03  0.41800000000E+01 0.  1.
        -11    1    1    2    0    0 -0.18150886331E+02 -0.20465452817E+02  0.23642280532E+02  0.36155868989E+02  0.00000000000E+00 0. -1.
         11    1    1    2    0    0  0.90021781703E+02 -0.26485342531E+02  0.16548218766E+03  0.19023603492E+03  0.00000000000E+00 0.  1.
</event>
<event>
 7    1  0.1538147E-010  0.8372578E+02  0.7561462E-02  0.1318799E+00
          1   -1    0    0  501    0  0.00000000000E+00  0.00000000000E+00  0.10415967371E+03  0.10415967371E+03  0.00000000000E+00 0. -1.
         -1   -1    0    0    0  501 -0.00000000000E+00 -0.00000000000E+00 -0.13359519826E+03  0.13359519826E+03  0.00000000000E+00 0.  1.
         25    2    1    2    0    0  0.44307829086E+01 -0.40323498165E+02 -0.38247058754E+02  0.13689974553E+03  0.12503234174E+03 0.  0.
          5    1    3    3  502    0 -0.33660673607E+02  0.11311751509E+02 -0.59295067586E+02  0.69241419034E+02  0.41800000000E+01 0. -1.
         -5    1    3    3    0  502  0.38091456516E+02 -0.51635249674E+02  0.21048008832E+02  0.67658326496E+02  0.41800000000E+01 0. -1.
        -11    1    1    2    0    0 -0.22735345697E+02  0.43246278342E+02  0.40952888984E+02  0.63751671747E+02  0.00000000000E+00 0. -1.
         11    1    1    2    0    0  0.18304562788E+02 -0.29227801769E+01 -0.32141354780E+02  0.37103454690E+02  0.00000000000E+00 0.  1.
</event>
<event>
 7    1  0.1538147E-010  0.1353963E+03  0.7561462E-02  0.1219661E+00
          1   -1    0    0  501    0  0.00000000000E+00  0.00000000000E+00  0.23414007572E+03  0.23414007572E+03  0.00000000000E+00 0. -1.
         -1   -1    0    0    0  501 -0.00000000000E+00 -0.00000000000E+00 -0.10283660532E+03  0.10283660532E+03  0.00000000000E+00 0.  1.
         25    2    1    2    0    0 -0.92784542534E+02 -0.43397103525E+02  0.11516012047E+03  0.19847986517E+03  0.12506047978E+03 0.  0.
          5    1    3    3  502    0  0.18326595971E+02  0.28612853094E+01 -0.12676332843E+02  0.22851977767E+02  0.41800000000E+01 0.  1.
         -5    1    3    3    0  502 -0.11111113850E+03 -0.46258388834E+02  0.12783645331E+03  0.17562788740E+03  0.41800000000E+01 0.  1.
        -11    1    1    2    0    0  0.49576672545E+02  0.66032974687E+02 -0.99640826535E+01  0.83171408247E+02  0.00000000000E+00 0.  1.
         11    1    1    2    0    0  0.43207869989E+02 -0.22635871162E+02  0.26107432587E+02  0.55325407622E+02  0.00000000000E+00 0. -1.
</event>
<event>
 6    1  0.1538147E-010  0.1071353E+03  0.7561462E-02  0.1265969E+00
         -2   -1    0    0    0  501 -0.00000000000E+00  0.00000000000E+00  0.31347904926E+02  0.31347904926E+02  0.00000000000E+00 0.  1.
          2   -1    0    0  501    0  0.00000000000E+00 -0.00000000000E+00 -0.45808436269E+03  0.45808436269E+03  0.00000000000E+00 0. -1.
          5    1    1    2  502    0 -0.41713475172E+02  0.37482527951E+02 -0.53404973103E+02  0.77553320140E+02  0.41800000000E+01 0. -1.
         -5    1    1    2    0  502  0.60550850245E+02  0.14708172374E+02 -0.21051220275E+03  0.21958049938E+03  0.41800000000E+01 0. -1.
        -11    1    1    2    0    0 -0.73212349579E+01 -0.72160561448E+02 -0.88163508700E+02  0.11416458022E+03  0.00000000000E+00 0.  1.
         11    1    1    2    0    0 -0.11516140115E+02  0.19969861123E+02 -0.74655773211E+02  0.78133867882E+02  0.00000000000E+00 0. -1.
</event>
<event>
 7    1  0.1538147E-010  0.1774971E+03  0.7561462E-02  0.1170248E+00
          1   -1    0    0  501    0  0.00000000000E+00  0.00000000000E+00  0.29968871704E+03  0.29968871704E+03  0.00000000000E+00 0. -1.
         -1   -1    0    0    0  501 -0.00000000000E+00 -0.00000000000E+00 -0.12722220206E+03  0.12722220206E+03  0.00000000000E+00 0.  1.
         25    2    1    2    0    0  0.15140368044E+03  0.44658287342E+02  0.51182882761E+02  0.20783907146E+03  0.12513974213E+03 0.  0.
          5    1    3    3  502    0  0.69581634357E+02  0.57764802430E+02 -0.26342974342E+02  0.94285740899E+02  0.41800000000E+01 0. -1.
         -5    1    3    3    0  502  0.81822046079E+02 -0.13106515088E+02  0.77525857103E+02  0.11355333056E+03  0.41800000000E+01 0. -1.
        -11    1    1    2    0    0 -0.12603034725E+03  0.45667420377E+01  0.94284154629E+02  0.15746112338E+03  0.00000000000E+00 0. -1.
         11    1    1    2    0    0 -0.25373333184E+02 -0.49225029380E+02  0.26999477588E+02  0.61610724264E+02  0.00000000000E+00 0.  1.
</event>
<event>
 7    1  0.1538147E-010  0.7997090E+02  0.7561462E-02  0.1329134E+00
         -1   -1    0    0    0  501 -0.00000000000E+00  0.00000000000E+00  0.37902286169E+02  0.37902286169E+02  0.00000000000E+00 0.  1.
          1   -1    0    0  501    0  0.00000000000E+00 -0.00000000000E+00 -0.38147126906E+03  0.38147126906E+03  0.00000000000E+00 0. -1.
         25    2    1    2    0    0 -0.30180389038E+02  0.39768503542E+02 -0.22122327003E+03  0.25900776209E+03  0.12511153370E+03 0.  0.
          5    1    3    3  502    0 -0.36920562160E+02  0.70835939392E+00 -0.31215181739E+01  0.37294047232E+02  0.41800000000E+01 0. -1.
         -5    1    3    3    0  502  0.67401731223E+01  0.39060144148E+02 -0.21810175186E+03  0.22171371486E+03  0.41800000000E+01 0. -1.
        -11    1    1    2    0    0 -0.20857871639E+02 -0.17540316816E+02 -0.14761704930E+01  0.27292720690E+02  0.00000000000E+00 0.  1.
         11    1    1    2    0    0  0.51038260677E+02 -0.22228186726E+02 -0.12086954237E+03  0.13307307245E+03  0.00000000000E+00 0. -1.
</event>
<event>
 7    1  0.1538147E-010  0.1473558E+03  0.7561462E-02  0.1203760E+00
          2   -1    0    0  501    0  0.00000000000E+00  0.00000000000E+00  0.44167036249E+03  0.44167036249E+03  0.00000000000E+00 0.  1.
         -2   -1    0    0    0  501 -0.00000000000E+00 -0.00000000000E+00 -0.71254879603E+02  0.71254879603E+02  0.00000000000E+00 0. -1.
         25    2    1    2    0    0 -0.97217580375E+02  0.82360774932E+02  0.11113194693E+03  0.21033225171E+03  0.12511910845E+03 0.  0.
          5    1    3    3  502    0 -0.17479471100E+02 -0.82616134075E+01 -0.22665501420E+02  0.30082944016E+02  0.41800000000E+01 0.  1.
         -5    1    3    3    0  502 -0.79738109274E+02  0.90622388339E+02  0.13379744835E+03  0.18024930769E+03  0.41800000000E+01 0.  1.
        -11    1    1    2    0    0  0.95390801609E+02 -0.27522898968E+02  0.18835672371E+03  0.21292057291E+03  0.00000000000E+00 0.  1.
         11    1    1    2    0    0  0.18267787657E+01 -0.54837875964E+02  0.70926812245E+02  0.89672417476E+02  0.00000000000E+00 0. -1.
</event>
<event>
 6    1  0.1538147E-010  0.8645648E+02  0.7561462E-02  0.1311667E+00
         -1   -1    0    0    0  501 -0.00000000000E+00  0.00000000000E+00  0.48686284119E+03  0.48686284119E+03  0.00000000000E+00 0.  1.
          1   -1    0    0  501    0  0.00000000000E+00 -0.00000000000E+00 -0.23507836097E+02  0.23507836097E+02  0.00000000000E+00 0. -1.
          5    1    1    2  502    0 -0.28912486865E+02  0.31221210554E+02  0.30738459923E+02  0.52659483510E+02  0.41800000000E+01 0.  1.
         -5    1    1    2    0  502  0.48417088283E+02 -0.20317204992E+02  0.24975690609E+03  0.25525083310E+03  0.41800000000E+01 0.  1.
        -11    1    1    2    0    0  0.24581881966E+02 -0.20913019581E+02  0.33963575172E+02  0.46852403860E+02  0.00000000000E+00 0. -1.
         11    1    1    2    0    0 -0.44086483385E+02  0.10009014019E+02  0.14889606391E+03  0.15560795682E+03  0.00000000000E+00 0.  1.
</event>
<event>
 7    1  0.1538147E-010  0.4974798E+03  0.7561462E-02  0.1014439E+00
          2   -1    0    0  501    0  0.00000000000E+00  0.00000000000E+00  0.12936226421E+04  0.12936226421E+04  0.00000000000E+00 0. -1.
         -2   -1    0    0    0  501 -0.00000000000E+00 -0.00000000000E+00 -0.19857339069E+03  0.19857339069E+03  0.00000000000E+00 0.  1.
         25    2    1    2    0    0 -0.46350275142E+03  0.16346320053E+03  0.63951993511E+03  0.81619960453E+03  0.12506409766E+03 0.  0.
          5    1    3    3  502    0 -0.41020008368E+03  0.12226895157E+03  0.60291510770E+03  0.73941727371E+03  0.41800000000E+01 0.  1.
         -5    1    3    3    0  502 -0.53302667741E+02  0.41194248961E+02  0.36604827412E+02  0.76782330817E+02  0.41800000000E+01 0.  1.
        -11    1    1    2    0    0  0.41037417858E+03 -0.17314484487E+03  0.40934352499E+03  0.60493654643E+03  0.00000000000E+00 0.  1.
         11    1    1    2    0    0  0.53128572835E+02  0.96816443365E+01  0.46185791324E+02  0.71059881852E+02  0.00000000000E+00 0. -1.
</event>
<event>
 7    1  0.1538147E-010  0.2027726E+03  0.7561462E-02  0.1147421E+00
          1   -1    0    0  501    0  0.00000000000E+00  0.00000000000E+00  0.79832243843E+03  0.79832243843E+03  0.00000000000E+00 0. -1.
         -1   -1    0    0    0  501 -0.00000000000E+00 -0.00000000000E+00 -0.58001115817E+02  0.58001115817E+02  0.00000000000E+00 0.  1.
         25    2    1    2    0    0  0.10198922983E+03  0.14419391508E+03  0.48993849513E+03  0.53562099198E+03  0.12512565642E+03 0.  0.
          5    1    3    3  502    0  0.67326276558E+02  0.73723158360E+00  0.18246885401E+03  0.19453978028E+03  0.41800000000E+01 0.  1.
         -5    1    3    3    0  502  0.34662953269E+02  0.14345668349E+03  0.30746964112E+03  0.34108121171E+03  0.41800000000E+01 0.  1.
        -11    1    1    2    0    0 -0.75006412588E+02 -0.44617798631E+02  0.16551024460E+03  0.18711053138E+03  0.00000000000E+00 0. -1.
         11    1    1    2    0    0 -0.26982817238E+02 -0.99576116444E+02  0.84872582875E+02  0.13359203089E+03  0.00000000000E+00 0.  1.
</event>
<event>
 7    1  0.1538147E-010  0.1107739E+03  0.7561462E-02  0.1259143E+00
         -1   -1    0    0    0  501 -0.00000000000E+00  0.00000000000E+00  0.23573606033E+02  0.23573606033E+02  0.00000000000E+00 0.  1.
          1   -1    0    0  501    0  0.00000000000E+00 -0.00000000000E+00 -0.13150768765E+04  0.13150768765E+04  0.00000000000E+00 0. -1.
         25    2    1    2    0    0  0.86926430253E+02 -0.42784764513E+01 -0.10896232198E+04  0.11002315366E+04  0.12512459128E+03 0.  0.
          5    1    3    3  502    0  0.43036496630E+02 -0.31101501398E+02 -0.94806017395E+03  0.94955516389E+03  0.41800000000E+01 0.  1.
         -5    1    3    3    0  502  0.43889933624E+02  0.26823024947E+02 -0.14156304582E+03  0.15067637268E+03  0.41800000000E+01 0.  1.
        -11    1    1    2    0    0 -0.73634595244E+01 -0.29379959763E+02 -0.10179877111E+03  0.10620919156E+03  0.00000000000E+00 0. -1.
         11    1    1    2    0    0 -0.79562970729E+02  0.33658436215E+02 -0.10008127961E+03  0.13220975443E+03  0.00000000000E+00 0.  1.
</event>
<event>
 7    1  0.1538147E-010  0.1682645E+03  0.7561462E-02  0.1179670E+00
          1   -1    0    0  501    0  0.00000000000E+00  0.00000000000E+00  0.30787043484E+02  0.30787043484E+02  0.00000000000E+00 0. -1.
         -1   -1    0    0    0  501 -0.00000000000E+00 -0.00000000000E+00 -0.11647770590E+04  0.11647770590E+04  0.00000000000E+00 0.  1.
         25    2    1    2    0    0  0.12443205243E+03 -0.61939397757E+02 -0.81804529949E+03  0.83915177828E+03  0.12513101261E+03 0.  0.
          5    1    3    3  502    0 -0.22687353608E+02  0.74983520988E+01 -0.10123303248E+03  0.10409870586E+03  0.41800000000E+01 0.  1.
         -5    1    3    3    0  502  0.14711940603E+03 -0.69437749855E+02 -0.71681226701E+03  0.73505307242E+03  0.41800000000E+01 0.  1.
        -11    1    1    2    0    0 -0.63817843513E+02  0.61920966348E+02 -0.10844147812E+03  0.14023721832E+03  0.00000000000E+00 0. -1.
         11    1    1    2    0    0 -0.60614208912E+02  0.18431408611E-01 -0.20750323789E+03  0.21617510587E+03  0.00000000000E+00 0.  1.
</event>
<event>
 6    1  0.1538147E-010  0.1403656E+03  0.7561462E-02  0.1212838E+00
         -2   -1    0    0    0  501 -0.00000000000E+00  0.00000000000E+00  0.22835274605E+02  0.22835274605E+02  0.00000000000E+00 0.  1.
          2   -1    0    0  501    0  0.00000000000E+00 -0.00000000000E+00 -0.10025443784E+04  0.10025443784E+04  0.00000000000E+00 0. -1.
          5    1    1    2  502    0 -0.11035034338E+02 -0.33348860045E+02 -0.77138942213E+02  0.84863462426E+02  0.41800000000E+01 0.  1.
         -5    1    1    2    0  502  0.10499820531E+03  0.66341625416E+02 -0.34257027168E+03  0.36441418444E+03  0.41800000000E+01 0.  1.
        -11    1    1    2    0    0 -0.80517510045E+02  0.51099992347E+01 -0.47716803924E+03  0.48394061535E+03  0.00000000000E+00 0.  1.
         11    1    1    2    0    0 -0.13445660927E+02 -0.38102764606E+02 -0.82831850703E+02  0.92161390828E+02  0.00000000000E+00 0. -1.
</event>
<event>
 7    1  0.1538147E-010  0.1260438E+03  0.7561462E-02  0.1233447E+00
          1   -1    0    0  501    0  0.00000000000E+00  0.00000000000E+00  0.24917045881E+03  0.24917045881E+03  0.00000000000E+00 0. -1.
         -1   -1    0    0    0  501 -0.00000000000E+00 -0.00000000000E+00 -0.10089155012E+03  0.10089155012E+03  0.00000000000E+00 0.  1.
         25    2    1    2    0    0  0.87736126821E+02 -0.47394714064E+02  0.15700589364E+02  0.16072320890E+03  0.12506620048E+03 0.  0.
          5    1    3    3  502    0  0.91596924771E+01  0.15394807486E+02  0.50865239102E+02  0.54089231947E+02  0.41800000000E+01 0. -1.
         -5    1    3    3    0  502  0.78576434344E+02 -0.62789521550E+02 -0.35164649737E+02  0.10663397696E+03  0.41800000000E+01 0. -1.
        -11    1    1    2    0    0 -0.78918168059E+02 -0.57735346616E+01  0.61941486078E+02  0.10048959473E+03  0.00000000000E+00 0.  1.
         11    1    1    2    0    0 -0.88179587622E+01  0.53168248726E+02  0.70636833250E+02  0.88849205291E+02  0.00000000000E+00 0. -1.
</event>
<event>
 7    1  0.1538147E-010  0.8828822E+02  0.7561462E-02  0.1307051E+00
         -2   -1    0    0    0  501 -0.00000000000E+00  0.00000000000E+00  0.24649374819E+02  0.24649374819E+02  0.00000000000E+00 0.  1.
          2   -1    0    0  501    0  0.00000000000E+00 -0.00000000000E+00 -0.47945431893E+03  0.47945431893E+03  0.00000000000E+00 0. -1.
         25    2    1    2    0    0  0.74037483477E-01 -0.16729283085E+02 -0.25564948796E+03  0.28508625081E+03  0.12505053105E+03 0.  0.
          5    1    3    3  502    0  0.49814051148E+02 -0.11478149343E+01 -0.20936684912E+03  0.21525498155E+03  0.41800000000E+01 0.  1.
         -5    1    3    3    0  502 -0.49740013665E+02 -0.15581468151E+02 -0.46282638837E+02  0.69831269263E+02  0.41800000000E+01 0.  1.
        -11    1    1    2    0    0 -0.32118912640E+02  0.25555519736E+02 -0.43320684172E+02  0.59677389481E+02  0.00000000000E+00 0.  1.
         11    1    1    2    0    0  0.32044875156E+02 -0.88262366511E+01 -0.15583477197E+03  0.15934005345E+03  0.00000000000E+00 0. -1.
</event>
<event>
 7    1  0.1538147E-010  0.1795898E+03  0.7561462E-02  0.1168201E+00
         -1   -1    0    0    0  501 -0.00000000000E+00  0.00000000000E+00  0.18183546512E+03  0.18183546512E+03  0.00000000000E+00 0.  1.
          1   -1    0    0  501    0  0.00000000000E+00 -0.00000000000E+00 -0.23785338771E+03  0.23785338771E+03  0.00000000000E+00 0. -1.
         25    2    1    2    0    0  0.87442942776E+02 -0.12247686750E+03  0.63947841616E+02  0.20588545704E+03  0.12511052577E+03 0.  0.
          5    1    3    3  502    0  0.45696044055E+02 -0.14194495115E+03  0.44147207679E+02  0.15557296020E+03  0.41800000000E+01 0.  1.
         -5    1    3    3    0  502  0.41746898720E+02  0.19468083651E+02  0.19800633937E+02  0.50312496838E+02  0.41800000000E+01 0.  1.
        -11    1    1    2    0    0 -0.94028225487E+02  0.88452022008E+02 -0.55305672914E+02  0.14044139291E+03  0.00000000000E+00 0.  1.
         11    1    1    2    0    0  0.65852827109E+01  0.34024845496E+02 -0.64660091296E+02  0.73362002875E+02  0.00000000000E+00 0. -1.
</event>
<event>
 6    1  0.1538147E-010  0.1397320E+03  0.7561462E-02  0.1213690E+00
         -2   -1    0    0    0  501 -0.00000000000E+00  0.00000000000E+00  0.27126322176E+03  0.27126322176E+03  0.00000000000E+00 0.  1.
          2   -1    0    0  501    0  0.00000000000E+00 -0.00000000000E+00 -0.10100910123E+03  0.10100910123E+03  0.00000000000E+00 0. -1.
          5    1    1    2  502    0  0.20665664876E+02  0.11134676166E+02  0.70574191648E+00  0.23854165040E+02  0.41800000000E+01 0.  1.
         -5    1    1    2    0  502 -0.10652999768E+03 -0.62003822262E+02  0.17072218324E+03  0.21061018644E+03  0.41800000000E+01 0.  1.
        -11    1    1    2    0    0  0.10321598975E+03  0.50561363961E+02  0.12639050313E+02  0.11562758174E+03  0.00000000000E+00 0. -1.
         11    1    1    2    0    0 -0.17351656950E+02  0.30778213597E+00 -0.13812854945E+02  0.22180389773E+02  0.00000000000E+00 0.  1.
</event>
<event>
 7    1  0.1538147E-010  0.9189976E+02  0.7561462E-02  0.1298315E+00
          2   -1    0    0  501    0  0.00000000000E+00  0.00000000000E+00  0.81837062979E+03  0.81837062979E+03  0.00000000000E+00 0. -1.
         -2   -1    0    0    0  501 -0.00000000000E+00 -0.00000000000E+00 -0.15693173368E+02  0.15693173368E+02  0.00000000000E+00 0.  1.
         25    2    1    2    0    0  0.27495858778E+02  0.16831453200E+02  0.49543432995E+03  0.51201113747E+03  0.12514355569E+03 0.  0.
          5    1    3    3  502    0 -0.75613254209E+01 -0.38547906089E+02  0.61228337730E+02  0.72866291570E+02  0.41800000000E+01 0. -1.
         -5    1    3    3    0  502  0.35057184199E+02  0.55379359289E+02  0.43420599222E+03  0.43914484590E+03  0.41800000000E+01 0. -1.
        -11    1    1    2    0    0 -0.76263045190E-01  0.26955440123E+02  0.31266531155E+02  0.41281927507E+02  0.00000000000E+00 0.  1.
         11    1    1    2    0    0 -0.27419595733E+02 -0.43786893323E+02  0.27597659531E+03  0.28077073818E+03  0.00000000000E+00 0. -1.
</event>
<event>
 6    1  0.1538147E-010  0.1124767E+03  0.7561462E-02  0.1256051E+00
         -1   -1    0    0    0  501 -0.00000000000E+00  0.00000000000E+00  0.32015359150E+03  0.32015359150E+03  0.00000000000E+00 0.  1.
          1   -1    0    0  501    0  0.00000000000E+00 -0.00000000000E+00 -0.54290426593E+02  0.54290426593E+02  0.00000000000E+00 0. -1.
          5    1    1    2  502    0  0.19866131724E+02 -0.70576365718E+02  0.75127433760E+02  0.10505850889E+03  0.41800000000E+01 0. -1.
         -5    1    1    2    0  502  0.54667159182E+02  0.48880849759E+02  0.87741529902E+02  0.11442851146E+03  0.41800000000E+01 0. -1.
        -11    1    1    2    0    0 -0.43906472787E+02  0.16976774001E+02  0.11298395412E+03  0.12239837865E+03  0.00000000000E+00 0.  1.
         11    1    1    2    0    0 -0.30626818118E+02  0.47187419580E+01 -0.99897528808E+01  0.32558619079E+02  0.00000000000E+00 0. -1.
</event>
<event>
 6    1  0.1538147E-010  0.1021455E+03  0.7561462E-02  0.1275848E+00
         -1   -1    0    0    0  501 -0.00000000000E+00  0.00000000000E+00  0.59161786857E+02  0.59161786857E+02  0.00000000000E+00 0.  1.
          1   -1    0    0  501    0  0.00000000000E+00 -0.00000000000E+00 -0.24043495340E+03  0.24043495340E+03  0.00000000000E+00 0. -1.
          5    1    1    2  502    0 -0.54903883918E+02  0.38236793069E+02 -0.87384023357E+01  0.67604148458E+02  0.41800000000E+01 0.  1.
         -5    1    1    2    0  502  0.72569913636E+01 -0.48490363812E+02 -0.77742733623E+02  0.92007523266E+02  0.41800000000E+01 0.  1.
        -11    1    1    2    0    0  0.25624828342E+02 -0.31640921437E+02 -0.85420344498E+01  0.41602236592E+02  0.00000000000E+00 0.  1.
         11    1    1    2    0    0  0.22022064212E+02  0.41894492180E+02 -0.86249996130E+02  0.98382831936E+02  0.00000000000E+00 0. -1.
</event>
<event>
 7    1  0.1538147E-010  0.1055370E+03  0.7561462E-02  0.1269065E+00
          1   -1    0    0  501    0  0.00000000000E+00  0.00000000000E+00  0.50190969848E+02  0.50190969848E+02  0.00000000000E+00 0. -1.
         -1   -1    0    0    0  501 -0.00000000000E+00 -0.00000000000E+00 -0.24786694785E+03  0.24786694785E+03  0.00000000000E+00 0.  1.
         25    2    1    2    0    0 -0.16556668883E+01 -0.15145268992E+02 -0.85642725257E+02  0.15237979270E+03  0.12511116828E+03 0.  0.
          5    1    3    3  502    0  0.42565501492E+02 -0.50846317856E+02 -0.30599476477E+02  0.73150326845E+02  0.41800000000E+01 0. -1.
         -5    1    3    3    0  502 -0.44221168381E+02  0.35701048864E+02 -0.55043248780E+02  0.79229465852E+02  0.41800000000E+01 0. -1.
        -11    1    1    2    0    0  0.35905527863E+02  0.33221172772E+02 -0.37331346999E+02  0.61534402737E+02  0.00000000000E+00 0. -1.
         11    1    1    2    0    0 -0.34249860975E+02 -0.18075903780E+02 -0.74701905751E+02  0.84143722268E+02  0.00000000000E+00 0.  1.
</event>
<event>
 7    1  0.1538147E-010  0.1328687E+03  0.7561462E-02  0.1223260E+00
         -3   -1    0    0    0  501 -0.00000000000E+00  0.00000000000E+00  0.65068301022E+03  0.65068301022E+03  0.00000000000E+00 0.  1.
          3   -1    0    0  501    0  0.00000000000E+00 -0.00000000000E+00 -0.33779322881E+02  0.33779322881E+02  0.00000000000E+00 0. -1.
         25    2    1    2    0    0  0.80284861246E+02 -0.10916907154E+02  0.19261406697E+03  0.24352952410E+03  0.12506643238E+03 0.  0.
          5    1    3    3  502    0  0.19681734654E+02  0.54950125365E+02  0.63289245900E+02  0.86196798103E+02  0.41800000000E+01 0.  1.
         -5    1    3    3    0  502  0.60603126592E+02 -0.65867032519E+02  0.12932482107E+03  0.15733272600E+03  0.41800000000E+01 0.  1.
        -11    1    1    2    0    0 -0.84226128200E+01  0.39418711634E+02  0.18962788498E+03  0.19386466929E+03  0.00000000000E+00 0.  1.
         11    1    1    2    0    0 -0.71862248426E+02 -0.28501804480E+02  0.23466173539E+03  0.24706813972E+03  0.00000000000E+00 0. -1.
</event>
<event>
 6    1  0.1538147E-010  0.1278180E+03  0.7561462E-02  0.1230730E+00
         -2   -1    0    0    0  501 -0.00000000000E+00  0.00000000000E+00  0.89397821776E+01  0.89397821776E+01  0.00000000000E+00 0.  1.
          2   -1    0    0  501    0  0.00000000000E+00 -0.00000000000E+00 -0.21627083757E+04  0.21627083757E+04  0.00000000000E+00 0. -1.
          5    1    1    2  502    0  0.54253211968E+02 -0.71878751395E+02 -0.11003618406E+04  0.11040487392E+04  0.41800000000E+01 0.  1.
         -5    1    1    2    0  502 -0.51471547401E+02  0.23755528205E+01 -0.48421216398E+03  0.48696391610E+03  0.41800000000E+01 0.  1.
        -11    1    1    2    0    0 -0.21951963482E+02 -0.15356441139E+02 -0.10535989418E+03  0.10871253969E+03  0.00000000000E+00 0. -1.
         11    1    1    2    0    0  0.19170298915E+02  0.84859639714E+02 -0.46383469479E+03  0.47192296289E+03  0.00000000000E+00 0.  1.
</event>
<event>
 7    1  0.1538147E-010  0.1212682E+03  0.7561462E-02  0.1241019E+00
          1   -1    0    0  501    0  0.00000000000E+00  0.00000000000E+00  0.18662703396E+02  0.18662703396E+02  0.00000000000E+00 0. -1.
         -1   -1    0    0    0  501 -0.00000000000E+00 -0.00000000000E+00 -0.11422936264E+04  0.11422936264E+04  0.00000000000E+00 0.  1.
         25    2    1    2    0    0  0.38298848421E+02 -0.46549105069E+02 -0.75770536733E+03  0.77031685991E+03  0.12504807078E+03 0.  0.
          5    1    3    3  502    0  0.37500488496E+02 -0.87205091897E+02 -0.45110970865E+03  0.46100808705E+03  0.41800000000E+01 0. -1.
         -5    1    3    3    0  502  0.79835992484E+00  0.40655986828E+02 -0.30659565868E+03  0.30930877286E+03  0.41800000000E+01 0. -1.
        -11    1    1    2    0    0 -0.60100042691E+02  0.57412690478E+01 -0.31928852427E+03  0.32494636331E+03  0.00000000000E+00 0.  1.
         11    1    1    2    0    0  0.21801194270E+02  0.40807836021E+02 -0.46637031391E+02  0.65693106559E+02  0.00000000000E+00 0. -1.
</event>
<event>
 6    1  0.1538147E-010  0.8964720E+02  0.7561462E-02  0.1303708E+00
         -2   -1    0    0    0  501 -0.00000000000E+00  0.00000000000E+00  0.22751249298E+02  0.22751249298E+02  0.00000000000E+00 0. -1.
          2   -1    0    0  501    0  0.00000000000E+00 -0.00000000000E+00 -0.90859535004E+03  0.90859535004E+03  0.00000000000E+00 0.  1.
          5    1    1    2  502    0 -0.31335586852E+02  0.91243228735E+01 -0.31778313228E+02  0.45743916130E+02  0.41800000000E+01 0.  1.
         -5    1    1    2    0  502 -0.39498456549E+02 -0.28451681314E+00 -0.64280800189E+03  0.64403401208E+03  0.41800000000E+01 0.  1.
        -11    1    1    2    0    0  0.22518565842E+02 -0.42286080376E+02 -0.14644881622E+03  0.15408586623E+03  0.00000000000E+00 0. -1.
         11    1    1    2    0    0  0.48315477558E+02  0.33446274315E+02 -0.64808969402E+02  0.87482804894E+02  0.00000000000E+00 0.  1.
</event>
<event>
 7    1  0.1538147E-010  0.1160348E+03  0.7561462E-02  0.1249786E+00
          2   -1    0    0  501    0  0.00000000000E+00  0.00000000000E+00  0.45249339999E+03  0.45249339999E+03  0.00000000000E+00 0. -1.
         -2   -1    0    0    0  501 -0.00000000000E+00 -0.00000000000E+00 -0.34341928148E+02  0.34341928148E+02  0.00000000000E+00 0.  1.
         25    2    1    2    0    0  0.53912828408E+02 -0.31549570057E+02  0.26269203537E+03  0.29757496943E+03  0.12506713615E+03 0.  0.
          5    1    3    3  502    0  0.69467797313E+02  0.18213661082E+02  0.21527414567E+03  0.22697564298E+03  0.41800000000E+01 0.  1.
         -5    1    3    3    0  502 -0.15554968905E+02 -0.49763231139E+02  0.47417889700E+02  0.70599326446E+02  0.41800000000E+01 0.  1.
        -11    1    1    2    0    0  0.24069126492E+02  0.14175612544E+02  0.44205544475E+02  0.52291500299E+02  0.00000000000E+00 0. -1.
         11    1    1    2    0    0 -0.77981954900E+02  0.17373957513E+02  0.11125389200E+03  0.13696885841E+03  0.00000000000E+00 0.  1.
</event>
<event>
 7    1  0.1538147E-010  0.2822757E+03  0.7561462E-02  0.1094452E+00
          2   -1    0    0  501    0  0.00000000000E+00  0.00000000000E+00  0.19144535714E+03  0.19144535714E+03  0.00000000000E+00 0. -1.
         -2   -1    0    0    0  501 -0.00000000000E+00 -0.00000000000E+00 -0.47409064052E+03  0.47409064052E+03  0.00000000000E+00 0.  1.
         25    2    1    2    0    0  0.20382144385E+03 -0.19113552924E+03 -0.13976903076E+03  0.33654962695E+03  0.12511713684E+03 0.  0.
          5    1    3    3  502    0  0.87611396941E+02 -0.11728182908E+03 -0.91896437601E+01  0.14674026802E+03  0.41800000000E+01 0. -1.
         -5    1    3    3    0  502  0.11621004691E+03 -0.73853700162E+02 -0.13057938700E+03  0.18980935893E+03  0.41800000000E+01 0. -1.
        -11    1    1    2    0    0 -0.19918226236E+03  0.18074856843E+03 -0.15654171254E+03  0.31120560148E+03  0.00000000000E+00 0.  1.
         11    1    1    2    0    0 -0.46391814877E+01  0.10386960809E+02  0.13665459909E+02  0.17780769225E+02  0.00000000000E+00 0. -1.
</event>
<event>
 7    1  0.1538147E-010  0.7487809E+02  0.7561462E-02  0.1344249E+00
          2   -1    0    0  501    0  0.00000000000E+00  0.00000000000E+00  0.31582407406E+03  0.31582407406E+03  0.00000000000E+00 0. -1.
         -2   -1    0    0    0  501 -0.00000000000E+00 -0.00000000000E+00 -0.50361190280E+02  0.50361190280E+02  0.00000000000E+00 0.  1.
         25    2    1    2    0    0  0.78381934484E+01 -0.63450081612E+02  0.16840135073E+03  0.21932383042E+03  0.12512624637E+03 0.  0.
          5    1    3    3  502    0 -0.13239714294E+02 -0.17044704314E+02 -0.16496093753E+02  0.27484640962E+02  0.41800000000E+01 0. -1.
         -5    1    3    3    0  502  0.21077907742E+02 -0.46405377298E+02  0.18489744448E+03  0.19183918946E+03  0.41800000000E+01 0. -1.
        -11    1    1    2    0    0  0.11704826604E+02  0.53380411940E+02  0.10893584554E+03  0.12187489400E+03  0.00000000000E+00 0. -1.
         11    1    1    2    0    0 -0.19543020053E+02  0.10069669672E+02 -0.11874312484E+02  0.24986539917E+02  0.00000000000E+00 0.  1.
</event>
<event>
 7    1  0.1538147E-010  0.1148201E+03  0.7561462E-02  0.1251895E+00
         -1   -1    0    0    0  501 -0.00000000000E+00  0.00000000000E+00  0.26641729368E+02  0.26641729368E+02  0.00000000000E+00 0.  1.
          1   -1    0    0  501    0  0.00000000000E+00 -0.00000000000E+00 -0.82620958750E+03  0.82620958750E+03  0.00000000000E+00 0. -1.
         25    2    1    2    0    0 -0.70514043666E+02  0.43169851469E+02 -0.59745468172E+03  0.61598799882E+03  0.12511295516E+03 0.  0.
          5    1    3    3  502    0 -0.10217545257E+03  0.13860401014E+02 -0.35525284000E+03  0.36993781444E+03  0.41800000000E+01 0.  1.
         -5    1    3    3    0  502  0.31661408904E+02  0.29309450455E+02 -0.24220184172E+03  0.24605018438E+03  0.41800000000E+01 0.  1.
        -11    1    1    2    0    0  0.35377275806E+02 -0.26528589036E+02 -0.16460244249E+02  0.47183231348E+02  0.00000000000E+00 0.  1.
         11    1    1    2    0    0  0.35136767859E+02 -0.16641262433E+02 -0.18565293216E+03  0.18968008670E+03  0.00000000000E+00 0. -1.
</event>
<event>
 7    1  0.1538147E-010  0.1106306E+03  0.7561462E-02  0.1259407E+00
         -4   -1    0    0    0  501 -0.00000000000E+00  0.00000000000E+00  0.53430991459E+02  0.53430991459E+02  0.00000000000E+00 0.  1.
          4   -1    0    0  501    0  0.00000000000E+00 -0.00000000000E+00 -0.25196863774E+03  0.25196863774E+03  0.00000000000E+00 0. -1.
         25    2    1    2    0    0 -0.12741671552E+02  0.38229351225E+02 -0.99054245113E+02  0.16453635918E+03  0.12504653745E+03 0.  0.
          5    1    3    3  502    0  0.17143324220E+02 -0.39043541093E+02 -0.12464772760E+02  0.44622131575E+02  0.41800000000E+01 0.  1.
         -5    1    3    3    0  502 -0.29884995772E+02  0.77272892318E+02 -0.86589472353E+02  0.11991422760E+03  0.41800000000E+01 0.  1.
        -11    1    1    2    0    0  0.46900992031E+02 -0.39517761803E+01 -0.69490759119E+02  0.83930240030E+02  0.00000000000E+00 0. -1.
         11    1    1    2    0    0 -0.34159320479E+02 -0.34277575045E+02 -0.29992642046E+02  0.56933029986E+02  0.00000000000E+00 0.  1.
</event>
<event>
 7    1  0.1538147E-010  0.9340855E+02  0.7561462E-02  0.1294801E+00
          2   -1    0    0  501    0  0.00000000000E+00  0.00000000000E+00  0.67589170392E+03  0.67589170392E+03  0.00000000000E+00 0. -1.
         -2   -1    0    0    0  501 -0.00000000000E+00 -0.00000000000E+00 -0.26204001775E+02  0.26204001775E+02  0.00000000000E+00 0.  1.
         25    2    1    2    0    0 -0.56757075776E+02  0.16892281849E+02  0.24470336333E+03  0.28113983679E+03  0.12511257719E+03 0.  0.
          5    1    3    3  502    0  0.17923640360E+01  0.13334091838E+02 -0.11554824329E+02  0.18220783168E+02  0.41800000000E+01 0.  1.
         -5    1    3    3    0  502 -0.58549439812E+02  0.35581900105E+01  0.25625818765E+03  0.26291905362E+03  0.41800000000E+01 0.  1.
        -11    1    1    2    0    0  0.74563083263E+02 -0.40107033436E+02  0.27594828505E+03  0.28864456263E+03  0.00000000000E+00 0. -1.
         11    1    1    2    0    0 -0.17806007487E+02  0.23214751587E+02  0.12903605378E+03  0.13231130628E+03  0.00000000000E+00 0.  1.
</event>
<event>
 6    1  0.1538147E-010  0.9944085E+02  0.7561462E-02  0.1281476E+00
          1   -1    0    0  501    0  0.00000000000E+00  0.00000000000E+00  0.51736717829E+03  0.51736717829E+03  0.00000000000E+00 0. -1.
         -1   -1    0    0    0  501 -0.00000000000E+00 -0.00000000000E+00 -0.30486585443E+02  0.30486585443E+02  0.00000000000E+00 0.  1.
          5    1    1    2  502    0 -0.19279055340E+02 -0.24223555710E+02  0.24673102652E+02  0.39808253171E+02  0.41800000000E+01 0. -1.
         -5    1    1    2    0  502  0.59421509553E+02  0.38325723938E+02  0.35934400317E+03  0.36625859980E+03  0.41800000000E+01 0. -1.
        -11    1    1    2    0    0  0.73686357444E+01 -0.41375520182E+02  0.53601171770E+02  0.68112525120E+02  0.00000000000E+00 0. -1.
         11    1    1    2    0    0 -0.47511089958E+02  0.27273351954E+02  0.49262315259E+02  0.73674385647E+02  0.00000000000E+00 0.  1.
</event>
<event>
 6    1  0.1538147E-010  0.4005307E+03  0.7561462E-02  0.1043596E+00
         -1   -1    0    0    0  501 -0.00000000000E+00  0.00000000000E+00  0.26574436274E+03  0.26574436274E+03  0.00000000000E+00 0.  1.
          1   -1    0    0  501    0  0.00000000000E+00 -0.00000000000E+00 -0.16765503785E+04  0.16765503785E+04  0.00000000000E+00 0. -1.
          5    1    1    2  502    0  0.29268341246E+02 -0.35445102053E+02 -0.11579080405E+03  0.12465140898E+03  0.41800000000E+01 0.  1.
         -5    1    1    2    0  502  0.35975638513E+03  0.11374981959E+02 -0.13677108235E+04  0.14142858325E+04  0.41800000000E+01 0.  1.
        -11    1    1    2    0    0 -0.31457556089E+03  0.44586877880E+02  0.73577891168E+02  0.32612801054E+03  0.00000000000E+00 0. -1.
         11    1    1    2    0    0 -0.74449165479E+02 -0.20516757787E+02 -0.88227938932E+00  0.77229489235E+02  0.00000000000E+00 0.  1.
</event>
<event>
 7    1  0.1538147E-010  0.1684378E+03  0.7561462E-02  0.1179487E+00
         -2   -1    0    0    0  501 -0.00000000000E+00  0.00000000000E+00  0.16227589433E+03  0.16227589433E+03  0.00000000000E+00 0.  1.
          2   -1    0    0  501    0  0.00000000000E+00 -0.00000000000E+00 -0.19020431498E+03  0.19020431498E+03  0.00000000000E+00 0. -1.
         25    2    1    2    0    0  0.50202558772E+02 -0.13500413933E+03 -0.25819191195E+02  0.19249320947E+03  0.12506234651E+03 0.  0.
          5    1    3    3  502    0 -0.29794643743E+02  0.20299118420E+01 -0.14220058589E+02  0.33339523154E+02  0.41800000000E+01 0. -1.
         -5    1    3    3    0  502  0.79997202515E+02 -0.13703405118E+03 -0.11599132606E+02  0.15915368632E+03  0.41800000000E+01 0. -1.
        -11    1    1    2    0    0 -0.26819596474E+02  0.29260401723E+02 -0.28077376602E+02  0.48618936032E+02  0.00000000000E+00 0. -1.
         11    1    1    2    0    0 -0.23382962298E+02  0.10574373761E+03  0.25968147146E+02  0.11136806381E+03  0.00000000000E+00 0.  1.
</event>
<event>
 7    1  0.1538147E-010  0.2708401E+03  0.7561462E-02  0.1100800E+00
         -1   -1    0    0    0  501 -0.00000000000E+00  0.00000000000E+00  0.29234217845E+03  0.29234217845E+03  0.00000000000E+00 0.  1.
          1   -1    0    0  501    0  0.00000000000E+00 -0.00000000000E+00 -0.36954149824E+03  0.36954149824E+03  0.00000000000E+00 0. -1.
         25    2    1    2    0    0  0.16668154196E+03 -0.21210149926E+03 -0.19267176958E+03  0.35429696078E+03  0.12503656748E+03 0.  0.
          5    1    3    3  502    0  0.61476173435E+02 -0.81591698026E+02 -0.46318946370E+01  0.10234965527E+03  0.41800000000E+01 0. -1.
         -5    1    3    3    0  502  0.10520536853E+03 -0.13050980124E+03 -0.18803987494E+03  0.25194730551E+03  0.41800000000E+01 0. -1.
        -11    1    1    2    0    0 -0.10888432804E+03  0.11229400457E+03  0.11167419005E+03  0.19218965914E+03  0.00000000000E+00 0.  1.
         11    1    1    2    0    0 -0.57797213920E+02  0.99807494694E+02  0.37982597390E+01  0.11539705677E+03  0.00000000000E+00 0. -1.
</event>
<event>
 6    1  0.1538147E-010  0.1484643E+03  0.7561462E-02  0.1202373E+00
         -2   -1    0    0    0  501 -0.00000000000E+00  0.00000000000E+00  0.86139202035E+02  0.86139202035E+02  0.00000000000E+00 0.  1.
          2   -1    0    0  501    0  0.00000000000E+00 -0.00000000000E+00 -0.28320649860E+03  0.28320649860E+03  0.00000000000E+00 0. -1.
          5    1    1    2  502    0  0.90373191782E+02 -0.63118925467E+02 -0.25880942069E+02  0.11330758186E+03  0.41800000000E+01 0.  1.
         -5    1    1    2    0  502  0.14177086272E+02  0.49852183070E+02 -0.26692422657E+02  0.58448163011E+02  0.41800000000E+01 0.  1.
        -11    1    1    2    0    0 -0.59193935936E+02 -0.34691120784E+02 -0.78330935189E+02  0.10413035734E+03  0.00000000000E+00 0.  1.
         11    1    1    2    0    0 -0.45356342118E+02  0.47957863181E+02 -0.66162996653E+02  0.93459598422E+02  0.00000000000E+00 0. -1.
</event>
<event>
 7    1  0.1538147E-010  0.1110813E+03  0.7561462E-02  0.1258581E+00
          2   -1    0    0  501    0  0.00000000000E+00  0.00000000000E+00  0.70876434470E+03  0.70876434470E+03  0.00000000000E+00 0. -1.
         -2   -1    0    0    0  501 -0.00000000000E+00 -0.00000000000E+00 -0.17703469534E+02  0.17703469534E+02  0.00000000000E+00 0.  1.
         25    2    1    2    0    0 -0.24223178642E+02  0.94164590670E+01  0.38064971414E+03  0.40153422658E+03  0.12514031388E+03 0.  0.
          5    1    3    3  502    0 -0.63176575109E+02 -0.31508054564E+02  0.22765786358E+03  0.23838962309E+03  0.41800000000E+01 0.  1.
         -5    1    3    3    0  502  0.38953396467E+02  0.40924513631E+02  0.15299185056E+03  0.16314460349E+03  0.41800000000E+01 0.  1.
        -11    1    1    2    0    0  0.14921534629E+02  0.40942392587E+02  0.16926708362E+03  0.17478637620E+03  0.00000000000E+00 0.  1.
         11    1    1    2    0    0  0.93016440129E+01 -0.50358851654E+02  0.14114407741E+03  0.15014721146E+03  0.00000000000E+00 0. -1.
</event>
<event>
 7    1  0.1538147E-010  0.9693227E+02  0.7561462E-02  0.1286882E+00
         -1   -1    0    0    0  501 -0.00000000000E+00  0.00000000000E+00  0.35957127688E+02  0.35957127688E+02  0.00000000000E+00 0.  1.
          1   -1    0    0  501    0  0.00000000000E+00 -0.00000000000E+00 -0.35892302751E+03  0.35892302751E+03  0.00000000000E+00 0. -1.
         25    2    1    2    0    0  0.21072454301E+02 -0.15600257908E+02 -0.20554944250E+03  0.24203291558E+03  0.12506775176E+03 0.  0.
          5    1    3    3  502    0  0.58698305104E+02 -0.43565743165E+02 -0.16256158795E+03  0.17828967238E+03  0.41800000000E+01 0. -1.
         -5    1    3    3    0  502 -0.37625850803E+02  0.27965485256E+02 -0.42987854556E+02  0.63743243200E+02  0.41800000000E+01 0. -1.
        -11    1    1    2    0    0 -0.44763583841E+02  0.20744161709E+02 -0.11872586435E+03  0.12856877361E+03  0.00000000000E+00 0. -1.
         11    1    1    2    0    0  0.23691129540E+02 -0.51439038009E+01  0.13094070249E+01  0.24278466013E+02  0.00000000000E+00 0.  1.
</event>
<event>
 6    1  0.1538147E-010  0.9146522E+02  0.7561462E-02  0.1299342E+00
         -1   -1    0    0    0  501 -0.00000000000E+00  0.00000000000E+00  0.26984925218E+03  0.26984925218E+03  0.00000000000E+00 0.  1.
          1   -1    0    0  501    0  0.00000000000E+00 -0.00000000000E+00 -0.59979597526E+02  0.59979597526E+02  0.00000000000E+00 0. -1.
          5    1    1    2  502    0  0.10421380634E+02 -0.19908432854E+01 -0.31500687455E+02  0.33501258804E+02  0.41800000000E+01 0.  1.
         -5    1    1    2    0  502 -0.59488898021E+02 -0.27210927436E+02  0.10125119503E+03  0.12061774519E+03  0.41800000000E+01 0.  1.
        -11    1    1    2    0    0 -0.10365719521E+02  0.43607403568E+02  0.56744858483E+02  0.72312051219E+02  0.00000000000E+00 0.  1.
         11    1    1    2    0    0  0.59433236909E+02 -0.14405632847E+02  0.83374288592E+02  0.10339779449E+03  0.00000000000E+00 0. -1.
</event>
<event>
 6    1  0.1538147E-010  0.1193199E+03  0.7561462E-02  0.1244223E+00
         -1   -1    0    0    0  501 -0.00000000000E+00  0.00000000000E+00  0.22903372459E+03  0.22903372459E+03  0.00000000000E+00 0.  1.
          1   -1    0    0  501    0  0.00000000000E+00 -0.00000000000E+00 -0.73834842992E+02  0.73834842992E+02  0.00000000000E+00 0. -1.
          5    1    1    2  502    0 -0.20881797603E+02  0.95187921199E+02  0.44300735205E+02  0.10712990877E+03  0.41800000000E+01 0.  1.
         -5    1    1    2    0  502  0.28857977898E+02 -0.26927972852E+02  0.51471313237E+02  0.64997439154E+02  0.41800000000E+01 0.  1.
        -11    1    1    2    0    0  0.28433682412E+02 -0.56319168374E+02  0.66621509246E+02  0.91753738431E+02  0.00000000000E+00 0.  1.
         11    1    1    2    0    0 -0.36409862706E+02 -0.11940779973E+02 -0.71946760875E+01  0.38987481230E+02  0.00000000000E+00 0. -1.
</event>
<event>
 6    1  0.1538147E-010  0.1042936E+03  0.7561462E-02  0.1271518E+00
         -2   -1    0    0    0  501 -0.00000000000E+00  0.00000000000E+00  0.73762836673E+02  0.73762836673E+02  0.00000000000E+00 0.  1.
          2   -1    0    0  501    0  0.00000000000E+00 -0.00000000000E+00 -0.31074410840E+03  0.31074410840E+03  0.00000000000E+00 0. -1.
          5    1    1    2  502    0  0.70397747152E+02  0.20286422753E+02 -0.13642968628E+03  0.15491259940E+03  0.41800000000E+01 0.  1.
         -5    1    1    2    0  502  0.31437608513E+02 -0.55892930429E+01  0.25831517415E+02  0.41283206243E+02  0.41800000000E+01 0.  1.
        -11    1    1    2    0    0 -0.62125926989E+02 -0.11329596637E+02 -0.83111883093E+01  0.63695105112E+02  0.00000000000E+00 0.  1.
         11    1    1    2    0    0 -0.39709428676E+02 -0.33675330737E+01 -0.11807191455E+03  0.12461603432E+03  0.00000000000E+00 0. -1.
</event>
<event>
 7    1  0.1538147E-010  0.1244600E+03  0.7561462E-02  0.1235916E+00
         -2   -1    0    0    0  501 -0.00000000000E+00  0.00000000000E+00  0.24576020929E+02  0.24576020929E+02  0.00000000000E+00 0.  1.
          2   -1    0    0  501    0  0.00000000000E+00 -0.00000000000E+00 -0.12129430876E+04  0.12129430876E+04  0.00000000000E+00 0. -1.
         25    2    1    2    0    0 -0.53056355999E+02  0.42501753747E+02 -0.10317565406E+04  0.10415380911E+04  0.12513456862E+03 0.  0.
          5    1    3    3  502    0  0.22311951589E+02  0.59737255310E+02 -0.53087993874E+03  0.53471239430E+03  0.41800000000E+01 0. -1.
         -5    1    3    3    0  502 -0.75368307588E+02 -0.17235501563E+02 -0.50087660185E+03  0.50682569684E+03  0.41800000000E+01 0. -1.
        -11    1    1    2    0    0  0.63006977581E+02 -0.60290469775E+02 -0.15175678387E+03  0.17502840176E+03  0.00000000000E+00 0. -1.
         11    1    1    2    0    0 -0.99506215818E+01  0.17788716027E+02 -0.48537421858E+01  0.20952615612E+02  0.00000000000E+00 0.  1.
</event>
<event>
 7    1  0.1538147E-010  0.1293682E+03  0.7561462E-02  0.1228396E+00
          1   -1    0    0  501    0  0.00000000000E+00  0.00000000000E+00  0.50957963475E+03  0.50957963475E+03  0.00000000000E+00 0. -1.
         -1   -1    0    0    0  501 -0.00000000000E+00 -0.00000000000E+00 -0.34958121919E+02  0.34958121919E+02  0.00000000000E+00 0.  1.
         25    2    1    2    0    0 -0.17811199424E+02 -0.70832336513E+02  0.20683782932E+03  0.25250220020E+03  0.12506404258E+03 0.  0.
          5    1    3    3  502    0  0.50785985137E+02 -0.49892258746E+02  0.12216112505E+03  0.14145411497E+03  0.41800000000E+01 0.  1.
         -5    1    3    3    0  502 -0.68597184561E+02 -0.20940077768E+02  0.84676704270E+02  0.11104808523E+03  0.41800000000E+01 0.  1.
        -11    1    1    2    0    0 -0.36655854562E+02  0.24728176221E+02  0.12097395048E+03  0.12880151811E+03  0.00000000000E+00 0.  1.
         11    1    1    2    0    0  0.54467053986E+02  0.46104160292E+02  0.14680973303E+03  0.16323403835E+03  0.00000000000E+00 0. -1.
</event>
<event>
 7    1  0.1538147E-010  0.1291333E+03  0.7561462E-02  0.1228747E+00
          2   -1    0    0  501    0  0.00000000000E+00  0.00000000000E+00  0.96112195263E+02  0.96112195263E+02  0.00000000000E+00 0. -1.
         -2   -1    0    0    0  501 -0.00000000000E+00 -0.00000000000E+00 -0.19653066635E+03  0.19653066635E+03  0.00000000000E+00 0.  1.
         25    2    1    2    0    0  0.38104485630E+02 -0.72521041656E+02 -0.50923463576E+02  0.15793109633E+03  0.12505110450E+03 0.  0.
          5    1    3    3  502    0  0.27134219294E+02  0.32699539061E+02 -0.22721108929E+02  0.48365761676E+02  0.41800000000E+01 0. -1.
         -5    1    3    3    0  502  0.10970266336E+02 -0.10522058072E+03 -0.28202354647E+02  0.10956533465E+03  0.41800000000E+01 0. -1.
        -11    1    1    2    0    0 -0.49583803634E+02  0.16118810026E+02  0.87017573421E+01  0.52859154366E+02  0.00000000000E+00 0. -1.
         11    1    1    2    0    0  0.11479318004E+02  0.56402231630E+02 -0.58196764849E+02  0.81852610915E+02  0.00000000000E+00 0.  1.
</event>
<event>
 7    1  0.1538147E-010  0.1388673E+03  0.7561462E-02  0.1214861E+00
         -1   -1    0    0    0  501 -0.00000000000E+00  0.00000000000E+00  0.39841490161E+03  0.39841490161E+03  0.00000000000E+00 0.  1.
          1   -1    0    0  501    0  0.00000000000E+00 -0.00000000000E+00 -0.11851029214E+03  0.11851029214E+03  0.00000000000E+00 0. -1.
         25    2    1    2    0    0  0.94104034221E+00  0.11228863379E+03  0.32495608036E+03  0.36587238915E+03  0.12512604902E+03 0.  0.
          5    1    3    3  502    0  0.35874806454E+02  0.76177225454E+01  0.20974093910E+02  0.42454875459E+02  0.41800000000E+01 0. -1.
         -5    1    3    3    0  502 -0.34933766112E+02  0.10467091125E+03  0.30398198645E+03  0.32341751369E+03  0.41800000000E+01 0. -1.
        -11    1    1    2    0    0 -0.27215822461E+02 -0.18279052861E+02 -0.42147926593E+02  0.53397307815E+02  0.00000000000E+00 0. -1.
         11    1    1    2    0    0  0.26274782119E+02 -0.94009580930E+02 -0.29035442931E+01  0.97655496781E+02  0.00000000000E+00 0.  1.
</event>
<event>
 7    1  0.1538147E-010  0.1127099E+03  0.7561462E-02  0.1255632E+00
         -2   -1    0    0    0  501 -0.00000000000E+00  0.00000000000E+00  0.55671528098E+02  0.55671528098E+02  0.00000000000E+00 0. -1.
          2   -1    0    0  501    0  0.00000000000E+00 -0.00000000000E+00 -0.44307609888E+03  0.44307609888E+03  0.00000000000E+00 0.  1.
         25    2    1    2    0    0  0.47000968424E+02 -0.69474580432E+02 -0.89539804690E+02  0.17523821444E+03  0.12512092878E+03 0.  0.
          5    1    3    3  502    0 -0.14709294327E+02 -0.74521323854E+02 -0.13789531829E+02  0.77313741577E+02  0.41800000000E+01 0.  1.
         -5    1    3    3    0  502  0.61710262751E+02  0.50467434216E+01 -0.75750272861E+02  0.97924472868E+02  0.41800000000E+01 0.  1.
        -11    1    1    2    0    0 -0.44436104839E+02  0.47046875027E+02 -0.29345870440E+03  0.30050954569E+03  0.00000000000E+00 0.  1.
         11    1    1    2    0    0 -0.25648635849E+01  0.22427705406E+02 -0.44060616871E+01  0.22999866838E+02  0.00000000000E+00 0. -1.
</event>
<event>
 6    1  0.1538147E-010  0.1243671E+03  0.7561462E-02  0.1236062E+00
         -1   -1    0    0    0  501 -0.00000000000E+00  0.00000000000E+00  0.90935260589E+02  0.90935260589E+02  0.00000000000E+00 0.  1.
          1   -1    0    0  501    0  0.00000000000E+00 -0.00000000000E+00 -0.22936173393E+03  0.22936173393E+03  0.00000000000E+00 0. -1.
          5    1    1    2  502    0 -0.81452922429E+02 -0.71560979138E+02 -0.95960889335E+02  0.14484998098E+03  0.41800000000E+01 0.  1.
         -5    1    1    2    0  502  0.38932642245E+02 -0.99063023708E+01 -0.60651300942E+01  0.40842914463E+02  0.41800000000E+01 0.  1.
        -11    1    1    2    0    0  0.49990486551E+02  0.73785353005E+02  0.74758539681E+01  0.89438333260E+02  0.00000000000E+00 0.  1.
         11    1    1    2    0    0 -0.74702063667E+01  0.76819285032E+01 -0.43876307877E+02  0.45165765815E+02  0.00000000000E+00 0. -1.
</event>
<event>
 6    1  0.1538147E-010  0.1516173E+03  0.7561462E-02  0.1198500E+00
          2   -1    0    0  501    0  0.00000000000E+00  0.00000000000E+00  0.15042254632E+03  0.15042254632E+03  0.00000000000E+00 0.  1.
         -2   -1    0    0    0  501 -0.00000000000E+00 -0.00000000000E+00 -0.17961645541E+03  0.17961645541E+03  0.00000000000E+00 0. -1.
          5    1    1    2  502    0  0.38096494163E+02 -0.38129918231E+02 -0.12168948693E+02  0.55414702418E+02  0.41800000000E+01 0.  1.
         -5    1    1    2    0  502 -0.99767909715E+02 -0.63470073267E+02 -0.24101997594E+02  0.12074959502E+03  0.41800000000E+01 0.  1.
        -11    1    1    2    0    0  0.65481570814E+02  0.59178410441E+02 -0.34112773888E+02  0.94623473414E+02  0.00000000000E+00 0. -1.
         11    1    1    2    0    0 -0.38101552622E+01  0.42421581057E+02  0.41189811088E+02  0.59251230873E+02  0.00000000000E+00 0.  1.
</event>
<event>
 7    1  0.1538147E-010  0.1089210E+03  0.7561462E-02  0.1262581E+00
          1   -1    0    0  501    0  0.00000000000E+00  0.00000000000E+00  0.60726253052E+03  0.60726253052E+03  0.00000000000E+00 0. -1.
         -1   -1    0    0    0  501 -0.00000000000E+00 -0.00000000000E+00 -0.22264183896E+02  0.22264183896E+02  0.00000000000E+00 0.  1.
         25    2    1    2    0    0 -0.36990156522E+02 -0.21306235663E+02  0.34275442861E+03  0.36736612710E+03  0.12512012486E+03 0.  0.
          5    1    3    3  502    0 -0.87119563981E+01  0.46900680123E+02  0.70347938600E+02  0.85099217655E+02  0.41800000000E+01 0. -1.
         -5    1    3    3    0  502 -0.28278200124E+02 -0.68206915786E+02  0.27240649001E+03  0.28226690944E+03  0.41800000000E+01 0. -1.
        -11    1    1    2    0    0  0.76949525182E+01  0.52585659609E+02  0.17050556602E+03  0.17859622598E+03  0.00000000000E+00 0.  1.
         11    1    1    2    0    0  0.29295204004E+02 -0.31279423945E+02  0.71738351992E+02  0.83564361342E+02  0.00000000000E+00 0. -1.
</event>
<event>
 6    1  0.1538147E-010  0.2703603E+03  0.7561462E-02  0.1101074E+00
         -1   -1    0    0    0  501 -0.00000000000E+00  0.00000000000E+00  0.29650895184E+03  0.29650895184E+03  0.00000000000E+00 0.  1.
          1   -1    0    0  501    0  0.00000000000E+00 -0.00000000000E+00 -0.26338767637E+03  0.26338767637E+03  0.00000000000E+00 0. -1.
          5    1    1    2  502    0 -0.20537741341E+03  0.12890140722E+03 -0.50175737844E+01  0.24256566775E+03  0.41800000000E+01 0. -1.
         -5    1    1    2    0  502  0.82471521569E+00  0.26793713650E+02  0.35695725105E+02  0.44835704935E+02  0.41800000000E+01 0. -1.
        -11    1    1    2    0    0  0.29429463321E+02  0.88982557300E+01 -0.85522158820E+01  0.31912578443E+02  0.00000000000E+00 0. -1.
         11    1    1    2    0    0  0.17512323487E+03 -0.16459337660E+03  0.10995340029E+02  0.24058267709E+03  0.00000000000E+00 0.  1.
</event>
<event>
 7    1  0.1538147E-010  0.9997553E+02  0.7561462E-02  0.1280347E+00
          2   -1    0    0  501    0  0.00000000000E+00  0.00000000000E+00  0.37783313362E+03  0.37783313362E+03  0.00000000000E+00 0. -1.
         -2   -1    0    0    0  501 -0.00000000000E+00 -0.00000000000E+00 -0.44944629673E+02  0.44944629673E+02  0.00000000000E+00 0.  1.
         25    2    1    2    0    0  0.30264401321E+02 -0.62880674529E+02  0.21225818805E+03  0.25605330720E+03  0.12505936398E+03 0.  0.
          5    1    3    3  502    0  0.43841173699E+02 -0.31807107603E+02  0.15700763642E+02  0.56548448116E+02  0.41800000000E+01 0. -1.
         -5    1    3    3    0  502 -0.13576772378E+02 -0.31073566926E+02  0.19655742441E+03  0.19950485909E+03  0.41800000000E+01 0. -1.
        -11    1    1    2    0    0  0.27468094904E+01  0.75917362589E+02  0.61415286840E+02  0.97687401248E+02  0.00000000000E+00 0. -1.
         11    1    1    2    0    0 -0.33011210811E+02 -0.13036688060E+02  0.59215029056E+02  0.69037054840E+02  0.00000000000E+00 0.  1.
</event>
<event>
 7    1  0.1538147E-010  0.9727202E+02  0.7561462E-02  0.1286139E+00
          2   -1    0    0  501    0  0.00000000000E+00  0.00000000000E+00  0.74978904834E+03  0.74978904834E+03  0.00000000000E+00 0. -1.
         -2   -1    0    0    0  501 -0.00000000000E+00 -0.00000000000E+00 -0.23987050899E+02  0.23987050899E+02  0.00000000000E+00 0.  1.
         25    2    1    2    0    0  0.22607155886E+02 -0.75784515380E+02  0.41024602601E+03  0.43613309799E+03  0.12512354310E+03 0.  0.
          5    1    3    3  502    0  0.12056132790E+02 -0.14488617451E+02  0.34627182345E+03  0.34680962860E+03  0.41800000000E+01 0.  1.
         -5    1    3    3    0  502  0.10551023096E+02 -0.61295897929E+02  0.63974202558E+02  0.89323469392E+02  0.41800000000E+01 0.  1.
        -11    1    1    2    0    0 -0.58469156289E+01 -0.17329585190E+02  0.10804092198E+03  0.10957801681E+03  0.00000000000E+00 0. -1.
         11    1    1    2    0    0 -0.16760240257E+02  0.93114100570E+02  0.20751504945E+03  0.22806498444E+03  0.00000000000E+00 0.  1.
</event>
<event>
 6    1  0.1538147E-010  0.1178257E+03  0.7561462E-02  0.1246728E+00
          1   -1    0    0  501    0  0.00000000000E+00  0.00000000000E+00  0.78769940226E+03  0.78769940226E+03  0.00000000000E+00 0. -1.
         -1   -1    0    0    0  501 -0.00000000000E+00 -0.00000000000E+00 -0.24100403302E+02  0.24100403302E+02  0.00000000000E+00 0.  1.
          5    1    1    2  502    0  0.25555335658E+02  0.41495260247E+02  0.72245971211E+02  0.87246114869E+02  0.41800000000E+01 0. -1.
         -5    1    1    2    0  502  0.53392375499E+02 -0.71995748302E+02  0.34648227248E+03  0.35791279815E+03  0.41800000000E+01 0. -1.
        -11    1    1    2    0    0 -0.22247621886E+02  0.33516403650E+02  0.40736675909E+02  0.57251923612E+02  0.00000000000E+00 0.  1.
         11    1    1    2    0    0 -0.56700089271E+02 -0.30159155946E+01  0.30413407936E+03  0.30938896893E+03  0.00000000000E+00 0. -1.
</event>
<event>
 7    1  0.1538147E-010  0.1396373E+03  0.7561462E-02  0.1213818E+00
         -1   -1    0    0    0  501 -0.00000000000E+00  0.00000000000E+00  0.20634273100E+02  0.20634273100E+02  0.00000000000E+00 0.  1.
          1   -1    0    0  501    0  0.00000000000E+00 -0.00000000000E+00 -0.15698801029E+04  0.15698801029E+04  0.00000000000E+00 0. -1.
         25    2    1    2    0    0 -0.44623359221E+02 -0.93160322234E+02 -0.12592021584E+04  0.12696123355E+04  0.12512120860E+03 0.  0.
          5    1    3    3  502    0 -0.56895417112E+02 -0.11976046285E+03 -0.10254337695E+04  0.10339785032E+04  0.41800000000E+01 0. -1.
         -5    1    3    3    0  502  0.12272057891E+02  0.26600140617E+02 -0.23376838894E+03  0.23563383236E+03  0.41800000000E+01 0. -1.
        -11    1    1    2    0    0 -0.10173670031E+02  0.37760527355E+02 -0.19057399516E+03  0.19454513261E+03  0.00000000000E+00 0.  1.
         11    1    1    2    0    0  0.54797029252E+02  0.55399794879E+02 -0.99469676220E+02  0.12635690790E+03  0.00000000000E+00 0. -1.
</event>
<event>
 7    1  0.1538147E-010  0.1064757E+03  0.7561462E-02  0.1267239E+00
          1   -1    0    0  501    0  0.00000000000E+00  0.00000000000E+00  0.79665957770E+02  0.79665957770E+02  0.00000000000E+00 0. -1.
         -1   -1    0    0    0  501 -0.00000000000E+00 -0.00000000000E+00 -0.22043475698E+03  0.22043475698E+03  0.00000000000E+00 0.  1.
         25    2    1    2    0    0  0.70960411970E+02 -0.29048473934E+02 -0.78137065020E+02  0.16620478421E+03  0.12505772851E+03 0.  0.
          5    1    3    3  502    0 -0.12886001900E+02 -0.43429136860E+02  0.67062651015E+01  0.45984620962E+02  0.41800000000E+01 0. -1.
         -5    1    3    3    0  502  0.83846413870E+02  0.14380662926E+02 -0.84843330122E+02  0.12022016325E+03  0.41800000000E+01 0. -1.
        -11    1    1    2    0    0 -0.50897283197E+02  0.52641168150E+01 -0.82426205291E+02  0.97017130865E+02  0.00000000000E+00 0.  1.
         11    1    1    2    0    0 -0.20063128773E+02  0.23784357119E+02  0.19794471098E+02  0.36878799679E+02  0.00000000000E+00 0. -1.
</event>
<event>
 7    1  0.1538147E-010  0.3654834E+03  0.7561462E-02  0.1056434E+00
         -2   -1    0    0    0  501 -0.00000000000E+00  0.00000000000E+00  0.13630794050E+03  0.13630794050E+03  0.00000000000E+00 0.  1.
          2   -1    0    0  501    0  0.00000000000E+00 -0.00000000000E+00 -0.14207717960E+04  0.14207717960E+04  0.00000000000E+00 0. -1.
         25    2    1    2    0    0  0.34202851313E+03  0.10261964154E+03 -0.23657419249E+03  0.44624538666E+03  0.12511315655E+03 0.  0.
          5    1    3    3  502    0  0.16394857849E+03  0.10019275811E+03 -0.16831451501E+03  0.25547010301E+03  0.41800000000E+01 0. -1.
         -5    1    3    3    0  502  0.17807993464E+03  0.24268834288E+01 -0.68259677482E+02  0.19077528366E+03  0.41800000000E+01 0. -1.
        -11    1    1    2    0    0 -0.11872206634E+03 -0.61028119580E+02 -0.50490088082E+03  0.52224923156E+03  0.00000000000E+00 0. -1.
         11    1    1    2    0    0 -0.22330644679E+03 -0.41591521963E+02 -0.54298878223E+03  0.58858511831E+03  0.00000000000E+00 0.  1.
</event>
<event>
 7    1  0.1538147E-010  0.9156267E+02  0.7561462E-02  0.1299111E+00
         -3   -1    0    0    0  501 -0.00000000000E+00  0.00000000000E+00  0.19748195121E+03  0.19748195121E+03  0.00000000000E+00 0.  1.
          3   -1    0    0  501    0  0.00000000000E+00 -0.00000000000E+00 -0.17343494111E+03  0.17343494111E+03  0.00000000000E+00 0. -1.
         25    2    1    2    0    0  0.56895494481E+02  0.56762613953E+02 -0.11528192545E+03  0.18816160193E+03  0.12512303733E+03 0.  0.
          5    1    3    3  502    0  0.38305599166E+02  0.14900254700E+02 -0.13269762243E+03  0.13898009899E+03  0.41800000000E+01 0.  1.
         -5    1    3    3    0  502  0.18589895315E+02  0.41862359253E+02  0.17415696977E+02  0.49181502938E+02  0.41800000000E+01 0.  1.
        -11    1    1    2    0    0  0.78826275644E+01 -0.19623865108E+02 -0.36427561888E+01  0.21459300356E+02  0.00000000000E+00 0. -1.
         11    1    1    2    0    0 -0.64778122045E+02 -0.37138748844E+02  0.14297169174E+03  0.16129599003E+03  0.00000000000E+00 0.  1.
</event>
<event>
 7    1  0.1538147E-010  0.1085091E+03  0.7561462E-02  0.1263356E+00
          2   -1    0    0  501    0  0.00000000000E+00  0.00000000000E+00  0.50392852813E+03  0.50392852813E+03  0.00000000000E+00 0. -1.
         -2   -1    0    0    0  501 -0.00000000000E+00 -0.00000000000E+00 -0.27876346949E+02  0.27876346949E+02  0.00000000000E+00 0.  1.
         25    2    1    2    0    0  0.43493882824E+02 -0.11437634356E+02  0.22459761336E+03  0.26096857016E+03  0.12505186668E+03 0.  0.
          5    1    3    3  502    0  0.43932039528E+02  0.50122557799E+02  0.14975084412E+03  0.16396671190E+03  0.41800000000E+01 0. -1.
         -5    1    3    3    0  502 -0.43815670481E+00 -0.61560192155E+02  0.74846769238E+02  0.97001858254E+02  0.41800000000E+01 0. -1.
        -11    1    1    2    0    0 -0.12633404912E+02  0.42744961583E+02  0.62067049208E+02  0.76413698103E+02  0.00000000000E+00 0.  1.
         11    1    1    2    0    0 -0.30860477912E+02 -0.31307327228E+02  0.18938751861E+03  0.19442260682E+03  0.00000000000E+00 0. -1.
</event>
<event>
 6    1  0.1538147E-010  0.1294308E+03  0.7561462E-02  0.1228303E+00
         -1   -1    0    0    0  501 -0.00000000000E+00  0.00000000000E+00  0.64393402222E+03  0.64393402222E+03  0.00000000000E+00 0.  1.
          1   -1    0    0  501    0  0.00000000000E+00 -0.00000000000E+00 -0.55009751058E+02  0.55009751058E+02  0.00000000000E+00 0. -1.
          5    1    1    2  502    0  0.47479156382E+02 -0.36759947965E+02  0.88427291809E+02  0.10696925914E+03  0.41800000000E+01 0.  1.
         -5    1    1    2    0  502 -0.39505355807E+02 -0.66250116453E+02  0.43117341101E+03  0.43803850724E+03  0.41800000000E+01 0.  1.
        -11    1    1    2    0    0  0.23400720319E+02  0.14531369474E+02  0.51468994431E+02  0.58376466131E+02  0.00000000000E+00 0.  1.
         11    1    1    2    0    0 -0.31374520895E+02  0.88478694944E+02  0.17854573913E+02  0.95559540758E+02  0.00000000000E+00 0. -1.
</event>
<event>
 6    1  0.1538147E-010  0.3302762E+03  0.7561462E-02  0.1071015E+00
          1   -1    0    0  501    0  0.00000000000E+00  0.00000000000E+00  0.10587986603E+03  0.10587986603E+03  0.00000000000E+00 0. -1.
         -1   -1    0    0    0  501 -0.00000000000E+00 -0.00000000000E+00 -0.12433660586E+04  0.12433660586E+04  0.00000000000E+00 0.  1.
          5    1    1    2  502    0  0.52543509874E+02 -0.29668490646E+03 -0.71961813531E+03  0.78016055221E+03  0.41800000000E+01 0.  1.
         -5    1    1    2    0  502 -0.30784318068E+02 -0.17192718407E+02 -0.12425226294E+03  0.12922600764E+03  0.41800000000E+01 0.  1.
        -11    1    1    2    0    0 -0.50464062526E+02  0.20417515554E+03 -0.22165851638E+03  0.30555950914E+03  0.00000000000E+00 0.  1.
         11    1    1    2    0    0  0.28704870720E+02  0.10970246932E+03 -0.71957277956E+02  0.13429985566E+03  0.00000000000E+00 0. -1.
</event>
<event>
 6    1  0.1538147E-010  0.1498196E+03  0.7561462E-02  0.1200695E+00
         -1   -1    0    0    0  501 -0.00000000000E+00  0.00000000000E+00  0.62792488683E+02  0.62792488683E+02  0.00000000000E+00 0.  1.
          1   -1    0    0  501    0  0.00000000000E+00 -0.00000000000E+00 -0.49117928108E+03  0.49117928108E+03  0.00000000000E+00 0. -1.
          5    1    1    2  502    0 -0.34133052035E+02 -0.11293828577E+03 -0.16440891598E+03  0.20240525113E+03  0.41800000000E+01 0.  1.
         -5    1    1    2    0  502  0.34367994826E+02 -0.46375104817E+01 -0.16910696019E+03  0.17267687151E+03  0.41800000000E+01 0.  1.
        -11    1    1    2    0    0 -0.43865533504E+02  0.54604359433E+02 -0.22671045936E+02  0.73619273445E+02  0.00000000000E+00 0.  1.
         11    1    1    2    0    0  0.43630590714E+02  0.62971436822E+02 -0.72199870299E+02  0.10527037367E+03  0.00000000000E+00 0. -1.
</event>
<event>
 7    1  0.1538147E-010  0.3162791E+03  0.7561462E-02  0.1077375E+00
         -1   -1    0    0    0  501 -0.00000000000E+00  0.00000000000E+00  0.32562851718E+03  0.32562851718E+03  0.00000000000E+00 0.  1.
          1   -1    0    0  501    0  0.00000000000E+00 -0.00000000000E+00 -0.34394624479E+03  0.34394624479E+03  0.00000000000E+00 0. -1.
         25    2    1    2    0    0  0.16431405746E+03 -0.26926538457E+03 -0.18666922740E+02  0.33985884700E+03  0.12511045150E+03 0.  0.
          5    1    3    3  502    0  0.59043312635E+02 -0.11465103901E+03  0.53022153247E+02  0.13949836790E+03  0.41800000000E+01 0. -1.
         -5    1    3    3    0  502  0.10527074483E+03 -0.15461434556E+03 -0.71689075988E+02  0.20036047910E+03  0.41800000000E+01 0. -1.
        -11    1    1    2    0    0 -0.11451089090E+03  0.16449315657E+03 -0.44559389185E+02  0.20531994997E+03  0.00000000000E+00 0. -1.
         11    1    1    2    0    0 -0.49803166558E+02  0.10477222800E+03  0.44908584318E+02  0.12439596499E+03  0.00000000000E+00 0.  1.
</event>
<event>
 6    1  0.1538147E-010  0.9650979E+02  0.7561462E-02  0.1287811E+00
         -2   -1    0    0    0  501 -0.00000000000E+00  0.00000000000E+00  0.10989897932E+03  0.10989897932E+03  0.00000000000E+00 0.  1.
          2   -1    0    0  501    0  0.00000000000E+00 -0.00000000000E+00 -0.15128057683E+03  0.15128057683E+03  0.00000000000E+00 0. -1.
          5    1    1    2  502    0 -0.33107809075E+01 -0.19480770758E+02 -0.59167615570E+02  0.62519923479E+02  0.41800000000E+01 0.  1.
         -5    1    1    2    0  502 -0.59664513487E+02  0.43571690292E+02  0.35521966924E+02  0.82083060973E+02  0.41800000000E+01 0.  1.
        -11    1    1    2    0    0 -0.16059706314E+02  0.45001000866E+00  0.19973124248E+02  0.25632837692E+02  0.00000000000E+00 0.  1.
         11    1    1    2    0    0  0.79035000709E+02 -0.24540929542E+02 -0.37709073113E+02  0.90943734005E+02  0.00000000000E+00 0. -1.
</event>
<event>
 7    1  0.1538147E-010  0.1689033E+03  0.7561462E-02  0.1178996E+00
          2   -1    0    0  501    0  0.00000000000E+00  0.00000000000E+00  0.34499973639E+03  0.34499973639E+03  0.00000000000E+00 0. -1.
         -2   -1    0    0    0  501 -0.00000000000E+00 -0.00000000000E+00 -0.10726270398E+03  0.10726270398E+03  0.00000000000E+00 0.  1.
         25    2    1    2    0    0 -0.14083749275E+03 -0.70968948720E+02  0.13242074236E+03  0.24096790366E+03  0.12513387447E+03 0.  0.
          5    1    3    3  502    0 -0.13596770156E+01 -0.24777784052E+02  0.81681289443E+02  0.85469835317E+02  0.41800000000E+01 0. -1.
         -5    1    3    3    0  502 -0.13947781573E+03 -0.46191164669E+02  0.50739452920E+02  0.15549806834E+03  0.41800000000E+01 0. -1.
        -11    1    1    2    0    0  0.11885541399E+03  0.35708231400E+02  0.33867229994E+02  0.12864165924E+03  0.00000000000E+00 0.  1.
         11    1    1    2    0    0  0.21982078754E+02  0.35260717321E+02  0.71449060050E+02  0.82652877472E+02  0.00000000000E+00 0. -1.
</event>
<event>
 6    1  0.1538147E-010  0.6363137E+02  0.7561462E-02  0.1383195E+00
          2   -1    0    0  501    0  0.00000000000E+00  0.00000000000E+00  0.85252059912E+03  0.85252059912E+03  0.00000000000E+00 0. -1.
         -2   -1    0    0    0  501 -0.00000000000E+00 -0.00000000000E+00 -0.14391129059E+02  0.14391129059E+02  0.00000000000E+00 0.  1.
          5    1    1    2  502    0  0.10514579716E+02  0.33680427723E+01 -0.34364477622E+01  0.12295595632E+02  0.41800000000E+01 0. -1.
         -5    1    1    2    0  502  0.17335527261E+00  0.21749961696E+02  0.50128019918E+03  0.50176927105E+03  0.41800000000E+01 0. -1.
        -11    1    1    2    0    0  0.20473310790E+02 -0.49613640236E+02  0.19622299552E+03  0.20343090651E+03  0.00000000000E+00 0.  1.
         11    1    1    2    0    0 -0.31161245778E+02  0.24495635768E+02  0.14406272313E+03  0.14941595499E+03  0.00000000000E+00 0. -1.
</event>
<event>
 7    1  0.2006196E-010  0.1120816E+03  0.7561462E-02  0.1256763E+00
         -2   -1    0    0    0  501 -0.00000000000E+00  0.00000000000E+00  0.55064396050E+02  0.55064396050E+02  0.00000000000E+00 0.  1.
          2   -1    0    0  501    0  0.00000000000E+00 -0.00000000000E+00 -0.37857369783E+03  0.37857369783E+03  0.00000000000E+00 0. -1.
         25    2    1    2    0    0  0.11224945204E+01  0.90732054688E+02 -0.21792935490E+03  0.26715009923E+03  0.12506960484E+03 0.  0.
          5    1    3    3  502    0  0.43652977318E+02  0.33484877552E+02 -0.17570731090E+03  0.18416663910E+03  0.41800000000E+01 0.  1.
         -5    1    3    3    0  502 -0.42530482798E+02  0.57247177136E+02 -0.42222043999E+02  0.82983460138E+02  0.41800000000E+01 0.  1.
        -11    1    1    2    0    0  0.17339644949E+02 -0.45725404741E+02  0.14472154110E+01  0.48924128589E+02  0.00000000000E+00 0. -1.
         11    1    1    2    0    0 -0.18462139470E+02 -0.45006649946E+02 -0.10702716230E+03  0.11756386606E+03  0.00000000000E+00 0.  1.
</event>
<event>
 7    1  0.1538147E-010  0.9610624E+02  0.7561462E-02  0.1288704E+00
         -2   -1    0    0    0  501 -0.00000000000E+00  0.00000000000E+00  0.30521581137E+02  0.30521581137E+02  0.00000000000E+00 0.  1.
          2   -1    0    0  501    0  0.00000000000E+00 -0.00000000000E+00 -0.67287840634E+03  0.67287840634E+03  0.00000000000E+00 0. -1.
         25    2    1    2    0    0 -0.31619780551E+02 -0.44953767439E+02 -0.53631492382E+03  0.55345487877E+03  0.12513174495E+03 0.  0.
          5    1    3    3  502    0  0.58139797569E+00 -0.70813102936E+02 -0.16207397567E+03  0.17691885021E+03  0.41800000000E+01 0.  1.
         -5    1    3    3    0  502 -0.32201178526E+02  0.25859335497E+02 -0.37424094816E+03  0.37653602856E+03  0.41800000000E+01 0.  1.
        -11    1    1    2    0    0  0.48754003998E+02  0.33453340437E+02 -0.11352033923E+03  0.12799588396E+03  0.00000000000E+00 0. -1.
         11    1    1    2    0    0 -0.17134223447E+02  0.11500427002E+02  0.74784378431E+01  0.21949224746E+02  0.00000000000E+00 0.  1.
</event>
<event>
 6    1  0.1538147E-010  0.8378584E+02  0.7561462E-02  0.1318639E+00
         -1   -1    0    0    0  501 -0.00000000000E+00  0.00000000000E+00  0.46389641898E+02  0.46389641898E+02  0.00000000000E+00 0.  1.
          1   -1    0    0  501    0  0.00000000000E+00 -0.00000000000E+00 -0.28907502770E+03  0.28907502770E+03  0.00000000000E+00 0. -1.
          5    1    1    2  502    0 -0.27734135919E+02  0.29520383262E+02 -0.15113330611E+03  0.15652279048E+03  0.41800000000E+01 0.  1.
         -5    1    1    2    0  502  0.23782080658E+02  0.15778610348E+02  0.16076149243E+02  0.33022217966E+02  0.41800000000E+01 0.  1.
        -11    1    1    2    0    0 -0.35268298300E+02 -0.46986684624E+02 -0.57025236702E+02  0.81874776444E+02  0.00000000000E+00 0.  1.
         11    1    1    2    0    0  0.39220353561E+02  0.16876910144E+01 -0.50602992230E+02  0.64044884707E+02  0.00000000000E+00 0. -1.
</event>
<event>
 6    1  0.1538147E-010  0.1077742E+03  0.7561462E-02  0.1264748E+00
          1   -1    0    0  501    0  0.00000000000E+00  0.00000000000E+00  0.42880349312E+02  0.42880349312E+02  0.00000000000E+00 0. -1.
         -1   -1    0    0    0  501 -0.00000000000E+00 -0.00000000000E+00 -0.47616365694E+03  0.47616365694E+03  0.00000000000E+00 0.  1.
          5    1    1    2  502    0  0.65177618611E+02 -0.28480679008E+02 -0.76083606082E+02  0.10423751033E+03  0.41800000000E+01 0.  1.
         -5    1    1    2    0  502  0.12070706178E+02  0.24708430591E+02 -0.25905293926E+03  0.26054194715E+03  0.41800000000E+01 0.  1.
        -11    1    1    2    0    0 -0.79152209349E+02  0.34035035688E+02 -0.57625795065E+02  0.10365417578E+03  0.00000000000E+00 0. -1.
         11    1    1    2    0    0  0.19038845601E+01 -0.30262787272E+02 -0.40520967222E+02  0.50610372993E+02  0.00000000000E+00 0.  1.
</event>
<event>
 6    1  0.1538147E-010  0.2721496E+03  0.7561462E-02  0.1100056E+00
          1   -1    0    0  501    0  0.00000000000E+00  0.00000000000E+00  0.14717766907E+03  0.14717766907E+03  0.00000000000E+00 0. -1.
         -1   -1    0    0    0  501 -0.00000000000E+00 -0.00000000000E+00 -0.52309881125E+03  0.52309881125E+03  0.00000000000E+00 0.  1.
          5    1    1    2  502    0  0.19451644332E+03  0.35436438793E+02 -0.13965578684E+03  0.24210245582E+03  0.41800000000E+01 0.  1.
         -5    1    1    2    0  502  0.59450327013E+02 -0.59220233933E+02 -0.32635816028E+02  0.90132937248E+02  0.41800000000E+01 0.  1.
        -11    1    1    2    0    0 -0.69394739501E+02  0.34776506285E+02 -0.26583633153E+02  0.82047088988E+02  0.00000000000E+00 0. -1.
         11    1    1    2    0    0 -0.18457203083E+03 -0.10992711145E+02 -0.17704590615E+03  0.25599399826E+03  0.00000000000E+00 0.  1.
</event>
<event>
 7    1  0.1538147E-010  0.9776920E+02  0.7561462E-02  0.1285058E+00
         -2   -1    0    0    0  501 -0.00000000000E+00  0.00000000000E+00  0.15916697805E+02  0.15916697805E+02  0.00000000000E+00 0.  1.
          2   -1    0    0  501    0  0.00000000000E+00 -0.00000000000E+00 -0.13681763061E+04  0.13681763061E+04  0.00000000000E+00 0. -1.
         25    2    1    2    0    0  0.67325949897E+02  0.22021536703E+02 -0.10743483901E+04  0.10839277553E+04  0.12512866884E+03 0.  0.
          5    1    3    3  502    0  0.19589692402E+02 -0.21674423681E+02 -0.84692185049E+03  0.84743591494E+03  0.41800000000E+01 0.  1.
         -5    1    3    3    0  502  0.47736257496E+02  0.43695960384E+02 -0.22742653965E+03  0.23649184039E+03  0.41800000000E+01 0.  1.
        -11    1    1    2    0    0 -0.73536275034E+01 -0.38326823431E+02 -0.18009577319E+03  0.18427563255E+03  0.00000000000E+00 0.  1.
         11    1    1    2    0    0 -0.59972322394E+02  0.16305286729E+02 -0.97815444969E+02  0.11588961603E+03  0.00000000000E+00 0. -1.
</event>
<event>
 6    1  0.1538147E-010  0.1085931E+03  0.7561462E-02  0.1263198E+00
         -2   -1    0    0    0  501 -0.00000000000E+00  0.00000000000E+00  0.50600857603E+02  0.50600857603E+02  0.00000000000E+00 0.  1.
          2   -1    0    0  501    0  0.00000000000E+00 -0.00000000000E+00 -0.39900517911E+03  0.39900517911E+03  0.00000000000E+00 0. -1.
          5    1    1    2  502    0  0.24976335559E+02 -0.55069511767E+02 -0.72886509951E+02  0.94796541060E+02  0.41800000000E+01 0.  1.
         -5    1    1    2    0  502  0.35127820471E+02  0.54857585481E+02 -0.80420522798E+01  0.65768270927E+02  0.41800000000E+01 0.  1.
        -11    1    1    2    0    0 -0.25929176906E+02  0.34320744050E+02 -0.48593057580E+02  0.64896232033E+02  0.00000000000E+00 0. -1.
         11    1    1    2    0    0 -0.34174979124E+02 -0.34108817764E+02 -0.21888270170E+03  0.22414499270E+03  0.00000000000E+00 0.  1.
</event>
<event>
 7    1  0.1538147E-010  0.9761138E+02  0.7561462E-02  0.1285401E+00
         -2   -1    0    0    0  501 -0.00000000000E+00  0.00000000000E+00  0.47552282193E+02  0.47552282193E+02  0.00000000000E+00 0.  1.
          2   -1    0    0  501    0  0.00000000000E+00 -0.00000000000E+00 -0.32407501557E+03  0.32407501557E+03  0.00000000000E+00 0. -1.
         25    2    1    2    0    0  0.55832443733E+02  0.97393116088E+01 -0.14984982331E+03  0.20322829938E+03  0.12503861866E+03 0.  0.
          5    1    3    3  502    0  0.95322540921E+02 -0.23600314978E+01 -0.97840812456E+02  0.13668304042E+03  0.41800000000E+01 0. -1.
         -5    1    3    3    0  502 -0.39490097189E+02  0.12099343107E+02 -0.52009010856E+02  0.66545258958E+02  0.41800000000E+01 0. -1.
        -11    1    1    2    0    0 -0.18445352971E+02  0.31650286764E+01  0.13290893827E+02  0.22954222084E+02  0.00000000000E+00 0.  1.
         11    1    1    2    0    0 -0.37387090762E+02 -0.12904340285E+02 -0.13996380390E+03  0.14544477631E+03  0.00000000000E+00 0. -1.
</event>
<event>
 7    1  0.1538147E-010  0.1690076E+03  0.7561462E-02  0.1178887E+00
          2   -1    0    0  501    0  0.00000000000E+00  0.00000000000E+00  0.38878050108E+03  0.38878050108E+03  0.00000000000E+00 0. -1.
         -2   -1    0    0    0  501 -0.00000000000E+00 -0.00000000000E+00 -0.87100211933E+02  0.87100211933E+02  0.00000000000E+00 0.  1.
         25    2    1    2    0    0  0.91350106096E+02  0.11463320249E+03  0.18715740891E+03  0.26861137034E+03  0.12505422651E+03 0.  0.
          5    1    3    3  502    0 -0.14473068604E+02  0.77874870099E+02  0.92836043063E+02  0.12210638149E+03  0.41800000000E+01 0.  1.
         -5    1    3    3    0  502  0.10582317470E+03  0.36758332391E+02  0.94321365851E+02  0.14650498886E+03  0.41800000000E+01 0.  1.
        -11    1    1    2    0    0 -0.12911251235E+02 -0.15109852084E+02 -0.15879030823E+02  0.25439175661E+02  0.00000000000E+00 0.  1.
         11    1    1    2    0    0 -0.78438854861E+02 -0.99523350407E+02  0.13040191106E+03  0.18183016701E+03  0.00000000000E+00 0. -1.
</event>
<event>
 7    1  0.1615771E-010  0.1329606E+03  0.7561462E-02  0.1223128E+00
         -4   -1    0    0    0  501 -0.00000000000E+00  0.00000000000E+00  0.61495554628E+02  0.61495554628E+02  0.00000000000E+00 0.  1.
          4   -1    0    0  501    0  0.00000000000E+00 -0.00000000000E+00 -0.32387061970E+03  0.32387061970E+03  0.00000000000E+00 0. -1.
         25    2    1    2    0    0 -0.75435532741E+02  0.35667669788E+02 -0.18845717245E+03  0.24110579159E+03  0.12511272765E+03 0.  0.
          5    1    3    3  502    0 -0.44277471140E+02 -0.40177648442E+02 -0.12028482015E+03  0.13438991124E+03  0.41800000000E+01 0. -1.
         -5    1    3    3    0  502 -0.31158061601E+02  0.75845318229E+02 -0.68172352307E+02  0.10671588035E+03  0.41800000000E+01 0. -1.
        -11    1    1    2    0    0  0.49358649083E+02  0.26819035813E+02 -0.33455367883E+02  0.65381943696E+02  0.00000000000E+00 0.  1.
         11    1    1    2    0    0  0.26076883658E+02 -0.62486705601E+02 -0.40462524739E+02  0.78878439046E+02  0.00000000000E+00 0. -1.
</event>
<event>
 6    1  0.1538147E-010  0.8017640E+02  0.7561462E-02  0.1328552E+00
         -1   -1    0    0    0  501 -0.00000000000E+00  0.00000000000E+00  0.87108129673E+02  0.87108129673E+02  0.00000000000E+00 0.  1.
          1   -1    0    0  501    0  0.00000000000E+00 -0.00000000000E+00 -0.13536038036E+03  0.13536038036E+03  0.00000000000E+00 0. -1.
          5    1    1    2  502    0 -0.37324155581E+02 -0.39373142114E+02  0.12696403896E+02  0.55874931603E+02  0.41800000000E+01 0. -1.
         -5    1    1    2    0  502  0.35017881785E+02  0.21833603387E+02 -0.73495623707E+02  0.84392164243E+02  0.41800000000E+01 0. -1.
        -11    1    1    2    0    0  0.29242211005E+02 -0.45906991272E+01 -0.19009769056E+02  0.35178867840E+02  0.00000000000E+00 0. -1.
         11    1    1    2    0    0 -0.26935937208E+02  0.22130237854E+02  0.31556738178E+02  0.47022546349E+02  0.00000000000E+00 0.  1.
</event>
<event>
 7    1  0.1538147E-010  0.1212506E+03  0.7561462E-02  0.1241048E+00
          2   -1    0    0  501    0  0.00000000000E+00  0.00000000000E+00  0.80304362610E+03  0.80304362610E+03  0.00000000000E+00 0. -1.
         -2   -1    0    0    0  501 -0.00000000000E+00 -0.00000000000E+00 -0.30194596282E+02  0.30194596282E+02  0.00000000000E+00 0.  1.
         25    2    1    2    0    0 -0.93216826826E+01  0.10996144893E+03  0.44294767267E+03  0.47330418341E+03  0.12504317370E+03 0.  0.
          5    1    3    3  502    0 -0.20123127747E+02  0.32305272872E+01  0.37055378727E+01  0.21132439230E+02  0.41800000000E+01 0. -1.
         -5    1    3    3    0  502  0.10801445065E+02  0.10673092164E+03  0.43924213480E+03  0.45217174418E+03  0.41800000000E+01 0. -1.
        -11    1    1    2    0    0  0.20253724284E+02 -0.76564955306E+02  0.30912969978E+03  0.31911373680E+03  0.00000000000E+00 0. -1.
         11    1    1    2    0    0 -0.10932041602E+02 -0.33396493622E+02  0.20771657367E+02  0.40820302174E+02  0.00000000000E+00 0.  1.
</event>
<event>
 6    1  0.1538147E-010  0.1139188E+03  0.7561462E-02  0.1253480E+00
         -3   -1    0    0    0  501 -0.00000000000E+00  0.00000000000E+00  0.26176131699E+03  0.26176131699E+03  0.00000000000E+00 0.  1.
          3   -1    0    0  501    0  0.00000000000E+00 -0.00000000000E+00 -0.61243869375E+02  0.61243869375E+02  0.00000000000E+00 0. -1.
          5    1    1    2  502    0  0.33621018300E+02  0.30657115961E+02  0.23226838178E+02  0.51256121999E+02  0.41800000000E+01 0. -1.
         -5    1    1    2    0  502 -0.12195795662E+02 -0.79450021444E+02  0.13599413772E+03  0.15802822923E+03  0.41800000000E+01 0. -1.
        -11    1    1    2    0    0 -0.49265705493E+02  0.46722692166E+01  0.41162768015E+01  0.49657663780E+02  0.00000000000E+00 0. -1.
         11    1    1    2    0    0  0.27840482855E+02  0.44120636266E+02  0.37180194910E+02  0.64063171352E+02  0.00000000000E+00 0.  1.
</event>
<event>
 7    1  0.1538147E-010  0.8418976E+02  0.7561462E-02  0.1317565E+00
          2   -1    0    0  501    0  0.00000000000E+00  0.00000000000E+00  0.10944575145E+03  0.10944575145E+03  0.00000000000E+00 0. -1.
         -2   -1    0    0    0  501 -0.00000000000E+00 -0.00000000000E+00 -0.15724478824E+03  0.15724478824E+03  0.00000000000E+00 0.  1.
         25    2    1    2    0    0 -0.51454912743E+02  0.29770676402E+02 -0.69725736315E+02  0.15509774125E+03  0.12513884216E+03 0.  0.
          5    1    3    3  502    0 -0.14495165455E+02 -0.28702678972E+02  0.22696205222E+02  0.39579587330E+02  0.41800000000E+01 0.  1.
         -5    1    3    3    0  502 -0.36959747288E+02  0.58473355374E+02 -0.92421941536E+02  0.11551815392E+03  0.41800000000E+01 0.  1.
        -11    1    1    2    0    0  0.36871978925E+02 -0.40605886654E+01 -0.32720666938E+02  0.49463858069E+02  0.00000000000E+00 0.  1.
         11    1    1    2    0    0  0.14582933818E+02 -0.25710087736E+02  0.54647366465E+02  0.62128940372E+02  0.00000000000E+00 0. -1.
</event>
<event>
 7    1  0.1538147E-010  0.8301125E+02  0.7561462E-02  0.1320717E+00
          4   -1    0    0  501    0  0.00000000000E+00  0.00000000000E+00  0.97566977312E+02  0.97566977312E+02  0.00000000000E+00 0. -1.
         -4   -1    0    0    0  501 -0.00000000000E+00 -0.00000000000E+00 -0.22074808749E+03  0.22074808749E+03  0.00000000000E+00 0.  1.
         25    2    1    2    0    0  0.23751837469E+02 -0.12801557687E+01 -0.17094788545E+03  0.21317999115E+03  0.12512689761E+03 0.  0.
          5    1    3    3  502    0 -0.27617805802E+02 -0.22176717130E+02 -0.14929985524E+03  0.15350071385E+03  0.41800000000E+01 0.  1.
         -5    1    3    3    0  502  0.51369643271E+02  0.20896561361E+02 -0.21648030210E+02  0.59679277295E+02  0.41800000000E+01 0.  1.
        -11    1    1    2    0    0 -0.38278762288E+02  0.25856859284E+02 -0.36359432987E+01  0.46336388487E+02  0.00000000000E+00 0.  1.
         11    1    1    2    0    0  0.14526924819E+02 -0.24576703515E+02  0.51402718571E+02  0.58798685163E+02  0.00000000000E+00 0. -1.
</event>
<event>
 7    1  0.1538147E-010  0.9290136E+02  0.7561462E-02  0.1295974E+00
         -1   -1    0    0    0  501 -0.00000000000E+00  0.00000000000E+00  0.14257540385E+02  0.14257540385E+02  0.00000000000E+00 0.  1.
          1   -1    0    0  501    0  0.00000000000E+00 -0.00000000000E+00 -0.93823683628E+03  0.93823683628E+03  0.00000000000E+00 0. -1.
         25    2    1    2    0    0 -0.16089344877E+02  0.36406023760E+02 -0.51448992930E+03  0.53097870128E+03  0.12511685849E+03 0.  0.
          5    1    3    3  502    0 -0.95895332799E+01 -0.25102435732E+02 -0.39880193451E+03  0.39972809108E+03  0.41800000000E+01 0.  1.
         -5    1    3    3    0  502 -0.64998115970E+01  0.61508459492E+02 -0.11568799479E+03  0.13125061020E+03  0.41800000000E+01 0.  1.
        -11    1    1    2    0    0 -0.36596338401E+02 -0.11667920244E+02 -0.11250573404E+03  0.11888217924E+03  0.00000000000E+00 0.  1.
         11    1    1    2    0    0  0.52685683278E+02 -0.24738103517E+02 -0.29698363255E+03  0.30263349614E+03  0.00000000000E+00 0. -1.
</event>
<event>
 7    1  0.1538147E-010  0.1396345E+03  0.7561462E-02  0.1213822E+00
         -1   -1    0    0    0  501 -0.00000000000E+00  0.00000000000E+00  0.81000986409E+02  0.81000986409E+02  0.00000000000E+00 0.  1.
          1   -1    0    0  501    0  0.00000000000E+00 -0.00000000000E+00 -0.29528280297E+03  0.29528280297E+03  0.00000000000E+00 0. -1.
         25    2    1    2    0    0  0.59013658884E+02 -0.92812335667E+02 -0.10845585914E+03  0.19874588449E+03  0.12506203115E+03 0.  0.
          5    1    3    3  502    0  0.80272815864E+02 -0.56420572980E+02 -0.11979201628E+03  0.15490192247E+03  0.41800000000E+01 0. -1.
         -5    1    3    3    0  502 -0.21259156980E+02 -0.36391762687E+02  0.11336157140E+02  0.43843962021E+02  0.41800000000E+01 0. -1.
        -11    1    1    2    0    0  0.77287746899E+01  0.66532122765E+02 -0.30741716517E+02  0.73697425004E+02  0.00000000000E+00 0.  1.
         11    1    1    2    0    0 -0.66742433574E+02  0.26280212902E+02 -0.75084240913E+02  0.10384047989E+03  0.00000000000E+00 0. -1.
</event>
<event>
 6    1  0.1538147E-010  0.1123058E+03  0.7561462E-02  0.1256358E+00
          1   -1    0    0  501    0  0.00000000000E+00  0.00000000000E+00  0.95869357520E+02  0.95869357520E+02  0.00000000000E+00 0. -1.
         -1   -1    0    0    0  501 -0.00000000000E+00 -0.00000000000E+00 -0.16387405642E+03  0.16387405642E+03  0.00000000000E+00 0.  1.
          5    1    1    2  502    0 -0.35581957425E+02  0.29156406971E+02 -0.13773476363E+02  0.48201170242E+02  0.41800000000E+01 0.  1.
         -5    1    1    2    0  502  0.79540691889E+02 -0.20505321339E+02  0.21297484793E+02  0.84960256167E+02  0.41800000000E+01 0.  1.
        -11    1    1    2    0    0 -0.36172460310E+02  0.35889968589E+02 -0.60125759944E+02  0.78813981875E+02  0.00000000000E+00 0.  1.
         11    1    1    2    0    0 -0.77862741550E+01 -0.44541054221E+02 -0.15402947388E+02  0.47768005659E+02  0.00000000000E+00 0. -1.
</event>
<event>
 7    1  0.1538147E-010  0.3221727E+03  0.7561462E-02  0.1074654E+00
         -1   -1    0    0    0  501 -0.00000000000E+00  0.00000000000E+00  0.31365910311E+03  0.31365910311E+03  0.00000000000E+00 0.  1.
          1   -1    0    0  501    0  0.00000000000E+00 -0.00000000000E+00 -0.34827770112E+03  0.34827770112E+03  0.00000000000E+00 0. -1.
         25    2    1    2    0    0 -0.11388477582E+03  0.28053284212E+03  0.55046453203E+02  0.33219486034E+03  0.12511952507E+03 0.  0.
          5    1    3    3  502    0  0.14394765319E+02  0.12463157403E+03  0.25764083068E+02  0.12814639632E+03  0.41800000000E+01 0. -1.
         -5    1    3    3    0  502 -0.12827954114E+03  0.15590126810E+03  0.29282370135E+02  0.20404846402E+03  0.41800000000E+01 0. -1.
        -11    1    1    2    0    0  0.11867288866E+03 -0.17620553921E+03 -0.68209435209E+02  0.22312367334E+03  0.00000000000E+00 0. -1.
         11    1    1    2    0    0 -0.47881128407E+01 -0.10432730291E+03 -0.21455616012E+02  0.10661827055E+03  0.00000000000E+00 0.  1.
</event>
<event>
 6    1  0.1538147E-010  0.9763050E+02  0.7561462E-02  0.1285359E+00
         -2   -1    0    0    0  501 -0.00000000000E+00  0.00000000000E+00  0.20775684215E+02  0.20775684215E+02  0.00000000000E+00 0.  1.
          2   -1    0    0  501    0  0.00000000000E+00 -0.00000000000E+00 -0.90165424727E+03  0.90165424727E+03  0.00000000000E+00 0. -1.
          5    1    1    2  502    0 -0.57603906744E+01  0.39434677458E+02 -0.35766335008E+02  0.53712000585E+02  0.41800000000E+01 0.  1.
         -5    1    1    2    0  502  0.24203528612E+02  0.39277438299E+02 -0.50607701833E+03  0.50819282643E+03  0.41800000000E+01 0.  1.
        -11    1    1    2    0    0  0.27376233636E+02 -0.17844765998E+02 -0.19364714591E+03  0.19638510881E+03  0.00000000000E+00 0. -1.
         11    1    1    2    0    0 -0.45819371573E+02 -0.60867349758E+02 -0.14538806381E+03  0.16413999566E+03  0.00000000000E+00 0.  1.
</event>
<event>
 7    1  0.1538147E-010  0.1007941E+03  0.7561462E-02  0.1278635E+00
          1   -1    0    0  501    0  0.00000000000E+00  0.00000000000E+00  0.40644925367E+03  0.40644925367E+03  0.00000000000E+00 0. -1.
         -1   -1    0    0    0  501 -0.00000000000E+00 -0.00000000000E+00 -0.37191573401E+02  0.37191573401E+02  0.00000000000E+00 0.  1.
         25    2    1    2    0    0 -0.26301970664E+02  0.21795544583E+02  0.12436859476E+03  0.17964280209E+03  0.12504858878E+03 0.  0.
          5    1    3    3  502    0  0.36983022554E+02  0.74849224291E+01  0.10522769282E+03  0.11186647289E+03  0.41800000000E+01 0. -1.
         -5    1    3    3    0  502 -0.63284993218E+02  0.14310622153E+02  0.19140901940E+02  0.67776329202E+02  0.41800000000E+01 0. -1.
        -11    1    1    2    0    0 -0.11315244381E+01  0.35270989161E+02  0.86425666631E+02  0.93352658647E+02  0.00000000000E+00 0.  1.
         11    1    1    2    0    0  0.27433495102E+02 -0.57066533744E+02  0.15846341888E+03  0.17064536633E+03  0.00000000000E+00 0. -1.
</event>
<event>
 7    1  0.1538147E-010  0.9474770E+02  0.7561462E-02  0.1291745E+00
         -2   -1    0    0    0  501 -0.00000000000E+00  0.00000000000E+00  0.59532914717E+03  0.59532914717E+03  0.00000000000E+00 0.  1.
          2   -1    0    0  501    0  0.00000000000E+00 -0.00000000000E+00 -0.32201933573E+02  0.32201933573E+02  0.00000000000E+00 0. -1.
         25    2    1    2    0    0  0.60159936145E+01 -0.12897772493E+01  0.11414144386E+03  0.16946905017E+03  0.12511448379E+03 0.  0.
          5    1    3    3  502    0  0.52029017856E+02  0.36176057561E+01  0.11122293846E+03  0.12291509350E+03  0.41800000000E+01 0.  1.
         -5    1    3    3    0  502 -0.46013024241E+02 -0.49073830054E+01  0.29185053974E+01  0.46553956669E+02  0.41800000000E+01 0.  1.
        -11    1    1    2    0    0 -0.40414623039E+02 -0.24906867713E+02  0.22986897275E+03  0.23471991489E+03  0.00000000000E+00 0.  1.
         11    1    1    2    0    0  0.34398629425E+02  0.26196644963E+02  0.21911679698E+03  0.22334211567E+03  0.00000000000E+00 0. -1.
</event>
<event>
 7    1  0.1538147E-010  0.1650869E+03  0.7561462E-02  0.1183070E+00
         -1   -1    0    0    0  501 -0.00000000000E+00  0.00000000000E+00  0.35547641644E+02  0.35547641644E+02  0.00000000000E+00 0.  1.
          1   -1    0    0  501    0  0.00000000000E+00 -0.00000000000E+00 -0.13291338592E+04  0.13291338592E+04  0.00000000000E+00 0. -1.
         25    2    1    2    0    0 -0.15760166759E+03  0.27123373983E+02 -0.10193391385E+04  0.10393667422E+04  0.12512786409E+03 0.  0.
          5    1    3    3  502    0 -0.78585602189E+01  0.56340964906E+01 -0.45401451046E+03  0.45413670642E+03  0.41800000000E+01 0.  1.
         -5    1    3    3    0  502 -0.14974310737E+03  0.21489277493E+02 -0.56532462808E+03  0.58523003577E+03  0.41800000000E+01 0.  1.
        -11    1    1    2    0    0  0.43859100419E+02  0.15964387559E+02 -0.12083710645E+03  0.12953798151E+03  0.00000000000E+00 0.  1.
         11    1    1    2    0    0  0.11374256717E+03 -0.43087761543E+02 -0.15340997254E+03  0.19577677711E+03  0.00000000000E+00 0. -1.
</event>
<event>
 6    1  0.1538147E-010  0.6917377E+02  0.7561462E-02  0.1362925E+00
          1   -1    0    0  501    0  0.00000000000E+00  0.00000000000E+00  0.70370910768E+02  0.70370910768E+02  0.00000000000E+00 0. -1.
         -1   -1    0    0    0  501 -0.00000000000E+00 -0.00000000000E+00 -0.18970705247E+03  0.18970705247E+03  0.00000000000E+00 0.  1.
          5    1    1    2  502    0 -0.12353817272E+01 -0.29702823061E+02 -0.76594187852E+02  0.82267404715E+02  0.41800000000E+01 0. -1.
         -5    1    1    2    0  502  0.29786641042E+02  0.17978145858E+02  0.38320363619E+02  0.51926682746E+02  0.41800000000E+01 0. -1.
        -11    1    1    2    0    0 -0.35974377109E+01  0.37346447638E+02 -0.81925292383E+02  0.90108003203E+02  0.00000000000E+00 0.  1.
         11    1    1    2    0    0 -0.24953821604E+02 -0.25621770435E+02  0.86297491109E+00  0.35775872576E+02  0.00000000000E+00 0. -1.
</event>
<event>
 7    1  0.1538147E-010  0.1128847E+03  0.7561462E-02  0.1255319E+00
         -2   -1    0    0    0  501 -0.00000000000E+00  0.00000000000E+00  0.11445202528E+03  0.11445202528E+03  0.00000000000E+00 0.  1.
          2   -1    0    0  501    0  0.00000000000E+00 -0.00000000000E+00 -0.11986691337E+03  0.11986691337E+03  0.00000000000E+00 0. -1.
         25    2    1    2    0    0 -0.38830933075E+02  0.13568411147E+02 -0.21516034396E+02  0.13344490045E+03  0.12511058539E+03 0.  0.
          5    1    3    3  502    0  0.18192189599E+02 -0.42473358713E+02  0.99032520155E+01  0.47439316640E+02  0.41800000000E+01 0. -1.
         -5    1    3    3    0  502 -0.57023122673E+02  0.56041769860E+02 -0.31419286411E+02  0.86005583813E+02  0.41800000000E+01 0. -1.
        -11    1    1    2    0    0 -0.17896627557E+02 -0.34485728453E+02  0.99087387852E+01  0.40096606454E+02  0.00000000000E+00 0.  1.
         11    1    1    2    0    0  0.56727560632E+02  0.20917317306E+02  0.61924075171E+01  0.60777431744E+02  0.00000000000E+00 0. -1.
</event>
<event>
 7    1  0.1538147E-010  0.1712995E+03  0.7561462E-02  0.1176499E+00
          1   -1    0    0  501    0  0.00000000000E+00  0.00000000000E+00  0.21584472080E+03  0.21584472080E+03  0.00000000000E+00 0. -1.
         -1   -1    0    0    0  501 -0.00000000000E+00 -0.00000000000E+00 -0.15161551705E+03  0.15161551705E+03  0.00000000000E+00 0.  1.
         25    2    1    2    0    0 -0.96972077170E+02 -0.10683805497E+03  0.39198572468E+02  0.19491348491E+03  0.12504713022E+03 0.  0.
          5    1    3    3  502    0 -0.11751939204E+03 -0.76259053490E+02 -0.10900209037E+01  0.14016030568E+03  0.41800000000E+01 0. -1.
         -5    1    3    3    0  502  0.20547314866E+02 -0.30579001478E+02  0.40288593372E+02  0.54753179228E+02  0.41800000000E+01 0. -1.
        -11    1    1    2    0    0  0.11119594361E+03  0.88252068714E+02  0.36361522957E+02  0.14654393832E+03  0.00000000000E+00 0. -1.
         11    1    1    2    0    0 -0.14223866438E+02  0.18585986255E+02 -0.11330891682E+02  0.26002814614E+02  0.00000000000E+00 0.  1.
</event>
<event>
 7    1  0.1538147E-010  0.2193787E+03  0.7561462E-02  0.1134347E+00
          1   -1    0    0  501    0  0.00000000000E+00  0.00000000000E+00  0.11269290728E+04  0.11269290728E+04  0.00000000000E+00 0. -1.
         -1   -1    0    0    0  501 -0.00000000000E+00 -0.00000000000E+00 -0.68581426720E+02  0.68581426720E+02  0.00000000000E+00 0.  1.
         25    2    1    2    0    0  0.16499498334E+03  0.11774561853E+03  0.20901029548E+03  0.31688334060E+03  0.12506947160E+03 0.  0.
          5    1    3    3  502    0  0.49491853952E+02  0.10835763057E+03  0.80750856637E+02  0.14397566794E+03  0.41800000000E+01 0.  1.
         -5    1    3    3    0  502  0.11550312938E+03  0.93879879624E+01  0.12825943884E+03  0.17290767267E+03  0.41800000000E+01 0.  1.
        -11    1    1    2    0    0 -0.85892062988E+02 -0.49558463060E+02  0.22882966615E+03  0.24939226903E+03  0.00000000000E+00 0.  1.
         11    1    1    2    0    0 -0.79102920348E+02 -0.68187155471E+02  0.62050768450E+03  0.62923488993E+03  0.00000000000E+00 0. -1.
</event>
<event>
 6    1  0.1538147E-010  0.1785522E+03  0.7561462E-02  0.1169212E+00
         -2   -1    0    0    0  501 -0.00000000000E+00  0.00000000000E+00  0.39972217976E+02  0.39972217976E+02  0.00000000000E+00 0.  1.
          2   -1    0    0  501    0  0.00000000000E+00 -0.00000000000E+00 -0.10095879329E+04  0.10095879329E+04  0.00000000000E+00 0. -1.
          5    1    1    2  502    0 -0.38048477641E+02 -0.46438715500E+02 -0.32218756034E+03  0.32775987763E+03  0.41800000000E+01 0.  1.
         -5    1    1    2    0  502 -0.37338925043E+02 -0.11303086761E+03 -0.14890685202E+03  0.19068533068E+03  0.41800000000E+01 0.  1.
        -11    1    1    2    0    0  0.73456573016E+02  0.13868374994E+03 -0.38617253280E+03  0.41684322678E+03  0.00000000000E+00 0. -1.
         11    1    1    2    0    0  0.19308296677E+01  0.20785833165E+02 -0.11234876977E+03  0.11427171580E+03  0.00000000000E+00 0.  1.
</event>
<event>
 6    1  0.1538147E-010  0.1065054E+03  0.7561462E-02  0.1267182E+00
         -2   -1    0    0    0  501 -0.00000000000E+00  0.00000000000E+00  0.26969107424E+03  0.26969107424E+03  0.00000000000E+00 0. -1.
          2   -1    0    0  501    0  0.00000000000E+00 -0.00000000000E+00 -0.63082623240E+02  0.63082623240E+02  0.00000000000E+00 0.  1.
          5    1    1    2  502    0  0.52941185886E+01 -0.83033229256E+02  0.14320085599E+03  0.16566985969E+03  0.41800000000E+01 0. -1.
         -5    1    1    2    0  502  0.30183032193E+02  0.31675371134E+02  0.17539133656E+02  0.47322702567E+02  0.41800000000E+01 0. -1.
        -11    1    1    2    0    0  0.15695434856E+02  0.44040002659E+01 -0.18801020991E+02  0.24884137195E+02  0.00000000000E+00 0.  1.
         11    1    1    2    0    0 -0.51172585637E+02  0.46953857856E+02  0.64669482338E+02  0.94896998026E+02  0.00000000000E+00 0. -1.
</event>
<event>
 7    1  0.1846114E-010  0.1034687E+03  0.7561462E-02  0.1273166E+00
          2   -1    0    0  501    0  0.00000000000E+00  0.00000000000E+00  0.25548561778E+03  0.25548561778E+03  0.00000000000E+00 0. -1.
         -2   -1    0    0    0  501 -0.00000000000E+00 -0.00000000000E+00 -0.62030669411E+02  0.62030669411E+02  0.00000000000E+00 0.  1.
         25    2    1    2    0    0 -0.26636998705E+02  0.55559070608E+02  0.12683441328E+03  0.18850985137E+03  0.12511057368E+03 0.  0.
          5    1    3    3  502    0  0.49834989688E+02  0.31115773508E+02  0.49091400345E+02  0.76675651586E+02  0.41800000000E+01 0.  1.
         -5    1    3    3    0  502 -0.76471988392E+02  0.24443297100E+02  0.77743012931E+02  0.11183419978E+03  0.41800000000E+01 0.  1.
        -11    1    1    2    0    0  0.31487981458E+02 -0.37603666857E+02 -0.10090015495E+02  0.50073317746E+02  0.00000000000E+00 0.  1.
         11    1    1    2    0    0 -0.48509827539E+01 -0.17955403751E+02  0.76710550588E+02  0.78933118075E+02  0.00000000000E+00 0. -1.
</event>
<event>
 7    1  0.1538147E-010  0.1105000E+03  0.7561462E-02  0.1259647E+00
         -1   -1    0    0    0  501 -0.00000000000E+00  0.00000000000E+00  0.25693444001E+02  0.25693444001E+02  0.00000000000E+00 0.  1.
          1   -1    0    0  501    0  0.00000000000E+00 -0.00000000000E+00 -0.55246840986E+03  0.55246840986E+03  0.00000000000E+00 0. -1.
         25    2    1    2    0    0 -0.31994991470E+02 -0.36687428038E+02 -0.32584316067E+03  0.35239881413E+03  0.12506603053E+03 0.  0.
          5    1    3    3  502    0  0.45946584719E+02 -0.15876427580E+02 -0.80851496994E+02  0.94432973935E+02  0.41800000000E+01 0. -1.
         -5    1    3    3    0  502 -0.77941576189E+02 -0.20811000457E+02 -0.24499166367E+03  0.25796584020E+03  0.41800000000E+01 0. -1.
        -11    1    1    2    0    0 -0.11649891488E+01 -0.23063295681E+02 -0.10782499433E+03  0.11027013290E+03  0.00000000000E+00 0. -1.
         11    1    1    2    0    0  0.33159980619E+02  0.59750723718E+02 -0.93106810867E+02  0.11549290684E+03  0.00000000000E+00 0.  1.
</event>
<event>
 6    1  0.1538147E-010  0.9418474E+02  0.7561462E-02  0.1293023E+00
         -4   -1    0    0    0  501 -0.00000000000E+00  0.00000000000E+00  0.35462424879E+02  0.35462424879E+02  0.00000000000E+00 0.  1.
          4   -1    0    0  501    0  0.00000000000E+00 -0.00000000000E+00 -0.33966618372E+03  0.33966618372E+03  0.00000000000E+00 0. -1.
          5    1    1    2  502    0  0.49325543713E+02 -0.17440712958E+02 -0.31140591420E+02  0.61027834347E+02  0.41800000000E+01 0.  1.
         -5    1    1    2    0  502 -0.49721482670E+02  0.34315969698E+02 -0.13266723632E+03  0.14583511103E+03  0.41800000000E+01 0.  1.
        -11    1    1    2    0    0 -0.14694829535E+02 -0.42842576099E+02 -0.12799489443E+03  0.13577229961E+03  0.00000000000E+00 0. -1.
         11    1    1    2    0    0  0.15090768492E+02  0.25967319360E+02 -0.12401036672E+02  0.32493363614E+02  0.00000000000E+00 0.  1.
</event>
<event>
 7    1  0.1538147E-010  0.1565167E+03  0.7561462E-02  0.1192686E+00
          2   -1    0    0  501    0  0.00000000000E+00  0.00000000000E+00  0.10909649995E+04  0.10909649995E+04  0.00000000000E+00 0. -1.
         -2   -1    0    0    0  501 -0.00000000000E+00 -0.00000000000E+00 -0.32058341435E+02  0.32058341435E+02  0.00000000000E+00 0.  1.
         25    2    1    2    0    0 -0.49472457184E+02  0.10608478105E+03  0.84818109218E+03  0.86531226378E+03  0.12511052684E+03 0.  0.
          5    1    3    3  502    0  0.26759936393E+02  0.79669779025E+02  0.54918244530E+03  0.55559175526E+03  0.41800000000E+01 0. -1.
         -5    1    3    3    0  502 -0.76232393577E+02  0.26415002025E+02  0.29899864689E+03  0.30972050853E+03  0.41800000000E+01 0. -1.
        -11    1    1    2    0    0  0.76334359957E+02 -0.74975642835E+02  0.15889271948E+03  0.19155985444E+03  0.00000000000E+00 0.  1.
         11    1    1    2    0    0 -0.26861902773E+02 -0.31109138215E+02  0.51832846425E+02  0.66151222737E+02  0.00000000000E+00 0. -1.
</event>
<event>
 6    1  0.1538147E-010  0.9141331E+02  0.7561462E-02  0.1299465E+00
         -3   -1    0    0    0  501 -0.00000000000E+00  0.00000000000E+00  0.26780461781E+03  0.26780461781E+03  0.00000000000E+00 0.  1.
          3   -1    0    0  501    0  0.00000000000E+00 -0.00000000000E+00 -0.57655780994E+02  0.57655780994E+02  0.00000000000E+00 0. -1.
          5    1    1    2  502    0 -0.32180398549E+02  0.20631364636E+02  0.91022466824E+02  0.98811907806E+02  0.41800000000E+01 0.  1.
         -5    1    1    2    0  502  0.34858883617E+02  0.24117759078E+02 -0.25240952296E+02  0.49511474860E+02  0.41800000000E+01 0.  1.
        -11    1    1    2    0    0  0.35024307573E+01 -0.72886232077E+02  0.92622911728E+02  0.11791383983E+03  0.00000000000E+00 0.  1.
         11    1    1    2    0    0 -0.61809158245E+01  0.28137108362E+02  0.51744410557E+02  0.59223176302E+02  0.00000000000E+00 0. -1.
</event>
<event>
 7    1  0.1538147E-010  0.1607348E+03  0.7561462E-02  0.1187870E+00
         -1   -1    0    0    0  501 -0.00000000000E+00  0.00000000000E+00  0.29984190030E+02  0.29984190030E+02  0.00000000000E+00 0.  1.
          1   -1    0    0  501    0  0.00000000000E+00 -0.00000000000E+00 -0.95531449632E+03  0.95531449632E+03  0.00000000000E+00 0. -1.
         25    2    1    2    0    0  0.10264571429E+03 -0.77146946571E+02 -0.51090785636E+03  0.54145169888E+03  0.12512118329E+03 0.  0.
          5    1    3    3  502    0  0.18439895594E+02 -0.76294124354E+02 -0.13510058500E+03  0.15630247480E+03  0.41800000000E+01 0.  1.
         -5    1    3    3    0  502  0.84205818695E+02 -0.85282221690E+00 -0.37580727136E+03  0.38514922408E+03  0.41800000000E+01 0.  1.
        -11    1    1    2    0    0 -0.47533517392E+01  0.58756820211E+02 -0.13984610853E+03  0.15176261841E+03  0.00000000000E+00 0. -1.
         11    1    1    2    0    0 -0.97892362550E+02  0.18390126359E+02 -0.27457634140E+03  0.29208436906E+03  0.00000000000E+00 0.  1.
</event>
<event>
 7    1  0.1538147E-010  0.1121148E+03  0.7561462E-02  0.1256703E+00
         -1   -1    0    0    0  501 -0.00000000000E+00  0.00000000000E+00  0.64858409146E+02  0.64858409146E+02  0.00000000000E+00 0.  1.
          1   -1    0    0  501    0  0.00000000000E+00 -0.00000000000E+00 -0.32865691505E+03  0.32865691505E+03  0.00000000000E+00 0. -1.
         25    2    1    2    0    0  0.48425451474E+00  0.82410242936E+02 -0.21755436662E+03  0.26415582109E+03  0.12512678663E+03 0.  0.
          5    1    3    3  502    0 -0.26294927973E+02  0.10131410429E+03 -0.11113196501E+03  0.15272117408E+03  0.41800000000E+01 0.  1.
         -5    1    3    3    0  502  0.26779182488E+02 -0.18903861352E+02 -0.10642240161E+03  0.11143464701E+03  0.41800000000E+01 0.  1.
        -11    1    1    2    0    0  0.12641395982E+02 -0.34054344153E+02  0.23661364219E+02  0.43351625169E+02  0.00000000000E+00 0.  1.
         11    1    1    2    0    0 -0.13125650497E+02 -0.48355898784E+02 -0.69905503495E+02  0.86007877936E+02  0.00000000000E+00 0. -1.
</event>
<event>
 7    1  0.1538147E-010  0.8954619E+02  0.7561462E-02  0.1303954E+00
          2   -1    0    0  501    0  0.00000000000E+00  0.00000000000E+00  0.23601915606E+02  0.23601915606E+02  0.00000000000E+00 0.  1.
         -2   -1    0    0    0  501 -0.00000000000E+00 -0.00000000000E+00 -0.51559313731E+03  0.51559313731E+03  0.00000000000E+00 0. -1.
         25    2    1    2    0    0 -0.16617064175E+02  0.14719305322E+01 -0.24950686848E+03  0.27958879822E+03  0.12505169039E+03 0.  0.
          5    1    3    3  502    0  0.24283287618E+02  0.29229788734E+02 -0.21685863250E+03  0.22020262827E+03  0.41800000000E+01 0. -1.
         -5    1    3    3    0  502 -0.40900351793E+02 -0.27757858201E+02 -0.32648235979E+02  0.59386169949E+02  0.41800000000E+01 0. -1.
        -11    1    1    2    0    0  0.36931538301E+02 -0.35756393069E+02 -0.11332489223E+03  0.12443869721E+03  0.00000000000E+00 0.  1.
         11    1    1    2    0    0 -0.20314474126E+02  0.34284462536E+02 -0.12915946100E+03  0.13516755748E+03  0.00000000000E+00 0. -1.
</event>
<event>
 7    1  0.1538147E-010  0.2469888E+03  0.7561462E-02  0.1115223E+00
          1   -1    0    0  501    0  0.00000000000E+00  0.00000000000E+00  0.20970300645E+03  0.20970300645E+03  0.00000000000E+00 0. -1.
         -1   -1    0    0    0  501 -0.00000000000E+00 -0.00000000000E+00 -0.64126831810E+03  0.64126831810E+03  0.00000000000E+00 0.  1.
         25    2    1    2    0    0 -0.88481486436E+02  0.21545663577E+03 -0.52207132951E+03  0.58518672042E+03  0.12503795149E+03 0.  0.
          5    1    3    3  502    0 -0.10099032675E+03  0.91463598001E+02 -0.31874942512E+03  0.34667463748E+03  0.41800000000E+01 0. -1.
         -5    1    3    3    0  502  0.12508840318E+02  0.12399303777E+03 -0.20332190440E+03  0.23851208294E+03  0.41800000000E+01 0. -1.
        -11    1    1    2    0    0  0.60818584491E+02 -0.14199863328E+03  0.12273075779E+02  0.15496173870E+03  0.00000000000E+00 0. -1.
         11    1    1    2    0    0  0.27662901945E+02 -0.73458002493E+02  0.78232942091E+02  0.11082286543E+03  0.00000000000E+00 0.  1.
</event>
<event>
 6    1  0.1538147E-010  0.1081640E+03  0.7561462E-02  0.1264008E+00
         -1   -1    0    0    0  501 -0.00000000000E+00  0.00000000000E+00  0.50212087501E+03  0.50212087501E+03  0.00000000000E+00 0.  1.
          1   -1    0    0  501    0  0.00000000000E+00 -0.00000000000E+00 -0.26830424278E+02  0.26830424278E+02  0.00000000000E+00 0. -1.
          5    1    1    2  502    0  0.30420117201E+02 -0.69738313428E+02  0.17148074241E+03  0.18764843007E+03  0.41800000000E+01 0. -1.
         -5    1    1    2    0  502  0.23518498845E+01  0.47772879043E+02  0.48016936569E+02  0.67903444445E+02  0.41800000000E+01 0. -1.
        -11    1    1    2    0    0  0.23587532789E+02  0.26617420295E+02  0.14123088271E+03  0.14564003913E+03  0.00000000000E+00 0.  1.
         11    1    1    2    0    0 -0.56359499874E+02 -0.46519859108E+01  0.11456188904E+03  0.12775938564E+03  0.00000000000E+00 0. -1.
</event>
<event>
 7    1  0.1538147E-010  0.1037740E+03  0.7561462E-02  0.1272554E+00
          2   -1    0    0  501    0  0.00000000000E+00  0.00000000000E+00  0.20015590966E+03  0.20015590966E+03  0.00000000000E+00 0. -1.
         -2   -1    0    0    0  501 -0.00000000000E+00 -0.00000000000E+00 -0.70110833432E+02  0.70110833432E+02  0.00000000000E+00 0.  1.
         25    2    1    2    0    0  0.42145058644E+02 -0.16081024815E+02  0.87055308989E+02  0.15895750731E+03  0.12511617394E+03 0.  0.
          5    1    3    3  502    0 -0.32234375565E+02 -0.42786809981E+02  0.31805438224E+02  0.62440566758E+02  0.41800000000E+01 0. -1.
         -5    1    3    3    0  502  0.74379434209E+02  0.26705785167E+02  0.55249870765E+02  0.96516940555E+02  0.41800000000E+01 0. -1.
        -11    1    1    2    0    0  0.15327583200E+02  0.16274342394E+01 -0.19718912427E+02  0.25028361038E+02  0.00000000000E+00 0.  1.
         11    1    1    2    0    0 -0.57472641843E+02  0.14453590575E+02  0.62708679666E+02  0.86280874743E+02  0.00000000000E+00 0. -1.
</event>
<event>
 7    1  0.1538147E-010  0.1037552E+03  0.7561462E-02  0.1272592E+00
         -2   -1    0    0    0  501 -0.00000000000E+00  0.00000000000E+00  0.68818111390E+03  0.68818111390E+03  0.00000000000E+00 0.  1.
          2   -1    0    0  501    0  0.00000000000E+00 -0.00000000000E+00 -0.19716867535E+02  0.19716867535E+02  0.00000000000E+00 0. -1.
         25    2    1    2    0    0  0.16258603139E+02 -0.31827480795E+02  0.46343323729E+03  0.48135374968E+03  0.12511489199E+03 0.  0.
          5    1    3    3  502    0  0.37406741849E+01 -0.78584912139E+02  0.33223947998E+03  0.34145296237E+03  0.41800000000E+01 0. -1.
         -5    1    3    3    0  502  0.12517928954E+02  0.46757431344E+02  0.13119375732E+03  0.13990078731E+03  0.41800000000E+01 0. -1.
        -11    1    1    2    0    0 -0.42816230150E+02  0.32213026755E+02  0.18679077555E+03  0.19432370542E+03  0.00000000000E+00 0.  1.
         11    1    1    2    0    0  0.26557627010E+02 -0.38554595982E+00  0.18240233522E+02  0.32220526331E+02  0.00000000000E+00 0. -1.
</event>
<event>
 7    1  0.1538147E-010  0.1615392E+03  0.7561462E-02  0.1186970E+00
         -1   -1    0    0    0  501 -0.00000000000E+00  0.00000000000E+00  0.13832003723E+03  0.13832003723E+03  0.00000000000E+00 0.  1.
          1   -1    0    0  501    0  0.00000000000E+00 -0.00000000000E+00 -0.28130301025E+03  0.28130301025E+03  0.00000000000E+00 0. -1.
         25    2    1    2    0    0 -0.11805775263E+03  0.87600930205E+02  0.38622322412E+01  0.19303343102E+03  0.12504172394E+03 0.  0.
          5    1    3    3  502    0 -0.17739533422E+02 -0.12848695255E+02  0.40610889137E+02  0.46330300369E+02  0.41800000000E+01 0.  1.
         -5    1    3    3    0  502 -0.10031821921E+03  0.10044962546E+03 -0.36748656896E+02  0.14670313066E+03  0.41800000000E+01 0.  1.
        -11    1    1    2    0    0  0.58219285457E+02 -0.79247916659E+02 -0.44933960036E+02  0.10811465330E+03  0.00000000000E+00 0.  1.
         11    1    1    2    0    0  0.59838467175E+02 -0.83530135461E+01 -0.10191124523E+03  0.11847496315E+03  0.00000000000E+00 0. -1.
</event>
<event>
 7    1  0.1538147E-010  0.8857046E+02  0.7561462E-02  0.1306351E+00
          1   -1    0    0  501    0  0.00000000000E+00  0.00000000000E+00  0.24514618612E+03  0.24514618612E+03  0.00000000000E+00 0. -1.
         -1   -1    0    0    0  501 -0.00000000000E+00 -0.00000000000E+00 -0.58738132927E+02  0.58738132927E+02  0.00000000000E+00 0.  1.
         25    2    1    2    0    0 -0.15235216203E+02 -0.12290191394E+02  0.46173640625E+02  0.13474583016E+03  0.12506507522E+03 0.  0.
          5    1    3    3  502    0 -0.50550279817E+02  0.82419812467E+01  0.70330425670E+02  0.87103973614E+02  0.41800000000E+01 0. -1.
         -5    1    3    3    0  502  0.35315063614E+02 -0.20532172640E+02 -0.24156785045E+02  0.47641856546E+02  0.41800000000E+01 0. -1.
        -11    1    1    2    0    0  0.46918361193E+02 -0.72354183250E+01  0.11432950756E+03  0.12379386170E+03  0.00000000000E+00 0. -1.
         11    1    1    2    0    0 -0.31683144990E+02  0.19525609719E+02  0.25904905010E+02  0.45344627189E+02  0.00000000000E+00 0.  1.
</event>
<event>
 7    1  0.1538147E-010  0.1333970E+03  0.7561462E-02  0.1222500E+00
          1   -1    0    0  501    0  0.00000000000E+00  0.00000000000E+00  0.37260874029E+03  0.37260874029E+03  0.00000000000E+00 0. -1.
         -1   -1    0    0    0  501 -0.00000000000E+00 -0.00000000000E+00 -0.77139433221E+02  0.77139433221E+02  0.00000000000E+00 0.  1.
         25    2    1    2    0    0 -0.28928252963E+01  0.10647138852E+03  0.26520490471E+03  0.31195918561E+03  0.12506145287E+03 0.  0.
          5    1    3    3  502    0 -0.60705444261E+02  0.64812297900E+02  0.11242858494E+03  0.14332984348E+03  0.41800000000E+01 0.  1.
         -5    1    3    3    0  502  0.57812618964E+02  0.41659090619E+02  0.15277631978E+03  0.16862934213E+03  0.41800000000E+01 0.  1.
        -11    1    1    2    0    0  0.88107704697E+00 -0.22417304465E+02 -0.27715593279E+02  0.35657621163E+02  0.00000000000E+00 0.  1.
         11    1    1    2    0    0  0.20117482494E+01 -0.84054084055E+02  0.57979995636E+02  0.10213136674E+03  0.00000000000E+00 0. -1.
</event>
<event>
 7    1  0.1538147E-010  0.1091640E+03  0.7561462E-02  0.1262126E+00
          1   -1    0    0  501    0  0.00000000000E+00  0.00000000000E+00  0.23779148677E+03  0.23779148677E+03  0.00000000000E+00 0. -1.
         -1   -1    0    0    0  501 -0.00000000000E+00 -0.00000000000E+00 -0.76334309373E+02  0.76334309373E+02  0.00000000000E+00 0.  1.
         25    2    1    2    0    0  0.74185602905E+02  0.23511174460E+02  0.52532045045E+02  0.15638463623E+03  0.12506102387E+03 0.  0.
          5    1    3    3  502    0  0.11078115446E+02  0.50377566065E+02 -0.20904011489E+02  0.55812847095E+02  0.41800000000E+01 0.  1.
         -5    1    3    3    0  502  0.63107487459E+02 -0.26866391605E+02  0.73436056534E+02  0.10057178914E+03  0.41800000000E+01 0.  1.
        -11    1    1    2    0    0 -0.37475303747E+02 -0.42391488611E+02  0.20545561698E+02  0.60195986603E+02  0.00000000000E+00 0.  1.
         11    1    1    2    0    0 -0.36710299158E+02  0.18880314151E+02  0.88379570657E+02  0.97545173311E+02  0.00000000000E+00 0. -1.
</event>
<event>
 6    1  0.1538147E-010  0.1054729E+03  0.7561462E-02  0.1269191E+00
         -1   -1    0    0    0  501 -0.00000000000E+00  0.00000000000E+00  0.66758606066E+01  0.66758606066E+01  0.00000000000E+00 0.  1.
          1   -1    0    0  501    0  0.00000000000E+00 -0.00000000000E+00 -0.26476564111E+04  0.26476564111E+04  0.00000000000E+00 0. -1.
          5    1    1    2  502    0  0.36627653904E+01 -0.57382070923E+02 -0.13231076156E+04  0.13243629989E+04  0.41800000000E+01 0. -1.
         -5    1    1    2    0  502  0.15199435382E+02  0.63270233909E+02 -0.90448339000E+03  0.90683064600E+03  0.41800000000E+01 0. -1.
        -11    1    1    2    0    0  0.31902413351E+02  0.12263950077E+02 -0.11717795951E+03  0.12206081535E+03  0.00000000000E+00 0.  1.
         11    1    1    2    0    0 -0.50764614123E+02 -0.18152113063E+02 -0.29621158537E+03  0.30107781147E+03  0.00000000000E+00 0. -1.
</event>
<event>
 6    1  0.1538147E-010  0.1594404E+03  0.7561462E-02  0.1189330E+00
         -2   -1    0    0    0  501 -0.00000000000E+00  0.00000000000E+00  0.36717954437E+03  0.36717954437E+03  0.00000000000E+00 0.  1.
          2   -1    0    0  501    0  0.00000000000E+00 -0.00000000000E+00 -0.82166472276E+02  0.82166472276E+02  0.00000000000E+00 0. -1.
          5    1    1    2  502    0 -0.53652710400E+02 -0.12181706154E+03  0.12998053015E+03  0.18609250505E+03  0.41800000000E+01 0.  1.
         -5    1    1    2    0  502 -0.42331282871E+02  0.27059820042E+02  0.38919129395E+02  0.63689421438E+02  0.41800000000E+01 0.  1.
        -11    1    1    2    0    0  0.71572554464E+02  0.76845891047E+02  0.12927191727E+03  0.16655074338E+03  0.00000000000E+00 0.  1.
         11    1    1    2    0    0  0.24411438807E+02  0.17911350452E+02 -0.13158504723E+02  0.33013346789E+02  0.00000000000E+00 0. -1.
</event>
<event>
 7    1  0.1538147E-010  0.1038858E+03  0.7561462E-02  0.1272331E+00
          3   -1    0    0  501    0  0.00000000000E+00  0.00000000000E+00  0.53563747250E+03  0.53563747250E+03  0.00000000000E+00 0. -1.
         -3   -1    0    0    0  501 -0.00000000000E+00 -0.00000000000E+00 -0.31204508739E+02  0.31204508739E+02  0.00000000000E+00 0.  1.
         25    2    1    2    0    0  0.11462460503E+02 -0.64631797193E+02  0.33341692609E+03  0.36211619348E+03  0.12511048625E+03 0.  0.
          5    1    3    3  502    0  0.96679634940E+01 -0.83902232904E+02  0.33162379484E+03  0.34223510619E+03  0.41800000000E+01 0. -1.
         -5    1    3    3    0  502  0.17944970086E+01  0.19270435710E+02  0.17931312402E+01  0.19881087285E+02  0.41800000000E+01 0. -1.
        -11    1    1    2    0    0  0.30824158228E+02  0.49859215842E+02  0.13524765161E+03  0.14740419737E+03  0.00000000000E+00 0.  1.
         11    1    1    2    0    0 -0.42286618731E+02  0.14772581351E+02  0.35768386063E+02  0.57321590392E+02  0.00000000000E+00 0. -1.
</event>
<event>
 7    1  0.1538147E-010  0.1236273E+03  0.7561462E-02  0.1237230E+00
          2   -1    0    0  501    0  0.00000000000E+00  0.00000000000E+00  0.65250406981E+03  0.65250406981E+03  0.00000000000E+00 0. -1.
         -2   -1    0    0    0  501 -0.00000000000E+00 -0.00000000000E+00 -0.35058539283E+02  0.35058539283E+02  0.00000000000E+00 0.  1.
         25    2    1    2    0    0  0.78231398821E+02 -0.80624870577E+02  0.34567956916E+03  0.38439071402E+03  0.12506532281E+03 0.  0.
          5    1    3    3  502    0  0.68194187309E+02 -0.74902361448E+02  0.11469323978E+03  0.15307783179E+03  0.41800000000E+01 0. -1.
         -5    1    3    3    0  502  0.10037211512E+02 -0.57225091291E+01  0.23098632938E+03  0.23131288223E+03  0.41800000000E+01 0. -1.
        -11    1    1    2    0    0  0.14121692954E+02  0.11913254955E+02  0.27343207522E+02  0.32999982623E+02  0.00000000000E+00 0.  1.
         11    1    1    2    0    0 -0.92353091775E+02  0.68711615622E+02  0.24442275385E+03  0.27017191246E+03  0.00000000000E+00 0. -1.
</event>
<event>
 6    1  0.1538147E-010  0.1009920E+03  0.7561462E-02  0.1278224E+00
         -1   -1    0    0    0  501 -0.00000000000E+00  0.00000000000E+00  0.13072156731E+02  0.13072156731E+02  0.00000000000E+00 0. -1.
          1   -1    0    0  501    0  0.00000000000E+00 -0.00000000000E+00 -0.15568611083E+04  0.15568611083E+04  0.00000000000E+00 0.  1.
          5    1    1    2  502    0 -0.83445200097E+02 -0.21851281761E+02 -0.81871124994E+03  0.82325340152E+03  0.41800000000E+01 0.  1.
         -5    1    1    2    0  502  0.46234806571E+02 -0.22380686620E+01 -0.47294984442E+03  0.47522804424E+03  0.41800000000E+01 0.  1.
        -11    1    1    2    0    0  0.28119898989E+02 -0.12985739757E+02 -0.21543542167E+02  0.37729065259E+02  0.00000000000E+00 0. -1.
         11    1    1    2    0    0  0.90904945368E+01  0.37075090180E+02 -0.23058431508E+03  0.23372275405E+03  0.00000000000E+00 0.  1.
</event>
<event>
 7    1  0.1538147E-010  0.1326871E+03  0.7561462E-02  0.1223522E+00
          2   -1    0    0  501    0  0.00000000000E+00  0.00000000000E+00  0.33261837066E+03  0.33261837066E+03  0.00000000000E+00 0. -1.
         -2   -1    0    0    0  501 -0.00000000000E+00 -0.00000000000E+00 -0.56655908462E+02  0.56655908462E+02  0.00000000000E+00 0.  1.
         25    2    1    2    0    0  0.77976453435E+02  0.25648601640E+02  0.17573107239E+03  0.23076955228E+03  0.12503998721E+03 0.  0.
          5    1    3    3  502    0  0.21608115506E+02  0.69552799618E+02  0.11838720312E+03  0.13905935730E+03  0.41800000000E+01 0. -1.
         -5    1    3    3    0  502  0.56368337929E+02 -0.43904197978E+02  0.57343869272E+02  0.91710194984E+02  0.41800000000E+01 0. -1.
        -11    1    1    2    0    0 -0.64449269016E+01 -0.46024908898E+02  0.52568908492E+02  0.70166369878E+02  0.00000000000E+00 0.  1.
         11    1    1    2    0    0 -0.71531526533E+02  0.20376307258E+02  0.47662481321E+02  0.88338356965E+02  0.00000000000E+00 0. -1.
</event>
<event>
 7    1  0.1538147E-010  0.1240739E+03  0.7561462E-02  0.1236524E+00
         -1   -1    0    0    0  501 -0.00000000000E+00  0.00000000000E+00  0.31272524367E+03  0.31272524367E+03  0.00000000000E+00 0.  1.
          1   -1    0    0  501    0  0.00000000000E+00 -0.00000000000E+00 -0.79870892385E+02  0.79870892385E+02  0.00000000000E+00 0. -1.
         25    2    1    2    0    0 -0.11179992049E+03  0.15042846582E+01  0.14919495040E+03  0.22453022460E+03  0.12511276291E+03 0.  0.
          5    1    3    3  502    0 -0.24198495613E+02  0.46919459231E+01 -0.21254780738E+02  0.32814930302E+02  0.41800000000E+01 0. -1.
         -5    1    3    3    0  502 -0.87601424881E+02 -0.31876612650E+01  0.17044973113E+03  0.19171529430E+03  0.41800000000E+01 0. -1.
        -11    1    1    2    0    0  0.94460135232E+02  0.30268556450E+02  0.30539748082E+02  0.10378621715E+03  0.00000000000E+00 0. -1.
         11    1    1    2    0    0  0.17339785262E+02 -0.31772841108E+02  0.53119652812E+02  0.64279694304E+02  0.00000000000E+00 0.  1.
</event>
<event>
 7    1  0.1538147E-010  0.1232574E+03  0.7561462E-02  0.1237818E+00
          1   -1    0    0  501    0  0.00000000000E+00  0.00000000000E+00  0.90811199200E+02  0.90811199200E+02  0.00000000000E+00 0. -1.
         -1   -1    0    0    0  501 -0.00000000000E+00 -0.00000000000E+00 -0.19541340019E+03  0.19541340019E+03  0.00000000000E+00 0.  1.
         25    2    1    2    0    0 -0.65890546510E+02  0.38209207931E+02 -0.70363350201E+02  0.16245027092E+03  0.12505031700E+03 0.  0.
          5    1    3    3  502    0 -0.38563986437E+02 -0.33980203116E+02 -0.67699256863E+02  0.85102861488E+02  0.41800000000E+01 0.  1.
         -5    1    3    3    0  502 -0.27326560073E+02  0.72189411047E+02 -0.26640933380E+01  0.77347409433E+02  0.41800000000E+01 0.  1.
        -11    1    1    2    0    0  0.73670463036E+02  0.49056295853E+01 -0.30221678955E+02  0.79779397118E+02  0.00000000000E+00 0.  1.
         11    1    1    2    0    0 -0.77799165266E+01 -0.43114837517E+02 -0.40171718369E+01  0.43994931354E+02  0.00000000000E+00 0. -1.
</event>
<event>
 6    1  0.1538147E-010  0.2436941E+03  0.7561462E-02  0.1117356E+00
         -1   -1    0    0    0  501 -0.00000000000E+00  0.00000000000E+00  0.11700837368E+03  0.11700837368E+03  0.00000000000E+00 0.  1.
          1   -1    0    0  501    0  0.00000000000E+00 -0.00000000000E+00 -0.86347829574E+03  0.86347829574E+03  0.00000000000E+00 0. -1.
          5    1    1    2  502    0 -0.81324874459E+01  0.10562666204E+03 -0.34206410690E+02  0.11140323163E+03  0.41800000000E+01 0. -1.
         -5    1    1    2    0  502 -0.13293280189E+03  0.64650673321E+02 -0.36013552976E+02  0.15220147101E+03  0.41800000000E+01 0. -1.
        -11    1    1    2    0    0  0.14134422047E+03 -0.12642864602E+03 -0.59587821649E+03  0.62532650678E+03  0.00000000000E+00 0. -1.
         11    1    1    2    0    0 -0.27893113240E+00 -0.43848689339E+02 -0.80371741905E+02  0.91555460002E+02  0.00000000000E+00 0.  1.
</event>
<event>
 7    1  0.1538147E-010  0.2586437E+03  0.7561462E-02  0.1107961E+00
          1   -1    0    0  501    0  0.00000000000E+00  0.00000000000E+00  0.16318672915E+04  0.16318672915E+04  0.00000000000E+00 0. -1.
         -1   -1    0    0    0  501 -0.00000000000E+00 -0.00000000000E+00 -0.66300196716E+02  0.66300196716E+02  0.00000000000E+00 0.  1.
         25    2    1    2    0    0 -0.21199958538E+03  0.10293986503E+03  0.27519267847E+03  0.38329181610E+03  0.12506464726E+03 0.  0.
          5    1    3    3  502    0 -0.15485316420E+03  0.73815857819E+01  0.15123603200E+03  0.21661902051E+03  0.41800000000E+01 0. -1.
         -5    1    3    3    0  502 -0.57146421174E+02  0.95558279245E+02  0.12395664647E+03  0.16667279559E+03  0.41800000000E+01 0. -1.
        -11    1    1    2    0    0  0.66193232528E+02  0.92124627012E+01  0.27760000547E+03  0.28553139327E+03  0.00000000000E+00 0.  1.
         11    1    1    2    0    0  0.14580635285E+03 -0.11215232773E+03  0.10127744108E+04  0.10293442789E+04  0.00000000000E+00 0. -1.
</event>
<event>
 6    1  0.1538147E-010  0.1026006E+03  0.7561462E-02  0.1274920E+00
         -2   -1    0    0    0  501 -0.00000000000E+00  0.00000000000E+00  0.34970730468E+02  0.34970730468E+02  0.00000000000E+00 0.  1.
          2   -1    0    0  501    0  0.00000000000E+00 -0.00000000000E+00 -0.64136432803E+03  0.64136432803E+03  0.00000000000E+00 0. -1.
          5    1    1    2  502    0 -0.54602853506E+02 -0.64269788998E+02 -0.43925011208E+03  0.44729208662E+03  0.41800000000E+01 0.  1.
         -5    1    1    2    0  502 -0.58368671707E+01 -0.40749451753E+01  0.75724946577E+01  0.11202199422E+02  0.41800000000E+01 0.  1.
        -11    1    1    2    0    0 -0.12935774801E+02  0.22606624343E+02 -0.10073125383E+03  0.10404412156E+03  0.00000000000E+00 0. -1.
         11    1    1    2    0    0  0.73375495478E+02  0.45738109830E+02 -0.73984726306E+02  0.11379665089E+03  0.00000000000E+00 0.  1.
</event>
<event>
 6    1  0.1538147E-010  0.1170828E+03  0.7561462E-02  0.1247989E+00
          1   -1    0    0  501    0  0.00000000000E+00  0.00000000000E+00  0.16907456778E+02  0.16907456778E+02  0.00000000000E+00 0. -1.
         -1   -1    0    0    0  501 -0.00000000000E+00 -0.00000000000E+00 -0.85322853914E+03  0.85322853914E+03  0.00000000000E+00 0.  1.
          5    1    1    2  502    0  0.37709888454E+02 -0.60506447058E+02 -0.17958159635E+03  0.19326170849E+03  0.41800000000E+01 0. -1.
         -5    1    1    2    0  502  0.13316471305E+02  0.56108513090E+02 -0.27241082168E+03  0.27847912277E+03  0.41800000000E+01 0. -1.
        -11    1    1    2    0    0  0.45475381408E+01 -0.35960509989E+02 -0.13240045248E+03  0.13727242330E+03  0.00000000000E+00 0.  1.
         11    1    1    2    0    0 -0.55573897899E+02  0.40358443956E+02 -0.25192821185E+03  0.26112274135E+03  0.00000000000E+00 0. -1.
</event>
<event>
 6    1  0.1538147E-010  0.1326341E+03  0.7561462E-02  0.1223599E+00
         -1   -1    0    0    0  501 -0.00000000000E+00  0.00000000000E+00  0.39930021257E+03  0.39930021257E+03  0.00000000000E+00 0.  1.
          1   -1    0    0  501    0  0.00000000000E+00 -0.00000000000E+00 -0.61821884342E+02  0.61821884342E+02  0.00000000000E+00 0. -1.
          5    1    1    2  502    0 -0.66553124738E+02  0.15790016345E+02  0.17325923408E+03  0.18631928946E+03  0.41800000000E+01 0. -1.
         -5    1    1    2    0  502  0.32093992589E+02  0.74606280212E+02  0.95002643235E+02  0.12505637140E+03  0.41800000000E+01 0. -1.
        -11    1    1    2    0    0  0.52122633415E+02 -0.54518451014E+02  0.78319191604E+02  0.10873328004E+03  0.00000000000E+00 0.  1.
         11    1    1    2    0    0 -0.17663501267E+02 -0.35877845543E+02 -0.91027406928E+01  0.41013156010E+02  0.00000000000E+00 0. -1.
</event>
<event>
 7    1  0.1538147E-010  0.1210615E+03  0.7561462E-02  0.1241356E+00
          2   -1    0    0  501    0  0.00000000000E+00  0.00000000000E+00  0.18028209590E+04  0.18028209590E+04  0.00000000000E+00 0. -1.
         -2   -1    0    0    0  501 -0.00000000000E+00 -0.00000000000E+00 -0.95735064729E+01  0.95735064729E+01  0.00000000000E+00 0.  1.
         25    2    1    2    0    0 -0.55256652658E+01  0.56201289882E+02  0.13203614446E+04  0.13274795532E+04  0.12513393559E+03 0.  0.
          5    1    3    3  502    0 -0.60986068387E+02  0.50169767466E+02  0.88788323319E+03  0.89139801116E+03  0.41800000000E+01 0.  1.
         -5    1    3    3    0  502  0.55460403122E+02  0.60315224160E+01  0.43247821136E+03  0.43608154201E+03  0.41800000000E+01 0.  1.
        -11    1    1    2    0    0  0.47924439830E+02 -0.22531322052E+02  0.21767194051E+03  0.22402117331E+03  0.00000000000E+00 0.  1.
         11    1    1    2    0    0 -0.42398774564E+02 -0.33669967830E+02  0.25521406745E+03  0.26089373899E+03  0.00000000000E+00 0. -1.
</event>
<event>
 7    1  0.1538147E-010  0.1605385E+03  0.7561462E-02  0.1188090E+00
         -2   -1    0    0    0  501 -0.00000000000E+00  0.00000000000E+00  0.12841955530E+03  0.12841955530E+03  0.00000000000E+00 0.  1.
          2   -1    0    0  501    0  0.00000000000E+00 -0.00000000000E+00 -0.28818958668E+03  0.28818958668E+03  0.00000000000E+00 0. -1.
         25    2    1    2    0    0 -0.91255762073E+02 -0.12920806495E+03 -0.70645572102E+02  0.21369900960E+03  0.12511647249E+03 0.  0.
          5    1    3    3  502    0 -0.52257977815E+01 -0.29923935202E+02 -0.76205730308E+02  0.82143390435E+02  0.41800000000E+01 0.  1.
         -5    1    3    3    0  502 -0.86029964292E+02 -0.99284129747E+02  0.55601582056E+01  0.13155561917E+03  0.41800000000E+01 0.  1.
        -11    1    1    2    0    0  0.53452929749E+02  0.88760062377E+02 -0.69759230950E+01  0.10384713706E+03  0.00000000000E+00 0.  1.
         11    1    1    2    0    0  0.37802832324E+02  0.40448002572E+02 -0.82148536186E+02  0.99062995318E+02  0.00000000000E+00 0. -1.
</event>
<event>
 6    1  0.1538147E-010  0.1807845E+03  0.7561462E-02  0.1167046E+00
         -2   -1    0    0    0  501 -0.00000000000E+00  0.00000000000E+00  0.88688781237E+02  0.88688781237E+02  0.00000000000E+00 0.  1.
          2   -1    0    0  501    0  0.00000000000E+00 -0.00000000000E+00 -0.52615800452E+03  0.52615800452E+03  0.00000000000E+00 0. -1.
          5    1    1    2  502    0 -0.22031761216E+02  0.13797567433E+02  0.22943067493E+02  0.34923174474E+02  0.41800000000E+01 0. -1.
         -5    1    1    2    0  502  0.21363362817E+01  0.14878229306E+03 -0.12900127379E+03  0.19697597748E+03  0.41800000000E+01 0. -1.
        -11    1    1    2    0    0  0.14650280519E+02 -0.17357964680E+03 -0.27725000965E+03  0.32743257681E+03  0.00000000000E+00 0.  1.
         11    1    1    2    0    0  0.52451444150E+01  0.10999786304E+02 -0.54161007332E+02  0.55515057001E+02  0.00000000000E+00 0. -1.
</event>
<event>
 7    1  0.1538147E-010  0.1107441E+03  0.7561462E-02  0.1259198E+00
          2   -1    0    0  501    0  0.00000000000E+00  0.00000000000E+00  0.20313706594E+03  0.20313706594E+03  0.00000000000E+00 0. -1.
         -2   -1    0    0    0  501 -0.00000000000E+00 -0.00000000000E+00 -0.79179447284E+02  0.79179447284E+02  0.00000000000E+00 0.  1.
         25    2    1    2    0    0  0.60572581840E+02 -0.26750359879E+02  0.71573400158E+02  0.15862887960E+03  0.12512294118E+03 0.  0.
          5    1    3    3  502    0 -0.23553116127E+02 -0.12492401925E+02 -0.19852720403E+02  0.33502422189E+02  0.41800000000E+01 0.  1.
         -5    1    3    3    0  502  0.84125697967E+02 -0.14257957955E+02  0.91426120561E+02  0.12512645741E+03  0.41800000000E+01 0.  1.
        -11    1    1    2    0    0  0.10317825184E+02 -0.21139657929E+02  0.29160107890E+00  0.23525043785E+02  0.00000000000E+00 0.  1.
         11    1    1    2    0    0 -0.70890407024E+02  0.47890017808E+02  0.52092617421E+02  0.10016258984E+03  0.00000000000E+00 0. -1.
</event>
<event>
 7    1  0.1538147E-010  0.6036981E+02  0.7561462E-02  0.1396286E+00
          1   -1    0    0  501    0  0.00000000000E+00  0.00000000000E+00  0.15339591962E+03  0.15339591962E+03  0.00000000000E+00 0. -1.
         -1   -1    0    0    0  501 -0.00000000000E+00 -0.00000000000E+00 -0.10041910572E+03  0.10041910572E+03  0.00000000000E+00 0.  1.
         25    2    1    2    0    0  0.23789543409E+02  0.96965591247E+01  0.87194487124E+02  0.15465006722E+03  0.12511514326E+03 0.  0.
          5    1    3    3  502    0  0.16343473760E+02  0.18977714417E+02 -0.28557284285E+02  0.38213265560E+02  0.41800000000E+01 0. -1.
         -5    1    3    3    0  502  0.74460696481E+01 -0.92811552923E+01  0.11575177141E+03  0.11643680166E+03  0.41800000000E+01 0. -1.
        -11    1    1    2    0    0 -0.42161692896E+02  0.20892239258E+02 -0.41508185162E+02  0.62745704590E+02  0.00000000000E+00 0.  1.
         11    1    1    2    0    0  0.18372149487E+02 -0.30588798382E+02  0.72905119360E+01  0.36419253528E+02  0.00000000000E+00 0. -1.
</event>
<event>
 7    1  0.1538147E-010  0.1061858E+03  0.7561462E-02  0.1267801E+00
         -1   -1    0    0    0  501 -0.00000000000E+00  0.00000000000E+00  0.82648031731E+02  0.82648031731E+02  0.00000000000E+00 0.  1.
          1   -1    0    0  501    0  0.00000000000E+00 -0.00000000000E+00 -0.21263745226E+03  0.21263745226E+03  0.00000000000E+00 0. -1.
         25    2    1    2    0    0 -0.35246696148E+02 -0.38356348137E+01  0.18768878044E+01  0.13008412806E+03  0.12514517962E+03 0.  0.
          5    1    3    3  502    0 -0.70987626104E+02 -0.20210643817E+02 -0.29515670366E+02  0.79601258662E+02  0.41800000000E+01 0.  1.
         -5    1    3    3    0  502  0.35740929956E+02  0.16375009003E+02  0.31392558170E+02  0.50482869396E+02  0.41800000000E+01 0.  1.
        -11    1    1    2    0    0 -0.31637860429E+02  0.49081749926E+01 -0.51469910642E+02  0.60615147413E+02  0.00000000000E+00 0. -1.
         11    1    1    2    0    0  0.66884556577E+02 -0.10725401789E+01 -0.80396397687E+02  0.10458620852E+03  0.00000000000E+00 0.  1.
</event>
<event>
 6    1  0.1538147E-010  0.1025903E+03  0.7561462E-02  0.1274941E+00
          1   -1    0    0  501    0  0.00000000000E+00  0.00000000000E+00  0.73756818927E+03  0.73756818927E+03  0.00000000000E+00 0.  1.
         -1   -1    0    0    0  501 -0.00000000000E+00 -0.00000000000E+00 -0.19691266628E+02  0.19691266628E+02  0.00000000000E+00 0. -1.
          5    1    1    2  502    0  0.75710356094E+01  0.23579908745E+02  0.29666262975E+03  0.29772390056E+03  0.41800000000E+01 0.  1.
         -5    1    1    2    0  502 -0.33929423152E+02 -0.68000469015E+02  0.13859579765E+03  0.15811874357E+03  0.41800000000E+01 0.  1.
        -11    1    1    2    0    0 -0.22537414558E+02 -0.14947109913E+02  0.91191839680E+02  0.95117310590E+02  0.00000000000E+00 0.  1.
         11    1    1    2    0    0  0.48895802100E+02  0.59367670182E+02  0.19142665557E+03  0.20629950118E+03  0.00000000000E+00 0. -1.
</event>
<event>
 7    1  0.1538147E-010  0.1015485E+03  0.7561462E-02  0.1277073E+00
         -3   -1    0    0    0  501 -0.00000000000E+00  0.00000000000E+00  0.83639489354E+02  0.83639489354E+02  0.00000000000E+00 0.  1.
          3   -1    0    0  501    0  0.00000000000E+00 -0.00000000000E+00 -0.21208469278E+03  0.21208469278E+03  0.00000000000E+00 0. -1.
         25    2    1    2    0    0  0.56349651949E+02 -0.51159155764E+02 -0.87806599396E+02  0.17075752676E+03  0.12512230638E+03 0.  0.
          5    1    3    3  502    0  0.51075988837E+02 -0.72484843498E+02 -0.10857033486E+03  0.14024193090E+03  0.41800000000E+01 0. -1.
         -5    1    3    3    0  502  0.52736631119E+01  0.21325687734E+02  0.20763735461E+02  0.30515595852E+02  0.41800000000E+01 0. -1.
        -11    1    1    2    0    0 -0.31660385799E+01  0.36718362641E+02  0.20892456753E+02  0.42364568976E+02  0.00000000000E+00 0.  1.
         11    1    1    2    0    0 -0.53183613369E+02  0.14440793123E+02 -0.61531060785E+02  0.82602086404E+02  0.00000000000E+00 0. -1.
</event>
<event>
 6    1  0.1538147E-010  0.7556736E+02  0.7561462E-02  0.1342123E+00
          2   -1    0    0  501    0  0.00000000000E+00  0.00000000000E+00  0.77689291354E+03  0.77689291354E+03  0.00000000000E+00 0.  1.
         -2   -1    0    0    0  501 -0.00000000000E+00 -0.00000000000E+00 -0.18043038336E+02  0.18043038336E+02  0.00000000000E+00 0. -1.
          5    1    1    2  502    0 -0.15291176733E+02  0.40936756441E+02  0.50155467328E+02  0.66653442647E+02  0.41800000000E+01 0.  1.
         -5    1    1    2    0  502 -0.10520788350E+02 -0.25656719380E+02  0.41347500453E+03  0.41442490997E+03  0.41800000000E+01 0.  1.
        -11    1    1    2    0    0  0.17807438069E+02 -0.45009620797E+02  0.26928859163E+03  0.27360430625E+03  0.00000000000E+00 0.  1.
         11    1    1    2    0    0  0.80045270138E+01  0.29729583736E+02  0.25930811721E+02  0.40253293012E+02  0.00000000000E+00 0. -1.
</event>
<event>
 7    1  0.1538147E-010  0.1010422E+03  0.7561462E-02  0.1278119E+00
          1   -1    0    0  501    0  0.00000000000E+00  0.00000000000E+00  0.20642756839E+03  0.20642756839E+03  0.00000000000E+00 0. -1.
         -1   -1    0    0    0  501 -0.00000000000E+00 -0.00000000000E+00 -0.55206155246E+02  0.55206155246E+02  0.00000000000E+00 0.  1.
         25    2    1    2    0    0 -0.15324328293E+02  0.51045671177E+02  0.70651942857E+02  0.15326619677E+03  0.12513326680E+03 0.  0.
          5    1    3    3  502    0  0.50391950548E+02  0.83501266454E+01  0.51133609309E+02  0.72396075142E+02  0.41800000000E+01 0.  1.
         -5    1    3    3    0  502 -0.65716278841E+02  0.42695544531E+02  0.19518333548E+02  0.80870121627E+02  0.41800000000E+01 0.  1.
        -11    1    1    2    0    0 -0.18452638263E+00 -0.56056638859E+02  0.59787841148E+02  0.81957103166E+02  0.00000000000E+00 0. -1.
         11    1    1    2    0    0  0.15508854676E+02  0.50109676823E+01  0.20781629142E+02  0.26410423704E+02  0.00000000000E+00 0.  1.
</event>
<event>
 6    1  0.1538147E-010  0.8800280E+02  0.7561462E-02  0.1307762E+00
          3   -1    0    0  501    0  0.00000000000E+00  0.00000000000E+00  0.21821326271E+03  0.21821326271E+03  0.00000000000E+00 0. -1.
         -3   -1    0    0    0  501 -0.00000000000E+00 -0.00000000000E+00 -0.57814852427E+02  0.57814852427E+02  0.00000000000E+00 0.  1.
          5    1    1    2  502    0  0.38629519391E+01 -0.58060956241E+02  0.53112280274E+02  0.78894763789E+02  0.41800000000E+01 0. -1.
         -5    1    1    2    0  502 -0.28744747277E+02  0.55421067821E+02  0.99784429544E+01  0.63362425602E+02  0.41800000000E+01 0. -1.
        -11    1    1    2    0    0  0.11900728709E+02  0.25874221442E+02  0.10273414024E+03  0.10660865935E+03  0.00000000000E+00 0. -1.
         11    1    1    2    0    0  0.12981066628E+02 -0.23234333021E+02 -0.54264531780E+01  0.27162266397E+02  0.00000000000E+00 0.  1.
</event>
<event>
 7    1  0.1538147E-010  0.1152864E+03  0.7561462E-02  0.1251082E+00
         -2   -1    0    0    0  501 -0.00000000000E+00  0.00000000000E+00  0.17298912595E+02  0.17298912595E+02  0.00000000000E+00 0.  1.
          2   -1    0    0  501    0  0.00000000000E+00 -0.00000000000E+00 -0.80967426170E+03  0.80967426170E+03  0.00000000000E+00 0. -1.
         25    2    1    2    0    0 -0.22473101921E+02 -0.41678182498E+02 -0.44827633024E+03  0.46781334688E+03  0.12512213259E+03 0.  0.
          5    1    3    3  502    0  0.39203722785E+02  0.20619015529E+02 -0.11912877100E+03  0.12716608102E+03  0.41800000000E+01 0.  1.
         -5    1    3    3    0  502 -0.61676824706E+02 -0.62297198028E+02 -0.32914755924E+03  0.34064726586E+03  0.41800000000E+01 0.  1.
        -11    1    1    2    0    0 -0.31236025840E+02  0.15531392930E+01 -0.16469881895E+03  0.16764188771E+03  0.00000000000E+00 0.  1.
         11    1    1    2    0    0  0.53709127761E+02  0.40125043205E+02 -0.17940019991E+03  0.19151793970E+03  0.00000000000E+00 0. -1.
</event>
<event>
 7    1  0.1538147E-010  0.1091150E+03  0.7561462E-02  0.1262217E+00
          1   -1    0    0  501    0  0.00000000000E+00  0.00000000000E+00  0.43705609216E+02  0.43705609216E+02  0.00000000000E+00 0. -1.
         -1   -1    0    0    0  501 -0.00000000000E+00 -0.00000000000E+00 -0.36049960413E+03  0.36049960413E+03  0.00000000000E+00 0.  1.
         25    2    1    2    0    0  0.52271776790E+02  0.92370181543E+01 -0.12551073429E+03  0.18496594974E+03  0.12506716990E+03 0.  0.
          5    1    3    3  502    0  0.58454390654E+02  0.56402895606E+02 -0.49546776344E+02  0.95239476404E+02  0.41800000000E+01 0.  1.
         -5    1    3    3    0  502 -0.61826138642E+01 -0.47165877452E+02 -0.75963957945E+02  0.89726473333E+02  0.41800000000E+01 0.  1.
        -11    1    1    2    0    0  0.99160381130E+01  0.18544690546E+02 -0.11527923828E+03  0.11718163737E+03  0.00000000000E+00 0.  1.
         11    1    1    2    0    0 -0.62187814903E+02 -0.27781708700E+02 -0.76004022351E+02  0.10205762624E+03  0.00000000000E+00 0. -1.
</event>
<event>
 7    1  0.1538147E-010  0.1498926E+03  0.7561462E-02  0.1200605E+00
          1   -1    0    0  501    0  0.00000000000E+00  0.00000000000E+00  0.63946975316E+03  0.63946975316E+03  0.00000000000E+00 0. -1.
         -1   -1    0    0    0  501 -0.00000000000E+00 -0.00000000000E+00 -0.41878137161E+02  0.41878137161E+02  0.00000000000E+00 0.  1.
         25    2    1    2    0    0 -0.38501707031E+02 -0.10642510753E+03  0.42496678371E+03  0.45722973858E+03  0.12511427428E+03 0.  0.
          5    1    3    3  502    0 -0.75178335961E+02 -0.32454274686E+02  0.16187834378E+03  0.18145834984E+03  0.41800000000E+01 0. -1.
         -5    1    3    3    0  502  0.36676628930E+02 -0.73970832848E+02  0.26308843993E+03  0.27577138874E+03  0.41800000000E+01 0. -1.
        -11    1    1    2    0    0  0.49145019372E+02  0.11257292297E+03  0.12626040985E+03  0.17615217004E+03  0.00000000000E+00 0. -1.
         11    1    1    2    0    0 -0.10643312341E+02 -0.61478154306E+01  0.46364422447E+02  0.47965981706E+02  0.00000000000E+00 0.  1.
</event>
<event>
 7    1  0.1538147E-010  0.1201594E+03  0.7561462E-02  0.1242834E+00
          1   -1    0    0  501    0  0.00000000000E+00  0.00000000000E+00  0.39755642175E+02  0.39755642175E+02  0.00000000000E+00 0.  1.
         -1   -1    0    0    0  501 -0.00000000000E+00 -0.00000000000E+00 -0.46615619155E+03  0.46615619155E+03  0.00000000000E+00 0. -1.
         25    2    1    2    0    0 -0.46866912162E+02  0.67612333775E+02 -0.24771886879E+03  0.28945871861E+03  0.12511505382E+03 0.  0.
          5    1    3    3  502    0 -0.67962270095E+02  0.69131952974E+02 -0.96989152260E+02  0.13719498947E+03  0.41800000000E+01 0. -1.
         -5    1    3    3    0  502  0.21095357933E+02 -0.15196191989E+01 -0.15072971653E+03  0.15226372915E+03  0.41800000000E+01 0. -1.
        -11    1    1    2    0    0  0.23612246599E+02 -0.87807006012E+02 -0.14115350468E+03  0.16790449778E+03  0.00000000000E+00 0. -1.
         11    1    1    2    0    0  0.23254665563E+02  0.20194672237E+02 -0.37528175908E+02  0.48548617325E+02  0.00000000000E+00 0.  1.
</event>
<event>
 6    1  0.1538147E-010  0.1146299E+03  0.7561462E-02  0.1252228E+00
         -1   -1    0    0    0  501 -0.00000000000E+00  0.00000000000E+00  0.45307883493E+02  0.45307883493E+02  0.00000000000E+00 0.  1.
          1   -1    0    0  501    0  0.00000000000E+00 -0.00000000000E+00 -0.43320539770E+03  0.43320539770E+03  0.00000000000E+00 0. -1.
          5    1    1    2  502    0  0.55343795613E+01 -0.60379263298E+02 -0.63965156731E+02  0.88234338379E+02  0.41800000000E+01 0. -1.
         -5    1    1    2    0  502  0.38907125720E+02  0.53124856622E+02 -0.19361023350E+02  0.68762900230E+02  0.41800000000E+01 0. -1.
        -11    1    1    2    0    0  0.27977171658E+02  0.10819126330E+02 -0.10410068136E+03  0.10833617811E+03  0.00000000000E+00 0.  1.
         11    1    1    2    0    0 -0.72418676939E+02 -0.35647196541E+01 -0.20047065277E+03  0.21317986447E+03  0.00000000000E+00 0. -1.
</event>
<event>
 7    1  0.1538147E-010  0.1148429E+03  0.7561462E-02  0.1251856E+00
         -2   -1    0    0    0  501 -0.00000000000E+00  0.00000000000E+00  0.15663107326E+03  0.15663107326E+03  0.00000000000E+00 0.  1.
          2   -1    0    0  501    0  0.00000000000E+00 -0.00000000000E+00 -0.11690131452E+03  0.11690131452E+03  0.00000000000E+00 0. -1.
         25    2    1    2    0    0 -0.63921065669E+02 -0.37065156398E+02 -0.75290707854E+01  0.14545788846E+03  0.12506631022E+03 0.  0.
          5    1    3    3  502    0 -0.33135006468E+02 -0.62680445015E+02  0.41307481459E+02  0.82161714110E+02  0.41800000000E+01 0. -1.
         -5    1    3    3    0  502 -0.30786059201E+02  0.25615288617E+02 -0.48836552245E+02  0.63296174349E+02  0.41800000000E+01 0. -1.
        -11    1    1    2    0    0  0.58400245244E+02  0.66468319428E+02  0.29418586771E+02  0.93242047273E+02  0.00000000000E+00 0. -1.
         11    1    1    2    0    0  0.55208204256E+01 -0.29403163030E+02  0.17840242748E+02  0.34832452048E+02  0.00000000000E+00 0.  1.
</event>
<event>
 6    1  0.1538147E-010  0.9675140E+02  0.7561462E-02  0.1287280E+00
          3   -1    0    0  501    0  0.00000000000E+00  0.00000000000E+00  0.11161749184E+03  0.11161749184E+03  0.00000000000E+00 0. -1.
         -3   -1    0    0    0  501 -0.00000000000E+00 -0.00000000000E+00 -0.16058411110E+03  0.16058411110E+03  0.00000000000E+00 0.  1.
          5    1    1    2  502    0  0.19327249136E+02  0.62161369541E+02 -0.29795014977E+01  0.65298761486E+02  0.41800000000E+01 0. -1.
         -5    1    1    2    0  502 -0.18725372863E+01 -0.28385935755E+02 -0.92434209705E+02  0.96803012703E+02  0.41800000000E+01 0. -1.
        -11    1    1    2    0    0 -0.24482762651E+02 -0.63981658553E+02  0.27940295203E+02  0.73984582139E+02  0.00000000000E+00 0.  1.
         11    1    1    2    0    0  0.70280508008E+01  0.30206224767E+02  0.18506796743E+02  0.36115246620E+02  0.00000000000E+00 0. -1.
</event>
<event>
 7    1  0.1538147E-010  0.1330382E+03  0.7561462E-02  0.1223016E+00
         -1   -1    0    0    0  501 -0.00000000000E+00  0.00000000000E+00  0.33993824813E+03  0.33993824813E+03  0.00000000000E+00 0.  1.
          1   -1    0    0  501    0  0.00000000000E+00 -0.00000000000E+00 -0.63274377746E+02  0.63274377746E+02  0.00000000000E+00 0. -1.
         25    2    1    2    0    0 -0.63417210347E+02 -0.72351374693E+02  0.16962463913E+03  0.23166987888E+03  0.12506778399E+03 0.  0.
          5    1    3    3  502    0  0.20908760749E+02 -0.58610025933E+02  0.33223196322E+02  0.70665158245E+02  0.41800000000E+01 0.  1.
         -5    1    3    3    0  502 -0.84325971096E+02 -0.13741348760E+02  0.13640144281E+03  0.16100472064E+03  0.41800000000E+01 0.  1.
        -11    1    1    2    0    0  0.50132417993E+01  0.57748716611E+02  0.12241196564E+02  0.59244356329E+02  0.00000000000E+00 0. -1.
         11    1    1    2    0    0  0.58403968547E+02  0.14602658082E+02  0.94798034687E+02  0.11229839066E+03  0.00000000000E+00 0.  1.
</event>
<event>
 6    1  0.1538147E-010  0.1042232E+03  0.7561462E-02  0.1271658E+00
         -2   -1    0    0    0  501 -0.00000000000E+00  0.00000000000E+00  0.27786978580E+02  0.27786978580E+02  0.00000000000E+00 0.  1.
          2   -1    0    0  501    0  0.00000000000E+00 -0.00000000000E+00 -0.60209852891E+03  0.60209852891E+03  0.00000000000E+00 0. -1.
          5    1    1    2  502    0 -0.21238295840E+02 -0.70466966549E+02 -0.13917340113E+03  0.15749084597E+03  0.41800000000E+01 0.  1.
         -5    1    1    2    0  502  0.39349598677E+02  0.16651772637E+02 -0.28818667671E+03  0.29136696017E+03  0.41800000000E+01 0.  1.
        -11    1    1    2    0    0 -0.43284757181E+02  0.50332599353E+02 -0.13958742435E+03  0.15456904541E+03  0.00000000000E+00 0. -1.
         11    1    1    2    0    0  0.25173454345E+02  0.34825945588E+01 -0.73640481404E+01  0.26458655928E+02  0.00000000000E+00 0.  1.
</event>
<event>
 7    1  0.1538147E-010  0.9493373E+02  0.7561462E-02  0.1291325E+00
          1   -1    0    0  501    0  0.00000000000E+00  0.00000000000E+00  0.14994161747E+03  0.14994161747E+03  0.00000000000E+00 0. -1.
         -1   -1    0    0    0  501 -0.00000000000E+00 -0.00000000000E+00 -0.97507194897E+02  0.97507194897E+02  0.00000000000E+00 0.  1.
         25    2    1    2    0    0 -0.53084061055E+02  0.16686452580E+02  0.35376435510E+02  0.14143729974E+03  0.12512658522E+03 0.  0.
          5    1    3    3  502    0  0.13526736336E+02  0.34831748034E+02  0.57603993719E+02  0.68788921778E+02  0.41800000000E+01 0. -1.
         -5    1    3    3    0  502 -0.66610797392E+02 -0.18145295454E+02 -0.22227558210E+02  0.72648377960E+02  0.41800000000E+01 0. -1.
        -11    1    1    2    0    0  0.30333745094E+02  0.22516829186E+02 -0.24080738231E+02  0.44799839752E+02  0.00000000000E+00 0.  1.
         11    1    1    2    0    0  0.22750315961E+02 -0.39203281766E+02  0.41138725300E+02  0.61211672881E+02  0.00000000000E+00 0. -1.
</event>
<event>
 7    1  0.1538147E-010  0.1010719E+03  0.7561462E-02  0.1278058E+00
         -1   -1    0    0    0  501 -0.00000000000E+00  0.00000000000E+00  0.10083148861E+03  0.10083148861E+03  0.00000000000E+00 0.  1.
          1   -1    0    0  501    0  0.00000000000E+00 -0.00000000000E+00 -0.26857893090E+03  0.26857893090E+03  0.00000000000E+00 0. -1.
         25    2    1    2    0    0  0.19723168132E+02  0.57435285350E+02 -0.21108969701E+03  0.25276247302E+03  0.12506874997E+03 0.  0.
          5    1    3    3  502    0 -0.26531914499E+02  0.14044794461E+02  0.20197661531E+01  0.30376810131E+02  0.41800000000E+01 0.  1.
         -5    1    3    3    0  502  0.46255082631E+02  0.43390490889E+02 -0.21310946316E+03  0.22238566289E+03  0.41800000000E+01 0.  1.
        -11    1    1    2    0    0  0.69897820548E+00  0.24156420084E+02  0.87092090995E+01  0.25687964593E+02  0.00000000000E+00 0.  1.
         11    1    1    2    0    0 -0.20422146337E+02 -0.81591705434E+02  0.34633045630E+02  0.90959981894E+02  0.00000000000E+00 0. -1.
</event>
<event>
 7    1  0.1538147E-010  0.9386014E+02  0.7561462E-02  0.1293764E+00
          2   -1    0    0  501    0  0.00000000000E+00  0.00000000000E+00  0.15932508970E+03  0.15932508970E+03  0.00000000000E+00 0. -1.
         -2   -1    0    0    0  501 -0.00000000000E+00 -0.00000000000E+00 -0.76783861668E+02  0.76783861668E+02  0.00000000000E+00 0.  1.
         25    2    1    2    0    0  0.15935792932E+02 -0.19087329052E+02  0.65801766510E+02  0.14348705874E+03  0.12506153654E+03 0.  0.
          5    1    3    3  502    0  0.37017981580E+01  0.42474384267E+02 -0.10983063784E+02  0.44225295009E+02  0.41800000000E+01 0. -1.
         -5    1    3    3    0  502  0.12233994774E+02 -0.61561713319E+02  0.76784830294E+02  0.99261763727E+02  0.41800000000E+01 0. -1.
        -11    1    1    2    0    0 -0.43202689322E+00  0.48619539614E+02  0.29544456357E+02  0.56893946786E+02  0.00000000000E+00 0. -1.
         11    1    1    2    0    0 -0.15503766039E+02 -0.29532210562E+02 -0.12804994831E+02  0.35727945850E+02  0.00000000000E+00 0.  1.
</event>
<event>
 7    1  0.1538147E-010  0.1279018E+03  0.7561462E-02  0.1230603E+00
          1   -1    0    0  501    0  0.00000000000E+00  0.00000000000E+00  0.91773300174E+02  0.91773300174E+02  0.00000000000E+00 0. -1.
         -1   -1    0    0    0  501 -0.00000000000E+00 -0.00000000000E+00 -0.21432753930E+03  0.21432753930E+03  0.00000000000E+00 0.  1.
         25    2    1    2    0    0  0.80885629951E+01 -0.88432828777E+02 -0.76219839871E+02  0.17131554642E+03  0.12511499670E+03 0.  0.
          5    1    3    3  502    0  0.26390370057E+02  0.24760566942E+02 -0.63526199370E+01  0.36977905391E+02  0.41800000000E+01 0. -1.
         -5    1    3    3    0  502 -0.18301807062E+02 -0.11319339572E+03 -0.69867219934E+02  0.13433764103E+03  0.41800000000E+01 0. -1.
        -11    1    1    2    0    0  0.22792268665E+02  0.52641420771E+02 -0.62491743741E+02  0.84828207145E+02  0.00000000000E+00 0.  1.
         11    1    1    2    0    0 -0.30880831660E+02  0.35791408006E+02  0.16157344490E+02  0.49957085904E+02  0.00000000000E+00 0. -1.
</event>
<event>
 6    1  0.1538147E-010  0.7843841E+02  0.7561462E-02  0.1333542E+00
         -1   -1    0    0    0  501 -0.00000000000E+00  0.00000000000E+00  0.76247582791E+02  0.76247582791E+02  0.00000000000E+00 0.  1.
          1   -1    0    0  501    0  0.00000000000E+00 -0.00000000000E+00 -0.20776756742E+03  0.20776756742E+03  0.00000000000E+00 0. -1.
          5    1    1    2  502    0  0.39113040980E+02 -0.12256721403E+02  0.15561961814E+02  0.44042073632E+02  0.41800000000E+01 0.  1.
         -5    1    1    2    0  502  0.22758193548E+02  0.55178133209E+01 -0.14306791735E+03  0.14503200685E+03  0.41800000000E+01 0.  1.
        -11    1    1    2    0    0  0.11138358441E+02 -0.12141579622E+02  0.84330419416E+01  0.18509380888E+02  0.00000000000E+00 0.  1.
         11    1    1    2    0    0 -0.73009592969E+02  0.18880487705E+02 -0.12447071039E+02  0.76431688840E+02  0.00000000000E+00 0. -1.
</event>
<event>
 7    1  0.1538147E-010  0.1333556E+03  0.7561462E-02  0.1222560E+00
          2   -1    0    0  501    0  0.00000000000E+00  0.00000000000E+00  0.51482654618E+03  0.51482654618E+03  0.00000000000E+00 0. -1.
         -2   -1    0    0    0  501 -0.00000000000E+00 -0.00000000000E+00 -0.41819693686E+02  0.41819693686E+02  0.00000000000E+00 0.  1.
         25    2    1    2    0    0  0.99913953818E+01 -0.97308698194E+02  0.24290993596E+03  0.29022049083E+03  0.12511548899E+03 0.  0.
          5    1    3    3  502    0 -0.23846020730E+02  0.78758624525E+01  0.24745645605E+01  0.25578463281E+02  0.41800000000E+01 0.  1.
         -5    1    3    3    0  502  0.33837416112E+02 -0.10518456065E+03  0.24043537140E+03  0.26464202755E+03  0.41800000000E+01 0.  1.
        -11    1    1    2    0    0 -0.11329868053E+02  0.11368568020E+03  0.17551183794E+03  0.20942111892E+03  0.00000000000E+00 0.  1.
         11    1    1    2    0    0  0.13384726717E+01 -0.16376982010E+02  0.54585078595E+02  0.57004630111E+02  0.00000000000E+00 0. -1.
</event>
<event>
 6    1  0.1538147E-010  0.2029771E+03  0.7561462E-02  0.1147251E+00
         -2   -1    0    0    0  501 -0.00000000000E+00  0.00000000000E+00  0.24209450385E+03  0.24209450385E+03  0.00000000000E+00 0.  1.
          2   -1    0    0  501    0  0.00000000000E+00 -0.00000000000E+00 -0.25165610305E+03  0.25165610305E+03  0.00000000000E+00 0. -1.
          5    1    1    2  502    0  0.11374444140E+03 -0.35644588683E+02 -0.86180205416E+01  0.11958293076E+03  0.41800000000E+01 0.  1.
         -5    1    1    2    0  502  0.64762343888E+02 -0.46409982319E+02  0.10616740054E+03  0.13280450663E+03  0.41800000000E+01 0.  1.
        -11    1    1    2    0    0 -0.16543715418E+03  0.93057575555E+02 -0.73288752697E+02  0.20347089625E+03  0.00000000000E+00 0.  1.
         11    1    1    2    0    0 -0.13069631110E+02 -0.11003004553E+02 -0.33822226507E+02  0.37892273255E+02  0.00000000000E+00 0. -1.
</event>
<event>
 7    1  0.1538147E-010  0.1198703E+03  0.7561462E-02  0.1243311E+00
          3   -1    0    0  501    0  0.00000000000E+00  0.00000000000E+00  0.27451375010E+03  0.27451375010E+03  0.00000000000E+00 0. -1.
         -3   -1    0    0    0  501 -0.00000000000E+00 -0.00000000000E+00 -0.57080624284E+02  0.57080624284E+02  0.00000000000E+00 0.  1.
         25    2    1    2    0    0 -0.53517030722E+02  0.33988238367E+02  0.16204933191E+03  0.21433390956E+03  0.12513898628E+03 0.  0.
          5    1    3    3  502    0 -0.76793931276E+02  0.63275746880E+02  0.13595679143E+03  0.16853144976E+03  0.41800000000E+01 0.  1.
         -5    1    3    3    0  502  0.23276900554E+02 -0.29287508513E+02  0.26092540487E+02  0.45802459796E+02  0.41800000000E+01 0.  1.
        -11    1    1    2    0    0  0.35806863327E+02  0.23180862118E+02  0.15714982698E+02  0.45458162205E+02  0.00000000000E+00 0.  1.
         11    1    1    2    0    0  0.17710167395E+02 -0.57169100486E+02  0.39668811208E+02  0.71802302624E+02  0.00000000000E+00 0. -1.
</event>
<event>
 6    1  0.1538147E-010  0.1146277E+03  0.7561462E-02  0.1252232E+00
         -1   -1    0    0    0  501 -0.00000000000E+00  0.00000000000E+00  0.53664252184E+02  0.53664252184E+02  0.00000000000E+00 0.  1.
          1   -1    0    0  501    0  0.00000000000E+00 -0.00000000000E+00 -0.42913067865E+03  0.42913067865E+03  0.00000000000E+00 0. -1.
          5    1    1    2  502    0 -0.61069245062E+02 -0.96601855004E+02 -0.13843180919E+03  0.17956115749E+03  0.41800000000E+01 0.  1.
         -5    1    1    2    0  502  0.92245429745E+01  0.15534495612E+02 -0.13439084609E+03  0.13566423500E+03  0.41800000000E+01 0.  1.
        -11    1    1    2    0    0  0.21775166117E+02  0.38508715436E+02 -0.10649467123E+03  0.11531779578E+03  0.00000000000E+00 0. -1.
         11    1    1    2    0    0  0.30069535970E+02  0.42558643956E+02  0.38509000478E+01  0.52251742554E+02  0.00000000000E+00 0.  1.
</event>
<event>
 7    1  0.1538147E-010  0.1959747E+03  0.7561462E-02  0.1153180E+00
          2   -1    0    0  501    0  0.00000000000E+00  0.00000000000E+00  0.95821751339E+02  0.95821751339E+02  0.00000000000E+00 0. -1.
         -2   -1    0    0    0  501 -0.00000000000E+00 -0.00000000000E+00 -0.48490280284E+03  0.48490280284E+03  0.00000000000E+00 0.  1.
         25    2    1    2    0    0  0.11828112736E+03  0.12859971986E+03 -0.28867780189E+03  0.35988884372E+03  0.12512710935E+03 0.  0.
          5    1    3    3  502    0  0.77176780989E+02  0.14780571419E+03 -0.24762082374E+03  0.29855707900E+03  0.41800000000E+01 0. -1.
         -5    1    3    3    0  502  0.41104346374E+02 -0.19205994332E+02 -0.41056978145E+02  0.61331764719E+02  0.41800000000E+01 0. -1.
        -11    1    1    2    0    0 -0.15463398625E+02 -0.68532111539E+00 -0.45054338305E+02  0.47639057108E+02  0.00000000000E+00 0.  1.
         11    1    1    2    0    0 -0.10281772874E+03 -0.12791439874E+03 -0.55348911308E+02  0.17319665335E+03  0.00000000000E+00 0. -1.
</event>
<event>
 7    1  0.1538147E-010  0.8691140E+02  0.7561462E-02  0.1310508E+00
          1   -1    0    0  501    0  0.00000000000E+00  0.00000000000E+00  0.65746812608E+02  0.65746812608E+02  0.00000000000E+00 0. -1.
         -1   -1    0    0    0  501 -0.00000000000E+00 -0.00000000000E+00 -0.18579871804E+03  0.18579871804E+03  0.00000000000E+00 0.  1.
         25    2    1    2    0    0 -0.22174647847E+02  0.58939709242E+02 -0.83588961545E+02  0.16312105218E+03  0.12512297487E+03 0.  0.
          5    1    3    3  502    0  0.30921202327E+02  0.44434936530E+02 -0.92449447674E+02  0.10721453779E+03  0.41800000000E+01 0. -1.
         -5    1    3    3    0  502 -0.53095850175E+02  0.14504772712E+02  0.88604861290E+01  0.55906514393E+02  0.41800000000E+01 0. -1.
        -11    1    1    2    0    0  0.75512735368E+01 -0.67541190850E+01 -0.32547110472E+02  0.34087450135E+02  0.00000000000E+00 0.  1.
         11    1    1    2    0    0  0.14623374311E+02 -0.52185590157E+02 -0.39158334125E+01  0.54337028328E+02  0.00000000000E+00 0. -1.
</event>
<event>
 7    1  0.1538147E-010  0.1128719E+03  0.7561462E-02  0.1255342E+00
         -1   -1    0    0    0  501 -0.00000000000E+00  0.00000000000E+00  0.41079170106E+03  0.41079170106E+03  0.00000000000E+00 0.  1.
          1   -1    0    0  501    0  0.00000000000E+00 -0.00000000000E+00 -0.45342909920E+02  0.45342909920E+02  0.00000000000E+00 0. -1.
         25    2    1    2    0    0  0.58374008929E+02 -0.57838722239E+02  0.22005105566E+03  0.26611498684E+03  0.12506748745E+03 0.  0.
          5    1    3    3  502    0  0.71574290329E+02 -0.58996939928E+02  0.23065144024E+03  0.24863844683E+03  0.41800000000E+01 0. -1.
         -5    1    3    3    0  502 -0.13200281400E+02  0.11582176889E+01 -0.10600384587E+02  0.17476540008E+02  0.41800000000E+01 0. -1.
        -11    1    1    2    0    0  0.34019505306E+01  0.57118397618E+02  0.92095603681E+02  0.10842363594E+03  0.00000000000E+00 0.  1.
         11    1    1    2    0    0 -0.61775959459E+02  0.72032462141E+00  0.53302131798E+02  0.81595988191E+02  0.00000000000E+00 0. -1.
</event>
<event>
 7    1  0.1538147E-010  0.9679335E+02  0.7561462E-02  0.1287187E+00
         -2   -1    0    0    0  501 -0.00000000000E+00  0.00000000000E+00  0.28238538508E+02  0.28238538508E+02  0.00000000000E+00 0.  1.
          2   -1    0    0  501    0  0.00000000000E+00 -0.00000000000E+00 -0.49788437326E+03  0.49788437326E+03  0.00000000000E+00 0. -1.
         25    2    1    2    0    0  0.34916167507E+02 -0.22092223109E+01 -0.19186404574E+03  0.23168460769E+03  0.12506768559E+03 0.  0.
          5    1    3    3  502    0  0.65431347575E+02 -0.69999738589E+00 -0.18976808296E+03  0.20077636552E+03  0.41800000000E+01 0.  1.
         -5    1    3    3    0  502 -0.30515180067E+02 -0.15092249250E+01 -0.20959627816E+01  0.30908242176E+02  0.41800000000E+01 0.  1.
        -11    1    1    2    0    0  0.96464224736E+00 -0.41002895470E+02 -0.10353600022E+03  0.11136368939E+03  0.00000000000E+00 0. -1.
         11    1    1    2    0    0 -0.35880809755E+02  0.43212117780E+02 -0.17424578879E+03  0.18307461468E+03  0.00000000000E+00 0.  1.
</event>
<event>
 6    1  0.1538147E-010  0.1246308E+03  0.7561462E-02  0.1235647E+00
         -1   -1    0    0    0  501 -0.00000000000E+00  0.00000000000E+00  0.55793834069E+02  0.55793834069E+02  0.00000000000E+00 0.  1.
          1   -1    0    0  501    0  0.00000000000E+00 -0.00000000000E+00 -0.41374737053E+03  0.41374737053E+03  0.00000000000E+00 0. -1.
          5    1    1    2  502    0 -0.60686639342E+02 -0.86610305230E+02 -0.83945845918E+02  0.13508734439E+03  0.41800000000E+01 0. -1.
         -5    1    1    2    0  502  0.27974055825E+02  0.16498714716E+02  0.34459937558E+01  0.32925714260E+02  0.41800000000E+01 0. -1.
        -11    1    1    2    0    0  0.45033797666E+02  0.60445404731E+01 -0.16864821843E+03  0.17466196203E+03  0.00000000000E+00 0. -1.
         11    1    1    2    0    0 -0.12321214149E+02  0.64067050040E+02 -0.10880546587E+03  0.12686618392E+03  0.00000000000E+00 0.  1.
</event>
<event>
 7    1  0.1538147E-010  0.1253743E+03  0.7561462E-02  0.1234486E+00
         -1   -1    0    0    0  501 -0.00000000000E+00  0.00000000000E+00  0.37453281071E+03  0.37453281071E+03  0.00000000000E+00 0.  1.
          1   -1    0    0  501    0  0.00000000000E+00 -0.00000000000E+00 -0.52055918086E+02  0.52055918086E+02  0.00000000000E+00 0. -1.
         25    2    1    2    0    0  0.23243553997E+02 -0.88948689818E+02  0.18260097132E+03  0.23969339891E+03  0.12513064586E+03 0.  0.
          5    1    3    3  502    0  0.65628436661E+01 -0.11974621037E+03  0.14070777290E+03  0.18492802807E+03  0.41800000000E+01 0. -1.
         -5    1    3    3    0  502  0.16680710331E+02  0.30797520547E+02  0.41893198424E+02  0.54765370840E+02  0.41800000000E+01 0. -1.
        -11    1    1    2    0    0  0.38547810765E+01  0.33910723258E+02 -0.31242633436E-01  0.34129129276E+02  0.00000000000E+00 0. -1.
         11    1    1    2    0    0 -0.27098335073E+02  0.55037966560E+02  0.13990716394E+03  0.15276620061E+03  0.00000000000E+00 0.  1.
</event>
<event>
 7    1  0.1538147E-010  0.8938665E+02  0.7561462E-02  0.1304344E+00
          1   -1    0    0  501    0  0.00000000000E+00  0.00000000000E+00  0.49693368833E+03  0.49693368833E+03  0.00000000000E+00 0. -1.
         -1   -1    0    0    0  501 -0.00000000000E+00 -0.00000000000E+00 -0.54610012041E+02  0.54610012041E+02  0.00000000000E+00 0.  1.
         25    2    1    2    0    0 -0.39740851537E+02 -0.35813200839E+02  0.44684338927E+03  0.46710127549E+03  0.12511061665E+03 0.  0.
          5    1    3    3  502    0  0.43338687694E+01 -0.48707535675E+02  0.39367462170E+03  0.39672205210E+03  0.41800000000E+01 0.  1.
         -5    1    3    3    0  502 -0.44074720306E+02  0.12894334836E+02  0.53168767568E+02  0.70379223395E+02  0.41800000000E+01 0.  1.
        -11    1    1    2    0    0 -0.24160626849E+01  0.41033075241E+02  0.33512044752E+01  0.41240528538E+02  0.00000000000E+00 0.  1.
         11    1    1    2    0    0  0.42156914222E+02 -0.52198744022E+01 -0.78709174575E+01  0.43201896337E+02  0.00000000000E+00 0. -1.
</event>
<event>
 6    1  0.1538147E-010  0.1087304E+03  0.7561462E-02  0.1262939E+00
          2   -1    0    0  501    0  0.00000000000E+00  0.00000000000E+00  0.23344269570E+03  0.23344269570E+03  0.00000000000E+00 0. -1.
         -2   -1    0    0    0  501 -0.00000000000E+00 -0.00000000000E+00 -0.17518355929E+03  0.17518355929E+03  0.00000000000E+00 0.  1.
          5    1    1    2  502    0 -0.82166522972E+02  0.47787889456E+02  0.81913902698E+02  0.12554831632E+03  0.41800000000E+01 0.  1.
         -5    1    1    2    0  502  0.30429781381E+02 -0.36791148599E+01  0.10614790932E+03  0.11056382109E+03  0.41800000000E+01 0.  1.
        -11    1    1    2    0    0  0.32775971440E+02 -0.58851750095E+02 -0.13220347855E+03  0.14837638806E+03  0.00000000000E+00 0.  1.
         11    1    1    2    0    0  0.18960770151E+02  0.14742975499E+02  0.24008029388E+01  0.24137729513E+02  0.00000000000E+00 0. -1.
</event>
<event>
 6    1  0.1538147E-010  0.1919052E+03  0.7561462E-02  0.1156754E+00
         -4   -1    0    0    0  501 -0.00000000000E+00  0.00000000000E+00  0.13593835665E+03  0.13593835665E+03  0.00000000000E+00 0.  1.
          4   -1    0    0  501    0  0.00000000000E+00 -0.00000000000E+00 -0.35580770175E+03  0.35580770175E+03  0.00000000000E+00 0. -1.
          5    1    1    2  502    0  0.11091429567E+03 -0.14426993561E+03 -0.21041629450E+03  0.27822344383E+03  0.41800000000E+01 0.  1.
         -5    1    1    2    0  502 -0.21098813639E+01  0.67640358138E+01  0.12026813489E+02  0.14571218980E+02  0.41800000000E+01 0.  1.
        -11    1    1    2    0    0 -0.10735588781E+03  0.74820687067E+02  0.48481195705E+01  0.13094627190E+03  0.00000000000E+00 0.  1.
         11    1    1    2    0    0 -0.14485264932E+01  0.62685212727E+02 -0.26327983664E+02  0.68005123685E+02  0.00000000000E+00 0. -1.
</event>
<event>
 7    1  0.1538147E-010  0.1095496E+03  0.7561462E-02  0.1261406E+00
         -1   -1    0    0    0  501 -0.00000000000E+00  0.00000000000E+00  0.58552221741E+02  0.58552221741E+02  0.00000000000E+00 0.  1.
          1   -1    0    0  501    0  0.00000000000E+00 -0.00000000000E+00 -0.24726802034E+03  0.24726802034E+03  0.00000000000E+00 0. -1.
         25    2    1    2    0    0  0.17912785672E+02 -0.18660424534E+02 -0.55996945479E+02  0.13943304375E+03  0.12504733684E+03 0.  0.
          5    1    3    3  502    0 -0.10090840601E+02 -0.68896392153E+02 -0.26115001236E+02  0.74484921999E+02  0.41800000000E+01 0. -1.
         -5    1    3    3    0  502  0.28003626273E+02  0.50235967619E+02 -0.29881944243E+02  0.64948121750E+02  0.41800000000E+01 0. -1.
        -11    1    1    2    0    0 -0.62883695142E+01 -0.35617332751E+02 -0.21474400163E+02  0.42062903439E+02  0.00000000000E+00 0.  1.
         11    1    1    2    0    0 -0.11624416158E+02  0.54277757285E+02 -0.11124445296E+03  0.12432429489E+03  0.00000000000E+00 0. -1.
</event>
<event>
 7    1  0.1538147E-010  0.1379084E+03  0.7561462E-02  0.1216171E+00
          1   -1    0    0  501    0  0.00000000000E+00  0.00000000000E+00  0.10968642113E+04  0.10968642113E+04  0.00000000000E+00 0. -1.
         -1   -1    0    0    0  501 -0.00000000000E+00 -0.00000000000E+00 -0.21854582972E+02  0.21854582972E+02  0.00000000000E+00 0.  1.
         25    2    1    2    0    0 -0.42190797797E+02  0.93140004322E+02  0.45220555102E+03  0.48020993927E+03  0.12512634246E+03 0.  0.
          5    1    3    3  502    0 -0.53583093188E+02  0.14662085420E+02  0.68112600889E+02  0.87993882881E+02  0.41800000000E+01 0.  1.
         -5    1    3    3    0  502  0.11392295392E+02  0.78477918902E+02  0.38409295013E+03  0.39221605639E+03  0.41800000000E+01 0.  1.
        -11    1    1    2    0    0 -0.31603030438E+02 -0.30057916374E+02  0.20075663496E+03  0.20543966596E+03  0.00000000000E+00 0.  1.
         11    1    1    2    0    0  0.73793828235E+02 -0.63082087948E+02  0.42204744237E+03  0.43306918907E+03  0.00000000000E+00 0. -1.
</event>
<event>
 7    1  0.1538147E-010  0.2569863E+03  0.7561462E-02  0.1108968E+00
         -1   -1    0    0    0  501 -0.00000000000E+00  0.00000000000E+00  0.21164324188E+04  0.21164324188E+04  0.00000000000E+00 0.  1.
          1   -1    0    0  501    0  0.00000000000E+00 -0.00000000000E+00 -0.35425931060E+02  0.35425931060E+02  0.00000000000E+00 0. -1.
         25    2    1    2    0    0  0.23777197711E+03  0.64032196044E+02  0.86356489559E+03  0.90665331399E+03  0.12506105565E+03 0.  0.
          5    1    3    3  502    0  0.21257631304E+03  0.36359082853E+02  0.54920613363E+03  0.59004705015E+03  0.41800000000E+01 0. -1.
         -5    1    3    3    0  502  0.25195664070E+02  0.27673113191E+02  0.31435876196E+03  0.31660626384E+03  0.41800000000E+01 0. -1.
        -11    1    1    2    0    0 -0.84922501912E+02  0.18483813975E+02  0.35952384074E+03  0.36987954089E+03  0.00000000000E+00 0. -1.
         11    1    1    2    0    0 -0.15284947520E+03 -0.82516010020E+02  0.85791775143E+03  0.87532549500E+03  0.00000000000E+00 0.  1.
</event>
<event>
 7    1  0.1538147E-010  0.2892858E+03  0.7561462E-02  0.1090723E+00
         -4   -1    0    0    0  501 -0.00000000000E+00  0.00000000000E+00  0.10893482239E+04  0.10893482239E+04  0.00000000000E+00 0.  1.
          4   -1    0    0  501    0  0.00000000000E+00 -0.00000000000E+00 -0.81932463572E+02  0.81932463572E+02  0.00000000000E+00 0. -1.
         25    2    1    2    0    0 -0.27713413660E+03 -0.23297404963E+02  0.51811429039E+03  0.60118639091E+03  0.12504623130E+03 0.  0.
          5    1    3    3  502    0 -0.12580698718E+03 -0.48533219824E+02  0.14664466224E+03  0.19926113724E+03  0.41800000000E+01 0.  1.
         -5    1    3    3    0  502 -0.15132714942E+03  0.25235814861E+02  0.37146962815E+03  0.40192525367E+03  0.41800000000E+01 0.  1.
        -11    1    1    2    0    0  0.32733622411E+02  0.31805218612E+02  0.10622378817E+03  0.11561381899E+03  0.00000000000E+00 0.  1.
         11    1    1    2    0    0  0.24440051419E+03 -0.85078136490E+01  0.38307768174E+03  0.45448047755E+03  0.00000000000E+00 0. -1.
</event>
<event>
 7    1  0.1538147E-010  0.1230260E+03  0.7561462E-02  0.1238187E+00
         -1   -1    0    0    0  501 -0.00000000000E+00  0.00000000000E+00  0.12750197069E+03  0.12750197069E+03  0.00000000000E+00 0.  1.
          1   -1    0    0  501    0  0.00000000000E+00 -0.00000000000E+00 -0.23227494153E+03  0.23227494153E+03  0.00000000000E+00 0. -1.
         25    2    1    2    0    0  0.10274894976E+03  0.20671675172E+02  0.29703211159E+02  0.16585495782E+03  0.12506366958E+03 0.  0.
          5    1    3    3  502    0  0.29322134274E+02 -0.18928527756E+02 -0.42704850898E+02  0.55310518092E+02  0.41800000000E+01 0. -1.
         -5    1    3    3    0  502  0.73426815490E+02  0.39600202928E+02  0.72408062057E+02  0.11054443973E+03  0.41800000000E+01 0. -1.
        -11    1    1    2    0    0 -0.67942589881E+02 -0.47942775576E+02 -0.46044566097E+02  0.95051603441E+02  0.00000000000E+00 0.  1.
         11    1    1    2    0    0 -0.34806359882E+02  0.27271100403E+02 -0.88431615902E+02  0.98870350948E+02  0.00000000000E+00 0. -1.
</event>
<event>
 7    1  0.1538147E-010  0.2081317E+03  0.7561462E-02  0.1143054E+00
          1   -1    0    0  501    0  0.00000000000E+00  0.00000000000E+00  0.40573534886E+03  0.40573534886E+03  0.00000000000E+00 0. -1.
         -1   -1    0    0    0  501 -0.00000000000E+00 -0.00000000000E+00 -0.14313613855E+03  0.14313613855E+03  0.00000000000E+00 0.  1.
         25    2    1    2    0    0 -0.19643727185E+03  0.12663784547E+02  0.23245308333E+03  0.32930806040E+03  0.12514547329E+03 0.  0.
          5    1    3    3  502    0 -0.15443493179E+03 -0.32057253778E+02  0.21246850541E+03  0.26464722532E+03  0.41800000000E+01 0.  1.
         -5    1    3    3    0  502 -0.42002340052E+02  0.44721038325E+02  0.19984577922E+02  0.64660835081E+02  0.41800000000E+01 0.  1.
        -11    1    1    2    0    0  0.13824520633E+03 -0.12317198057E+02 -0.23081366804E+02  0.14069896920E+03  0.00000000000E+00 0.  1.
         11    1    1    2    0    0  0.58192065516E+02 -0.34658649026E+00  0.53227493782E+02  0.78864457809E+02  0.00000000000E+00 0. -1.
</event>
<event>
 6    1  0.1538147E-010  0.1253441E+03  0.7561462E-02  0.1234532E+00
         -1   -1    0    0    0  501 -0.00000000000E+00  0.00000000000E+00  0.11818639882E+04  0.11818639882E+04  0.00000000000E+00 0.  1.
          1   -1    0    0  501    0  0.00000000000E+00 -0.00000000000E+00 -0.13393392063E+02  0.13393392063E+02  0.00000000000E+00 0. -1.
          5    1    1    2  502    0  0.38631017294E+02  0.30140175645E+02  0.22720241343E+03  0.23246331915E+03  0.41800000000E+01 0.  1.
         -5    1    1    2    0  502 -0.90385671938E+02  0.56264467082E+01  0.45900646262E+03  0.46787352108E+03  0.41800000000E+01 0.  1.
        -11    1    1    2    0    0  0.70282238336E+02  0.32834435370E+00  0.32463724554E+03  0.33215815815E+03  0.00000000000E+00 0.  1.
         11    1    1    2    0    0 -0.18527583692E+02 -0.36094966707E+02  0.15762447453E+03  0.16276238186E+03  0.00000000000E+00 0. -1.
</event>
<event>
 7    1  0.1538147E-010  0.1012322E+03  0.7561462E-02  0.1277726E+00
          1   -1    0    0  501    0  0.00000000000E+00  0.00000000000E+00  0.57922652012E+03  0.57922652012E+03  0.00000000000E+00 0. -1.
         -1   -1    0    0    0  501 -0.00000000000E+00 -0.00000000000E+00 -0.23941922441E+02  0.23941922441E+02  0.00000000000E+00 0.  1.
         25    2    1    2    0    0 -0.46238546688E+02  0.14152371385E+02  0.35054378139E+03  0.37531441274E+03  0.12506667392E+03 0.  0.
          5    1    3    3  502    0 -0.14185912623E+02 -0.52573224727E+02  0.98922104992E+02  0.11299663416E+03  0.41800000000E+01 0. -1.
         -5    1    3    3    0  502 -0.32052634065E+02  0.66725596112E+02  0.25162167640E+03  0.26231777859E+03  0.41800000000E+01 0. -1.
        -11    1    1    2    0    0  0.20929465834E+02 -0.35092101459E+02  0.18515488383E+03  0.18960967573E+03  0.00000000000E+00 0. -1.
         11    1    1    2    0    0  0.25309080854E+02  0.20939730073E+02  0.19585932454E+02  0.38244354084E+02  0.00000000000E+00 0.  1.
</event>
<event>
 7    1  0.1538147E-010  0.1042731E+03  0.7561462E-02  0.1271558E+00
         -1   -1    0    0    0  501 -0.00000000000E+00  0.00000000000E+00  0.55111485400E+02  0.55111485400E+02  0.00000000000E+00 0.  1.
          1   -1    0    0  501    0  0.00000000000E+00 -0.00000000000E+00 -0.20262088524E+03  0.20262088524E+03  0.00000000000E+00 0. -1.
         25    2    1    2    0    0 -0.23880669465E+01  0.85747609350E+01 -0.76059263443E+02  0.14669731412E+03  0.12512338321E+03 0.  0.
          5    1    3    3  502    0 -0.63488717765E+02  0.58901023249E+01 -0.34289636496E+02  0.72517323171E+02  0.41800000000E+01 0. -1.
         -5    1    3    3    0  502  0.61100650819E+02  0.26846586101E+01 -0.41769626948E+02  0.74179990952E+02  0.41800000000E+01 0. -1.
        -11    1    1    2    0    0 -0.32845122381E+02 -0.27957749571E+02 -0.26060430237E+02  0.50394283897E+02  0.00000000000E+00 0.  1.
         11    1    1    2    0    0  0.35233189327E+02  0.19382988636E+02 -0.45389706157E+02  0.60640772618E+02  0.00000000000E+00 0. -1.
</event>
<event>
 6    1  0.1538147E-010  0.1592408E+03  0.7561462E-02  0.1189557E+00
         -2   -1    0    0    0  501 -0.00000000000E+00  0.00000000000E+00  0.40264224249E+02  0.40264224249E+02  0.00000000000E+00 0.  1.
          2   -1    0    0  501    0  0.00000000000E+00 -0.00000000000E+00 -0.12266130765E+04  0.12266130765E+04  0.00000000000E+00 0. -1.
          5    1    1    2  502    0  0.11468765156E+02  0.35779572557E+02 -0.54918710630E+02  0.66672689790E+02  0.41800000000E+01 0.  1.
         -5    1    1    2    0  502  0.11216421397E+03  0.55989571430E+02 -0.89354840044E+03  0.90230918168E+03  0.41800000000E+01 0.  1.
        -11    1    1    2    0    0 -0.53995525431E+02 -0.52440477926E+02 -0.41723724428E+02  0.86060383870E+02  0.00000000000E+00 0.  1.
         11    1    1    2    0    0 -0.69637453692E+02 -0.39328666061E+02 -0.19615801678E+03  0.21183504544E+03  0.00000000000E+00 0. -1.
</event>
<event>
 6    1  0.1538147E-010  0.2345074E+03  0.7561462E-02  0.1123507E+00
          1   -1    0    0  501    0  0.00000000000E+00  0.00000000000E+00  0.38373108653E+03  0.38373108653E+03  0.00000000000E+00 0. -1.
         -1   -1    0    0    0  501 -0.00000000000E+00 -0.00000000000E+00 -0.23781045433E+03  0.23781045433E+03  0.00000000000E+00 0.  1.
          5    1    1    2  502    0 -0.66557497370E+02  0.46117876843E+02  0.16357332106E+03  0.18256632434E+03  0.41800000000E+01 0.  1.
         -5    1    1    2    0  502 -0.15410012027E+03  0.17939406992E+02  0.78343545400E+02  0.17385008742E+03  0.41800000000E+01 0.  1.
        -11    1    1    2    0    0  0.19597501516E+03 -0.43811941975E+02 -0.11144044966E+03  0.22966207055E+03  0.00000000000E+00 0.  1.
         11    1    1    2    0    0  0.24682602484E+02 -0.20245341859E+02  0.15444215414E+02  0.35463058556E+02  0.00000000000E+00 0. -1.
</event>
<event>
 7    1  0.1538147E-010  0.1427018E+03  0.7561462E-02  0.1209739E+00
         -2   -1    0    0    0  501 -0.00000000000E+00  0.00000000000E+00  0.41137103482E+02  0.41137103482E+02  0.00000000000E+00 0.  1.
          2   -1    0    0  501    0  0.00000000000E+00 -0.00000000000E+00 -0.68775789661E+03  0.68775789661E+03  0.00000000000E+00 0. -1.
         25    2    1    2    0    0 -0.12418267090E+03  0.18203981911E+02 -0.31731692516E+03  0.36342436371E+03  0.12503805997E+03 0.  0.
          5    1    3    3  502    0 -0.10817142716E+03  0.53387528990E+02 -0.29466165126E+03  0.31842463320E+03  0.41800000000E+01 0. -1.
         -5    1    3    3    0  502 -0.16011243738E+02 -0.35183547079E+02 -0.22655273897E+02  0.44999730516E+02  0.41800000000E+01 0. -1.
        -11    1    1    2    0    0  0.38914415747E+02 -0.15700759386E+01 -0.23108350157E+03  0.23434244512E+03  0.00000000000E+00 0. -1.
         11    1    1    2    0    0  0.85268255150E+02 -0.16633905972E+02 -0.98220366410E+02  0.13112819126E+03  0.00000000000E+00 0.  1.
</event>
<event>
 7    1  0.1538147E-010  0.2090616E+03  0.7561462E-02  0.1142311E+00
         -3   -1    0    0    0  501 -0.00000000000E+00  0.00000000000E+00  0.12531012563E+03  0.12531012563E+03  0.00000000000E+00 0.  1.
          3   -1    0    0  501    0  0.00000000000E+00 -0.00000000000E+00 -0.47561854892E+03  0.47561854892E+03  0.00000000000E+00 0. -1.
         25    2    1    2    0    0  0.89776245218E+02  0.15961003251E+03 -0.34886206552E+02  0.22448617370E+03  0.12506741418E+03 0.  0.
          5    1    3    3  502    0  0.69146877321E+02  0.93153949496E+01 -0.14152122687E+02  0.71314950767E+02  0.41800000000E+01 0.  1.
         -5    1    3    3    0  502  0.20629367897E+02  0.15029463757E+03 -0.20734083866E+02  0.15317122293E+03  0.41800000000E+01 0.  1.
        -11    1    1    2    0    0  0.85831219789E+01 -0.43293934601E+02 -0.31455162533E+02  0.54198357965E+02  0.00000000000E+00 0.  1.
         11    1    1    2    0    0 -0.98359367197E+02 -0.11631609791E+03 -0.28396705421E+03  0.32224414289E+03  0.00000000000E+00 0. -1.
</event>
<event>
 7    1  0.1538147E-010  0.9812761E+02  0.7561462E-02  0.1284283E+00
         -1   -1    0    0    0  501 -0.00000000000E+00  0.00000000000E+00  0.13292153924E+03  0.13292153924E+03  0.00000000000E+00 0.  1.
          1   -1    0    0  501    0  0.00000000000E+00 -0.00000000000E+00 -0.10916911052E+03  0.10916911052E+03  0.00000000000E+00 0. -1.
         25    2    1    2    0    0 -0.41093062097E+02 -0.32992600184E+02  0.23666475190E+02  0.13775520937E+03  0.12505696398E+03 0.  0.
          5    1    3    3  502    0 -0.46629886419E+02  0.19917585723E+02  0.55761267409E+02  0.75484090188E+02  0.41800000000E+01 0. -1.
         -5    1    3    3    0  502  0.55368243216E+01 -0.52910185907E+02 -0.32094792219E+02  0.62271119180E+02  0.41800000000E+01 0. -1.
        -11    1    1    2    0    0  0.88106009724E+01  0.53203001618E+02 -0.24258842838E+02  0.59132711138E+02  0.00000000000E+00 0. -1.
         11    1    1    2    0    0  0.32282461125E+02 -0.20210401433E+02  0.24344796359E+02  0.45202729255E+02  0.00000000000E+00 0.  1.
</event>
<event>
 7    1  0.1538147E-010  0.1479181E+03  0.7561462E-02  0.1203055E+00
          1   -1    0    0  501    0  0.00000000000E+00  0.00000000000E+00  0.61038523959E+03  0.61038523959E+03  0.00000000000E+00 0. -1.
         -1   -1    0    0    0  501 -0.00000000000E+00 -0.00000000000E+00 -0.40448868561E+02  0.40448868561E+02  0.00000000000E+00 0.  1.
         25    2    1    2    0    0 -0.33666773528E+02  0.10478307996E+03  0.23350173357E+03  0.28684185951E+03  0.12506897018E+03 0.  0.
          5    1    3    3  502    0  0.40974693979E+02  0.50764932701E+01  0.49243895181E+02  0.64398213820E+02  0.41800000000E+01 0. -1.
         -5    1    3    3    0  502 -0.74641467507E+02  0.99706586686E+02  0.18425783839E+03  0.22244364569E+03  0.41800000000E+01 0. -1.
        -11    1    1    2    0    0  0.23069763938E+01 -0.97493791526E+02  0.29958994750E+03  0.31506268927E+03  0.00000000000E+00 0. -1.
         11    1    1    2    0    0  0.31359797134E+02 -0.72892884298E+01  0.36844689951E+02  0.48929559365E+02  0.00000000000E+00 0.  1.
</event>
<event>
 6    1  0.1538147E-010  0.1503678E+03  0.7561462E-02  0.1200022E+00
          2   -1    0    0  501    0  0.00000000000E+00  0.00000000000E+00  0.94560467329E+03  0.94560467329E+03  0.00000000000E+00 0. -1.
         -2   -1    0    0    0  501 -0.00000000000E+00 -0.00000000000E+00 -0.46067424938E+02  0.46067424938E+02  0.00000000000E+00 0.  1.
          5    1    1    2  502    0 -0.78788111938E+02  0.67396797480E+02  0.45528249841E+02  0.11331455699E+03  0.41800000000E+01 0. -1.
         -5    1    1    2    0  502 -0.14106574341E+01  0.41472679260E+02  0.14747847078E+03  0.15326233987E+03  0.41800000000E+01 0. -1.
        -11    1    1    2    0    0  0.10737822133E+02 -0.78875102744E+02  0.25088591703E+03  0.26321156134E+03  0.00000000000E+00 0.  1.
         11    1    1    2    0    0  0.69460947239E+02 -0.29994373995E+02  0.45564461069E+03  0.46188364002E+03  0.00000000000E+00 0. -1.
</event>
<event>
 7    1  0.1538147E-010  0.1192852E+03  0.7561462E-02  0.1244281E+00
         -1   -1    0    0    0  501 -0.00000000000E+00  0.00000000000E+00  0.48635058933E+02  0.48635058933E+02  0.00000000000E+00 0.  1.
          1   -1    0    0  501    0  0.00000000000E+00 -0.00000000000E+00 -0.39102074551E+03  0.39102074551E+03  0.00000000000E+00 0. -1.
         25    2    1    2    0    0  0.51914481290E+02 -0.44228381881E+02 -0.27377723298E+03  0.30861746699E+03  0.12505800456E+03 0.  0.
          5    1    3    3  502    0 -0.37548041348E+02 -0.76442884508E+00 -0.42760899762E+02  0.57064934145E+02  0.41800000000E+01 0. -1.
         -5    1    3    3    0  502  0.89462522638E+02 -0.43463953036E+02 -0.23101633322E+03  0.25155253285E+03  0.41800000000E+01 0. -1.
        -11    1    1    2    0    0  0.17652365586E+02 -0.19119472325E+01  0.63385572374E+01  0.18853086242E+02  0.00000000000E+00 0.  1.
         11    1    1    2    0    0 -0.69566846876E+02  0.46140329113E+02 -0.74947010839E+02  0.11218525121E+03  0.00000000000E+00 0. -1.
</event>
<event>
 7    1  0.1538147E-010  0.8434416E+02  0.7561462E-02  0.1317157E+00
          2   -1    0    0  501    0  0.00000000000E+00  0.00000000000E+00  0.72059818246E+03  0.72059818246E+03  0.00000000000E+00 0. -1.
         -2   -1    0    0    0  501 -0.00000000000E+00 -0.00000000000E+00 -0.19282196293E+02  0.19282196293E+02  0.00000000000E+00 0.  1.
         25    2    1    2    0    0 -0.44920342429E+01 -0.42259238946E+02  0.32735305898E+03  0.35302636419E+03  0.12514618229E+03 0.  0.
          5    1    3    3  502    0 -0.27550428920E+02 -0.91381479106E+01  0.30557313975E+03  0.30697711319E+03  0.41800000000E+01 0. -1.
         -5    1    3    3    0  502  0.23058394677E+02 -0.33121091036E+02  0.21779919223E+02  0.46049251002E+02  0.41800000000E+01 0. -1.
        -11    1    1    2    0    0  0.46579740229E+02  0.28021479833E+02  0.19216096165E+03  0.19970155411E+03  0.00000000000E+00 0.  1.
         11    1    1    2    0    0 -0.42087705986E+02  0.14237759114E+02  0.18180196554E+03  0.18715246046E+03  0.00000000000E+00 0. -1.
</event>
<event>
 6    1  0.1538147E-010  0.1171394E+03  0.7561462E-02  0.1247892E+00
          1   -1    0    0  501    0  0.00000000000E+00  0.00000000000E+00  0.39408560011E+03  0.39408560011E+03  0.00000000000E+00 0. -1.
         -1   -1    0    0    0  501 -0.00000000000E+00 -0.00000000000E+00 -0.66059890292E+02  0.66059890292E+02  0.00000000000E+00 0.  1.
          5    1    1    2  502    0  0.64439205146E+02 -0.28251993483E+02  0.14343326706E+03  0.15981602171E+03  0.41800000000E+01 0.  1.
         -5    1    1    2    0  502  0.40838184051E+02 -0.82898282063E+01 -0.21739146145E+02  0.47186241674E+02  0.41800000000E+01 0.  1.
        -11    1    1    2    0    0 -0.15978443221E+02 -0.12269385595E+02  0.11388878369E+03  0.11565683517E+03  0.00000000000E+00 0. -1.
         11    1    1    2    0    0 -0.89298945975E+02  0.48811207284E+02  0.92442805221E+02  0.13748639186E+03  0.00000000000E+00 0.  1.
</event>
<event>
 7    1  0.1538147E-010  0.1160929E+03  0.7561462E-02  0.1249685E+00
         -2   -1    0    0    0  501 -0.00000000000E+00  0.00000000000E+00  0.25107101402E+02  0.25107101402E+02  0.00000000000E+00 0.  1.
          2   -1    0    0  501    0  0.00000000000E+00 -0.00000000000E+00 -0.73236958785E+03  0.73236958785E+03  0.00000000000E+00 0. -1.
         25    2    1    2    0    0  0.38736595458E+02  0.20604741983E+02 -0.20059579005E+03  0.24042453251E+03  0.12506080773E+03 0.  0.
          5    1    3    3  502    0  0.70479371308E+01  0.70214721029E+02 -0.84342280448E+02  0.11004941226E+03  0.41800000000E+01 0.  1.
         -5    1    3    3    0  502  0.31688658328E+02 -0.49609979046E+02 -0.11625350960E+03  0.13037512025E+03  0.41800000000E+01 0.  1.
        -11    1    1    2    0    0 -0.23011612622E+02  0.36555648583E+02 -0.24225847001E+03  0.24607928814E+03  0.00000000000E+00 0.  1.
         11    1    1    2    0    0 -0.15724982836E+02 -0.57160390566E+02 -0.26440822638E+03  0.27097286860E+03  0.00000000000E+00 0. -1.
</event>
<event>
 7    1  0.1538147E-010  0.1197604E+03  0.7561462E-02  0.1243493E+00
          2   -1    0    0  501    0  0.00000000000E+00  0.00000000000E+00  0.65402978720E+03  0.65402978720E+03  0.00000000000E+00 0. -1.
         -2   -1    0    0    0  501 -0.00000000000E+00 -0.00000000000E+00 -0.36281158075E+02  0.36281158075E+02  0.00000000000E+00 0.  1.
         25    2    1    2    0    0  0.18644702661E+02 -0.71580063304E+02  0.51766162142E+03  0.53768222216E+03  0.12512908270E+03 0.  0.
          5    1    3    3  502    0 -0.46091435792E+02 -0.19996769747E+02  0.31033396367E+03  0.31440250104E+03  0.41800000000E+01 0.  1.
         -5    1    3    3    0  502  0.64736138452E+02 -0.51583293558E+02  0.20732765775E+03  0.22327972112E+03  0.41800000000E+01 0.  1.
        -11    1    1    2    0    0 -0.48033449450E+02  0.35711773194E+02  0.26068722207E+02  0.65284923897E+02  0.00000000000E+00 0. -1.
         11    1    1    2    0    0  0.29388746789E+02  0.35868290110E+02  0.74018285493E+02  0.87343799211E+02  0.00000000000E+00 0.  1.
</event>
<event>
 6    1  0.1538147E-010  0.1188268E+03  0.7561462E-02  0.1245045E+00
          2   -1    0    0  501    0  0.00000000000E+00  0.00000000000E+00  0.27086790256E+03  0.27086790256E+03  0.00000000000E+00 0.  1.
         -2   -1    0    0    0  501 -0.00000000000E+00 -0.00000000000E+00 -0.77169215972E+02  0.77169215972E+02  0.00000000000E+00 0. -1.
          5    1    1    2  502    0  0.71526874396E+02 -0.23181817479E+02  0.94131400264E+02  0.12054743190E+03  0.41800000000E+01 0. -1.
         -5    1    1    2    0  502 -0.16737340457E+02 -0.58077066444E+02 -0.80195422959E+00  0.60590426165E+02  0.41800000000E+01 0. -1.
        -11    1    1    2    0    0 -0.54790217735E+01  0.30527172531E+02 -0.12704959548E+02  0.33516323478E+02  0.00000000000E+00 0. -1.
         11    1    1    2    0    0 -0.49310512165E+02  0.50731711392E+02  0.11307420010E+03  0.13338293699E+03  0.00000000000E+00 0.  1.
</event>
<event>
 7    1  0.1538147E-010  0.8822994E+02  0.7561462E-02  0.1307196E+00
          2   -1    0    0  501    0  0.00000000000E+00  0.00000000000E+00  0.50549759460E+03  0.50549759460E+03  0.00000000000E+00 0. -1.
         -2   -1    0    0    0  501 -0.00000000000E+00 -0.00000000000E+00 -0.32403034013E+02  0.32403034013E+02  0.00000000000E+00 0.  1.
         25    2    1    2    0    0  0.44754658506E+02  0.29668528111E+02  0.34324297935E+03  0.36924293253E+03  0.12506558014E+03 0.  0.
          5    1    3    3  502    0  0.35097097013E+02  0.46214872625E+02  0.54136967290E+02  0.79472663840E+02  0.41800000000E+01 0. -1.
         -5    1    3    3    0  502  0.96575614929E+01 -0.16546344514E+02  0.28910601206E+03  0.28977026870E+03  0.41800000000E+01 0. -1.
        -11    1    1    2    0    0  0.18975692340E+02 -0.29335608291E+02  0.81460333967E+02  0.88636565951E+02  0.00000000000E+00 0. -1.
         11    1    1    2    0    0 -0.63730350846E+02 -0.33291982019E+00  0.48391247274E+02  0.80021130130E+02  0.00000000000E+00 0.  1.
</event>
<event>
 7    1  0.1538147E-010  0.3999754E+03  0.7561462E-02  0.1043788E+00
         -2   -1    0    0    0  501 -0.00000000000E+00  0.00000000000E+00  0.34680064666E+03  0.34680064666E+03  0.00000000000E+00 0.  1.
          2   -1    0    0  501    0  0.00000000000E+00 -0.00000000000E+00 -0.48228379264E+03  0.48228379264E+03  0.00000000000E+00 0. -1.
         25    2    1    2    0    0 -0.58201947693E+02 -0.38662266699E+03 -0.11828668406E+03  0.42721138358E+03  0.12511304207E+03 0.  0.
          5    1    3    3  502    0  0.19427931380E+02 -0.10931368131E+03  0.10752086501E+02  0.11162439341E+03  0.41800000000E+01 0. -1.
         -5    1    3    3    0  502 -0.77629879073E+02 -0.27730898568E+03 -0.12903877056E+03  0.31558699018E+03  0.41800000000E+01 0. -1.
        -11    1    1    2    0    0  0.77328480932E+02  0.22133324968E+03 -0.21401818609E+02  0.23542756682E+03  0.00000000000E+00 0.  1.
         11    1    1    2    0    0 -0.19126533239E+02  0.16528941731E+03  0.42053566884E+01  0.16644548889E+03  0.00000000000E+00 0. -1.
</event>
<event>
 7    1  0.1538147E-010  0.7922711E+02  0.7561462E-02  0.1331259E+00
         -1   -1    0    0    0  501 -0.00000000000E+00  0.00000000000E+00  0.42971926885E+02  0.42971926885E+02  0.00000000000E+00 0.  1.
          1   -1    0    0  501    0  0.00000000000E+00 -0.00000000000E+00 -0.65113635686E+03  0.65113635686E+03  0.00000000000E+00 0. -1.
         25    2    1    2    0    0  0.51229012611E+02 -0.22440486002E+02 -0.86630381719E+02  0.16215531024E+03  0.12514605251E+03 0.  0.
          5    1    3    3  502    0  0.24711051080E+02 -0.97020881492E+01 -0.11677500401E+03  0.11982754492E+03  0.41800000000E+01 0. -1.
         -5    1    3    3    0  502  0.26517961531E+02 -0.12738397853E+02  0.30144622295E+02  0.42327765320E+02  0.41800000000E+01 0. -1.
        -11    1    1    2    0    0 -0.64598955991E+02  0.42812455794E+02 -0.44292675007E+03  0.44965546523E+03  0.00000000000E+00 0. -1.
         11    1    1    2    0    0  0.13369943380E+02 -0.20371969792E+02 -0.78607298186E+02  0.82297508269E+02  0.00000000000E+00 0.  1.
</event>
<event>
 7    1  0.1538147E-010  0.1345053E+03  0.7561462E-02  0.1220920E+00
          1   -1    0    0  501    0  0.00000000000E+00  0.00000000000E+00  0.80895158060E+02  0.80895158060E+02  0.00000000000E+00 0. -1.
         -1   -1    0    0    0  501 -0.00000000000E+00 -0.00000000000E+00 -0.27740860341E+03  0.27740860341E+03  0.00000000000E+00 0.  1.
         25    2    1    2    0    0 -0.10144595287E+03  0.28855780880E+01 -0.87959424901E+02  0.18351081010E+03  0.12505898240E+03 0.  0.
          5    1    3    3  502    0 -0.12271606640E+03  0.81511069345E+01 -0.99632049733E+02  0.15833411266E+03  0.41800000000E+01 0.  1.
         -5    1    3    3    0  502  0.21270113530E+02 -0.52655288465E+01  0.11672624832E+02  0.25176697442E+02  0.41800000000E+01 0.  1.
        -11    1    1    2    0    0  0.33321574605E+01  0.22141044355E+02 -0.56850511631E+02  0.61100816616E+02  0.00000000000E+00 0.  1.
         11    1    1    2    0    0  0.98113795410E+02 -0.25026622443E+02 -0.51703508814E+02  0.11369213475E+03  0.00000000000E+00 0. -1.
</event>
<event>
 7    1  0.1538147E-010  0.2265206E+03  0.7561462E-02  0.1129113E+00
          1   -1    0    0  501    0  0.00000000000E+00  0.00000000000E+00  0.31918027137E+03  0.31918027137E+03  0.00000000000E+00 0. -1.
         -1   -1    0    0    0  501 -0.00000000000E+00 -0.00000000000E+00 -0.27901750384E+03  0.27901750384E+03  0.00000000000E+00 0.  1.
         25    2    1    2    0    0  0.20174854907E+03  0.44584215760E+01 -0.17102692609E+03  0.29259916651E+03  0.12506681503E+03 0.  0.
          5    1    3    3  502    0 -0.15770053140E+02  0.63964466070E+01 -0.25151205567E+02  0.30653949937E+02  0.41800000000E+01 0. -1.
         -5    1    3    3    0  502  0.21751860221E+03 -0.19380250310E+01 -0.14587572052E+03  0.26194521657E+03  0.41800000000E+01 0. -1.
        -11    1    1    2    0    0 -0.80596573606E+02  0.38614055237E+02  0.11152293315E+03  0.14291332183E+03  0.00000000000E+00 0.  1.
         11    1    1    2    0    0 -0.12115197547E+03 -0.43072476813E+02  0.99666760470E+02  0.16268528686E+03  0.00000000000E+00 0. -1.
</event>
<event>
 7    1  0.1538147E-010  0.1046594E+03  0.7561462E-02  0.1270792E+00
         -2   -1    0    0    0  501 -0.00000000000E+00  0.00000000000E+00  0.12019047125E+03  0.12019047125E+03  0.00000000000E+00 0.  1.
          2   -1    0    0  501    0  0.00000000000E+00 -0.00000000000E+00 -0.17093834842E+03  0.17093834842E+03  0.00000000000E+00 0. -1.
         25    2    1    2    0    0  0.19346743588E+02  0.35033597750E+02  0.58724861716E+02  0.14389911586E+03  0.12512672258E+03 0.  0.
          5    1    3    3  502    0  0.14416103520E+01  0.70825763098E+02 -0.20701575666E+01  0.70993837135E+02  0.41800000000E+01 0.  1.
         -5    1    3    3    0  502  0.17905133236E+02 -0.35792165349E+02  0.60795019283E+02  0.72905278726E+02  0.41800000000E+01 0.  1.
        -11    1    1    2    0    0 -0.47059160818E+02  0.71959093365E+01 -0.47081291786E+02  0.66955162342E+02  0.00000000000E+00 0.  1.
         11    1    1    2    0    0  0.27712417230E+02 -0.42229507086E+02 -0.62391447100E+02  0.80274541473E+02  0.00000000000E+00 0. -1.
</event>
<event>
 7    1  0.1538147E-010  0.9156495E+02  0.7561462E-02  0.1299106E+00
         -1   -1    0    0    0  501 -0.00000000000E+00  0.00000000000E+00  0.88119504208E+02  0.88119504208E+02  0.00000000000E+00 0.  1.
          1   -1    0    0  501    0  0.00000000000E+00 -0.00000000000E+00 -0.19088802460E+03  0.19088802460E+03  0.00000000000E+00 0. -1.
         25    2    1    2    0    0  0.35355002634E+02  0.61689093861E+02 -0.60282948591E+02  0.15598644633E+03  0.12506884918E+03 0.  0.
          5    1    3    3  502    0  0.29529168838E+02  0.13656922606E+02  0.35660332829E+02  0.48452193808E+02  0.41800000000E+01 0. -1.
         -5    1    3    3    0  502  0.58258337962E+01  0.48032171256E+02 -0.95943281420E+02  0.10753425252E+03  0.41800000000E+01 0. -1.
        -11    1    1    2    0    0  0.21786379296E+02 -0.27832318784E+02  0.11776184429E+02  0.37255372920E+02  0.00000000000E+00 0.  1.
         11    1    1    2    0    0 -0.57141381930E+02 -0.33856775077E+02 -0.54261756232E+02  0.85765709563E+02  0.00000000000E+00 0. -1.
</event>
<event>
 7    1  0.1538147E-010  0.1135956E+03  0.7561462E-02  0.1254053E+00
          4   -1    0    0  501    0  0.00000000000E+00  0.00000000000E+00  0.26779451069E+03  0.26779451069E+03  0.00000000000E+00 0.  1.
         -4   -1    0    0    0  501 -0.00000000000E+00 -0.00000000000E+00 -0.55896129245E+02  0.55896129245E+02  0.00000000000E+00 0. -1.
         25    2    1    2    0    0  0.54411096055E+02  0.48429065622E+00  0.14576596264E+03  0.19965938503E+03  0.12512135010E+03 0.  0.
          5    1    3    3  502    0 -0.21056306583E+02 -0.41594511453E+02  0.31832824908E+02  0.56606294452E+02  0.41800000000E+01 0.  1.
         -5    1    3    3    0  502  0.75467402638E+02  0.42078802109E+02  0.11393313774E+03  0.14305309057E+03  0.41800000000E+01 0.  1.
        -11    1    1    2    0    0 -0.48493291890E+02  0.33784112999E+02  0.66874430286E+02  0.89247717481E+02  0.00000000000E+00 0.  1.
         11    1    1    2    0    0 -0.59178041648E+01 -0.34268403656E+02 -0.74201148306E+00  0.34783537432E+02  0.00000000000E+00 0. -1.
</event>
<event>
 7    1  0.1538147E-010  0.1173960E+03  0.7561462E-02  0.1247456E+00
          2   -1    0    0  501    0  0.00000000000E+00  0.00000000000E+00  0.20713816178E+03  0.20713816178E+03  0.00000000000E+00 0. -1.
         -2   -1    0    0    0  501 -0.00000000000E+00 -0.00000000000E+00 -0.83143863289E+02  0.83143863289E+02  0.00000000000E+00 0.  1.
         25    2    1    2    0    0  0.50004305404E+02 -0.19322575039E+01  0.87226723792E+01  0.13503498877E+03  0.12511674149E+03 0.  0.
          5    1    3    3  502    0 -0.39592291537E+02  0.16650252530E+02  0.29442410860E+01  0.43254149096E+02  0.41800000000E+01 0. -1.
         -5    1    3    3    0  502  0.89596596941E+02 -0.18582510034E+02  0.57784312932E+01  0.91780839671E+02  0.41800000000E+01 0. -1.
        -11    1    1    2    0    0 -0.38046789031E+02  0.42912621479E+02  0.86435294842E+02  0.10373095696E+03  0.00000000000E+00 0.  1.
         11    1    1    2    0    0 -0.11957516372E+02 -0.40980363975E+02  0.28836331265E+02  0.51516079336E+02  0.00000000000E+00 0. -1.
</event>
<event>
 6    1  0.1538147E-010  0.8645132E+02  0.7561462E-02  0.1311680E+00
          1   -1    0    0  501    0  0.00000000000E+00  0.00000000000E+00  0.52445705566E+02  0.52445705566E+02  0.00000000000E+00 0. -1.
         -1   -1    0    0    0  501 -0.00000000000E+00 -0.00000000000E+00 -0.27055203063E+03  0.27055203063E+03  0.00000000000E+00 0.  1.
          5    1    1    2  502    0 -0.28761751717E+02  0.44699592131E+02 -0.12791348776E+03  0.13858075137E+03  0.41800000000E+01 0.  1.
         -5    1    1    2    0  502 -0.71178412076E+01 -0.28571223350E+02  0.15910740615E+02  0.33728363941E+02  0.41800000000E+01 0.  1.
        -11    1    1    2    0    0  0.75037188680E+01  0.32602480832E+02 -0.35354295579E+01  0.33641147653E+02  0.00000000000E+00 0. -1.
         11    1    1    2    0    0  0.28375874057E+02 -0.48730849613E+02 -0.10256814836E+03  0.11704747324E+03  0.00000000000E+00 0.  1.
</event>
<event>
 6    1  0.1538147E-010  0.1028286E+03  0.7561462E-02  0.1274458E+00
         -2   -1    0    0    0  501 -0.00000000000E+00  0.00000000000E+00  0.35240794178E+02  0.35240794178E+02  0.00000000000E+00 0.  1.
          2   -1    0    0  501    0  0.00000000000E+00 -0.00000000000E+00 -0.49803779390E+03  0.49803779390E+03  0.00000000000E+00 0. -1.
          5    1    1    2  502    0 -0.69713217874E+02  0.75322112514E+02 -0.17406563096E+03  0.20211301210E+03  0.41800000000E+01 0. -1.
         -5    1    1    2    0  502  0.21525312304E+02 -0.24866607078E+02 -0.12795417627E+03  0.13217954018E+03  0.41800000000E+01 0. -1.
        -11    1    1    2    0    0  0.10969933362E+02 -0.10577483594E+02  0.10975200803E+02  0.18779713252E+02  0.00000000000E+00 0.  1.
         11    1    1    2    0    0  0.37217972209E+02 -0.39878021842E+02 -0.17175239330E+03  0.18020632254E+03  0.00000000000E+00 0. -1.
</event>
<event>
 7    1  0.1538147E-010  0.9319505E+02  0.7561462E-02  0.1295294E+00
         -3   -1    0    0    0  501 -0.00000000000E+00  0.00000000000E+00  0.51896209309E+02  0.51896209309E+02  0.00000000000E+00 0.  1.
          3   -1    0    0  501    0  0.00000000000E+00 -0.00000000000E+00 -0.45549848425E+03  0.45549848425E+03  0.00000000000E+00 0. -1.
         25    2    1    2    0    0  0.17457804888E+02 -0.23530455677E+02 -0.39029093941E+03  0.41089991654E+03  0.12511301582E+03 0.  0.
          5    1    3    3  502    0 -0.27666980244E+02  0.30835075627E+02 -0.59501601008E+02  0.72623526541E+02  0.41800000000E+01 0. -1.
         -5    1    3    3    0  502  0.45124785132E+02 -0.54365531304E+02 -0.33078933840E+03  0.33827639000E+03  0.41800000000E+01 0. -1.
        -11    1    1    2    0    0 -0.50926393898E+01  0.47091828200E+02  0.22044279004E+02  0.52244860953E+02  0.00000000000E+00 0.  1.
         11    1    1    2    0    0 -0.12365165498E+02 -0.23561372524E+02 -0.35355614531E+02  0.44249916066E+02  0.00000000000E+00 0. -1.
</event>
<event>
 6    1  0.1538147E-010  0.1045281E+03  0.7561462E-02  0.1271052E+00
         -1   -1    0    0    0  501 -0.00000000000E+00  0.00000000000E+00  0.23706231184E+03  0.23706231184E+03  0.00000000000E+00 0.  1.
          1   -1    0    0  501    0  0.00000000000E+00 -0.00000000000E+00 -0.89486377452E+02  0.89486377452E+02  0.00000000000E+00 0. -1.
          5    1    1    2  502    0 -0.26493546610E+02 -0.31186578331E+02  0.49132968612E+02  0.64078324609E+02  0.41800000000E+01 0. -1.
         -5    1    1    2    0  502 -0.37147243428E+02  0.50016583195E+02 -0.46191848206E+02  0.77670686423E+02  0.41800000000E+01 0. -1.
        -11    1    1    2    0    0  0.39723400382E+02 -0.51469322653E+02  0.50460478076E+02  0.82300058080E+02  0.00000000000E+00 0. -1.
         11    1    1    2    0    0  0.23917389657E+02  0.32639317789E+02  0.94174335907E+02  0.10249962018E+03  0.00000000000E+00 0.  1.
</event>
<event>
 6    1  0.1538147E-010  0.8865958E+02  0.7561462E-02  0.1306131E+00
         -1   -1    0    0    0  501 -0.00000000000E+00  0.00000000000E+00  0.52441581065E+02  0.52441581065E+02  0.00000000000E+00 0.  1.
          1   -1    0    0  501    0  0.00000000000E+00 -0.00000000000E+00 -0.27610250405E+03  0.27610250405E+03  0.00000000000E+00 0. -1.
          5    1    1    2  502    0 -0.52119665888E+02  0.52510389510E+01  0.19712061536E+01  0.52586985424E+02  0.41800000000E+01 0.  1.
         -5    1    1    2    0  502  0.17195966192E+02  0.35666728996E+02 -0.12381529733E+03  0.13005966732E+03  0.41800000000E+01 0.  1.
        -11    1    1    2    0    0 -0.13515656707E+02 -0.33274597741E+02 -0.87851186555E+02  0.94908918497E+02  0.00000000000E+00 0. -1.
         11    1    1    2    0    0  0.48439356403E+02 -0.76431702058E+01 -0.13965645252E+02  0.50988513872E+02  0.00000000000E+00 0.  1.
</event>
<event>
 6    1  0.1538147E-010  0.2499081E+03  0.7561462E-02  0.1113363E+00
          1   -1    0    0  501    0  0.00000000000E+00  0.00000000000E+00  0.36491195812E+03  0.36491195812E+03  0.00000000000E+00 0. -1.
         -1   -1    0    0    0  501 -0.00000000000E+00 -0.00000000000E+00 -0.21382488730E+03  0.21382488730E+03  0.00000000000E+00 0.  1.
          5    1    1    2  502    0 -0.23349740392E+01  0.76014285107E+02 -0.62407621487E+02  0.98467290324E+02  0.41800000000E+01 0. -1.
         -5    1    1    2    0  502 -0.23321030489E+02  0.16410448234E+03  0.51566293166E+02  0.17363958817E+03  0.41800000000E+01 0. -1.
        -11    1    1    2    0    0  0.57554071251E+02 -0.11334614969E+03  0.10121980836E+03  0.16249698573E+03  0.00000000000E+00 0.  1.
         11    1    1    2    0    0 -0.31898066722E+02 -0.12677261776E+03  0.60708590777E+02  0.14413298119E+03  0.00000000000E+00 0. -1.
</event>
<event>
 6    1  0.1538147E-010  0.2634217E+03  0.7561462E-02  0.1105105E+00
         -2   -1    0    0    0  501 -0.00000000000E+00  0.00000000000E+00  0.40761322776E+03  0.40761322776E+03  0.00000000000E+00 0.  1.
          2   -1    0    0  501    0  0.00000000000E+00 -0.00000000000E+00 -0.19741449677E+03  0.19741449677E+03  0.00000000000E+00 0. -1.
          5    1    1    2  502    0  0.39245356373E+01 -0.14341895113E+02  0.26161112971E+02  0.30380391164E+02  0.41800000000E+01 0.  1.
         -5    1    1    2    0  502 -0.24568956745E+03 -0.51678814507E+02  0.10796425581E+01  0.25110296981E+03  0.41800000000E+01 0.  1.
        -11    1    1    2    0    0  0.16777718838E+03  0.78552320472E+02  0.95892771492E+02  0.20860267404E+03  0.00000000000E+00 0. -1.
         11    1    1    2    0    0  0.73987843432E+02 -0.12531610852E+02  0.87065203973E+02  0.11494168952E+03  0.00000000000E+00 0.  1.
</event>
<event>
 7    1  0.1538147E-010  0.1268578E+03  0.7561462E-02  0.1232194E+00
          2   -1    0    0  501    0  0.00000000000E+00  0.00000000000E+00  0.98366299070E+03  0.98366299070E+03  0.00000000000E+00 0. -1.
         -2   -1    0    0    0  501 -0.00000000000E+00 -0.00000000000E+00 -0.20360880795E+02  0.20360880795E+02  0.00000000000E+00 0.  1.
         25    2    1    2    0    0  0.12691122629E+02  0.88335453958E+02  0.57355295578E+03  0.59376786260E+03  0.12503225407E+03 0.  0.
          5    1    3    3  502    0  0.55823554088E+02  0.68226936397E+02  0.22063053845E+03  0.23762678918E+03  0.41800000000E+01 0. -1.
         -5    1    3    3    0  502 -0.43132431460E+02  0.20108517561E+02  0.35292241733E+03  0.35614107342E+03  0.41800000000E+01 0. -1.
        -11    1    1    2    0    0 -0.45111658378E+02 -0.46848588550E+02  0.13162021555E+03  0.14681189704E+03  0.00000000000E+00 0.  1.
         11    1    1    2    0    0  0.32420535749E+02 -0.41486865409E+02  0.25812893858E+03  0.26344411186E+03  0.00000000000E+00 0. -1.
</event>
<event>
 7    1  0.1538147E-010  0.9840372E+02  0.7561462E-02  0.1283689E+00
          2   -1    0    0  501    0  0.00000000000E+00  0.00000000000E+00  0.60422350759E+03  0.60422350759E+03  0.00000000000E+00 0. -1.
         -2   -1    0    0    0  501 -0.00000000000E+00 -0.00000000000E+00 -0.23976245116E+02  0.23976245116E+02  0.00000000000E+00 0.  1.
         25    2    1    2    0    0  0.41254999772E+02  0.26565846080E+02  0.29335203568E+03  0.32267474567E+03  0.12512336100E+03 0.  0.
          5    1    3    3  502    0  0.32028258520E+01  0.73527237084E+02  0.15486243153E+03  0.17151197563E+03  0.41800000000E+01 0. -1.
         -5    1    3    3    0  502  0.38052173920E+02 -0.46961391004E+02  0.13848960416E+03  0.15116277004E+03  0.41800000000E+01 0. -1.
        -11    1    1    2    0    0 -0.49116443842E+01  0.98808306739E+01 -0.27258082711E+01  0.11365962172E+02  0.00000000000E+00 0.  1.
         11    1    1    2    0    0 -0.36343355387E+02 -0.36446676754E+02  0.28962103506E+03  0.29415904487E+03  0.00000000000E+00 0. -1.
</event>
<event>
 7    1  0.1538147E-010  0.2186056E+03  0.7561462E-02  0.1134927E+00
         -1   -1    0    0    0  501 -0.00000000000E+00  0.00000000000E+00  0.20680112332E+03  0.20680112332E+03  0.00000000000E+00 0.  1.
          1   -1    0    0  501    0  0.00000000000E+00 -0.00000000000E+00 -0.31175626714E+03  0.31175626714E+03  0.00000000000E+00 0. -1.
         25    2    1    2    0    0  0.18855809009E+03 -0.86244533996E+02 -0.15300244723E+03  0.28645631301E+03  0.12512073139E+03 0.  0.
          5    1    3    3  502    0  0.11373754327E+01 -0.15820881649E+02 -0.66187258729E+02  0.68189585254E+02  0.41800000000E+01 0.  1.
         -5    1    3    3    0  502  0.18742071465E+03 -0.70423652347E+02 -0.86815188498E+02  0.21826672776E+03  0.41800000000E+01 0.  1.
        -11    1    1    2    0    0 -0.39617478974E+02  0.55954642110E+02  0.41137354922E+02  0.79954665804E+02  0.00000000000E+00 0.  1.
         11    1    1    2    0    0 -0.14894061111E+03  0.30289891887E+02  0.69099484766E+01  0.15214641165E+03  0.00000000000E+00 0. -1.
</event>
<event>
 6    1  0.1538147E-010  0.9962907E+02  0.7561462E-02  0.1281078E+00
          1   -1    0    0  501    0  0.00000000000E+00  0.00000000000E+00  0.65647917668E+03  0.65647917668E+03  0.00000000000E+00 0. -1.
         -1   -1    0    0    0  501 -0.00000000000E+00 -0.00000000000E+00 -0.19275286823E+02  0.19275286823E+02  0.00000000000E+00 0.  1.
          5    1    1    2  502    0  0.22083632884E+02 -0.49220582242E+02  0.31842123731E+03  0.32298592745E+03  0.41800000000E+01 0.  1.
         -5    1    1    2    0  502  0.58688735393E+01  0.49064365398E+02  0.68007317359E+02  0.84167827838E+02  0.41800000000E+01 0.  1.
        -11    1    1    2    0    0  0.64932669369E+00  0.43567088327E+02  0.13014929543E+03  0.13724923282E+03  0.00000000000E+00 0.  1.
         11    1    1    2    0    0 -0.28601833117E+02 -0.43410871482E+02  0.12062603976E+03  0.13135147539E+03  0.00000000000E+00 0. -1.
</event>
<event>
 7    1  0.1538147E-010  0.8123073E+02  0.7561462E-02  0.1325595E+00
          1   -1    0    0  501    0  0.00000000000E+00  0.00000000000E+00  0.50412364851E+03  0.50412364851E+03  0.00000000000E+00 0. -1.
         -1   -1    0    0    0  501 -0.00000000000E+00 -0.00000000000E+00 -0.26348315038E+02  0.26348315038E+02  0.00000000000E+00 0.  1.
         25    2    1    2    0    0  0.12035091864E+02  0.34915711318E+02  0.33415354114E+03  0.35869173280E+03  0.12504886959E+03 0.  0.
          5    1    3    3  502    0  0.17247612006E+02 -0.18817747192E+02  0.28307466230E+03  0.28425397898E+03  0.41800000000E+01 0. -1.
         -5    1    3    3    0  502 -0.52125201422E+01  0.53733458510E+02  0.51078878848E+02  0.74437753822E+02  0.41800000000E+01 0. -1.
        -11    1    1    2    0    0 -0.39165531581E+02 -0.38693654646E+02  0.50483955083E+02  0.74697841299E+02  0.00000000000E+00 0.  1.
         11    1    1    2    0    0  0.27130439717E+02  0.37779433281E+01  0.93137837249E+02  0.97082389456E+02  0.00000000000E+00 0. -1.
</event>
<event>
 6    1  0.1538147E-010  0.1300272E+03  0.7561462E-02  0.1227415E+00
         -1   -1    0    0    0  501 -0.00000000000E+00  0.00000000000E+00  0.31147473020E+03  0.31147473020E+03  0.00000000000E+00 0.  1.
          1   -1    0    0  501    0  0.00000000000E+00 -0.00000000000E+00 -0.76636275409E+02  0.76636275409E+02  0.00000000000E+00 0. -1.
          5    1    1    2  502    0  0.11410882460E+03 -0.16887124750E+02  0.47999017821E+02  0.12500950742E+03  0.41800000000E+01 0.  1.
         -5    1    1    2    0  502 -0.41148228765E+01  0.13113624251E+02  0.91032492076E+02  0.92159025179E+02  0.41800000000E+01 0.  1.
        -11    1    1    2    0    0 -0.67788858553E+02  0.36374539562E+02  0.22245061766E+02  0.80082952276E+02  0.00000000000E+00 0. -1.
         11    1    1    2    0    0 -0.42205143172E+02 -0.32601039064E+02  0.73561883131E+02  0.90859520734E+02  0.00000000000E+00 0.  1.
</event>
<event>
 6    1  0.1538147E-010  0.1104535E+03  0.7561462E-02  0.1259732E+00
         -1   -1    0    0    0  501 -0.00000000000E+00  0.00000000000E+00  0.36499361225E+02  0.36499361225E+02  0.00000000000E+00 0.  1.
          1   -1    0    0  501    0  0.00000000000E+00 -0.00000000000E+00 -0.43206014057E+03  0.43206014057E+03  0.00000000000E+00 0. -1.
          5    1    1    2  502    0 -0.38412610780E+02  0.16865633504E+02 -0.37947611906E+02  0.56722763595E+02  0.41800000000E+01 0.  1.
         -5    1    1    2    0  502  0.33388134116E+02 -0.69605333427E+02 -0.25008427566E+03  0.26176189042E+03  0.41800000000E+01 0.  1.
        -11    1    1    2    0    0  0.45815104265E+02  0.26343913552E+02 -0.74435446196E+02  0.91288888757E+02  0.00000000000E+00 0. -1.
         11    1    1    2    0    0 -0.40790627602E+02  0.26395786370E+02 -0.33093445580E+02  0.58785959026E+02  0.00000000000E+00 0.  1.
</event>
<event>
 6    1  0.1538147E-010  0.9981260E+02  0.7561462E-02  0.1280691E+00
          2   -1    0    0  501    0  0.00000000000E+00  0.00000000000E+00  0.99113103858E+03  0.99113103858E+03  0.00000000000E+00 0. -1.
         -2   -1    0    0    0  501 -0.00000000000E+00 -0.00000000000E+00 -0.14810014868E+02  0.14810014868E+02  0.00000000000E+00 0.  1.
          5    1    1    2  502    0  0.24396910485E+02 -0.64635624484E+00  0.16481584552E+02  0.29744613747E+02  0.41800000000E+01 0. -1.
         -5    1    1    2    0  502 -0.57905171650E+02  0.39530506959E+02  0.46977798624E+03  0.47499947226E+03  0.41800000000E+01 0. -1.
        -11    1    1    2    0    0 -0.29019702364E+02 -0.29533155668E+02  0.17207951412E+03  0.17699070481E+03  0.00000000000E+00 0.  1.
         11    1    1    2    0    0  0.62527963529E+02 -0.93509950457E+01  0.31798193880E+03  0.32420626263E+03  0.00000000000E+00 0. -1.
</event>
<event>
 7    1  0.1538147E-010  0.1225908E+03  0.7561462E-02  0.1238883E+00
         -2   -1    0    0    0  501 -0.00000000000E+00  0.00000000000E+00  0.14932009232E+03  0.14932009232E+03  0.00000000000E+00 0. -1.
          2   -1    0    0  501    0  0.00000000000E+00 -0.00000000000E+00 -0.11800704937E+03  0.11800704937E+03  0.00000000000E+00 0.  1.
         25    2    1    2    0    0  0.30237149220E+01 -0.74859784848E+02  0.14805594821E+02  0.14653712947E+03  0.12506316179E+03 0.  0.
          5    1    3    3  502    0  0.27611310965E+02 -0.98810423730E+02 -0.11173584378E+02  0.10328700653E+03  0.41800000000E+01 0. -1.
         -5    1    3    3    0  502 -0.24587596043E+02  0.23950638882E+02  0.25979179199E+02  0.43250122935E+02  0.41800000000E+01 0. -1.
        -11    1    1    2    0    0  0.58294349653E+01  0.90104838302E+02 -0.79484227601E+01  0.90642383143E+02  0.00000000000E+00 0.  1.
         11    1    1    2    0    0 -0.88531498873E+01 -0.15245053454E+02  0.24455870894E+02  0.30147629076E+02  0.00000000000E+00 0. -1.
</event>
<event>
 7    1  0.1538147E-010  0.1079530E+03  0.7561462E-02  0.1264408E+00
          2   -1    0    0  501    0  0.00000000000E+00  0.00000000000E+00  0.64767413300E+02  0.64767413300E+02  0.00000000000E+00 0. -1.
         -2   -1    0    0    0  501 -0.00000000000E+00 -0.00000000000E+00 -0.28430764827E+03  0.28430764827E+03  0.00000000000E+00 0.  1.
         25    2    1    2    0    0 -0.38641699873E+02  0.16800873479E+02 -0.20963910211E+03  0.24774384435E+03  0.12511198567E+03 0.  0.
          5    1    3    3  502    0  0.42726224981E+02 -0.74398192200E+01 -0.99459991529E+02  0.10858472971E+03  0.41800000000E+01 0.  1.
         -5    1    3    3    0  502 -0.81367924853E+02  0.24240692699E+02 -0.11017911058E+03  0.13915911464E+03  0.41800000000E+01 0.  1.
        -11    1    1    2    0    0 -0.11224354431E+02 -0.33034343290E+02 -0.29154328155E+02  0.45466788090E+02  0.00000000000E+00 0.  1.
         11    1    1    2    0    0  0.49866054304E+02  0.16233469811E+02  0.19253195294E+02  0.55864429139E+02  0.00000000000E+00 0. -1.
</event>
<event>
 6    1  0.1538147E-010  0.1267418E+03  0.7561462E-02  0.1232372E+00
          2   -1    0    0  501    0  0.00000000000E+00  0.00000000000E+00  0.16558261377E+03  0.16558261377E+03  0.00000000000E+00 0. -1.
         -2   -1    0    0    0  501 -0.00000000000E+00 -0.00000000000E+00 -0.12130397390E+03  0.12130397390E+03  0.00000000000E+00 0.  1.
          5    1    1    2  502    0 -0.87237909658E+02  0.20798236464E+02  0.23953959215E+02  0.92920848488E+02  0.41800000000E+01 0. -1.
         -5    1    1    2    0  502  0.24978892718E+02  0.32359117205E+02 -0.39975419814E+02  0.57328563012E+02  0.41800000000E+01 0. -1.
        -11    1    1    2    0    0  0.15621579339E+00 -0.60119576349E+02  0.29524178147E+02  0.66978093128E+02  0.00000000000E+00 0.  1.
         11    1    1    2    0    0  0.62102801147E+02  0.69622226798E+01  0.30775922332E+02  0.69659083043E+02  0.00000000000E+00 0. -1.
</event>
<event>
 7    1  0.1538147E-010  0.1122398E+03  0.7561462E-02  0.1256477E+00
         -2   -1    0    0    0  501 -0.00000000000E+00  0.00000000000E+00  0.32901077752E+02  0.32901077752E+02  0.00000000000E+00 0.  1.
          2   -1    0    0  501    0  0.00000000000E+00 -0.00000000000E+00 -0.45983575229E+03  0.45983575229E+03  0.00000000000E+00 0. -1.
         25    2    1    2    0    0  0.45741368171E+02 -0.19625733207E+02 -0.17564318511E+03  0.22133232188E+03  0.12514002584E+03 0.  0.
          5    1    3    3  502    0 -0.11051999208E+02  0.44196816423E+02 -0.86106669721E+02  0.97505570297E+02  0.41800000000E+01 0. -1.
         -5    1    3    3    0  502  0.56793367380E+02 -0.63822549630E+02 -0.89536515385E+02  0.12382675158E+03  0.41800000000E+01 0. -1.
        -11    1    1    2    0    0 -0.34116777558E+02 -0.28022312022E+02 -0.63676776831E+02  0.77485072044E+02  0.00000000000E+00 0.  1.
         11    1    1    2    0    0 -0.11624590613E+02  0.47648045229E+02 -0.18761471260E+03  0.19391943612E+03  0.00000000000E+00 0. -1.
</event>
<event>
 7    1  0.1538147E-010  0.1304088E+03  0.7561462E-02  0.1226850E+00
          2   -1    0    0  501    0  0.00000000000E+00  0.00000000000E+00  0.76898556392E+03  0.76898556392E+03  0.00000000000E+00 0. -1.
         -2   -1    0    0    0  501 -0.00000000000E+00 -0.00000000000E+00 -0.31067148134E+02  0.31067148134E+02  0.00000000000E+00 0.  1.
         25    2    1    2    0    0  0.98539502357E+02 -0.44215346445E+02  0.38964762405E+03  0.42323769953E+03  0.12505938183E+03 0.  0.
          5    1    3    3  502    0 -0.68696998241E+01  0.24900371877E+02  0.15163654806E+03  0.15387766701E+03  0.41800000000E+01 0. -1.
         -5    1    3    3    0  502  0.10540920218E+03 -0.69115718322E+02  0.23801107599E+03  0.26936003252E+03  0.41800000000E+01 0. -1.
        -11    1    1    2    0    0 -0.32028291111E+02  0.89682318638E+01  0.17491719187E+02  0.37579260961E+02  0.00000000000E+00 0.  1.
         11    1    1    2    0    0 -0.66511211246E+02  0.35247114581E+02  0.33077907255E+03  0.33923575157E+03  0.00000000000E+00 0. -1.
</event>
<event>
 6    1  0.1538147E-010  0.1173759E+03  0.7561462E-02  0.1247490E+00
         -2   -1    0    0    0  501 -0.00000000000E+00  0.00000000000E+00  0.14426116059E+03  0.14426116059E+03  0.00000000000E+00 0. -1.
          2   -1    0    0  501    0  0.00000000000E+00 -0.00000000000E+00 -0.11850607733E+03  0.11850607733E+03  0.00000000000E+00 0.  1.
          5    1    1    2  502    0 -0.19839872609E+02 -0.57001840629E+02  0.13323391935E+02  0.61950105350E+02  0.41800000000E+01 0. -1.
         -5    1    1    2    0  502  0.65915674804E+02  0.16346071329E+02 -0.39939746198E+02  0.78896932508E+02  0.41800000000E+01 0. -1.
        -11    1    1    2    0    0 -0.58818644957E+02 -0.47888412152E+01  0.44861489198E+02  0.74129071273E+02  0.00000000000E+00 0.  1.
         11    1    1    2    0    0  0.12742842762E+02  0.45444610516E+02  0.75099483274E+01  0.47791128784E+02  0.00000000000E+00 0. -1.
</event>
<event>
 7    1  0.1538147E-010  0.9871939E+02  0.7561462E-02  0.1283012E+00
          4   -1    0    0  501    0  0.00000000000E+00  0.00000000000E+00  0.53590584231E+02  0.53590584231E+02  0.00000000000E+00 0. -1.
         -4   -1    0    0    0  501 -0.00000000000E+00 -0.00000000000E+00 -0.26013784092E+03  0.26013784092E+03  0.00000000000E+00 0.  1.
         25    2    1    2    0    0 -0.37440686902E+02 -0.18036523315E+02 -0.15050548528E+03  0.20008066019E+03  0.12511294207E+03 0.  0.
          5    1    3    3  502    0  0.27715508447E+02  0.10866702649E+02  0.35619637234E+01  0.30272010513E+02  0.41800000000E+01 0.  1.
         -5    1    3    3    0  502 -0.65156195348E+02 -0.28903225964E+02 -0.15406744900E+03  0.16980864968E+03  0.41800000000E+01 0.  1.
        -11    1    1    2    0    0  0.24976291748E+02  0.53144211124E+02 -0.20604578934E+02  0.62230788188E+02  0.00000000000E+00 0. -1.
         11    1    1    2    0    0  0.12464395154E+02 -0.35107687809E+02 -0.35437192479E+02  0.51416976775E+02  0.00000000000E+00 0.  1.
</event>
<event>
 7    1  0.1538147E-010  0.1187166E+03  0.7561462E-02  0.1245229E+00
         -2   -1    0    0    0  501 -0.00000000000E+00  0.00000000000E+00  0.13464913872E+02  0.13464913872E+02  0.00000000000E+00 0.  1.
          2   -1    0    0  501    0  0.00000000000E+00 -0.00000000000E+00 -0.11809679389E+04  0.11809679389E+04  0.00000000000E+00 0. -1.
         25    2    1    2    0    0  0.54300114815E+02 -0.28420156650E+02 -0.78166762060E+03  0.79398711312E+03  0.12512017795E+03 0.  0.
          5    1    3    3  502    0 -0.13443135783E+02 -0.55540315568E+02 -0.48837190923E+03  0.49172150520E+03  0.41800000000E+01 0.  1.
         -5    1    3    3    0  502  0.67743250598E+02  0.27120158918E+02 -0.29329571137E+03  0.30226560792E+03  0.41800000000E+01 0.  1.
        -11    1    1    2    0    0 -0.49470349181E+02 -0.23594063987E+02 -0.20756783443E+03  0.21468209333E+03  0.00000000000E+00 0. -1.
         11    1    1    2    0    0 -0.48297656343E+01  0.52014220636E+02 -0.17826756996E+03  0.18576364629E+03  0.00000000000E+00 0.  1.
</event>
<event>
 6    1  0.1538147E-010  0.1037578E+03  0.7561462E-02  0.1272587E+00
          2   -1    0    0  501    0  0.00000000000E+00  0.00000000000E+00  0.26659686519E+03  0.26659686519E+03  0.00000000000E+00 0. -1.
         -2   -1    0    0    0  501 -0.00000000000E+00 -0.00000000000E+00 -0.52818675241E+02  0.52818675241E+02  0.00000000000E+00 0.  1.
          5    1    1    2  502    0  0.38712684681E+02  0.47527212562E+02  0.45991974382E+01  0.61612765773E+02  0.41800000000E+01 0.  1.
         -5    1    1    2    0  502 -0.44584224552E+02 -0.26128352104E+02  0.65550548725E+02  0.83575060280E+02  0.41800000000E+01 0.  1.
        -11    1    1    2    0    0  0.37777730509E+02 -0.41813185062E+02  0.59415801195E+02  0.81888563299E+02  0.00000000000E+00 0.  1.
         11    1    1    2    0    0 -0.31906190638E+02  0.20414324604E+02  0.84212642592E+02  0.92339151082E+02  0.00000000000E+00 0. -1.
</event>
<event>
 7    1  0.1538147E-010  0.1293277E+03  0.7561462E-02  0.1228457E+00
         -2   -1    0    0    0  501 -0.00000000000E+00  0.00000000000E+00  0.26714063221E+02  0.26714063221E+02  0.00000000000E+00 0.  1.
          2   -1    0    0  501    0  0.00000000000E+00 -0.00000000000E+00 -0.85022041870E+03  0.85022041870E+03  0.00000000000E+00 0. -1.
         25    2    1    2    0    0  0.10392597252E+03 -0.69005527741E+01 -0.46956718210E+03  0.49697247452E+03  0.12506029159E+03 0.  0.
          5    1    3    3  502    0  0.11157304564E+03  0.37263739921E+01 -0.21732731192E+03  0.24435847291E+03  0.41800000000E+01 0. -1.
         -5    1    3    3    0  502 -0.76470731251E+01 -0.10626926766E+02 -0.25223987018E+03  0.25261400161E+03  0.41800000000E+01 0. -1.
        -11    1    1    2    0    0 -0.41153062028E+02  0.44029171411E+02 -0.11092312174E+03  0.12623819306E+03  0.00000000000E+00 0.  1.
         11    1    1    2    0    0 -0.62772910488E+02 -0.37128618637E+02 -0.24301605164E+03  0.25372381435E+03  0.00000000000E+00 0. -1.
</event>
<event>
 6    1  0.1538147E-010  0.1559544E+03  0.7561462E-02  0.1193341E+00
          1   -1    0    0  501    0  0.00000000000E+00  0.00000000000E+00  0.14345208826E+03  0.14345208826E+03  0.00000000000E+00 0. -1.
         -1   -1    0    0    0  501 -0.00000000000E+00 -0.00000000000E+00 -0.26148932336E+03  0.26148932336E+03  0.00000000000E+00 0.  1.
          5    1    1    2  502    0  0.82383824576E+01 -0.86813147614E+02  0.53168709254E+02  0.10221926231E+03  0.41800000000E+01 0.  1.
         -5    1    1    2    0  502  0.59131848625E+02 -0.45694709156E+02 -0.53734610020E+02  0.92138280213E+02  0.41800000000E+01 0.  1.
        -11    1    1    2    0    0 -0.16894667461E+02  0.18369339659E+02 -0.74536278715E+02  0.78603557635E+02  0.00000000000E+00 0.  1.
         11    1    1    2    0    0 -0.50475563621E+02  0.11413851711E+03 -0.42935055618E+02  0.13198031146E+03  0.00000000000E+00 0. -1.
</event>
<event>
 7    1  0.1538147E-010  0.1241455E+03  0.7561462E-02  0.1236411E+00
         -1   -1    0    0    0  501 -0.00000000000E+00  0.00000000000E+00  0.38231579820E+03  0.38231579820E+03  0.00000000000E+00 0.  1.
          1   -1    0    0  501    0  0.00000000000E+00 -0.00000000000E+00 -0.44566873882E+02  0.44566873882E+02  0.00000000000E+00 0. -1.
         25    2    1    2    0    0 -0.29008218356E+02 -0.60498858337E+02  0.23164968720E+03  0.27169937515E+03  0.12512947008E+03 0.  0.
          5    1    3    3  502    0  0.29123663058E+02 -0.75961896616E+02  0.12553419291E+03  0.14964859998E+03  0.41800000000E+01 0. -1.
         -5    1    3    3    0  502 -0.58131881414E+02  0.15463038279E+02  0.10611549430E+03  0.12205077517E+03  0.41800000000E+01 0. -1.
        -11    1    1    2    0    0  0.58270401184E+02  0.43215670935E+02  0.94790443707E+02  0.11936608432E+03  0.00000000000E+00 0.  1.
         11    1    1    2    0    0 -0.29262182828E+02  0.17283187401E+02  0.11308793405E+02  0.35817212606E+02  0.00000000000E+00 0. -1.
</event>
<event>
 7    1  0.1538147E-010  0.1103935E+03  0.7561462E-02  0.1259843E+00
         -3   -1    0    0    0  501 -0.00000000000E+00  0.00000000000E+00  0.45346260830E+03  0.45346260830E+03  0.00000000000E+00 0.  1.
          3   -1    0    0  501    0  0.00000000000E+00 -0.00000000000E+00 -0.40361054546E+02  0.40361054546E+02  0.00000000000E+00 0. -1.
         25    2    1    2    0    0  0.30486147686E+02  0.67618788398E+02  0.28363596075E+03  0.31873225903E+03  0.12505674302E+03 0.  0.
          5    1    3    3  502    0 -0.45635424584E+02  0.47597301480E+01  0.78049930631E+02  0.90633939997E+02  0.41800000000E+01 0. -1.
         -5    1    3    3    0  502  0.76121572269E+02  0.62859058250E+02  0.20558603012E+03  0.22809831904E+03  0.41800000000E+01 0. -1.
        -11    1    1    2    0    0 -0.21432264249E+02 -0.27979512275E+02  0.12972797894E+03  0.13443044141E+03  0.00000000000E+00 0.  1.
         11    1    1    2    0    0 -0.90538834367E+01 -0.39639276123E+02 -0.26238593410E+00  0.40660962399E+02  0.00000000000E+00 0. -1.
</event>
<event>
 6    1  0.1538147E-010  0.9013479E+02  0.7561462E-02  0.1302526E+00
         -2   -1    0    0    0  501 -0.00000000000E+00  0.00000000000E+00  0.10847061134E+03  0.10847061134E+03  0.00000000000E+00 0. -1.
          2   -1    0    0  501    0  0.00000000000E+00 -0.00000000000E+00 -0.13588287188E+03  0.13588287188E+03  0.00000000000E+00 0.  1.
          5    1    1    2  502    0  0.21346228037E+02  0.15603534757E+02 -0.49501040740E+02  0.56275724630E+02  0.41800000000E+01 0. -1.
         -5    1    1    2    0  502 -0.73785949991E+02 -0.23597775329E+02  0.25831184061E+02  0.81767621260E+02  0.41800000000E+01 0. -1.
        -11    1    1    2    0    0  0.44476545565E+02  0.29242381346E+02  0.33360287244E+02  0.62818697353E+02  0.00000000000E+00 0. -1.
         11    1    1    2    0    0  0.79631763890E+01 -0.21248140773E+02 -0.37102691100E+02  0.43491439978E+02  0.00000000000E+00 0.  1.
</event>
<event>
 7    1  0.1538147E-010  0.1027805E+03  0.7561462E-02  0.1274555E+00
         -2   -1    0    0    0  501 -0.00000000000E+00  0.00000000000E+00  0.22114300582E+03  0.22114300582E+03  0.00000000000E+00 0.  1.
          2   -1    0    0  501    0  0.00000000000E+00 -0.00000000000E+00 -0.68823366072E+02  0.68823366072E+02  0.00000000000E+00 0. -1.
         25    2    1    2    0    0 -0.23533066917E+02 -0.53117279499E+02  0.45005910629E+02  0.14502897956E+03  0.12503048548E+03 0.  0.
          5    1    3    3  502    0 -0.67802478155E+02 -0.20254166799E+02 -0.42023001215E+01  0.71010837504E+02  0.41800000000E+01 0.  1.
         -5    1    3    3    0  502  0.44269411237E+02 -0.32863112700E+02  0.49208210751E+02  0.74018142053E+02  0.41800000000E+01 0.  1.
        -11    1    1    2    0    0  0.10606892264E+02 -0.10226081409E+02  0.67329870776E+02  0.68923075984E+02  0.00000000000E+00 0.  1.
         11    1    1    2    0    0  0.12926174653E+02  0.63343360908E+02  0.39983858344E+02  0.76014316351E+02  0.00000000000E+00 0. -1.
</event>
<event>
 6    1  0.1538147E-010  0.1021685E+03  0.7561462E-02  0.1275801E+00
         -2   -1    0    0    0  501 -0.00000000000E+00  0.00000000000E+00  0.18506342867E+03  0.18506342867E+03  0.00000000000E+00 0.  1.
          2   -1    0    0  501    0  0.00000000000E+00 -0.00000000000E+00 -0.72483243167E+02  0.72483243167E+02  0.00000000000E+00 0. -1.
          5    1    1    2  502    0 -0.79568069022E+02  0.35917175618E+02  0.56688097390E+02  0.10417357581E+03  0.41800000000E+01 0.  1.
         -5    1    1    2    0  502  0.39204841919E+02 -0.10523318346E+02  0.14193902932E+02  0.43205313786E+02  0.41800000000E+01 0.  1.
        -11    1    1    2    0    0  0.23245526561E+02 -0.44666789293E+02  0.60166969410E+02  0.78457254469E+02  0.00000000000E+00 0.  1.
         11    1    1    2    0    0  0.17117700542E+02  0.19272932021E+02 -0.18468784227E+02  0.31710527769E+02  0.00000000000E+00 0. -1.
</event>
<event>
 7    1  0.1538147E-010  0.1275854E+03  0.7561462E-02  0.1231083E+00
         -1   -1    0    0    0  501 -0.00000000000E+00  0.00000000000E+00  0.13654932963E+03  0.13654932963E+03  0.00000000000E+00 0.  1.
          1   -1    0    0  501    0  0.00000000000E+00 -0.00000000000E+00 -0.17384897903E+03  0.17384897903E+03  0.00000000000E+00 0. -1.
         25    2    1    2    0    0  0.35467769437E+02 -0.10177878626E+03 -0.40614222157E+01  0.16515370038E+03  0.12506944310E+03 0.  0.
          5    1    3    3  502    0  0.23222338864E+02 -0.15693855859E+02  0.53674321632E+02  0.60695793402E+02  0.41800000000E+01 0. -1.
         -5    1    3    3    0  502  0.12245430573E+02 -0.86084930400E+02 -0.57735743848E+02  0.10445790697E+03  0.41800000000E+01 0. -1.
        -11    1    1    2    0    0  0.15453681355E+02  0.84659827107E+02 -0.97395376895E+01  0.86608089620E+02  0.00000000000E+00 0.  1.
         11    1    1    2    0    0 -0.50921450792E+02  0.17118959152E+02 -0.23498689492E+02  0.58636518664E+02  0.00000000000E+00 0. -1.
</event>
<event>
 6    1  0.1538147E-010  0.1372548E+03  0.7561462E-02  0.1217071E+00
         -3   -1    0    0    0  501 -0.00000000000E+00  0.00000000000E+00  0.38345076415E+02  0.38345076415E+02  0.00000000000E+00 0.  1.
          3   -1    0    0  501    0  0.00000000000E+00 -0.00000000000E+00 -0.59619857503E+03  0.59619857503E+03  0.00000000000E+00 0. -1.
          5    1    1    2  502    0 -0.11187002374E+03  0.40874015544E+02 -0.26622774780E+03  0.29168523010E+03  0.41800000000E+01 0.  1.
         -5    1    1    2    0  502  0.79730883263E+01 -0.38819271869E+02 -0.51229063673E+02  0.64902968890E+02  0.41800000000E+01 0.  1.
        -11    1    1    2    0    0  0.23729373308E+02  0.21401582069E+02 -0.15590156302E+03  0.15914272910E+03  0.00000000000E+00 0. -1.
         11    1    1    2    0    0  0.80167562107E+02 -0.23456325743E+02 -0.84495124121E+02  0.11881272336E+03  0.00000000000E+00 0.  1.
</event>
<event>
 6    1  0.1538147E-010  0.1353130E+03  0.7561462E-02  0.1219779E+00
         -2   -1    0    0    0  501 -0.00000000000E+00  0.00000000000E+00  0.22213673527E+03  0.22213673527E+03  0.00000000000E+00 0.  1.
          2   -1    0    0  501    0  0.00000000000E+00 -0.00000000000E+00 -0.10795794398E+03  0.10795794398E+03  0.00000000000E+00 0. -1.
          5    1    1    2  502    0 -0.16957131268E+02 -0.19089844506E+02  0.49116878375E+02  0.55514922367E+02  0.41800000000E+01 0.  1.
         -5    1    1    2    0  502  0.11851352337E+03 -0.17247985562E+02  0.13640162108E+02  0.12060876689E+03  0.41800000000E+01 0.  1.
        -11    1    1    2    0    0 -0.62977896050E+02  0.53556132385E+02  0.69515001417E+02  0.10801300907E+03  0.00000000000E+00 0.  1.
         11    1    1    2    0    0 -0.38578496054E+02 -0.17218302317E+02 -0.18093250617E+02  0.45957980921E+02  0.00000000000E+00 0. -1.
</event>
<event>
 7    1  0.1538147E-010  0.7629497E+02  0.7561462E-02  0.1339907E+00
          2   -1    0    0  501    0  0.00000000000E+00  0.00000000000E+00  0.64382398277E+02  0.64382398277E+02  0.00000000000E+00 0. -1.
         -2   -1    0    0    0  501 -0.00000000000E+00 -0.00000000000E+00 -0.22628609899E+03  0.22628609899E+03  0.00000000000E+00 0.  1.
         25    2    1    2    0    0  0.49840813780E+00  0.43756541270E+02 -0.51914946520E+02  0.14230053426E+03  0.12505757500E+03 0.  0.
          5    1    3    3  502    0 -0.42104638512E+02  0.15676037820E+02 -0.73897878187E+02  0.86584684249E+02  0.41800000000E+01 0.  1.
         -5    1    3    3    0  502  0.42603046650E+02  0.28080503449E+02  0.21982931667E+02  0.55715850012E+02  0.41800000000E+01 0.  1.
        -11    1    1    2    0    0  0.15599554577E+02 -0.34102795009E+02 -0.12095055252E+03  0.12663089230E+03  0.00000000000E+00 0.  1.
         11    1    1    2    0    0 -0.16097962715E+02 -0.96537462611E+01  0.10961798324E+02  0.21737070707E+02  0.00000000000E+00 0. -1.
</event>
<event>
 7    1  0.1538147E-010  0.9073862E+02  0.7561462E-02  0.1301073E+00
         -1   -1    0    0    0  501 -0.00000000000E+00  0.00000000000E+00  0.60904274176E+02  0.60904274176E+02  0.00000000000E+00 0.  1.
          1   -1    0    0  501    0  0.00000000000E+00 -0.00000000000E+00 -0.26158317303E+03  0.26158317303E+03  0.00000000000E+00 0. -1.
         25    2    1    2    0    0 -0.52692317021E+02 -0.25746293881E+02 -0.76900606645E+02  0.15808521776E+03  0.12505151279E+03 0.  0.
          5    1    3    3  502    0 -0.51271825383E+02  0.90043362121E+01  0.19322589310E+02  0.55684046246E+02  0.41800000000E+01 0.  1.
         -5    1    3    3    0  502 -0.14204916384E+01 -0.34750630094E+02 -0.96223195954E+02  0.10240117152E+03  0.41800000000E+01 0.  1.
        -11    1    1    2    0    0  0.46483944402E+01  0.42943403332E+02 -0.17684281484E+02  0.46674160648E+02  0.00000000000E+00 0.  1.
         11    1    1    2    0    0  0.48043922581E+02 -0.17197109450E+02 -0.10609401073E+03  0.11772806880E+03  0.00000000000E+00 0. -1.
</event>
<event>
 7    1  0.1538147E-010  0.1368364E+03  0.7561462E-02  0.1217650E+00
         -1   -1    0    0    0  501 -0.00000000000E+00  0.00000000000E+00  0.53870151903E+02  0.53870151903E+02  0.00000000000E+00 0.  1.
          1   -1    0    0  501    0  0.00000000000E+00 -0.00000000000E+00 -0.45459502535E+03  0.45459502535E+03  0.00000000000E+00 0. -1.
         25    2    1    2    0    0 -0.54623949489E+02  0.95043701966E+02 -0.18189753084E+03  0.24644699248E+03  0.12502930550E+03 0.  0.
          5    1    3    3  502    0 -0.74459469417E+02  0.13304978420E+02 -0.52911706232E+02  0.92403225555E+02  0.41800000000E+01 0.  1.
         -5    1    3    3    0  502  0.19835519929E+02  0.81738723546E+02 -0.12898582461E+03  0.15404376693E+03  0.41800000000E+01 0.  1.
        -11    1    1    2    0    0  0.53883707550E+02 -0.68517285608E+02 -0.21875417619E+03  0.23548134102E+03  0.00000000000E+00 0. -1.
         11    1    1    2    0    0  0.74024193905E+00 -0.26526416358E+02 -0.73166407525E-01  0.26536843750E+02  0.00000000000E+00 0.  1.
</event>
<event>
 7    1  0.1538147E-010  0.3075074E+03  0.7561462E-02  0.1081547E+00
         -1   -1    0    0    0  501 -0.00000000000E+00  0.00000000000E+00  0.83007974835E+02  0.83007974835E+02  0.00000000000E+00 0.  1.
          1   -1    0    0  501    0  0.00000000000E+00 -0.00000000000E+00 -0.13252674802E+04  0.13252674802E+04  0.00000000000E+00 0. -1.
         25    2    1    2    0    0 -0.29676853329E+03  0.23398340394E+02 -0.42536256522E+03  0.53404696936E+03  0.12511518256E+03 0.  0.
          5    1    3    3  502    0 -0.94673234121E+01  0.27704657788E+02 -0.15243261706E+02  0.33271725281E+02  0.41800000000E+01 0.  1.
         -5    1    3    3    0  502 -0.28730120987E+03 -0.43063173936E+01 -0.41011930351E+03  0.50077524407E+03  0.41800000000E+01 0.  1.
        -11    1    1    2    0    0  0.10471671560E+03 -0.15544181853E+02 -0.42144617945E+03  0.43453894450E+03  0.00000000000E+00 0.  1.
         11    1    1    2    0    0  0.19205181769E+03 -0.78541585416E+01 -0.39545076066E+03  0.43968954114E+03  0.00000000000E+00 0. -1.
</event>
<event>
 7    1  0.1538147E-010  0.1389253E+03  0.7561462E-02  0.1214782E+00
         -1   -1    0    0    0  501 -0.00000000000E+00  0.00000000000E+00  0.34340312163E+02  0.34340312163E+02  0.00000000000E+00 0.  1.
          1   -1    0    0  501    0  0.00000000000E+00 -0.00000000000E+00 -0.10324181234E+04  0.10324181234E+04  0.00000000000E+00 0. -1.
         25    2    1    2    0    0  0.44052531478E+01  0.13300665387E+03 -0.75330864383E+03  0.77513938152E+03  0.12512782139E+03 0.  0.
          5    1    3    3  502    0 -0.23484247943E+02  0.32931159134E+02 -0.49533600182E+03  0.49700221151E+03  0.41800000000E+01 0. -1.
         -5    1    3    3    0  502  0.27889501091E+02  0.10007549473E+03 -0.25797264201E+03  0.27813717001E+03  0.41800000000E+01 0. -1.
        -11    1    1    2    0    0 -0.49389889001E+01 -0.58998824236E+02 -0.34089522434E+02  0.68318009429E+02  0.00000000000E+00 0.  1.
         11    1    1    2    0    0  0.53373575237E+00 -0.74007829631E+02 -0.21067964498E+03  0.22330104462E+03  0.00000000000E+00 0. -1.
</event>
<event>
 7    1  0.1538147E-010  0.9443093E+02  0.7561462E-02  0.1292463E+00
         -2   -1    0    0    0  501 -0.00000000000E+00  0.00000000000E+00  0.39571118631E+02  0.39571118631E+02  0.00000000000E+00 0.  1.
          2   -1    0    0  501    0  0.00000000000E+00 -0.00000000000E+00 -0.38158422671E+03  0.38158422671E+03  0.00000000000E+00 0. -1.
         25    2    1    2    0    0  0.46824764225E+02  0.13431142589E+02 -0.24946807601E+03  0.28330309646E+03  0.12511342606E+03 0.  0.
          5    1    3    3  502    0  0.61272673293E+01  0.60126574757E+02 -0.18104804129E+03  0.19091520120E+03  0.41800000000E+01 0. -1.
         -5    1    3    3    0  502  0.40697496896E+02 -0.46695432168E+02 -0.68420034724E+02  0.92387895260E+02  0.41800000000E+01 0. -1.
        -11    1    1    2    0    0 -0.32764578864E+02  0.13798584186E+02 -0.10015360505E+03  0.10627635277E+03  0.00000000000E+00 0. -1.
         11    1    1    2    0    0 -0.14060185362E+02 -0.27229726776E+02  0.76085729743E+01  0.31575896114E+02  0.00000000000E+00 0.  1.
</event>
<event>
 7    1  0.1538147E-010  0.7437777E+02  0.7561462E-02  0.1345809E+00
         -2   -1    0    0    0  501 -0.00000000000E+00  0.00000000000E+00  0.42087524242E+03  0.42087524242E+03  0.00000000000E+00 0.  1.
          2   -1    0    0  501    0  0.00000000000E+00 -0.00000000000E+00 -0.86478852242E+02  0.86478852242E+02  0.00000000000E+00 0. -1.
         25    2    1    2    0    0 -0.12921320647E+02 -0.11055537619E+02  0.37856021556E+03  0.39903681690E+03  0.12503343153E+03 0.  0.
          5    1    3    3  502    0  0.16189141954E+02 -0.58010808468E+02  0.11683282008E+03  0.13150940067E+03  0.41800000000E+01 0.  1.
         -5    1    3    3    0  502 -0.29110462601E+02  0.46955270848E+02  0.26172739548E+03  0.26752741623E+03  0.41800000000E+01 0.  1.
        -11    1    1    2    0    0 -0.34252360988E+01  0.15632404419E+02  0.29047266923E+02  0.33163956729E+02  0.00000000000E+00 0.  1.
         11    1    1    2    0    0  0.16346556746E+02 -0.45768668000E+01 -0.73211092298E+02  0.75153321035E+02  0.00000000000E+00 0. -1.
</event>
<event>
 7    1  0.1538147E-010  0.1832119E+03  0.7561462E-02  0.1164730E+00
          2   -1    0    0  501    0  0.00000000000E+00  0.00000000000E+00  0.11097679768E+04  0.11097679768E+04  0.00000000000E+00 0. -1.
         -2   -1    0    0    0  501 -0.00000000000E+00 -0.00000000000E+00 -0.39808654922E+02  0.39808654922E+02  0.00000000000E+00 0.  1.
         25    2    1    2    0    0 -0.10319702865E+03  0.14356250923E+03  0.65049930074E+03  0.68559906192E+03  0.12504764157E+03 0.  0.
          5    1    3    3  502    0 -0.27716910449E+02  0.45205358601E+02  0.42426155260E+03  0.42758284459E+03  0.41800000000E+01 0. -1.
         -5    1    3    3    0  502 -0.75480118198E+02  0.98357150628E+02  0.22623774815E+03  0.25801621734E+03  0.41800000000E+01 0. -1.
        -11    1    1    2    0    0  0.88304993560E+02 -0.66109198467E+02  0.17273679035E+03  0.20495413329E+03  0.00000000000E+00 0.  1.
         11    1    1    2    0    0  0.14892035087E+02 -0.77453310762E+02  0.24672323080E+03  0.25902343653E+03  0.00000000000E+00 0. -1.
</event>
<event>
 7    1  0.1538147E-010  0.1167783E+03  0.7561462E-02  0.1248509E+00
         -1   -1    0    0    0  501 -0.00000000000E+00  0.00000000000E+00  0.44576112251E+02  0.44576112251E+02  0.00000000000E+00 0.  1.
          1   -1    0    0  501    0  0.00000000000E+00 -0.00000000000E+00 -0.40176800961E+03  0.40176800961E+03  0.00000000000E+00 0. -1.
         25    2    1    2    0    0  0.25163153978E+01  0.54322657087E+02 -0.99834820419E+02  0.16900782579E+03  0.12505747037E+03 0.  0.
          5    1    3    3  502    0 -0.56326293738E+02  0.12193973871E+02 -0.69614828567E+02  0.90471217088E+02  0.41800000000E+01 0. -1.
         -5    1    3    3    0  502  0.58842609135E+02  0.42128683216E+02 -0.30219991853E+02  0.78536608705E+02  0.41800000000E+01 0. -1.
        -11    1    1    2    0    0 -0.17487975259E+02  0.20518761240E+02 -0.62684647395E+02  0.68236455509E+02  0.00000000000E+00 0. -1.
         11    1    1    2    0    0  0.14971659862E+02 -0.74841418327E+02 -0.19467242954E+03  0.20909984055E+03  0.00000000000E+00 0.  1.
</event>
<event>
 7    1  0.1538147E-010  0.7176683E+02  0.7561462E-02  0.1354186E+00
         -1   -1    0    0    0  501 -0.00000000000E+00  0.00000000000E+00  0.14778775784E+03  0.14778775784E+03  0.00000000000E+00 0.  1.
          1   -1    0    0  501    0  0.00000000000E+00 -0.00000000000E+00 -0.11922267730E+03  0.11922267730E+03  0.00000000000E+00 0. -1.
         25    2    1    2    0    0  0.36409754962E+02 -0.23517199142E+02  0.74765275532E+02  0.15208485691E+03  0.12514482955E+03 0.  0.
          5    1    3    3  502    0  0.16608887946E+02 -0.43320567950E+02 -0.21815969532E+02  0.51438659518E+02  0.41800000000E+01 0.  1.
         -5    1    3    3    0  502  0.19800867016E+02  0.19803368808E+02  0.96581245065E+02  0.10064619739E+03  0.41800000000E+01 0.  1.
        -11    1    1    2    0    0 -0.10649501907E+02  0.37737348300E+02  0.18867239544E+02  0.43514274389E+02  0.00000000000E+00 0.  1.
         11    1    1    2    0    0 -0.25760253055E+02 -0.14220149158E+02 -0.65067434539E+02  0.71411303846E+02  0.00000000000E+00 0. -1.
</event>
<event>
 7    1  0.1538147E-010  0.4234201E+02  0.7561462E-02  0.1491652E+00
         -2   -1    0    0    0  501 -0.00000000000E+00  0.00000000000E+00  0.14279403337E+03  0.14279403337E+03  0.00000000000E+00 0. -1.
          2   -1    0    0  501    0  0.00000000000E+00 -0.00000000000E+00 -0.88659235440E+02  0.88659235440E+02  0.00000000000E+00 0.  1.
         25    2    1    2    0    0  0.24409578356E+02 -0.13161498477E+02  0.41895914397E+02  0.13476656406E+03  0.12505081602E+03 0.  0.
          5    1    3    3  502    0  0.35734294157E+01 -0.66567655750E+01  0.85441899398E+02  0.85877077840E+02  0.41800000000E+01 0. -1.
         -5    1    3    3    0  502  0.20836148941E+02 -0.65047329020E+01 -0.43545985000E+02  0.48889486216E+02  0.41800000000E+01 0. -1.
        -11    1    1    2    0    0 -0.42468550975E+00 -0.16034625168E+02  0.44311413925E+02  0.47125268870E+02  0.00000000000E+00 0. -1.
         11    1    1    2    0    0 -0.23984892847E+02  0.29196123645E+02 -0.32072530395E+02  0.49561435882E+02  0.00000000000E+00 0.  1.
</event>
<event>
 7    1  0.1538147E-010  0.9734368E+02  0.7561462E-02  0.1285983E+00
         -2   -1    0    0    0  501 -0.00000000000E+00  0.00000000000E+00  0.20740326433E+02  0.20740326433E+02  0.00000000000E+00 0.  1.
          2   -1    0    0  501    0  0.00000000000E+00 -0.00000000000E+00 -0.62539961685E+03  0.62539961685E+03  0.00000000000E+00 0. -1.
         25    2    1    2    0    0  0.11499293098E+02  0.32089678787E+02 -0.37516073460E+03  0.39694098188E+03  0.12511828436E+03 0.  0.
          5    1    3    3  502    0 -0.24306878915E+02 -0.35870193400E+02 -0.21371778528E+03  0.21810607346E+03  0.41800000000E+01 0. -1.
         -5    1    3    3    0  502  0.35806172014E+02  0.67959872187E+02 -0.16144294933E+03  0.17883490842E+03  0.41800000000E+01 0. -1.
        -11    1    1    2    0    0 -0.39047319587E+02 -0.15125131570E+02 -0.43394680916E+02  0.60303906206E+02  0.00000000000E+00 0.  1.
         11    1    1    2    0    0  0.27548026488E+02 -0.16964547217E+02 -0.18610387489E+03  0.18889505519E+03  0.00000000000E+00 0. -1.
</event>
<event>
 7    1  0.1538147E-010  0.1918041E+03  0.7561462E-02  0.1156844E+00
         -1   -1    0    0    0  501 -0.00000000000E+00  0.00000000000E+00  0.32324426986E+02  0.32324426986E+02  0.00000000000E+00 0.  1.
          1   -1    0    0  501    0  0.00000000000E+00 -0.00000000000E+00 -0.14654222271E+04  0.14654222271E+04  0.00000000000E+00 0. -1.
         25    2    1    2    0    0 -0.18709446841E+03  0.17645244852E+02 -0.79974486084E+03  0.83099218571E+03  0.12506188664E+03 0.  0.
          5    1    3    3  502    0 -0.78099656745E+02 -0.19232575087E+02 -0.14204847829E+03  0.16329326659E+03  0.41800000000E+01 0.  1.
         -5    1    3    3    0  502 -0.10899481166E+03  0.36877819939E+02 -0.65769638256E+03  0.66769891912E+03  0.41800000000E+01 0.  1.
        -11    1    1    2    0    0  0.11767012923E+03 -0.10722989998E+02 -0.24286461016E+03  0.27008232208E+03  0.00000000000E+00 0.  1.
         11    1    1    2    0    0  0.69424339177E+02 -0.69222548542E+01 -0.39048832910E+03  0.39667214630E+03  0.00000000000E+00 0. -1.
</event>
<event>
 6    1  0.1538147E-010  0.9262044E+02  0.7561462E-02  0.1296627E+00
          2   -1    0    0  501    0  0.00000000000E+00  0.00000000000E+00  0.31923706625E+03  0.31923706625E+03  0.00000000000E+00 0. -1.
         -2   -1    0    0    0  501 -0.00000000000E+00 -0.00000000000E+00 -0.52291787462E+02  0.52291787462E+02  0.00000000000E+00 0.  1.
          5    1    1    2  502    0 -0.16944128626E+02  0.34916683111E+02  0.15639680652E+03  0.16119463932E+03  0.41800000000E+01 0. -1.
         -5    1    1    2    0  502  0.68948375395E+02 -0.55845312961E+01  0.42566973741E+02  0.81329484892E+02  0.41800000000E+01 0. -1.
        -11    1    1    2    0    0 -0.50303856499E+02 -0.28669263629E+01  0.84050959473E+02  0.97996229692E+02  0.00000000000E+00 0. -1.
         11    1    1    2    0    0 -0.17003902708E+01 -0.26465225452E+02 -0.16069460949E+02  0.31008499810E+02  0.00000000000E+00 0.  1.
</event>
<event>
 6    1  0.1538147E-010  0.9334973E+02  0.7561462E-02  0.1294937E+00
          1   -1    0    0  501    0  0.00000000000E+00  0.00000000000E+00  0.10487334716E+03  0.10487334716E+03  0.00000000000E+00 0. -1.
         -1   -1    0    0    0  501 -0.00000000000E+00 -0.00000000000E+00 -0.18270265010E+03  0.18270265010E+03  0.00000000000E+00 0.  1.
          5    1    1    2  502    0 -0.40550163365E+02  0.16785766479E+02 -0.70809955153E+02  0.83412228444E+02  0.41800000000E+01 0.  1.
         -5    1    1    2    0  502 -0.17092244634E+02  0.46833442047E+02  0.48681960297E+02  0.69806316182E+02  0.41800000000E+01 0.  1.
        -11    1    1    2    0    0  0.74181823735E+01 -0.32864667839E+02 -0.66439781812E+02  0.74494029487E+02  0.00000000000E+00 0.  1.
         11    1    1    2    0    0  0.50224225625E+02 -0.30754540686E+02  0.10738473724E+02  0.59863423143E+02  0.00000000000E+00 0. -1.
</event>
<event>
 7    1  0.1538147E-010  0.2600397E+03  0.7561462E-02  0.1107119E+00
          2   -1    0    0  501    0  0.00000000000E+00  0.00000000000E+00  0.17334674697E+03  0.17334674697E+03  0.00000000000E+00 0. -1.
         -2   -1    0    0    0  501 -0.00000000000E+00 -0.00000000000E+00 -0.39123169705E+03  0.39123169705E+03  0.00000000000E+00 0.  1.
         25    2    1    2    0    0  0.42990645406E+02 -0.23270562202E+03 -0.12195458991E+03  0.29413335176E+03  0.12506560079E+03 0.  0.
          5    1    3    3  502    0 -0.23677175431E+02  0.13637188681E+01 -0.80984750242E+01  0.25407204947E+02  0.41800000000E+01 0. -1.
         -5    1    3    3    0  502  0.66667820837E+02 -0.23406934089E+03 -0.11385611489E+03  0.26872614681E+03  0.41800000000E+01 0. -1.
        -11    1    1    2    0    0  0.20721694746E+02  0.14564151785E+02 -0.58995621730E+01  0.26005922098E+02  0.00000000000E+00 0.  1.
         11    1    1    2    0    0 -0.63712340152E+02  0.21814147024E+03 -0.90030797989E+02  0.24443917017E+03  0.00000000000E+00 0. -1.
</event>
<event>
 7    1  0.1538147E-010  0.9857857E+02  0.7561462E-02  0.1283314E+00
         -2   -1    0    0    0  501 -0.00000000000E+00  0.00000000000E+00  0.11228448022E+03  0.11228448022E+03  0.00000000000E+00 0.  1.
          2   -1    0    0  501    0  0.00000000000E+00 -0.00000000000E+00 -0.46113848037E+03  0.46113848037E+03  0.00000000000E+00 0. -1.
         25    2    1    2    0    0 -0.25233002032E+02  0.28466969264E+02 -0.42447481644E+03  0.44414400412E+03  0.12505180478E+03 0.  0.
          5    1    3    3  502    0  0.54308423325E+01  0.69532568334E+02 -0.32197910617E+03  0.32947274442E+03  0.41800000000E+01 0. -1.
         -5    1    3    3    0  502 -0.30663844365E+02 -0.41065599070E+02 -0.10249571027E+03  0.11467125970E+03  0.41800000000E+01 0. -1.
        -11    1    1    2    0    0  0.34348826487E+02  0.10444432692E+02  0.81336325632E+02  0.88907400832E+02  0.00000000000E+00 0.  1.
         11    1    1    2    0    0 -0.91158244550E+01 -0.38911401956E+02 -0.57155093429E+01  0.40371555639E+02  0.00000000000E+00 0. -1.
</event>
<event>
 6    1  0.1538147E-010  0.1009587E+03  0.7561462E-02  0.1278293E+00
          1   -1    0    0  501    0  0.00000000000E+00  0.00000000000E+00  0.59451229690E+03  0.59451229690E+03  0.00000000000E+00 0. -1.
         -1   -1    0    0    0  501 -0.00000000000E+00 -0.00000000000E+00 -0.20845212388E+02  0.20845212388E+02  0.00000000000E+00 0.  1.
          5    1    1    2  502    0  0.55775255718E+02  0.11545023786E+02  0.27360015574E+03  0.27949719917E+03  0.41800000000E+01 0.  1.
         -5    1    1    2    0  502 -0.56633473208E+02 -0.57407142684E+01  0.10882919903E+03  0.12288845775E+03  0.41800000000E+01 0.  1.
        -11    1    1    2    0    0 -0.42870990252E+02  0.35271720057E+01  0.56518220411E+02  0.71025854349E+02  0.00000000000E+00 0.  1.
         11    1    1    2    0    0  0.43729207742E+02 -0.93314815236E+01  0.13471950933E+03  0.14194599802E+03  0.00000000000E+00 0. -1.
</event>
<event>
 7    1  0.1538147E-010  0.1095440E+03  0.7561462E-02  0.1261417E+00
          1   -1    0    0  501    0  0.00000000000E+00  0.00000000000E+00  0.27678579216E+03  0.27678579216E+03  0.00000000000E+00 0. -1.
         -1   -1    0    0    0  501 -0.00000000000E+00 -0.00000000000E+00 -0.54931048084E+02  0.54931048084E+02  0.00000000000E+00 0.  1.
         25    2    1    2    0    0 -0.32102544337E+02  0.43594629971E+02  0.14057600731E+03  0.19582700369E+03  0.12512208609E+03 0.  0.
          5    1    3    3  502    0 -0.18303255632E+02 -0.35077807293E+02  0.73847753698E+01  0.40465652577E+02  0.41800000000E+01 0. -1.
         -5    1    3    3    0  502 -0.13799288705E+02  0.78672437265E+02  0.13319123194E+03  0.15536135112E+03  0.41800000000E+01 0. -1.
        -11    1    1    2    0    0 -0.10194202980E+02 -0.54657130741E+02  0.16978329851E+02  0.58134218836E+02  0.00000000000E+00 0.  1.
         11    1    1    2    0    0  0.42296747317E+02  0.11062500769E+02  0.64300406909E+02  0.77755617710E+02  0.00000000000E+00 0. -1.
</event>
<event>
 7    1  0.1538147E-010  0.1339418E+03  0.7561462E-02  0.1221721E+00
         -2   -1    0    0    0  501 -0.00000000000E+00  0.00000000000E+00  0.64329891286E+02  0.64329891286E+02  0.00000000000E+00 0.  1.
          2   -1    0    0  501    0  0.00000000000E+00 -0.00000000000E+00 -0.35527388509E+03  0.35527388509E+03  0.00000000000E+00 0. -1.
         25    2    1    2    0    0 -0.78280992350E+02 -0.62460971342E+02 -0.11569836308E+03  0.19766426258E+03  0.12512299060E+03 0.  0.
          5    1    3    3  502    0 -0.40973480871E+02 -0.85002691789E+02 -0.12105952378E+03  0.15354857356E+03  0.41800000000E+01 0.  1.
         -5    1    3    3    0  502 -0.37307511479E+02  0.22541720447E+02  0.53611606915E+01  0.44115689016E+02  0.41800000000E+01 0. -1.
        -11    1    1    2    0    0  0.13510543720E+01  0.51981943907E+02 -0.10529652150E+03  0.11743638823E+03  0.00000000000E+00 0. -1.
         11    1    1    2    0    0  0.76929937978E+02  0.10479027436E+02 -0.69949109224E+02  0.10450312557E+03  0.00000000000E+00 0.  1.
</event>
<event>
 7    1  0.1538147E-010  0.9568288E+02  0.7561462E-02  0.1289645E+00
          4   -1    0    0  501    0  0.00000000000E+00  0.00000000000E+00  0.21887712160E+03  0.21887712160E+03  0.00000000000E+00 0. -1.
         -4   -1    0    0    0  501 -0.00000000000E+00 -0.00000000000E+00 -0.70960217089E+02  0.70960217089E+02  0.00000000000E+00 0.  1.
         25    2    1    2    0    0  0.91319704261E+01  0.12628223595E+02  0.15238041397E+03  0.19773986118E+03  0.12505357741E+03 0.  0.
          5    1    3    3  502    0 -0.26878323301E+02 -0.40468175489E+02  0.11111846430E+03  0.12134621131E+03  0.41800000000E+01 0. -1.
         -5    1    3    3    0  502  0.36010293727E+02  0.53096399084E+02  0.41261949666E+02  0.76393649868E+02  0.41800000000E+01 0. -1.
        -11    1    1    2    0    0  0.11950207842E+02  0.29157039936E+02 -0.25738241623E+02  0.40686576744E+02  0.00000000000E+00 0.  1.
         11    1    1    2    0    0 -0.21082178268E+02 -0.41785263532E+02  0.21274732173E+02  0.51410900770E+02  0.00000000000E+00 0. -1.
</event>
<event>
 7    1  0.1538147E-010  0.1023287E+03  0.7561462E-02  0.1275474E+00
         -3   -1    0    0    0  501 -0.00000000000E+00  0.00000000000E+00  0.75848323886E+02  0.75848323886E+02  0.00000000000E+00 0.  1.
          3   -1    0    0  501    0  0.00000000000E+00 -0.00000000000E+00 -0.16123105549E+03  0.16123105549E+03  0.00000000000E+00 0. -1.
         25    2    1    2    0    0 -0.21276735441E+02 -0.10198015717E+02 -0.47193920106E+02  0.13580072940E+03  0.12513142298E+03 0.  0.
          5    1    3    3  502    0  0.42331301842E+02 -0.21001353721E+02 -0.52707004071E+02  0.70911893586E+02  0.41800000000E+01 0.  1.
         -5    1    3    3    0  502 -0.63608037283E+02  0.10803338003E+02  0.55130839651E+01  0.64888835818E+02  0.41800000000E+01 0.  1.
        -11    1    1    2    0    0 -0.77931380841E+01  0.45881308936E+02 -0.10994735378E+02  0.47819574621E+02  0.00000000000E+00 0.  1.
         11    1    1    2    0    0  0.29069873525E+02 -0.35683293219E+02 -0.27194076125E+02  0.53459075356E+02  0.00000000000E+00 0. -1.
</event>
<event>
 6    1  0.1538147E-010  0.1041152E+03  0.7561462E-02  0.1271873E+00
         -2   -1    0    0    0  501 -0.00000000000E+00  0.00000000000E+00  0.49609502452E+02  0.49609502452E+02  0.00000000000E+00 0.  1.
          2   -1    0    0  501    0  0.00000000000E+00 -0.00000000000E+00 -0.29948463670E+03  0.29948463670E+03  0.00000000000E+00 0. -1.
          5    1    1    2  502    0  0.20322128049E+01 -0.77292049263E+02 -0.30838288913E+02  0.83346644991E+02  0.41800000000E+01 0.  1.
         -5    1    1    2    0  502  0.11910830456E+01  0.48769990854E+02 -0.41423654031E+02  0.64135186910E+02  0.41800000000E+01 0.  1.
        -11    1    1    2    0    0 -0.25672440263E+02  0.46472479662E+02 -0.58156000974E+02  0.78745704672E+02  0.00000000000E+00 0.  1.
         11    1    1    2    0    0  0.22449144413E+02 -0.17950421253E+02 -0.11945719033E+03  0.12286660258E+03  0.00000000000E+00 0. -1.
</event>
<event>
 7    1  0.1538147E-010  0.1295423E+03  0.7561462E-02  0.1228136E+00
         -1   -1    0    0    0  501 -0.00000000000E+00  0.00000000000E+00  0.39774659764E+02  0.39774659764E+02  0.00000000000E+00 0. -1.
          1   -1    0    0  501    0  0.00000000000E+00 -0.00000000000E+00 -0.51787473759E+03  0.51787473759E+03  0.00000000000E+00 0.  1.
         25    2    1    2    0    0  0.72437450653E+02 -0.36834912373E+02 -0.16785305973E+03  0.22457467597E+03  0.12512050351E+03 0.  0.
          5    1    3    3  502    0  0.99728447761E+02 -0.44450373499E+02 -0.16190039090E+03  0.19532231816E+03  0.41800000000E+01 0. -1.
         -5    1    3    3    0  502 -0.27290997108E+02  0.76154611257E+01 -0.59526688312E+01  0.29252357811E+02  0.41800000000E+01 0. -1.
        -11    1    1    2    0    0  0.94517315330E+01  0.38124811221E+02 -0.10207929650E+03  0.10937558793E+03  0.00000000000E+00 0.  1.
         11    1    1    2    0    0 -0.81889182186E+02 -0.12898988480E+01 -0.20816772159E+03  0.22369913346E+03  0.00000000000E+00 0. -1.
</event>
<event>
 6    1  0.1538147E-010  0.7608738E+02  0.7561462E-02  0.1340536E+00
         -1   -1    0    0    0  501 -0.00000000000E+00  0.00000000000E+00  0.14729086132E+03  0.14729086132E+03  0.00000000000E+00 0.  1.
          1   -1    0    0  501    0  0.00000000000E+00 -0.00000000000E+00 -0.10180992883E+03  0.10180992883E+03  0.00000000000E+00 0. -1.
          5    1    1    2  502    0  0.80508323112E+00 -0.33184166887E+02 -0.35319605922E+02  0.48649604864E+02  0.41800000000E+01 0. -1.
         -5    1    1    2    0  502 -0.47509146692E+02  0.11472862196E+02  0.80449082166E+02  0.94224587066E+02  0.41800000000E+01 0. -1.
        -11    1    1    2    0    0  0.46313113789E+02  0.33947858537E+02  0.36513396545E+02  0.68048436686E+02  0.00000000000E+00 0.  1.
         11    1    1    2    0    0  0.39094967193E+00 -0.12236553846E+02 -0.36161940303E+02  0.38178161535E+02  0.00000000000E+00 0. -1.
</event>
<event>
 7    1  0.1538147E-010  0.1565292E+03  0.7561462E-02  0.1192672E+00
          1   -1    0    0  501    0  0.00000000000E+00  0.00000000000E+00  0.60761277988E+02  0.60761277988E+02  0.00000000000E+00 0. -1.
         -1   -1    0    0    0  501 -0.00000000000E+00 -0.00000000000E+00 -0.48386970913E+03  0.48386970913E+03  0.00000000000E+00 0.  1.
         25    2    1    2    0    0 -0.86272680740E+02  0.90884408903E+02 -0.15750684061E+03  0.23696685958E+03  0.12506772757E+03 0.  0.
          5    1    3    3  502    0 -0.29340778383E+02  0.10637203351E+03 -0.67999487408E+02  0.12968150784E+03  0.41800000000E+01 0.  1.
         -5    1    3    3    0  502 -0.56931902358E+02 -0.15487624604E+02 -0.89507353198E+02  0.10728535174E+03  0.41800000000E+01 0.  1.
        -11    1    1    2    0    0  0.43998486258E+01 -0.53157193706E+02 -0.16085195951E+03  0.16946503707E+03  0.00000000000E+00 0. -1.
         11    1    1    2    0    0  0.81872832114E+02 -0.37727215197E+02 -0.10474963102E+03  0.13819909046E+03  0.00000000000E+00 0.  1.
</event>
<event>
 6    1  0.1538147E-010  0.8982362E+02  0.7561462E-02  0.1303279E+00
         -2   -1    0    0    0  501 -0.00000000000E+00  0.00000000000E+00  0.58194941997E+02  0.58194941997E+02  0.00000000000E+00 0.  1.
          2   -1    0    0  501    0  0.00000000000E+00 -0.00000000000E+00 -0.38729474145E+03  0.38729474145E+03  0.00000000000E+00 0. -1.
          5    1    1    2  502    0 -0.45562398390E+02  0.10472691866E+02 -0.28736137097E+03  0.29116943409E+03  0.41800000000E+01 0.  1.
         -5    1    1    2    0  502 -0.13447538977E+02  0.25618566202E+02 -0.22718466891E-01  0.29233887099E+02  0.41800000000E+01 0.  1.
        -11    1    1    2    0    0  0.44084947475E+02  0.17810251430E+02 -0.49478237319E+02  0.68620577221E+02  0.00000000000E+00 0. -1.
         11    1    1    2    0    0  0.14924989893E+02 -0.53901509498E+02  0.77625273066E+01  0.56465785035E+02  0.00000000000E+00 0.  1.
</event>
<event>
 7    1  0.1538147E-010  0.1225485E+03  0.7561462E-02  0.1238951E+00
         -2   -1    0    0    0  501 -0.00000000000E+00  0.00000000000E+00  0.26797782179E+02  0.26797782179E+02  0.00000000000E+00 0. -1.
          2   -1    0    0  501    0  0.00000000000E+00 -0.00000000000E+00 -0.15932707764E+04  0.15932707764E+04  0.00000000000E+00 0.  1.
         25    2    1    2    0    0 -0.86829517897E+02 -0.44872531727E+02 -0.13908045266E+04  0.13998375537E+04  0.12512008770E+03 0.  0.
          5    1    3    3  502    0 -0.86704520952E+02 -0.14727831755E+02 -0.44953490089E+03  0.45807606629E+03  0.41800000000E+01 0. -1.
         -5    1    3    3    0  502 -0.12499694482E+00 -0.30144699972E+02 -0.94126962570E+03  0.94176148744E+03  0.41800000000E+01 0. -1.
        -11    1    1    2    0    0  0.95389399051E+02  0.16276313867E+02 -0.10128207757E+03  0.14007896017E+03  0.00000000000E+00 0. -1.
         11    1    1    2    0    0 -0.85598811544E+01  0.28596217860E+02 -0.74386390015E+02  0.80152044645E+02  0.00000000000E+00 0.  1.
</event>
<event>
 7    1  0.1538147E-010  0.9026752E+02  0.7561462E-02  0.1302205E+00
          1   -1    0    0  501    0  0.00000000000E+00  0.00000000000E+00  0.74844003568E+02  0.74844003568E+02  0.00000000000E+00 0. -1.
         -1   -1    0    0    0  501 -0.00000000000E+00 -0.00000000000E+00 -0.17047566455E+03  0.17047566455E+03  0.00000000000E+00 0.  1.
         25    2    1    2    0    0  0.24488220386E+02  0.20406652257E+02 -0.39194505362E+02  0.13493010316E+03  0.12511522327E+03 0.  0.
          5    1    3    3  502    0  0.49738375409E+02 -0.18293032749E+02 -0.63286249109E+02  0.82650848524E+02  0.41800000000E+01 0.  1.
         -5    1    3    3    0  502 -0.25250155023E+02  0.38699685006E+02  0.24091743748E+02  0.52279254633E+02  0.41800000000E+01 0.  1.
        -11    1    1    2    0    0  0.11182754670E+02 -0.39126260209E+02 -0.57079606910E+02  0.70099926997E+02  0.00000000000E+00 0.  1.
         11    1    1    2    0    0 -0.35670975057E+02  0.18719607952E+02  0.64245129298E+00  0.40289637961E+02  0.00000000000E+00 0. -1.
</event>
<event>
 6    1  0.1538147E-010  0.1176608E+03  0.7561462E-02  0.1247007E+00
          1   -1    0    0  501    0  0.00000000000E+00  0.00000000000E+00  0.88002479735E+02  0.88002479735E+02  0.00000000000E+00 0. -1.
         -1   -1    0    0    0  501 -0.00000000000E+00 -0.00000000000E+00 -0.20498023678E+03  0.20498023678E+03  0.00000000000E+00 0.  1.
          5    1    1    2  502    0  0.99631142933E+01  0.27438878521E+02 -0.61589175463E+02  0.68285098193E+02  0.41800000000E+01 0.  1.
         -5    1    1    2    0  502 -0.26114099571E+02 -0.96601024525E+02 -0.43518988856E+02  0.10920200972E+03  0.41800000000E+01 0.  1.
        -11    1    1    2    0    0 -0.31103292954E+02  0.37845939327E+02  0.17032763592E+02  0.51863715560E+02  0.00000000000E+00 0. -1.
         11    1    1    2    0    0  0.47254278231E+02  0.31316206676E+02 -0.28902356320E+02  0.63631893046E+02  0.00000000000E+00 0.  1.
</event>
<event>
 6    1  0.1538147E-010  0.1034850E+03  0.7561462E-02  0.1273134E+00
         -1   -1    0    0    0  501 -0.00000000000E+00  0.00000000000E+00  0.36442015514E+03  0.36442015514E+03  0.00000000000E+00 0.  1.
          1   -1    0    0  501    0  0.00000000000E+00 -0.00000000000E+00 -0.41718483312E+02  0.41718483312E+02  0.00000000000E+00 0. -1.
          5    1    1    2  502    0  0.43797454126E+02  0.48383411426E+02  0.11440511064E+03  0.13177698292E+03  0.41800000000E+01 0.  1.
         -5    1    1    2    0  502 -0.70001273839E+02  0.35204198662E+01  0.78200100633E+02  0.10509662142E+03  0.41800000000E+01 0.  1.
        -11    1    1    2    0    0  0.67128715761E+01 -0.51426684005E+02  0.13860670035E+03  0.14799183712E+03  0.00000000000E+00 0.  1.
         11    1    1    2    0    0  0.19490948138E+02 -0.47714728737E+00 -0.85102397883E+01  0.21273196988E+02  0.00000000000E+00 0. -1.
</event>
<event>
 6    1  0.1538147E-010  0.8664278E+02  0.7561462E-02  0.1311192E+00
         -1   -1    0    0    0  501 -0.00000000000E+00  0.00000000000E+00  0.42866812326E+02  0.42866812326E+02  0.00000000000E+00 0.  1.
          1   -1    0    0  501    0  0.00000000000E+00 -0.00000000000E+00 -0.37699243499E+03  0.37699243499E+03  0.00000000000E+00 0. -1.
          5    1    1    2  502    0 -0.16387706101E+02 -0.18185208945E+02  0.16530330201E+02  0.29832582057E+02  0.41800000000E+01 0. -1.
         -5    1    1    2    0  502  0.33288286512E+02 -0.25345257536E+02 -0.16285724165E+03  0.16819763868E+03  0.41800000000E+01 0. -1.
        -11    1    1    2    0    0  0.39055775416E+02  0.28845139994E+02 -0.39318365625E+02  0.62476632191E+02  0.00000000000E+00 0.  1.
         11    1    1    2    0    0 -0.55956355827E+02  0.14685326488E+02 -0.14848034558E+03  0.15935239438E+03  0.00000000000E+00 0. -1.
</event>
<event>
 6    1  0.1538147E-010  0.2321232E+03  0.7561462E-02  0.1125154E+00
          2   -1    0    0  501    0  0.00000000000E+00  0.00000000000E+00  0.34115428869E+03  0.34115428869E+03  0.00000000000E+00 0.  1.
         -2   -1    0    0    0  501 -0.00000000000E+00 -0.00000000000E+00 -0.23048314246E+03  0.23048314246E+03  0.00000000000E+00 0. -1.
          5    1    1    2  502    0  0.10968292796E+03  0.12524854555E+03  0.11687789661E+03  0.20345873774E+03  0.41800000000E+01 0.  1.
         -5    1    1    2    0  502 -0.27243856446E+02  0.69740358801E+02  0.91273121929E+02  0.11812789910E+03  0.41800000000E+01 0.  1.
        -11    1    1    2    0    0 -0.10446919230E+02 -0.11351502148E+03 -0.81561123447E+02  0.14016781043E+03  0.00000000000E+00 0. -1.
         11    1    1    2    0    0 -0.71992152280E+02 -0.81473882870E+02 -0.15918748864E+02  0.10988298387E+03  0.00000000000E+00 0.  1.
</event>
<event>
 6    1  0.1538147E-010  0.7872053E+02  0.7561462E-02  0.1332722E+00
         -1   -1    0    0    0  501 -0.00000000000E+00  0.00000000000E+00  0.11120494023E+03  0.11120494023E+03  0.00000000000E+00 0.  1.
          1   -1    0    0  501    0  0.00000000000E+00 -0.00000000000E+00 -0.14747605950E+03  0.14747605950E+03  0.00000000000E+00 0. -1.
          5    1    1    2  502    0 -0.63068395891E+01 -0.15767745976E+02 -0.97889985145E+02  0.99440030322E+02  0.41800000000E+01 0.  1.
         -5    1    1    2    0  502  0.14862433239E+02  0.41734143275E+02  0.21816266205E+02  0.49558576532E+02  0.41800000000E+01 0.  1.
        -11    1    1    2    0    0 -0.78377577532E+01  0.34299389825E+02 -0.36634723797E+01  0.35373713671E+02  0.00000000000E+00 0. -1.
         11    1    1    2    0    0 -0.71783589693E+00 -0.60265787124E+02  0.43466072055E+02  0.74308679210E+02  0.00000000000E+00 0.  1.
</event>
<event>
 6    1  0.1538147E-010  0.8636390E+02  0.7561462E-02  0.1311904E+00
         -2   -1    0    0    0  501 -0.00000000000E+00  0.00000000000E+00  0.54188009485E+02  0.54188009485E+02  0.00000000000E+00 0.  1.
          2   -1    0    0  501    0  0.00000000000E+00 -0.00000000000E+00 -0.32000989566E+03  0.32000989566E+03  0.00000000000E+00 0. -1.
          5    1    1    2  502    0 -0.13790715229E+02 -0.24976065960E+02 -0.13847153255E+03  0.14144195072E+03  0.41800000000E+01 0.  1.
         -5    1    1    2    0  502 -0.48203493506E+02 -0.14462730952E+02  0.11046067334E+02  0.51693668629E+02  0.41800000000E+01 0.  1.
        -11    1    1    2    0    0  0.48285903964E+01 -0.14202638723E+02 -0.84759818292E+02  0.86077041240E+02  0.00000000000E+00 0. -1.
         11    1    1    2    0    0  0.57165618339E+02  0.53641435635E+02 -0.53636602668E+02  0.94985244553E+02  0.00000000000E+00 0.  1.
</event>
<event>
 6    1  0.1538147E-010  0.1368094E+03  0.7561462E-02  0.1217688E+00
         -1   -1    0    0    0  501 -0.00000000000E+00  0.00000000000E+00  0.16567265711E+03  0.16567265711E+03  0.00000000000E+00 0.  1.
          1   -1    0    0  501    0  0.00000000000E+00 -0.00000000000E+00 -0.14993845194E+03  0.14993845194E+03  0.00000000000E+00 0. -1.
          5    1    1    2  502    0  0.19494511274E+02  0.45349097934E+02  0.39276990090E+02  0.63219704237E+02  0.41800000000E+01 0. -1.
         -5    1    1    2    0  502 -0.90673410475E+02  0.43402019434E+02 -0.33064991421E+02  0.10590641489E+03  0.41800000000E+01 0. -1.
        -11    1    1    2    0    0  0.22964287432E+02 -0.66524837079E+02 -0.33695459255E+02  0.78027536294E+02  0.00000000000E+00 0.  1.
         11    1    1    2    0    0  0.48214611768E+02 -0.22226280289E+02  0.43217665756E+02  0.68457453625E+02  0.00000000000E+00 0. -1.
</event>
<event>
 6    1  0.1538147E-010  0.1534295E+03  0.7561462E-02  0.1196321E+00
          2   -1    0    0  501    0  0.00000000000E+00  0.00000000000E+00  0.55733782505E+03  0.55733782505E+03  0.00000000000E+00 0. -1.
         -2   -1    0    0    0  501 -0.00000000000E+00 -0.00000000000E+00 -0.69147731712E+02  0.69147731712E+02  0.00000000000E+00 0.  1.
          5    1    1    2  502    0 -0.17829805881E+02  0.13421484663E+03  0.84252167112E+02  0.15952249715E+03  0.41800000000E+01 0. -1.
         -5    1    1    2    0  502  0.19535604372E+02 -0.16721854527E+02 -0.93688897892E+01  0.27685894475E+02  0.41800000000E+01 0. -1.
        -11    1    1    2    0    0  0.22139287508E+02 -0.11939217615E+03  0.30338981322E+03  0.32678742103E+03  0.00000000000E+00 0.  1.
         11    1    1    2    0    0 -0.23845086000E+02  0.18991840534E+01  0.10991700280E+03  0.11248974411E+03  0.00000000000E+00 0. -1.
</event>
<event>
 7    1  0.1538147E-010  0.9511004E+02  0.7561462E-02  0.1290928E+00
         -2   -1    0    0    0  501 -0.00000000000E+00  0.00000000000E+00  0.17778068130E+02  0.17778068130E+02  0.00000000000E+00 0.  1.
          2   -1    0    0  501    0  0.00000000000E+00 -0.00000000000E+00 -0.77294930314E+03  0.77294930314E+03  0.00000000000E+00 0. -1.
         25    2    1    2    0    0 -0.10050851315E+02 -0.47631172930E+02 -0.48739139590E+03  0.50554283642E+03  0.12511370194E+03 0.  0.
          5    1    3    3  502    0 -0.30696851501E+02 -0.84663147161E+02 -0.36420703669E+03  0.37519912467E+03  0.41800000000E+01 0.  1.
         -5    1    3    3    0  502  0.20646000186E+02  0.37031974231E+02 -0.12318435921E+03  0.13034371175E+03  0.41800000000E+01 0.  1.
        -11    1    1    2    0    0 -0.99491606164E+01  0.69656268540E+01  0.13918376178E+01  0.12224686761E+02  0.00000000000E+00 0.  1.
         11    1    1    2    0    0  0.20000011932E+02  0.40665546076E+02 -0.26917167673E+03  0.27295984809E+03  0.00000000000E+00 0. -1.
</event>
<event>
 7    1  0.1538147E-010  0.7343151E+02  0.7561462E-02  0.1348798E+00
          2   -1    0    0  501    0  0.00000000000E+00  0.00000000000E+00  0.13824083877E+03  0.13824083877E+03  0.00000000000E+00 0. -1.
         -2   -1    0    0    0  501 -0.00000000000E+00 -0.00000000000E+00 -0.10277169879E+03  0.10277169879E+03  0.00000000000E+00 0.  1.
         25    2    1    2    0    0 -0.42342044834E+02  0.19628161106E+02  0.11824547793E+01  0.13346096107E+03  0.12502926242E+03 0.  0.
          5    1    3    3  502    0 -0.32017912571E+02 -0.43001059038E+01 -0.59195393363E+02  0.67566298045E+02  0.41800000000E+01 0. -1.
         -5    1    3    3    0  502 -0.10324132263E+02  0.23928267009E+02  0.60377848142E+02  0.65894663026E+02  0.41800000000E+01 0. -1.
        -11    1    1    2    0    0 -0.21656806412E+02 -0.41514024416E+01  0.35391090635E+02  0.41698689458E+02  0.00000000000E+00 0. -1.
         11    1    1    2    0    0  0.63998851245E+02 -0.15476758664E+02 -0.11044054290E+01  0.65852887035E+02  0.00000000000E+00 0.  1.
</event>
<event>
 7    1  0.1538147E-010  0.1560149E+03  0.7561462E-02  0.1193271E+00
         -2   -1    0    0    0  501 -0.00000000000E+00  0.00000000000E+00  0.39012738312E+03  0.39012738312E+03  0.00000000000E+00 0.  1.
          2   -1    0    0  501    0  0.00000000000E+00 -0.00000000000E+00 -0.70680854769E+02  0.70680854769E+02  0.00000000000E+00 0. -1.
         25    2    1    2    0    0  0.10902792120E+03 -0.34265414621E+02  0.24160249922E+03  0.29508279877E+03  0.12506352090E+03 0.  0.
          5    1    3    3  502    0  0.11967587247E+03  0.10835242533E+02  0.14913165337E+03  0.19156575730E+03  0.41800000000E+01 0.  1.
         -5    1    3    3    0  502 -0.10647951276E+02 -0.45100657154E+02  0.92470845856E+02  0.10351704147E+03  0.41800000000E+01 0.  1.
        -11    1    1    2    0    0 -0.32477598031E+02 -0.30827823106E+02  0.15079149974E+02  0.47249654129E+02  0.00000000000E+00 0.  1.
         11    1    1    2    0    0 -0.76550323165E+02  0.65093237727E+02  0.62764879158E+02  0.11847578500E+03  0.00000000000E+00 0. -1.
</event>
<event>
 7    1  0.1538147E-010  0.1706782E+03  0.7561462E-02  0.1177142E+00
          1   -1    0    0  501    0  0.00000000000E+00  0.00000000000E+00  0.19711636192E+04  0.19711636192E+04  0.00000000000E+00 0. -1.
         -1   -1    0    0    0  501 -0.00000000000E+00 -0.00000000000E+00 -0.27336488380E+02  0.27336488380E+02  0.00000000000E+00 0.  1.
         25    2    1    2    0    0 -0.52932314999E+02  0.14888554260E+03  0.15586614191E+04  0.15716391271E+04  0.12512150693E+03 0.  0.
          5    1    3    3  502    0 -0.50426154169E+01  0.23470564396E+02  0.85074331922E+03  0.85109221766E+03  0.41800000000E+01 0.  1.
         -5    1    3    3    0  502 -0.47889699582E+02  0.12541497821E+03  0.70791809989E+03  0.72054690939E+03  0.41800000000E+01 0.  1.
        -11    1    1    2    0    0  0.40954882335E+02 -0.85586611312E+01  0.68143554835E+02  0.79963098570E+02  0.00000000000E+00 0. -1.
         11    1    1    2    0    0  0.11977432664E+02 -0.14032688147E+03  0.31702215689E+03  0.34689788197E+03  0.00000000000E+00 0.  1.
</event>
<event>
 7    1  0.1538147E-010  0.1170184E+03  0.7561462E-02  0.1248098E+00
          2   -1    0    0  501    0  0.00000000000E+00  0.00000000000E+00  0.35179052944E+03  0.35179052944E+03  0.00000000000E+00 0. -1.
         -2   -1    0    0    0  501 -0.00000000000E+00 -0.00000000000E+00 -0.41607150562E+02  0.41607150562E+02  0.00000000000E+00 0.  1.
         25    2    1    2    0    0 -0.22908807258E+02  0.54488745518E+02  0.19813024828E+03  0.24162457119E+03  0.12503200104E+03 0.  0.
          5    1    3    3  502    0 -0.67882799883E+02  0.28094370643E+01  0.11695667816E+03  0.13532296340E+03  0.41800000000E+01 0.  1.
         -5    1    3    3    0  502  0.44973992624E+02  0.51679308454E+02  0.81173570114E+02  0.10630160780E+03  0.41800000000E+01 0.  1.
        -11    1    1    2    0    0 -0.62352842163E+01 -0.65781333459E+02  0.96254200228E+02  0.11675158955E+03  0.00000000000E+00 0. -1.
         11    1    1    2    0    0  0.29144091474E+02  0.11292587941E+02  0.15798930379E+02  0.35021519262E+02  0.00000000000E+00 0.  1.
</event>
<event>
 7    1  0.1538147E-010  0.1497376E+03  0.7561462E-02  0.1200796E+00
         -2   -1    0    0    0  501 -0.00000000000E+00  0.00000000000E+00  0.93194274287E+02  0.93194274287E+02  0.00000000000E+00 0. -1.
          2   -1    0    0  501    0  0.00000000000E+00 -0.00000000000E+00 -0.32892993219E+03  0.32892993219E+03  0.00000000000E+00 0.  1.
         25    2    1    2    0    0  0.59771952307E+02  0.10341079067E+03 -0.20571423468E+03  0.26877143098E+03  0.12511298034E+03 0.  0.
          5    1    3    3  502    0  0.85641104732E+02  0.11453155327E+03 -0.18338035918E+03  0.23258913140E+03  0.41800000000E+01 0.  1.
         -5    1    3    3    0  502 -0.25869152425E+02 -0.11120762593E+02 -0.22333875501E+02  0.36182299578E+02  0.41800000000E+01 0.  1.
        -11    1    1    2    0    0 -0.46101525593E+02 -0.34232683658E+02  0.26249515492E+02  0.63136870021E+02  0.00000000000E+00 0. -1.
         11    1    1    2    0    0 -0.13670426714E+02 -0.69178107016E+02 -0.56270938711E+02  0.90215905473E+02  0.00000000000E+00 0.  1.
</event>
<event>
 7    1  0.1538147E-010  0.1423881E+03  0.7561462E-02  0.1210151E+00
          4   -1    0    0  501    0  0.00000000000E+00  0.00000000000E+00  0.14173960093E+03  0.14173960093E+03  0.00000000000E+00 0. -1.
         -4   -1    0    0    0  501 -0.00000000000E+00 -0.00000000000E+00 -0.19987912458E+03  0.19987912458E+03  0.00000000000E+00 0.  1.
         25    2    1    2    0    0 -0.94411976693E+02  0.47921853167E+02  0.42022822801E+02  0.16920902172E+03  0.12512254010E+03 0.  0.
          5    1    3    3  502    0 -0.45392645534E+02 -0.36139494951E+02  0.42101829855E+02  0.71809413318E+02  0.41800000000E+01 0. -1.
         -5    1    3    3    0  502 -0.49019331159E+02  0.84061348119E+02 -0.79007053750E-01  0.97399608402E+02  0.41800000000E+01 0. -1.
        -11    1    1    2    0    0  0.94855238046E+02 -0.14709524536E+02 -0.40620905997E+02  0.10423024657E+03  0.00000000000E+00 0.  1.
         11    1    1    2    0    0 -0.44326135314E+00 -0.33212328632E+02 -0.59541440458E+02  0.68179457211E+02  0.00000000000E+00 0. -1.
</event>
<event>
 6    1  0.1538147E-010  0.1495333E+03  0.7561462E-02  0.1201048E+00
         -1   -1    0    0    0  501 -0.00000000000E+00  0.00000000000E+00  0.13322762268E+03  0.13322762268E+03  0.00000000000E+00 0.  1.
          1   -1    0    0  501    0  0.00000000000E+00 -0.00000000000E+00 -0.23348056710E+03  0.23348056710E+03  0.00000000000E+00 0. -1.
          5    1    1    2  502    0  0.68797514030E+02 -0.91245238407E+02 -0.54297512768E+02  0.12658784998E+03  0.41800000000E+01 0.  1.
         -5    1    1    2    0  502  0.43600734499E+02  0.37091367638E+02 -0.64558464891E+02  0.86383224015E+02  0.41800000000E+01 0.  1.
        -11    1    1    2    0    0 -0.92311989562E+02  0.32705837657E+02 -0.25075753363E+02  0.10109386055E+03  0.00000000000E+00 0. -1.
         11    1    1    2    0    0 -0.20086258967E+02  0.21448033112E+02  0.43678786604E+02  0.52643255245E+02  0.00000000000E+00 0.  1.
</event>
<event>
 6    1  0.1538147E-010  0.1075619E+03  0.7561462E-02  0.1265153E+00
         -1   -1    0    0    0  501 -0.00000000000E+00  0.00000000000E+00  0.17223111430E+02  0.17223111430E+02  0.00000000000E+00 0.  1.
          1   -1    0    0  501    0  0.00000000000E+00 -0.00000000000E+00 -0.83428395893E+03  0.83428395893E+03  0.00000000000E+00 0. -1.
          5    1    1    2  502    0 -0.71231584608E+02 -0.34367078617E+02 -0.18540979441E+03  0.20161671310E+03  0.41800000000E+01 0.  1.
         -5    1    1    2    0  502  0.20632414745E+02  0.45502385161E+02 -0.22528384408E+03  0.23079524778E+03  0.41800000000E+01 0.  1.
        -11    1    1    2    0    0 -0.46647824242E+01  0.21235528398E+02 -0.28540780008E+02  0.35878740012E+02  0.00000000000E+00 0.  1.
         11    1    1    2    0    0  0.55263952287E+02 -0.32370834942E+02 -0.37782642900E+03  0.38321636947E+03  0.00000000000E+00 0. -1.
</event>
<event>
 6    1  0.1538147E-010  0.1168302E+03  0.7561462E-02  0.1248420E+00
         -2   -1    0    0    0  501 -0.00000000000E+00  0.00000000000E+00  0.35528710088E+02  0.35528710088E+02  0.00000000000E+00 0.  1.
          2   -1    0    0  501    0  0.00000000000E+00 -0.00000000000E+00 -0.40172555529E+03  0.40172555529E+03  0.00000000000E+00 0. -1.
          5    1    1    2  502    0  0.57579817321E+02  0.43396925166E+01 -0.98374727663E+02  0.11414608069E+03  0.41800000000E+01 0.  1.
         -5    1    1    2    0  502 -0.54787910177E+02 -0.53103000148E+02 -0.14713047337E+03  0.16579050733E+03  0.41800000000E+01 0.  1.
        -11    1    1    2    0    0  0.21779787015E+02 -0.17971638798E+02 -0.47554162699E+02  0.55305852435E+02  0.00000000000E+00 0. -1.
         11    1    1    2    0    0 -0.24571694159E+02  0.66734946429E+02 -0.73137481468E+02  0.10201182492E+03  0.00000000000E+00 0.  1.
</event>
<event>
 6    1  0.1538147E-010  0.1783987E+03  0.7561462E-02  0.1169362E+00
         -2   -1    0    0    0  501 -0.00000000000E+00  0.00000000000E+00  0.16696551890E+02  0.16696551890E+02  0.00000000000E+00 0.  1.
          2   -1    0    0  501    0  0.00000000000E+00 -0.00000000000E+00 -0.19747142289E+04  0.19747142289E+04  0.00000000000E+00 0. -1.
          5    1    1    2  502    0 -0.13360169146E+03  0.90566144831E+01 -0.83362773977E+03  0.84432465032E+03  0.41800000000E+01 0. -1.
         -5    1    1    2    0  502 -0.27078689858E+01 -0.56255715369E+02 -0.30543058872E+03  0.31060804077E+03  0.41800000000E+01 0. -1.
        -11    1    1    2    0    0  0.53377719476E+02  0.62313972841E+02 -0.31465833746E+03  0.32518007547E+03  0.00000000000E+00 0. -1.
         11    1    1    2    0    0  0.82931840965E+02 -0.15114871955E+02 -0.50430101104E+03  0.51129801421E+03  0.00000000000E+00 0.  1.
</event>
<event>
 7    1  0.1538147E-010  0.7539965E+02  0.7561462E-02  0.1342638E+00
          2   -1    0    0  501    0  0.00000000000E+00  0.00000000000E+00  0.43482114144E+03  0.43482114144E+03  0.00000000000E+00 0. -1.
         -2   -1    0    0    0  501 -0.00000000000E+00 -0.00000000000E+00 -0.36642474892E+02  0.36642474892E+02  0.00000000000E+00 0.  1.
         25    2    1    2    0    0 -0.40674217179E+02  0.35615376091E+02  0.30834116825E+03  0.33710208780E+03  0.12506276267E+03 0.  0.
          5    1    3    3  502    0 -0.18032201135E+02 -0.13460308018E+02  0.26936629373E+03  0.27033685055E+03  0.41800000000E+01 0. -1.
         -5    1    3    3    0  502 -0.22642016044E+02  0.49075684109E+02  0.38974874518E+02  0.66765237250E+02  0.41800000000E+01 0. -1.
        -11    1    1    2    0    0  0.34123004803E+01  0.12437203896E+02 -0.10772212021E+02  0.16803820612E+02  0.00000000000E+00 0.  1.
         11    1    1    2    0    0  0.37261916698E+02 -0.48052579988E+02  0.10060971032E+03  0.11755770792E+03  0.00000000000E+00 0. -1.
</event>
<event>
 7    1  0.1538147E-010  0.2013642E+03  0.7561462E-02  0.1148593E+00
         -1   -1    0    0    0  501 -0.00000000000E+00  0.00000000000E+00  0.73843788400E+02  0.73843788400E+02  0.00000000000E+00 0.  1.
          1   -1    0    0  501    0  0.00000000000E+00 -0.00000000000E+00 -0.56542301482E+03  0.56542301482E+03  0.00000000000E+00 0. -1.
         25    2    1    2    0    0  0.16384210604E+03  0.53222594277E+02 -0.23853394115E+03  0.31970564943E+03  0.12504551549E+03 0.  0.
          5    1    3    3  502    0  0.29031533462E+02 -0.36469234474E+02 -0.82213417882E+02  0.94601022606E+02  0.41800000000E+01 0.  1.
         -5    1    3    3    0  502  0.13481057257E+03  0.89691828752E+02 -0.15632052327E+03  0.22510462682E+03  0.41800000000E+01 0.  1.
        -11    1    1    2    0    0 -0.12081869212E+03  0.57481826981E+01 -0.14021875617E+03  0.18517963590E+03  0.00000000000E+00 0.  1.
         11    1    1    2    0    0 -0.43023413916E+02 -0.58970776975E+02 -0.11282652910E+03  0.13438151789E+03  0.00000000000E+00 0. -1.
</event>
<event>
 6    1  0.1538147E-010  0.1354676E+03  0.7561462E-02  0.1219561E+00
          2   -1    0    0  501    0  0.00000000000E+00  0.00000000000E+00  0.57716078319E+03  0.57716078319E+03  0.00000000000E+00 0. -1.
         -2   -1    0    0    0  501 -0.00000000000E+00 -0.00000000000E+00 -0.37291195781E+02  0.37291195781E+02  0.00000000000E+00 0.  1.
          5    1    1    2  502    0  0.23359668580E+02 -0.47460205418E+01  0.12716397001E+03  0.12944630739E+03  0.41800000000E+01 0. -1.
         -5    1    1    2    0  502 -0.92689611554E+02  0.74830162538E+02  0.16810669423E+03  0.20607826271E+03  0.41800000000E+01 0. -1.
        -11    1    1    2    0    0  0.32040219319E+02  0.14445620686E+02  0.33757920503E+02  0.48732420499E+02  0.00000000000E+00 0.  1.
         11    1    1    2    0    0  0.37289723655E+02 -0.84529762683E+02  0.21084100266E+03  0.23019498837E+03  0.00000000000E+00 0. -1.
</event>
<event>
 7    1  0.1538147E-010  0.1057439E+03  0.7561462E-02  0.1268661E+00
          3   -1    0    0  501    0  0.00000000000E+00  0.00000000000E+00  0.94093665234E+02  0.94093665234E+02  0.00000000000E+00 0. -1.
         -3   -1    0    0    0  501 -0.00000000000E+00 -0.00000000000E+00 -0.21312835066E+03  0.21312835066E+03  0.00000000000E+00 0.  1.
         25    2    1    2    0    0  0.56468281969E+02  0.12381686315E+01  0.12347803424E+02  0.13777184337E+03  0.12505363907E+03 0.  0.
          5    1    3    3  502    0 -0.19025095353E+02  0.43393360461E+02  0.18386496463E+02  0.50994839322E+02  0.41800000000E+01 0. -1.
         -5    1    3    3    0  502  0.75493377322E+02 -0.42155191829E+02 -0.60386930388E+01  0.86777004046E+02  0.41800000000E+01 0. -1.
        -11    1    1    2    0    0  0.11421052960E+01  0.16915004838E+02 -0.99913214928E+02  0.10134136525E+03  0.00000000000E+00 0.  1.
         11    1    1    2    0    0 -0.57610387265E+02 -0.18153173469E+02 -0.31469273927E+02  0.68108807281E+02  0.00000000000E+00 0. -1.
</event>
<event>
 7    1  0.1538147E-010  0.9570441E+02  0.7561462E-02  0.1289597E+00
         -1   -1    0    0    0  501 -0.00000000000E+00  0.00000000000E+00  0.35076155244E+03  0.35076155244E+03  0.00000000000E+00 0.  1.
          1   -1    0    0  501    0  0.00000000000E+00 -0.00000000000E+00 -0.44025943706E+02  0.44025943706E+02  0.00000000000E+00 0. -1.
         25    2    1    2    0    0 -0.10123316640E+02  0.54871872606E+02  0.13582762115E+03  0.19288099217E+03  0.12506210669E+03 0.  0.
          5    1    3    3  502    0 -0.47824426468E+02  0.63654842284E+02  0.13139743811E+03  0.15369409180E+03  0.41800000000E+01 0. -1.
         -5    1    3    3    0  502  0.37701109828E+02 -0.87829696786E+01  0.44301830400E+01  0.39186900367E+02  0.41800000000E+01 0. -1.
        -11    1    1    2    0    0 -0.14618232432E+02 -0.42776085546E+02  0.21637128193E+02  0.50116379862E+02  0.00000000000E+00 0. -1.
         11    1    1    2    0    0  0.24741549073E+02 -0.12095787060E+02  0.14927085939E+03  0.15179012412E+03  0.00000000000E+00 0.  1.
</event>
<event>
 7    1  0.1538147E-010  0.1046529E+03  0.7561462E-02  0.1270805E+00
          2   -1    0    0  501    0  0.00000000000E+00  0.00000000000E+00  0.45314560897E+03  0.45314560897E+03  0.00000000000E+00 0. -1.
         -2   -1    0    0    0  501 -0.00000000000E+00 -0.00000000000E+00 -0.34645094279E+02  0.34645094279E+02  0.00000000000E+00 0.  1.
         25    2    1    2    0    0  0.29781150376E+02 -0.16850344765E+02  0.13223984972E+03  0.18518972697E+03  0.12504801512E+03 0.  0.
          5    1    3    3  502    0 -0.33888531703E+02 -0.31487643564E+02  0.10398752269E+03  0.11388933907E+03  0.41800000000E+01 0.  1.
         -5    1    3    3    0  502  0.63669682079E+02  0.14637298800E+02  0.28252327029E+02  0.71300387900E+02  0.41800000000E+01 0.  1.
        -11    1    1    2    0    0 -0.15337322512E+02  0.54738229437E+02  0.14896736625E+03  0.15944523646E+03  0.00000000000E+00 0. -1.
         11    1    1    2    0    0 -0.14443827864E+02 -0.37887884672E+02  0.13729329872E+03  0.14315573982E+03  0.00000000000E+00 0.  1.
</event>
<event>
 6    1  0.1538147E-010  0.1020078E+03  0.7561462E-02  0.1276130E+00
         -2   -1    0    0    0  501 -0.00000000000E+00  0.00000000000E+00  0.14005835575E+03  0.14005835575E+03  0.00000000000E+00 0.  1.
          2   -1    0    0  501    0  0.00000000000E+00 -0.00000000000E+00 -0.93554724269E+02  0.93554724269E+02  0.00000000000E+00 0. -1.
          5    1    1    2  502    0 -0.33980969171E+02  0.61129539419E+02  0.60841720859E+02  0.92793934352E+02  0.41800000000E+01 0.  1.
         -5    1    1    2    0  502  0.28856051197E+02 -0.22987681515E+02 -0.22885684702E+02  0.43615732900E+02  0.41800000000E+01 0.  1.
        -11    1    1    2    0    0  0.16656984511E+02  0.26423218107E+02  0.23083150683E+01  0.31320439119E+02  0.00000000000E+00 0.  1.
         11    1    1    2    0    0 -0.11532066538E+02 -0.64565076010E+02  0.62392802567E+01  0.65882973650E+02  0.00000000000E+00 0. -1.
</event>
<event>
 7    1  0.1538147E-010  0.9058725E+02  0.7561462E-02  0.1301436E+00
          1   -1    0    0  501    0  0.00000000000E+00  0.00000000000E+00  0.46416116583E+02  0.46416116583E+02  0.00000000000E+00 0. -1.
         -1   -1    0    0    0  501 -0.00000000000E+00 -0.00000000000E+00 -0.38652607353E+03  0.38652607353E+03  0.00000000000E+00 0.  1.
         25    2    1    2    0    0  0.15444656686E+02 -0.71514847630E+02 -0.14412889784E+03  0.20441791252E+03  0.12514245049E+03 0.  0.
          5    1    3    3  502    0  0.11995385488E+02 -0.58117650898E+02 -0.16704697746E+03  0.17732375954E+03  0.41800000000E+01 0. -1.
         -5    1    3    3    0  502  0.34492711983E+01 -0.13397196732E+02  0.22918079622E+02  0.27094152978E+02  0.41800000000E+01 0. -1.
        -11    1    1    2    0    0 -0.41361748341E+02  0.13197835686E+02 -0.12854626359E+03  0.13568020849E+03  0.00000000000E+00 0.  1.
         11    1    1    2    0    0  0.25917091655E+02  0.58317011943E+02 -0.67434795523E+02  0.92844069111E+02  0.00000000000E+00 0. -1.
</event>
<event>
 7    1  0.1538147E-010  0.1046353E+03  0.7561462E-02  0.1270840E+00
          1   -1    0    0  501    0  0.00000000000E+00  0.00000000000E+00  0.25028896034E+02  0.25028896034E+02  0.00000000000E+00 0. -1.
         -1   -1    0    0    0  501 -0.00000000000E+00 -0.00000000000E+00 -0.57333492846E+03  0.57333492846E+03  0.00000000000E+00 0.  1.
         25    2    1    2    0    0  0.86529717727E+01  0.28395468859E+00 -0.19851512131E+03  0.23482721432E+03  0.12514236950E+03 0.  0.
          5    1    3    3  502    0  0.50373120024E+02 -0.30944196777E+02 -0.50544328010E+02  0.77892207756E+02  0.41800000000E+01 0.  1.
         -5    1    3    3    0  502 -0.41720148252E+02  0.31228151465E+02 -0.14797079330E+03  0.15693500656E+03  0.41800000000E+01 0.  1.
        -11    1    1    2    0    0 -0.13991921083E+02  0.47563983692E+02 -0.14807603914E+03  0.15615575483E+03  0.00000000000E+00 0. -1.
         11    1    1    2    0    0  0.53389493104E+01 -0.47847938381E+02 -0.20171487198E+03  0.20738085535E+03  0.00000000000E+00 0.  1.
</event>
<event>
 6    1  0.1538147E-010  0.1168749E+03  0.7561462E-02  0.1248343E+00
          3   -1    0    0  501    0  0.00000000000E+00  0.00000000000E+00  0.29537958010E+02  0.29537958010E+02  0.00000000000E+00 0. -1.
         -3   -1    0    0    0  501 -0.00000000000E+00 -0.00000000000E+00 -0.85593617757E+03  0.85593617757E+03  0.00000000000E+00 0.  1.
          5    1    1    2  502    0  0.58264341305E+02  0.12728621849E+02 -0.58091060797E+02  0.83359432738E+02  0.41800000000E+01 0. -1.
         -5    1    1    2    0  502  0.56139484813E+02 -0.12305214680E+02 -0.41978271534E+03  0.42371931814E+03  0.41800000000E+01 0. -1.
        -11    1    1    2    0    0 -0.69516997930E+02  0.10073261099E+02 -0.31135159025E+03  0.31917690446E+03  0.00000000000E+00 0.  1.
         11    1    1    2    0    0 -0.44886828188E+02 -0.10496668268E+02 -0.37172853172E+02  0.59218480244E+02  0.00000000000E+00 0. -1.
</event>
<event>
 7    1  0.1538147E-010  0.1376018E+03  0.7561462E-02  0.1216593E+00
         -1   -1    0    0    0  501 -0.00000000000E+00  0.00000000000E+00  0.89497823104E+02  0.89497823104E+02  0.00000000000E+00 0.  1.
          1   -1    0    0  501    0  0.00000000000E+00 -0.00000000000E+00 -0.25180724877E+03  0.25180724877E+03  0.00000000000E+00 0. -1.
         25    2    1    2    0    0 -0.57412464158E+02 -0.82295158202E+02 -0.11270509726E+03  0.19603159627E+03  0.12512898819E+03 0.  0.
          5    1    3    3  502    0 -0.53584182479E+02  0.52868156979E+01 -0.90681417495E+02  0.10554528370E+03  0.41800000000E+01 0. -1.
         -5    1    3    3    0  502 -0.38282816794E+01 -0.87581973900E+02 -0.22023679760E+02  0.90486312572E+02  0.41800000000E+01 0. -1.
        -11    1    1    2    0    0  0.68452423264E+02  0.94684808687E+02 -0.32129123862E+02  0.12117436960E+03  0.00000000000E+00 0.  1.
         11    1    1    2    0    0 -0.11039959106E+02 -0.12389650485E+02 -0.17475204544E+02  0.24099106002E+02  0.00000000000E+00 0. -1.
</event>
<event>
 6    1  0.1538147E-010  0.9219011E+02  0.7561462E-02  0.1297633E+00
         -1   -1    0    0    0  501 -0.00000000000E+00  0.00000000000E+00  0.36396459400E+03  0.36396459400E+03  0.00000000000E+00 0. -1.
          1   -1    0    0  501    0  0.00000000000E+00 -0.00000000000E+00 -0.47155863464E+02  0.47155863464E+02  0.00000000000E+00 0.  1.
          5    1    1    2  502    0  0.13448088638E+02  0.50561342067E+02  0.49993869970E+02  0.72485583631E+02  0.41800000000E+01 0.  1.
         -5    1    1    2    0  502 -0.17133957975E+02 -0.38018960915E+02  0.23903894197E+03  0.24268519132E+03  0.41800000000E+01 0.  1.
        -11    1    1    2    0    0 -0.21825753763E+02  0.31951794876E+02  0.25126710838E+01  0.38776207126E+02  0.00000000000E+00 0. -1.
         11    1    1    2    0    0  0.25511623100E+02 -0.44494176029E+02  0.25263247513E+02  0.57173475393E+02  0.00000000000E+00 0.  1.
</event>
<event>
 7    1  0.1538147E-010  0.8855515E+02  0.7561462E-02  0.1306389E+00
         -2   -1    0    0    0  501 -0.00000000000E+00  0.00000000000E+00  0.15246525058E+02  0.15246525058E+02  0.00000000000E+00 0. -1.
          2   -1    0    0  501    0  0.00000000000E+00 -0.00000000000E+00 -0.10276877764E+04  0.10276877764E+04  0.00000000000E+00 0.  1.
         25    2    1    2    0    0  0.53960004755E+02 -0.85031716708E+01 -0.57125342739E+03  0.58734134901E+03  0.12512152460E+03 0.  0.
          5    1    3    3  502    0  0.48994086187E+02  0.95734183250E+01 -0.71967693188E+02  0.87686327797E+02  0.41800000000E+01 0. -1.
         -5    1    3    3    0  502  0.49659185679E+01 -0.18076589996E+02 -0.49928573420E+03  0.49965502122E+03  0.41800000000E+01 0. -1.
        -11    1    1    2    0    0 -0.33579122233E+01 -0.38558370020E+02 -0.95116702275E+02  0.10268987547E+03  0.00000000000E+00 0.  1.
         11    1    1    2    0    0 -0.50602092532E+02  0.47061541691E+02 -0.34607112172E+03  0.35290307701E+03  0.00000000000E+00 0. -1.
</event>
<event>
 6    1  0.1538147E-010  0.8815404E+02  0.7561462E-02  0.1307385E+00
          1   -1    0    0  501    0  0.00000000000E+00  0.00000000000E+00  0.59693404738E+02  0.59693404738E+02  0.00000000000E+00 0. -1.
         -1   -1    0    0    0  501 -0.00000000000E+00 -0.00000000000E+00 -0.67709208634E+03  0.67709208634E+03  0.00000000000E+00 0.  1.
          5    1    1    2  502    0 -0.10866244233E+02 -0.14799140968E+02 -0.94365065874E+01  0.21062048658E+02  0.41800000000E+01 0. -1.
         -5    1    1    2    0  502  0.73378729375E+02 -0.38270830414E+01 -0.59799569517E+03  0.60250760023E+03  0.41800000000E+01 0. -1.
        -11    1    1    2    0    0  0.46791238755E+01 -0.98494956198E+01 -0.34534179321E+02  0.36214863048E+02  0.00000000000E+00 0.  1.
         11    1    1    2    0    0 -0.67191609018E+02  0.28475719629E+02  0.24567699481E+02  0.77000979140E+02  0.00000000000E+00 0. -1.
</event>
<event>
 6    1  0.1538147E-010  0.2393936E+03  0.7561462E-02  0.1120197E+00
         -1   -1    0    0    0  501 -0.00000000000E+00  0.00000000000E+00  0.95058865448E+03  0.95058865448E+03  0.00000000000E+00 0.  1.
          1   -1    0    0  501    0  0.00000000000E+00 -0.00000000000E+00 -0.67451703001E+02  0.67451703001E+02  0.00000000000E+00 0. -1.
          5    1    1    2  502    0  0.24842507382E+02 -0.15077182730E+03  0.20573528654E+03  0.25630796829E+03  0.41800000000E+01 0. -1.
         -5    1    1    2    0  502  0.82224268869E+02 -0.51174875830E+02  0.25980983184E+03  0.27730546231E+03  0.41800000000E+01 0. -1.
        -11    1    1    2    0    0 -0.87155259386E+02  0.17476721248E+03  0.40276728495E+03  0.44761713955E+03  0.00000000000E+00 0.  1.
         11    1    1    2    0    0 -0.19911516865E+02  0.27179490641E+02  0.14824548150E+02  0.36809787329E+02  0.00000000000E+00 0. -1.
</event>
<event>
 7    1  0.1538147E-010  0.3420243E+03  0.7561462E-02  0.1065937E+00
         -2   -1    0    0    0  501 -0.00000000000E+00  0.00000000000E+00  0.24495715798E+03  0.24495715798E+03  0.00000000000E+00 0.  1.
          2   -1    0    0  501    0  0.00000000000E+00 -0.00000000000E+00 -0.56256679751E+03  0.56256679751E+03  0.00000000000E+00 0. -1.
         25    2    1    2    0    0 -0.32625821248E+03  0.82448808840E+02 -0.28251969715E+03  0.45685310552E+03  0.12512055571E+03 0.  0.
          5    1    3    3  502    0 -0.78507200948E+02  0.13404145375E+02 -0.72125996347E+01  0.80078372282E+02  0.41800000000E+01 0. -1.
         -5    1    3    3    0  502 -0.24775101153E+03  0.69044663465E+02 -0.27530709751E+03  0.37677473324E+03  0.41800000000E+01 0. -1.
        -11    1    1    2    0    0  0.19744068108E+03 -0.92152244563E+02 -0.39379073563E+02  0.22141718578E+03  0.00000000000E+00 0.  1.
         11    1    1    2    0    0  0.12881753140E+03  0.97034357230E+01  0.42891311832E+01  0.12925366419E+03  0.00000000000E+00 0. -1.
</event>
<event>
 7    1  0.1538147E-010  0.1019314E+03  0.7561462E-02  0.1276286E+00
         -1   -1    0    0    0  501 -0.00000000000E+00  0.00000000000E+00  0.18019401433E+02  0.18019401433E+02  0.00000000000E+00 0.  1.
          1   -1    0    0  501    0  0.00000000000E+00 -0.00000000000E+00 -0.10043396256E+04  0.10043396256E+04  0.00000000000E+00 0. -1.
         25    2    1    2    0    0 -0.89511915393E+01 -0.61927691458E+02 -0.72669652649E+03  0.74004050508E+03  0.12512771374E+03 0.  0.
          5    1    3    3  502    0  0.29257715928E+02 -0.36098787490E+02 -0.87431467083E+02  0.99100303914E+02  0.41800000000E+01 0.  1.
         -5    1    3    3    0  502 -0.38208907468E+02 -0.25828903968E+02 -0.63926505941E+03  0.64094020117E+03  0.41800000000E+01 0.  1.
        -11    1    1    2    0    0 -0.26839096493E+02  0.69337192360E+02 -0.17494960550E+03  0.19009299780E+03  0.00000000000E+00 0.  1.
         11    1    1    2    0    0  0.35790288032E+02 -0.74095009022E+01 -0.84674092174E+02  0.92225524160E+02  0.00000000000E+00 0. -1.
</event>
<event>
 7    1  0.1538147E-010  0.1189278E+03  0.7561462E-02  0.1244876E+00
          1   -1    0    0  501    0  0.00000000000E+00  0.00000000000E+00  0.97289946696E+02  0.97289946696E+02  0.00000000000E+00 0. -1.
         -1   -1    0    0    0  501 -0.00000000000E+00 -0.00000000000E+00 -0.27205104359E+03  0.27205104359E+03  0.00000000000E+00 0.  1.
         25    2    1    2    0    0  0.85632110047E+02  0.47035733428E+02 -0.17307340010E+03  0.23482170654E+03  0.12506643654E+03 0.  0.
          5    1    3    3  502    0 -0.15731241219E+02  0.34226442477E+02 -0.51965626659E+01  0.38254385088E+02  0.41800000000E+01 0.  1.
         -5    1    3    3    0  502  0.10136335127E+03  0.12809290951E+02 -0.16787683744E+03  0.19656732145E+03  0.41800000000E+01 0.  1.
        -11    1    1    2    0    0 -0.45472562741E+02 -0.25253363450E+02  0.45305132196E+02  0.68978557038E+02  0.00000000000E+00 0. -1.
         11    1    1    2    0    0 -0.40159547306E+02 -0.21782369978E+02 -0.46992828993E+02  0.65540726716E+02  0.00000000000E+00 0.  1.
</event>
<event>
 7    1  0.1538147E-010  0.2540315E+03  0.7561462E-02  0.1110783E+00
          1   -1    0    0  501    0  0.00000000000E+00  0.00000000000E+00  0.82251936661E+03  0.82251936661E+03  0.00000000000E+00 0. -1.
         -1   -1    0    0    0  501 -0.00000000000E+00 -0.00000000000E+00 -0.97259041045E+02  0.97259041045E+02  0.00000000000E+00 0.  1.
         25    2    1    2    0    0 -0.55955234699E+02 -0.24296983665E+03  0.48777980996E+03  0.56190394026E+03  0.12506624351E+03 0.  0.
          5    1    3    3  502    0 -0.34181849189E+02 -0.17072341428E+03  0.20399019704E+03  0.26822445057E+03  0.41800000000E+01 0. -1.
         -5    1    3    3    0  502 -0.21773385511E+02 -0.72246422371E+02  0.28378961292E+03  0.29367948969E+03  0.41800000000E+01 0. -1.
        -11    1    1    2    0    0  0.68247575131E+02  0.15309971954E+03  0.10664637033E+03  0.19867235323E+03  0.00000000000E+00 0.  1.
         11    1    1    2    0    0 -0.12292340432E+02  0.89870117113E+02  0.13083414528E+03  0.15920211417E+03  0.00000000000E+00 0. -1.
</event>
<event>
 7    1  0.1538147E-010  0.1445353E+03  0.7561462E-02  0.1207353E+00
          1   -1    0    0  501    0  0.00000000000E+00  0.00000000000E+00  0.39972601247E+03  0.39972601247E+03  0.00000000000E+00 0. -1.
         -1   -1    0    0    0  501 -0.00000000000E+00 -0.00000000000E+00 -0.78076349974E+02  0.78076349974E+02  0.00000000000E+00 0.  1.
         25    2    1    2    0    0  0.14393555010E+03  0.10929040281E+02  0.11654079651E+03  0.22372464963E+03  0.12503629513E+03 0.  0.
          5    1    3    3  502    0  0.79907201846E+02  0.72623562338E+01  0.13478572011E+03  0.15691579102E+03  0.41800000000E+01 0. -1.
         -5    1    3    3    0  502  0.64028348253E+02  0.36666840475E+01 -0.18244923606E+02  0.66808858614E+02  0.41800000000E+01 0. -1.
        -11    1    1    2    0    0 -0.87949024693E+02 -0.93828340527E+01  0.90653482659E+02  0.12665355280E+03  0.00000000000E+00 0.  1.
         11    1    1    2    0    0 -0.55986525406E+02 -0.15462062286E+01  0.11445538333E+03  0.12742416001E+03  0.00000000000E+00 0. -1.
</event>
<event>
 6    1  0.1538147E-010  0.8328061E+02  0.7561462E-02  0.1319991E+00
         -2   -1    0    0    0  501 -0.00000000000E+00  0.00000000000E+00  0.16735927771E+03  0.16735927771E+03  0.00000000000E+00 0.  1.
          2   -1    0    0  501    0  0.00000000000E+00 -0.00000000000E+00 -0.69424696095E+02  0.69424696095E+02  0.00000000000E+00 0. -1.
          5    1    1    2  502    0  0.10897698517E+02 -0.33684099803E+02  0.76061562826E+02  0.84001262800E+02  0.41800000000E+01 0.  1.
         -5    1    1    2    0  502 -0.56681282910E+02 -0.37629152916E+01 -0.26772966098E+02  0.62937997089E+02  0.41800000000E+01 0.  1.
        -11    1    1    2    0    0  0.10589658371E+01  0.28277947448E+02  0.27755098501E+02  0.39637220050E+02  0.00000000000E+00 0. -1.
         11    1    1    2    0    0  0.44724618556E+02  0.91690676459E+01  0.20890886391E+02  0.50207493870E+02  0.00000000000E+00 0.  1.
</event>
<event>
 7    1  0.1538147E-010  0.1179132E+03  0.7561462E-02  0.1246580E+00
         -1   -1    0    0    0  501 -0.00000000000E+00  0.00000000000E+00  0.20815062161E+02  0.20815062161E+02  0.00000000000E+00 0.  1.
          1   -1    0    0  501    0  0.00000000000E+00 -0.00000000000E+00 -0.73952313017E+03  0.73952313017E+03  0.00000000000E+00 0. -1.
         25    2    1    2    0    0  0.26337869702E+02  0.47280260703E+02 -0.32755346315E+03  0.35478667030E+03  0.12511276420E+03 0.  0.
          5    1    3    3  502    0 -0.20100364093E+02  0.75870443826E+02 -0.15527715429E+03  0.17403682348E+03  0.41800000000E+01 0.  1.
         -5    1    3    3    0  502  0.46438233794E+02 -0.28590183123E+02 -0.17227630886E+03  0.18074984681E+03  0.41800000000E+01 0.  1.
        -11    1    1    2    0    0 -0.53459421383E+02 -0.52485175956E+02 -0.33082154902E+03  0.33919832064E+03  0.00000000000E+00 0.  1.
         11    1    1    2    0    0  0.27121551682E+02  0.52049152523E+01 -0.60333055836E+02  0.66353201392E+02  0.00000000000E+00 0. -1.
</event>
<event>
 6    1  0.1538147E-010  0.1265851E+03  0.7561462E-02  0.1232613E+00
         -1   -1    0    0    0  501 -0.00000000000E+00  0.00000000000E+00  0.24883344282E+03  0.24883344282E+03  0.00000000000E+00 0.  1.
          1   -1    0    0  501    0  0.00000000000E+00 -0.00000000000E+00 -0.12862337314E+03  0.12862337314E+03  0.00000000000E+00 0. -1.
          5    1    1    2  502    0  0.10413808152E+03 -0.19288273935E+02  0.12403714713E+03  0.16315472351E+03  0.41800000000E+01 0. -1.
         -5    1    1    2    0  502 -0.17520183337E+02  0.44711299666E+02  0.55136926829E+02  0.73236672795E+02  0.41800000000E+01 0. -1.
        -11    1    1    2    0    0 -0.67234914354E+01  0.96175724144E+01 -0.52266807559E+02  0.53567921451E+02  0.00000000000E+00 0. -1.
         11    1    1    2    0    0 -0.79894406753E+02 -0.35040598145E+02 -0.66971967234E+01  0.87497498208E+02  0.00000000000E+00 0.  1.
</event>
<event>
 7    1  0.1538147E-010  0.1431267E+03  0.7561462E-02  0.1209183E+00
          2   -1    0    0  501    0  0.00000000000E+00  0.00000000000E+00  0.68549963608E+03  0.68549963608E+03  0.00000000000E+00 0. -1.
         -2   -1    0    0    0  501 -0.00000000000E+00 -0.00000000000E+00 -0.33478678924E+02  0.33478678924E+02  0.00000000000E+00 0.  1.
         25    2    1    2    0    0 -0.41203825953E+01 -0.10196370303E+03  0.41924990648E+03  0.44924958185E+03  0.12506449703E+03 0.  0.
          5    1    3    3  502    0  0.33221456736E+02 -0.11586157930E+03  0.33246543661E+03  0.35366411988E+03  0.41800000000E+01 0. -1.
         -5    1    3    3    0  502 -0.37341839331E+02  0.13897876279E+02  0.86784469869E+02  0.95585461971E+02  0.41800000000E+01 0. -1.
        -11    1    1    2    0    0  0.54696522459E+01  0.11367121228E+03  0.16196593759E+03  0.19794955554E+03  0.00000000000E+00 0.  1.
         11    1    1    2    0    0 -0.13492696507E+01 -0.11707509252E+02  0.70805113075E+02  0.71779177615E+02  0.00000000000E+00 0. -1.
</event>
<event>
 7    1  0.1538147E-010  0.1686669E+03  0.7561462E-02  0.1179245E+00
          1   -1    0    0  501    0  0.00000000000E+00  0.00000000000E+00  0.97968337460E+03  0.97968337460E+03  0.00000000000E+00 0. -1.
         -1   -1    0    0    0  501 -0.00000000000E+00 -0.00000000000E+00 -0.30058710142E+02  0.30058710142E+02  0.00000000000E+00 0.  1.
         25    2    1    2    0    0  0.11562749548E+03 -0.57260396871E+02  0.42301699914E+03  0.45961436403E+03  0.12511399324E+03 0.  0.
          5    1    3    3  502    0  0.11285753684E+03 -0.91251319365E+02  0.34980476970E+03  0.37874064505E+03  0.41800000000E+01 0. -1.
         -5    1    3    3    0  502  0.27699586429E+01  0.33990922494E+02  0.73212229443E+02  0.80873718987E+02  0.41800000000E+01 0. -1.
        -11    1    1    2    0    0 -0.81697089233E+02  0.82029517001E+02  0.35255767185E+03  0.37107973271E+03  0.00000000000E+00 0.  1.
         11    1    1    2    0    0 -0.33930406246E+02 -0.24769120130E+02  0.17404999347E+03  0.17904798800E+03  0.00000000000E+00 0. -1.
</event>
<event>
 7    1  0.1538147E-010  0.9566121E+02  0.7561462E-02  0.1289694E+00
         -1   -1    0    0    0  501 -0.00000000000E+00  0.00000000000E+00  0.45673496469E+02  0.45673496469E+02  0.00000000000E+00 0.  1.
          1   -1    0    0  501    0  0.00000000000E+00 -0.00000000000E+00 -0.24695343077E+03  0.24695343077E+03  0.00000000000E+00 0. -1.
         25    2    1    2    0    0  0.12561453030E+02  0.31043365022E+02 -0.96435996124E+02  0.16143987265E+03  0.12506578476E+03 0.  0.
          5    1    3    3  502    0  0.54298607308E+02 -0.82211995275E+01 -0.75364876591E+01  0.55589548690E+02  0.41800000000E+01 0. -1.
         -5    1    3    3    0  502 -0.41737154278E+02  0.39264564550E+02 -0.88899508465E+02  0.10585032396E+03  0.41800000000E+01 0. -1.
        -11    1    1    2    0    0  0.26422751724E+02 -0.29742870331E+02 -0.50324728532E+02  0.64151215468E+02  0.00000000000E+00 0.  1.
         11    1    1    2    0    0 -0.38984204754E+02 -0.13004946908E+01 -0.54519209641E+02  0.67035839121E+02  0.00000000000E+00 0. -1.
</event>
<event>
 7    1  0.1538147E-010  0.1021821E+03  0.7561462E-02  0.1275773E+00
         -3   -1    0    0    0  501 -0.00000000000E+00  0.00000000000E+00  0.58507924647E+02  0.58507924647E+02  0.00000000000E+00 0.  1.
          3   -1    0    0  501    0  0.00000000000E+00 -0.00000000000E+00 -0.36396932687E+03  0.36396932687E+03  0.00000000000E+00 0. -1.
         25    2    1    2    0    0 -0.28755929839E+02  0.37635719799E+02 -0.29032898829E+03  0.31967280472E+03  0.12512565575E+03 0.  0.
          5    1    3    3  502    0  0.19730929309E+02  0.66966720399E+02 -0.20953104008E+03  0.22089495324E+03  0.41800000000E+01 0. -1.
         -5    1    3    3    0  502 -0.48486859148E+02 -0.29331000600E+02 -0.80797948214E+02  0.98777851474E+02  0.41800000000E+01 0. -1.
        -11    1    1    2    0    0  0.13958806562E+02 -0.53863481963E+02  0.21861220675E+02  0.59783241290E+02  0.00000000000E+00 0.  1.
         11    1    1    2    0    0  0.14797123277E+02  0.16227762164E+02 -0.36993634610E+02  0.43021205513E+02  0.00000000000E+00 0. -1.
</event>
<event>
 7    1  0.1906475E-010  0.7954986E+02  0.7561462E-02  0.1330334E+00
         -1   -1    0    0    0  501 -0.00000000000E+00  0.00000000000E+00  0.12807995075E+02  0.12807995075E+02  0.00000000000E+00 0.  1.
          1   -1    0    0  501    0  0.00000000000E+00 -0.00000000000E+00 -0.10273092565E+04  0.10273092565E+04  0.00000000000E+00 0. -1.
         25    2    1    2    0    0 -0.41381056705E+01 -0.27282701555E+02 -0.69014227684E+03  0.70193350221E+03  0.12511118863E+03 0.  0.
          5    1    3    3  502    0 -0.26889391555E+02 -0.31497482876E+02 -0.70686248612E+02  0.82031390019E+02  0.41800000000E+01 0.  1.
         -5    1    3    3    0  502  0.22751285884E+02  0.42147813203E+01 -0.61945602823E+03  0.61990211219E+03  0.41800000000E+01 0.  1.
        -11    1    1    2    0    0 -0.14761712242E+01  0.60377027295E+02 -0.23764983896E+03  0.24520401804E+03  0.00000000000E+00 0. -1.
         11    1    1    2    0    0  0.56142768947E+01 -0.33094325740E+02 -0.86709145581E+02  0.92979731279E+02  0.00000000000E+00 0.  1.
</event>
<event>
 7    1  0.1538147E-010  0.7586413E+02  0.7561462E-02  0.1341216E+00
         -1   -1    0    0    0  501 -0.00000000000E+00  0.00000000000E+00  0.10215490603E+03  0.10215490603E+03  0.00000000000E+00 0.  1.
          1   -1    0    0  501    0  0.00000000000E+00 -0.00000000000E+00 -0.12825289412E+03  0.12825289412E+03  0.00000000000E+00 0. -1.
         25    2    1    2    0    0 -0.99408500233E+01 -0.30282106280E+02 -0.10581668818E+02  0.12955519951E+03  0.12512694173E+03 0.  0.
          5    1    3    3  502    0  0.15252306865E+02  0.40457373341E+02 -0.28867826661E+02  0.52156070965E+02  0.41800000000E+01 0.  1.
         -5    1    3    3    0  502 -0.25193156889E+02 -0.70739479621E+02  0.18286157843E+02  0.77399128546E+02  0.41800000000E+01 0.  1.
        -11    1    1    2    0    0  0.75577962335E+00  0.16512564061E+02 -0.55324149846E+02  0.57740778752E+02  0.00000000000E+00 0. -1.
         11    1    1    2    0    0  0.91850703999E+01  0.13769542219E+02  0.39807830577E+02  0.43111821887E+02  0.00000000000E+00 0.  1.
</event>
<event>
 7    1  0.1538147E-010  0.9706180E+02  0.7561462E-02  0.1286599E+00
         -1   -1    0    0    0  501 -0.00000000000E+00  0.00000000000E+00  0.30833010131E+03  0.30833010131E+03  0.00000000000E+00 0.  1.
          1   -1    0    0  501    0  0.00000000000E+00 -0.00000000000E+00 -0.39963111457E+02  0.39963111457E+02  0.00000000000E+00 0. -1.
         25    2    1    2    0    0  0.18976722755E+02 -0.66290119610E+01  0.17939338873E+03  0.21960631618E+03  0.12506352938E+03 0.  0.
          5    1    3    3  502    0 -0.34482790734E+02  0.41535312998E+02  0.67933546249E+02  0.86871653539E+02  0.41800000000E+01 0.  1.
         -5    1    3    3    0  502  0.53459513489E+02 -0.48164324959E+02  0.11145984248E+03  0.13273466264E+03  0.41800000000E+01 0.  1.
        -11    1    1    2    0    0  0.15026454503E+02 -0.19784372076E+02  0.81223711547E+02  0.84938254226E+02  0.00000000000E+00 0.  1.
         11    1    1    2    0    0 -0.34003177258E+02  0.26413384037E+02  0.77498895783E+01  0.43748642361E+02  0.00000000000E+00 0. -1.
</event>
<event>
 7    1  0.1538147E-010  0.1210473E+03  0.7561462E-02  0.1241379E+00
         -2   -1    0    0    0  501 -0.00000000000E+00  0.00000000000E+00  0.65508180103E+03  0.65508180103E+03  0.00000000000E+00 0.  1.
          2   -1    0    0  501    0  0.00000000000E+00 -0.00000000000E+00 -0.25539192118E+02  0.25539192118E+02  0.00000000000E+00 0. -1.
         25    2    1    2    0    0  0.33667601767E+02 -0.61712349698E+02  0.35770051248E+03  0.38539633568E+03  0.12505501754E+03 0.  0.
          5    1    3    3  502    0  0.57373581077E+02  0.62786708496E+01  0.81636267604E+02  0.10006548906E+03  0.41800000000E+01 0.  1.
         -5    1    3    3    0  502 -0.23705979310E+02 -0.67991020548E+02  0.27606424487E+03  0.28533084661E+03  0.41800000000E+01 0.  1.
        -11    1    1    2    0    0 -0.63458729934E+02  0.37494433755E+02  0.14438489165E+03  0.16211057924E+03  0.00000000000E+00 0.  1.
         11    1    1    2    0    0  0.29791128167E+02  0.24217915943E+02  0.12745720479E+03  0.13311407823E+03  0.00000000000E+00 0. -1.
</event>
<event>
 7    1  0.1538147E-010  0.1139156E+03  0.7561462E-02  0.1253486E+00
          1   -1    0    0  501    0  0.00000000000E+00  0.00000000000E+00  0.92699197401E+03  0.92699197401E+03  0.00000000000E+00 0. -1.
         -1   -1    0    0    0  501 -0.00000000000E+00 -0.00000000000E+00 -0.16391807914E+02  0.16391807914E+02  0.00000000000E+00 0.  1.
         25    2    1    2    0    0 -0.25770810569E+02  0.20821678006E+02  0.47104538591E+03  0.48850903235E+03  0.12513849190E+03 0.  0.
          5    1    3    3  502    0  0.40967097811E+02  0.40472301101E+02  0.25685001719E+03  0.26325978422E+03  0.41800000000E+01 0. -1.
         -5    1    3    3    0  502 -0.66737908380E+02 -0.19650623094E+02  0.21419536872E+03  0.22524924813E+03  0.41800000000E+01 0. -1.
        -11    1    1    2    0    0 -0.31971052903E+02  0.11796774260E+02  0.55433320791E+02  0.65070463043E+02  0.00000000000E+00 0.  1.
         11    1    1    2    0    0  0.57741863472E+02 -0.32618452266E+02  0.38412145940E+03  0.38980428653E+03  0.00000000000E+00 0. -1.
</event>
<event>
 6    1  0.1538147E-010  0.1244903E+03  0.7561462E-02  0.1235868E+00
         -2   -1    0    0    0  501 -0.00000000000E+00  0.00000000000E+00  0.34171389793E+02  0.34171389793E+02  0.00000000000E+00 0. -1.
          2   -1    0    0  501    0  0.00000000000E+00 -0.00000000000E+00 -0.72800213961E+03  0.72800213961E+03  0.00000000000E+00 0.  1.
          5    1    1    2  502    0 -0.78334195292E+02  0.38237628351E+02 -0.45599890670E+03  0.46427452836E+03  0.41800000000E+01 0.  1.
         -5    1    1    2    0  502 -0.18641597150E+02  0.11334523110E+02 -0.14242451545E+01  0.22259412227E+02  0.41800000000E+01 0.  1.
        -11    1    1    2    0    0  0.95440842782E+02 -0.57126234604E+01 -0.18336496396E+03  0.20679530591E+03  0.00000000000E+00 0.  1.
         11    1    1    2    0    0  0.15349496597E+01 -0.43859528001E+02 -0.53042634007E+02  0.68844282909E+02  0.00000000000E+00 0. -1.
</event>
<event>
 6    1  0.1538147E-010  0.2039013E+03  0.7561462E-02  0.1146489E+00
         -1   -1    0    0    0  501 -0.00000000000E+00  0.00000000000E+00  0.85000434669E+02  0.85000434669E+02  0.00000000000E+00 0.  1.
          1   -1    0    0  501    0  0.00000000000E+00 -0.00000000000E+00 -0.60416800990E+03  0.60416800990E+03  0.00000000000E+00 0. -1.
          5    1    1    2  502    0 -0.32740699041E+02 -0.61768359323E+02 -0.81433074624E+02  0.10740624577E+03  0.41800000000E+01 0. -1.
         -5    1    1    2    0  502 -0.13988961188E+03  0.13558673909E+02 -0.59860059796E+02  0.15281897889E+03  0.41800000000E+01 0. -1.
        -11    1    1    2    0    0  0.57642268809E+02 -0.22830183240E+02 -0.75211625914E+02  0.97471211611E+02  0.00000000000E+00 0.  1.
         11    1    1    2    0    0  0.11498804211E+03  0.71039868653E+02 -0.30266281490E+03  0.33147200830E+03  0.00000000000E+00 0. -1.
</event>
<event>
 6    1  0.1538147E-010  0.1261712E+03  0.7561462E-02  0.1233250E+00
          1   -1    0    0  501    0  0.00000000000E+00  0.00000000000E+00  0.39022626236E+03  0.39022626236E+03  0.00000000000E+00 0. -1.
         -1   -1    0    0    0  501 -0.00000000000E+00 -0.00000000000E+00 -0.41493920760E+02  0.41493920760E+02  0.00000000000E+00 0.  1.
          5    1    1    2  502    0 -0.78828053207E+02  0.30088749111E+02  0.12163770911E+03  0.14809591308E+03  0.41800000000E+01 0. -1.
         -5    1    1    2    0  502  0.48601411129E+02  0.27596665422E+02  0.97427782446E+02  0.11239803512E+03  0.41800000000E+01 0. -1.
        -11    1    1    2    0    0 -0.19551460106E+02 -0.58863481602E+02  0.70916697488E+02  0.94214367488E+02  0.00000000000E+00 0.  1.
         11    1    1    2    0    0  0.49778102184E+02  0.11780670683E+01  0.58750152558E+02  0.77011867427E+02  0.00000000000E+00 0. -1.
</event>
<event>
 6    1  0.1538147E-010  0.1337878E+03  0.7561462E-02  0.1221941E+00
         -1   -1    0    0    0  501 -0.00000000000E+00  0.00000000000E+00  0.46092929424E+02  0.46092929424E+02  0.00000000000E+00 0.  1.
          1   -1    0    0  501    0  0.00000000000E+00 -0.00000000000E+00 -0.79322065605E+03  0.79322065605E+03  0.00000000000E+00 0. -1.
          5    1    1    2  502    0 -0.65149287472E+01 -0.46787784051E+02 -0.44082939788E+03  0.44337294851E+03  0.41800000000E+01 0. -1.
         -5    1    1    2    0  502  0.86524540906E+02 -0.22576746274E+02 -0.22057578389E+03  0.23804905900E+03  0.41800000000E+01 0. -1.
        -11    1    1    2    0    0 -0.83205702723E+02  0.26032501695E+02 -0.44015101977E+02  0.97663756390E+02  0.00000000000E+00 0.  1.
         11    1    1    2    0    0  0.31960905645E+01  0.43332028630E+02 -0.41707442871E+02  0.60227821569E+02  0.00000000000E+00 0. -1.
</event>
<event>
 7    1  0.1538147E-010  0.1084195E+03  0.7561462E-02  0.1263525E+00
          2   -1    0    0  501    0  0.00000000000E+00  0.00000000000E+00  0.13078389523E+03  0.13078389523E+03  0.00000000000E+00 0. -1.
         -2   -1    0    0    0  501 -0.00000000000E+00 -0.00000000000E+00 -0.13374339061E+03  0.13374339061E+03  0.00000000000E+00 0.  1.
         25    2    1    2    0    0  0.68584868325E+02  0.21189775746E+02 -0.22386954223E+02  0.14597091488E+03  0.12511371433E+03 0.  0.
          5    1    3    3  502    0 -0.16392908196E+02  0.43403261609E+02 -0.33444109540E+02  0.57345892794E+02  0.41800000000E+01 0. -1.
         -5    1    3    3    0  502  0.84977776521E+02 -0.22213485864E+02  0.11057155317E+02  0.88625022090E+02  0.41800000000E+01 0. -1.
        -11    1    1    2    0    0 -0.36027370188E+02 -0.31826504577E+02  0.52332423073E+02  0.71060398964E+02  0.00000000000E+00 0. -1.
         11    1    1    2    0    0 -0.32557498137E+02  0.10636728831E+02 -0.32904964223E+02  0.47495971994E+02  0.00000000000E+00 0.  1.
</event>
<event>
 7    1  0.1538147E-010  0.1189684E+03  0.7561462E-02  0.1244809E+00
         -1   -1    0    0    0  501 -0.00000000000E+00  0.00000000000E+00  0.11394677835E+03  0.11394677835E+03  0.00000000000E+00 0.  1.
          1   -1    0    0  501    0  0.00000000000E+00 -0.00000000000E+00 -0.13990475690E+03  0.13990475690E+03  0.00000000000E+00 0. -1.
         25    2    1    2    0    0  0.49674748142E+01 -0.62741658663E+02 -0.10742138322E+00  0.14006274440E+03  0.12512541426E+03 0.  0.
          5    1    3    3  502    0  0.64590871765E+02 -0.32508086284E+02  0.66811326190E+01  0.72738341487E+02  0.41800000000E+01 0.  1.
         -5    1    3    3    0  502 -0.59623396951E+02 -0.30233572379E+02 -0.67885540022E+01  0.67324402918E+02  0.41800000000E+01 0.  1.
        -11    1    1    2    0    0  0.12229709862E+02  0.75895009786E+02 -0.41229082900E+02  0.87232193544E+02  0.00000000000E+00 0. -1.
         11    1    1    2    0    0 -0.17197184676E+02 -0.13153351123E+02  0.15378525728E+02  0.26556597299E+02  0.00000000000E+00 0.  1.
</event>
<event>
 6    1  0.1538147E-010  0.2014634E+03  0.7561462E-02  0.1148510E+00
          1   -1    0    0  501    0  0.00000000000E+00  0.00000000000E+00  0.56989292609E+03  0.56989292609E+03  0.00000000000E+00 0. -1.
         -1   -1    0    0    0  501 -0.00000000000E+00 -0.00000000000E+00 -0.10527317844E+03  0.10527317844E+03  0.00000000000E+00 0.  1.
          5    1    1    2  502    0  0.77230298114E+02  0.83024379429E+02 -0.52622712902E+01  0.11359018631E+03  0.41800000000E+01 0.  1.
         -5    1    1    2    0  502  0.89897512387E+02 -0.15711885221E+02  0.69604678629E+02  0.11485081522E+03  0.41800000000E+01 0.  1.
        -11    1    1    2    0    0 -0.66898244091E+01 -0.33472931743E+02  0.77663848950E+02  0.84834334699E+02  0.00000000000E+00 0. -1.
         11    1    1    2    0    0 -0.16043798609E+03 -0.33839562465E+02  0.32261349136E+03  0.36189076829E+03  0.00000000000E+00 0.  1.
</event>
<event>
 6    1  0.1538147E-010  0.1088623E+03  0.7561462E-02  0.1262691E+00
          1   -1    0    0  501    0  0.00000000000E+00  0.00000000000E+00  0.41191818537E+03  0.41191818537E+03  0.00000000000E+00 0. -1.
         -1   -1    0    0    0  501 -0.00000000000E+00 -0.00000000000E+00 -0.49865437583E+02  0.49865437583E+02  0.00000000000E+00 0.  1.
          5    1    1    2  502    0 -0.16296589926E+02  0.18819610074E+02  0.10243628347E+02  0.27242629980E+02  0.41800000000E+01 0. -1.
         -5    1    1    2    0  502  0.49690064675E+02 -0.75994477435E+02  0.30720620945E+03  0.32037070816E+03  0.41800000000E+01 0. -1.
        -11    1    1    2    0    0 -0.19640052393E+02  0.75874050611E+02  0.46068677881E+02  0.90911640046E+02  0.00000000000E+00 0. -1.
         11    1    1    2    0    0 -0.13753422356E+02 -0.18699183250E+02 -0.14657678859E+01  0.23258644763E+02  0.00000000000E+00 0.  1.
</event>
<event>
 7    1  0.1538147E-010  0.8969305E+02  0.7561462E-02  0.1303597E+00
          1   -1    0    0  501    0  0.00000000000E+00  0.00000000000E+00  0.48399237754E+03  0.48399237754E+03  0.00000000000E+00 0. -1.
         -1   -1    0    0    0  501 -0.00000000000E+00 -0.00000000000E+00 -0.36036714120E+02  0.36036714120E+02  0.00000000000E+00 0.  1.
         25    2    1    2    0    0  0.53095359577E+01 -0.21356947991E+02  0.38753734986E+03  0.40783144549E+03  0.12512785459E+03 0.  0.
          5    1    3    3  502    0  0.27953845882E+02 -0.44812136648E+02  0.36291692878E+03  0.36676384048E+03  0.41800000000E+01 0.  1.
         -5    1    3    3    0  502 -0.22644309925E+02  0.23455188657E+02  0.24620421078E+02  0.41067605006E+02  0.41800000000E+01 0.  1.
        -11    1    1    2    0    0  0.15321823037E+02  0.53328119139E+02  0.27702940633E+02  0.62016928912E+02  0.00000000000E+00 0. -1.
         11    1    1    2    0    0 -0.20631358995E+02 -0.31971171148E+02  0.32715372924E+02  0.50180717254E+02  0.00000000000E+00 0.  1.
</event>
<event>
 7    1  0.1538147E-010  0.1514502E+03  0.7561462E-02  0.1198702E+00
          2   -1    0    0  501    0  0.00000000000E+00  0.00000000000E+00  0.71615584781E+02  0.71615584781E+02  0.00000000000E+00 0. -1.
         -2   -1    0    0    0  501 -0.00000000000E+00 -0.00000000000E+00 -0.46706461902E+03  0.46706461902E+03  0.00000000000E+00 0.  1.
         25    2    1    2    0    0 -0.13553268143E+03  0.39129428077E+02 -0.14654575413E+03  0.23878281310E+03  0.12506539849E+03 0.  0.
          5    1    3    3  502    0 -0.26031451263E+02 -0.22210116521E+02  0.12022717332E+02  0.36509503732E+02  0.41800000000E+01 0.  1.
         -5    1    3    3    0  502 -0.10950123017E+03  0.61339544598E+02 -0.15856847146E+03  0.20227330937E+03  0.41800000000E+01 0.  1.
        -11    1    1    2    0    0  0.10755884034E+03 -0.21224053176E+02 -0.24241872872E+03  0.26605676951E+03  0.00000000000E+00 0.  1.
         11    1    1    2    0    0  0.27973841094E+02 -0.17905374901E+02 -0.64845513914E+01  0.33840621192E+02  0.00000000000E+00 0. -1.
</event>
<event>
 6    1  0.1538147E-010  0.2775311E+03  0.7561462E-02  0.1097045E+00
         -3   -1    0    0    0  501 -0.00000000000E+00  0.00000000000E+00  0.12166144854E+03  0.12166144854E+03  0.00000000000E+00 0.  1.
          3   -1    0    0  501    0  0.00000000000E+00 -0.00000000000E+00 -0.70597210033E+03  0.70597210033E+03  0.00000000000E+00 0. -1.
          5    1    1    2  502    0  0.23432767060E+02  0.19429701427E+03 -0.33107980244E+03  0.38461894430E+03  0.41800000000E+01 0.  1.
         -5    1    1    2    0  502 -0.52327866547E+02  0.67482140075E+02 -0.65791499256E+02  0.10787974148E+03  0.41800000000E+01 0.  1.
        -11    1    1    2    0    0 -0.25656426512E+02 -0.77873216615E+02 -0.83222942161E+02  0.11682700111E+03  0.00000000000E+00 0.  1.
         11    1    1    2    0    0  0.54551526000E+02 -0.18390593773E+03 -0.10421640792E+03  0.21830786198E+03  0.00000000000E+00 0. -1.
</event>
<event>
 7    1  0.1538147E-010  0.1287867E+03  0.7561462E-02  0.1229267E+00
         -2   -1    0    0    0  501 -0.00000000000E+00  0.00000000000E+00  0.13609143654E+02  0.13609143654E+02  0.00000000000E+00 0.  1.
          2   -1    0    0  501    0  0.00000000000E+00 -0.00000000000E+00 -0.13011019301E+04  0.13011019301E+04  0.00000000000E+00 0. -1.
         25    2    1    2    0    0 -0.64461905002E+02  0.49033166253E+01 -0.81694691405E+03  0.82898975367E+03  0.12506946710E+03 0.  0.
          5    1    3    3  502    0 -0.60427814830E+02 -0.52660247628E+02 -0.55158210407E+03  0.55739116643E+03  0.41800000000E+01 0. -1.
         -5    1    3    3    0  502 -0.40340901717E+01  0.57563564253E+02 -0.26536480998E+03  0.27159858723E+03  0.41800000000E+01 0. -1.
        -11    1    1    2    0    0  0.62466360420E+02 -0.46460347167E+02 -0.33539635396E+03  0.34431282912E+03  0.00000000000E+00 0.  1.
         11    1    1    2    0    0  0.19955445822E+01  0.41557030542E+02 -0.13514951846E+03  0.14140849099E+03  0.00000000000E+00 0. -1.
</event>
<event>
 7    1  0.1538147E-010  0.1533069E+03  0.7561462E-02  0.1196467E+00
         -2   -1    0    0    0  501 -0.00000000000E+00  0.00000000000E+00  0.15306325093E+02  0.15306325093E+02  0.00000000000E+00 0.  1.
          2   -1    0    0  501    0  0.00000000000E+00 -0.00000000000E+00 -0.20031163189E+04  0.20031163189E+04  0.00000000000E+00 0. -1.
         25    2    1    2    0    0 -0.10643110730E+03  0.24487978671E+02 -0.15268731616E+04  0.15358719177E+04  0.12503461221E+03 0.  0.
          5    1    3    3  502    0  0.16230518442E+02 -0.27371067013E+02 -0.24513388000E+03  0.24722600301E+03  0.41800000000E+01 0.  1.
         -5    1    3    3    0  502 -0.12266162575E+03  0.51859045684E+02 -0.12817392816E+04  0.12886459147E+04  0.41800000000E+01 0.  1.
        -11    1    1    2    0    0  0.58323307769E+02 -0.58310280815E+02 -0.23360407537E+03  0.24773486050E+03  0.00000000000E+00 0. -1.
         11    1    1    2    0    0  0.48107799536E+02  0.33822302144E+02 -0.22733275682E+03  0.23481586578E+03  0.00000000000E+00 0.  1.
</event>
<event>
 7    1  0.1538147E-010  0.1170166E+03  0.7561462E-02  0.1248102E+00
         -1   -1    0    0    0  501 -0.00000000000E+00  0.00000000000E+00  0.24782913004E+02  0.24782913004E+02  0.00000000000E+00 0.  1.
          1   -1    0    0  501    0  0.00000000000E+00 -0.00000000000E+00 -0.86869186999E+03  0.86869186999E+03  0.00000000000E+00 0. -1.
         25    2    1    2    0    0 -0.31506513313E+02 -0.90799680337E+02 -0.40737777150E+03  0.43684493404E+03  0.12505840775E+03 0.  0.
          5    1    3    3  502    0 -0.38519969605E+01 -0.59412344182E+02 -0.38425998350E+03  0.38886742193E+03  0.41800000000E+01 0.  1.
         -5    1    3    3    0  502 -0.27654516353E+02 -0.31387336154E+02 -0.23117788005E+02  0.47977512105E+02  0.41800000000E+01 0.  1.
        -11    1    1    2    0    0  0.17637854500E+02 -0.16478583985E+02 -0.11110083176E+03  0.11369271067E+03  0.00000000000E+00 0.  1.
         11    1    1    2    0    0  0.13868658813E+02  0.10727826432E+03 -0.32543035372E+03  0.34293713829E+03  0.00000000000E+00 0. -1.
</event>
<event>
 7    1  0.1538147E-010  0.1137265E+03  0.7561462E-02  0.1253821E+00
         -2   -1    0    0    0  501 -0.00000000000E+00  0.00000000000E+00  0.21963554489E+02  0.21963554489E+02  0.00000000000E+00 0.  1.
          2   -1    0    0  501    0  0.00000000000E+00 -0.00000000000E+00 -0.78197455398E+03  0.78197455398E+03  0.00000000000E+00 0. -1.
         25    2    1    2    0    0  0.47449196077E+02 -0.28276188275E+02 -0.32724010218E+03  0.35467385850E+03  0.12512590618E+03 0.  0.
          5    1    3    3  502    0  0.83195374187E+02 -0.34358380053E+02 -0.16125617639E+03  0.18472410614E+03  0.41800000000E+01 0. -1.
         -5    1    3    3    0  502 -0.35746178110E+02  0.60821917780E+01 -0.16598392579E+03  0.16994975236E+03  0.41800000000E+01 0. -1.
        -11    1    1    2    0    0  0.16868148250E+02  0.32260451665E+02 -0.54477536980E+02  0.65521547619E+02  0.00000000000E+00 0. -1.
         11    1    1    2    0    0 -0.64317344327E+02 -0.39842633905E+01 -0.37829336033E+03  0.38374270235E+03  0.00000000000E+00 0.  1.
</event>
<event>
 7    1  0.1538147E-010  0.9356282E+02  0.7561462E-02  0.1294446E+00
          1   -1    0    0  501    0  0.00000000000E+00  0.00000000000E+00  0.19360157493E+03  0.19360157493E+03  0.00000000000E+00 0. -1.
         -1   -1    0    0    0  501 -0.00000000000E+00 -0.00000000000E+00 -0.90111856319E+02  0.90111856319E+02  0.00000000000E+00 0.  1.
         25    2    1    2    0    0  0.10369698019E+02  0.24537965491E+02 -0.24908797933E+02  0.13031982642E+03  0.12511261550E+03 0.  0.
          5    1    3    3  502    0 -0.23264566589E+02 -0.42938339152E+02 -0.24527081881E+02  0.54808677902E+02  0.41800000000E+01 0. -1.
         -5    1    3    3    0  502  0.33634264608E+02  0.67476304642E+02 -0.38171605202E+00  0.75511148522E+02  0.41800000000E+01 0. -1.
        -11    1    1    2    0    0 -0.33524742971E+02 -0.89864610305E+01  0.17173724048E+02  0.38724690713E+02  0.00000000000E+00 0.  1.
         11    1    1    2    0    0  0.23155044953E+02 -0.15551504460E+02  0.11122479250E+03  0.11466891411E+03  0.00000000000E+00 0. -1.
</event>
<event>
 6    1  0.1538147E-010  0.1286702E+03  0.7561462E-02  0.1229442E+00
         -2   -1    0    0    0  501 -0.00000000000E+00  0.00000000000E+00  0.37272788470E+02  0.37272788470E+02  0.00000000000E+00 0.  1.
          2   -1    0    0  501    0  0.00000000000E+00 -0.00000000000E+00 -0.71184230119E+03  0.71184230119E+03  0.00000000000E+00 0. -1.
          5    1    1    2  502    0 -0.25810423619E+02  0.27404310688E+01 -0.14435200733E+02  0.29992254834E+02  0.41800000000E+01 0.  1.
         -5    1    1    2    0  502 -0.18512940285E+02 -0.93797526093E+02 -0.49898404087E+03  0.50807799628E+03  0.41800000000E+01 0.  1.
        -11    1    1    2    0    0 -0.27599917352E+02  0.18756816991E+02 -0.50866701553E+02  0.60835803178E+02  0.00000000000E+00 0. -1.
         11    1    1    2    0    0  0.71923281256E+02  0.72300278032E+02 -0.11028356956E+03  0.15020903536E+03  0.00000000000E+00 0.  1.
</event>
<event>
 7    1  0.1538147E-010  0.1118773E+03  0.7561462E-02  0.1257132E+00
         -2   -1    0    0    0  501 -0.00000000000E+00  0.00000000000E+00  0.26476672681E+02  0.26476672681E+02  0.00000000000E+00 0. -1.
          2   -1    0    0  501    0  0.00000000000E+00 -0.00000000000E+00 -0.64241996697E+03  0.64241996697E+03  0.00000000000E+00 0.  1.
         25    2    1    2    0    0  0.21110772030E+01  0.50878768765E+02 -0.46736929636E+03  0.48648636821E+03  0.12506726797E+03 0.  0.
          5    1    3    3  502    0  0.16049028243E+02 -0.39217389855E+02 -0.18027529808E+03  0.18523560800E+03  0.41800000000E+01 0.  1.
         -5    1    3    3    0  502 -0.13937951041E+02  0.90096158620E+02 -0.28709399828E+03  0.30125076021E+03  0.41800000000E+01 0.  1.
        -11    1    1    2    0    0 -0.28451709857E+02 -0.56242807077E+02 -0.14105566311E+03  0.15449742146E+03  0.00000000000E+00 0. -1.
         11    1    1    2    0    0  0.26340632654E+02  0.53640383128E+01 -0.75183348194E+01  0.27912849982E+02  0.00000000000E+00 0.  1.
</event>
<event>
 6    1  0.1538147E-010  0.1347542E+03  0.7561462E-02  0.1220567E+00
         -4   -1    0    0    0  501 -0.00000000000E+00  0.00000000000E+00  0.97510306154E+02  0.97510306154E+02  0.00000000000E+00 0.  1.
          4   -1    0    0  501    0  0.00000000000E+00 -0.00000000000E+00 -0.22240395416E+03  0.22240395416E+03  0.00000000000E+00 0. -1.
          5    1    1    2  502    0  0.12263123467E+02 -0.53746709229E+02  0.52179372834E+00  0.55288675321E+02  0.41800000000E+01 0.  1.
         -5    1    1    2    0  502  0.84686485932E+02  0.53735030443E+02 -0.37612837812E+02  0.10719819198E+03  0.41800000000E+01 0.  1.
        -11    1    1    2    0    0 -0.44154406246E+02 -0.29742002908E+02 -0.31657585653E+01  0.53331232455E+02  0.00000000000E+00 0.  1.
         11    1    1    2    0    0 -0.52795203153E+02  0.29753681694E+02 -0.84636845362E+02  0.10409616056E+03  0.00000000000E+00 0. -1.
</event>
<event>
 6    1  0.1538147E-010  0.1408610E+03  0.7561462E-02  0.1212175E+00
         -2   -1    0    0    0  501 -0.00000000000E+00  0.00000000000E+00  0.98186757710E+02  0.98186757710E+02  0.00000000000E+00 0.  1.
          2   -1    0    0  501    0  0.00000000000E+00 -0.00000000000E+00 -0.21370780576E+03  0.21370780576E+03  0.00000000000E+00 0. -1.
          5    1    1    2  502    0 -0.16168476598E+02 -0.50270011508E+02 -0.89561563302E+01  0.53723168454E+02  0.41800000000E+01 0. -1.
         -5    1    1    2    0  502  0.99515261463E+02  0.17128809944E+02 -0.20978457344E+02  0.10321943357E+03  0.41800000000E+01 0. -1.
        -11    1    1    2    0    0  0.18147053387E+02  0.17095227161E+02 -0.26657272774E+02  0.36498938753E+02  0.00000000000E+00 0. -1.
         11    1    1    2    0    0 -0.10149383825E+03  0.16045974403E+02 -0.58929161602E+02  0.11845302269E+03  0.00000000000E+00 0.  1.
</event>
<event>
 7    1  0.1538147E-010  0.8571067E+02  0.7561462E-02  0.1313584E+00
          2   -1    0    0  501    0  0.00000000000E+00  0.00000000000E+00  0.14114264478E+04  0.14114264478E+04  0.00000000000E+00 0. -1.
         -2   -1    0    0    0  501 -0.00000000000E+00 -0.00000000000E+00 -0.99432844398E+01  0.99432844398E+01  0.00000000000E+00 0.  1.
         25    2    1    2    0    0  0.48159607708E+01  0.24000446967E+01  0.10904072152E+04  0.10975755865E+04  0.12512121888E+03 0.  0.
          5    1    3    3  502    0 -0.35042625041E+02 -0.14396954768E+02  0.11401965181E+03  0.12022150921E+03  0.41800000000E+01 0.  1.
         -5    1    3    3    0  502  0.39858585811E+02  0.16796999465E+02  0.97638756338E+03  0.97735407728E+03  0.41800000000E+01 0.  1.
        -11    1    1    2    0    0  0.14618698964E+02  0.40336485920E+02  0.14669576973E+03  0.15284105245E+03  0.00000000000E+00 0. -1.
         11    1    1    2    0    0 -0.19434659734E+02 -0.42736530617E+02  0.16438017840E+03  0.17095309327E+03  0.00000000000E+00 0.  1.
</event>
<event>
 7    1  0.1538147E-010  0.9529446E+02  0.7561462E-02  0.1290514E+00
         -1   -1    0    0    0  501 -0.00000000000E+00  0.00000000000E+00  0.56012477667E+02  0.56012477667E+02  0.00000000000E+00 0.  1.
          1   -1    0    0  501    0  0.00000000000E+00 -0.00000000000E+00 -0.21057313044E+03  0.21057313044E+03  0.00000000000E+00 0. -1.
         25    2    1    2    0    0 -0.55397965089E-01  0.21454271951E+02 -0.81659392813E+02  0.15093458190E+03  0.12511076182E+03 0.  0.
          5    1    3    3  502    0  0.28590538645E+02  0.63931086024E+02 -0.25115320767E+02  0.74517477127E+02  0.41800000000E+01 0. -1.
         -5    1    3    3    0  502 -0.28645936610E+02 -0.42476814073E+02 -0.56544072046E+02  0.76417104771E+02  0.41800000000E+01 0. -1.
        -11    1    1    2    0    0 -0.65240567164E+01 -0.44543808640E+02 -0.70603093746E+01  0.45569311743E+02  0.00000000000E+00 0.  1.
         11    1    1    2    0    0  0.65794546815E+01  0.23089536690E+02 -0.65840950581E+02  0.70081714462E+02  0.00000000000E+00 0. -1.
</event>
<event>
 7    1  0.1538147E-010  0.8915066E+02  0.7561462E-02  0.1304922E+00
          1   -1    0    0  501    0  0.00000000000E+00  0.00000000000E+00  0.92296300460E+02  0.92296300460E+02  0.00000000000E+00 0. -1.
         -1   -1    0    0    0  501 -0.00000000000E+00 -0.00000000000E+00 -0.18591814703E+03  0.18591814703E+03  0.00000000000E+00 0.  1.
         25    2    1    2    0    0  0.45545196668E+02  0.70015159613E+02 -0.38769511732E+02  0.15535203426E+03  0.12511871161E+03 0.  0.
          5    1    3    3  502    0  0.23807825367E+02  0.13523223978E+02  0.44443562146E+02  0.52367859911E+02  0.41800000000E+01 0.  1.
         -5    1    3    3    0  502  0.21737371301E+02  0.56491935635E+02 -0.83213073878E+02  0.10298417435E+03  0.41800000000E+01 0.  1.
        -11    1    1    2    0    0 -0.14095782604E+02 -0.10531254858E+01 -0.44098723092E+02  0.46308719901E+02  0.00000000000E+00 0.  1.
         11    1    1    2    0    0 -0.31449414063E+02 -0.68962034127E+02 -0.10753611743E+02  0.76553693323E+02  0.00000000000E+00 0. -1.
</event>
<event>
 7    1  0.1538147E-010  0.1135090E+03  0.7561462E-02  0.1254206E+00
          1   -1    0    0  501    0  0.00000000000E+00  0.00000000000E+00  0.44023813436E+03  0.44023813436E+03  0.00000000000E+00 0. -1.
         -1   -1    0    0    0  501 -0.00000000000E+00 -0.00000000000E+00 -0.39266221671E+02  0.39266221671E+02  0.00000000000E+00 0.  1.
         25    2    1    2    0    0  0.40062803677E+02 -0.60901830760E+02  0.24243827546E+03  0.28236101072E+03  0.12504943718E+03 0.  0.
          5    1    3    3  502    0  0.61038452058E+02 -0.12415574627E+02  0.42507631275E+02  0.75526222199E+02  0.41800000000E+01 0. -1.
         -5    1    3    3    0  502 -0.20975648381E+02 -0.48486256133E+02  0.19993064419E+03  0.20683478852E+03  0.41800000000E+01 0. -1.
        -11    1    1    2    0    0 -0.60043478006E+02  0.67699636888E+02  0.99718102041E+02  0.13465570898E+03  0.00000000000E+00 0.  1.
         11    1    1    2    0    0  0.19980674329E+02 -0.67978061277E+01  0.58815535185E+02  0.62487636328E+02  0.00000000000E+00 0. -1.
</event>
<event>
 6    1  0.1538147E-010  0.1012797E+03  0.7561462E-02  0.1277628E+00
         -1   -1    0    0    0  501 -0.00000000000E+00  0.00000000000E+00  0.14632615292E+03  0.14632615292E+03  0.00000000000E+00 0.  1.
          1   -1    0    0  501    0  0.00000000000E+00 -0.00000000000E+00 -0.98402330695E+02  0.98402330695E+02  0.00000000000E+00 0. -1.
          5    1    1    2  502    0  0.72680643036E+02 -0.22965326801E+02  0.39251725118E+02  0.85837360350E+02  0.41800000000E+01 0. -1.
         -5    1    1    2    0  502 -0.50008004923E+02 -0.20490380933E+02  0.14014571459E+01  0.54222622117E+02  0.41800000000E+01 0. -1.
        -11    1    1    2    0    0 -0.39202262559E+02  0.38036966140E+02 -0.30874373843E+02  0.62744363437E+02  0.00000000000E+00 0. -1.
         11    1    1    2    0    0  0.16529624446E+02  0.54187415938E+01  0.38145013808E+02  0.41924137716E+02  0.00000000000E+00 0.  1.
</event>
<event>
 7    1  0.1538147E-010  0.1256254E+03  0.7561462E-02  0.1234095E+00
         -2   -1    0    0    0  501 -0.00000000000E+00  0.00000000000E+00  0.18191807602E+02  0.18191807602E+02  0.00000000000E+00 0.  1.
          2   -1    0    0  501    0  0.00000000000E+00 -0.00000000000E+00 -0.10673869718E+04  0.10673869718E+04  0.00000000000E+00 0. -1.
         25    2    1    2    0    0 -0.79549808257E+02 -0.28308492622E+02 -0.65583076592E+03  0.67297839439E+03  0.12512546918E+03 0.  0.
          5    1    3    3  502    0 -0.89371423159E+02  0.22689401306E+02 -0.31697814311E+03  0.33014341704E+03  0.41800000000E+01 0.  1.
         -5    1    3    3    0  502  0.98216149025E+01 -0.50997893928E+02 -0.33885262282E+03  0.34283497735E+03  0.41800000000E+01 0.  1.
        -11    1    1    2    0    0  0.90777360820E+02  0.20201806288E+02 -0.38573957136E+03  0.39679170748E+03  0.00000000000E+00 0. -1.
         11    1    1    2    0    0 -0.11227552563E+02  0.81066863342E+01 -0.76248269301E+01  0.15808677541E+02  0.00000000000E+00 0.  1.
</event>
<event>
 7    1  0.2072241E-010  0.1234798E+03  0.7561462E-02  0.1237464E+00
          3   -1    0    0  501    0  0.00000000000E+00  0.00000000000E+00  0.74471508263E+02  0.74471508263E+02  0.00000000000E+00 0. -1.
         -3   -1    0    0    0  501 -0.00000000000E+00 -0.00000000000E+00 -0.27630084196E+03  0.27630084196E+03  0.00000000000E+00 0.  1.
         25    2    1    2    0    0 -0.81291749045E+02  0.17021721809E+02 -0.16626060325E+03  0.22404706105E+03  0.12512557652E+03 0.  0.
          5    1    3    3  502    0 -0.93638334222E+02  0.40568910345E+02 -0.69313692839E+02  0.12343352275E+03  0.41800000000E+01 0.  1.
         -5    1    3    3    0  502  0.12346585177E+02 -0.23547188536E+02 -0.96946910408E+02  0.10061353831E+03  0.41800000000E+01 0.  1.
        -11    1    1    2    0    0  0.46156291587E+02 -0.51172410014E+02 -0.35949093433E+02  0.77726161094E+02  0.00000000000E+00 0.  1.
         11    1    1    2    0    0  0.35135457458E+02  0.34150688206E+02  0.38036298653E+00  0.48999128071E+02  0.00000000000E+00 0. -1.
</event>
<event>
 7    1  0.1538147E-010  0.1750145E+03  0.7561462E-02  0.1172717E+00
         -2   -1    0    0    0  501 -0.00000000000E+00  0.00000000000E+00  0.21387838810E+03  0.21387838810E+03  0.00000000000E+00 0. -1.
          2   -1    0    0  501    0  0.00000000000E+00 -0.00000000000E+00 -0.21574050284E+03  0.21574050284E+03  0.00000000000E+00 0.  1.
         25    2    1    2    0    0  0.14072595570E+03  0.59915516683E+02  0.10345041660E+03  0.22305110968E+03  0.12512451833E+03 0.  0.
          5    1    3    3  502    0  0.75676537334E+02  0.95320948996E+02  0.78044903299E+02  0.14464266643E+03  0.41800000000E+01 0. -1.
         -5    1    3    3    0  502  0.65049418364E+02 -0.35405432312E+02  0.25405513305E+02  0.78408443251E+02  0.41800000000E+01 0. -1.
        -11    1    1    2    0    0 -0.73910964291E+02 -0.41494392801E+02 -0.53528659251E+01  0.84930962846E+02  0.00000000000E+00 0. -1.
         11    1    1    2    0    0 -0.66814991407E+02 -0.18421123883E+02 -0.99959665419E+02  0.12163681841E+03  0.00000000000E+00 0.  1.
</event>
<event>
 7    1  0.1538147E-010  0.1504738E+03  0.7561462E-02  0.1199892E+00
          1   -1    0    0  501    0  0.00000000000E+00  0.00000000000E+00  0.14790119984E+04  0.14790119984E+04  0.00000000000E+00 0. -1.
         -1   -1    0    0    0  501 -0.00000000000E+00 -0.00000000000E+00 -0.20677798410E+02  0.20677798410E+02  0.00000000000E+00 0.  1.
         25    2    1    2    0    0 -0.11849753910E+02 -0.13512482287E+03  0.80271459978E+03  0.82365294028E+03  0.12511715676E+03 0.  0.
          5    1    3    3  502    0 -0.18151382755E+02 -0.10991413934E+03  0.29667327384E+03  0.31692758563E+03  0.41800000000E+01 0. -1.
         -5    1    3    3    0  502  0.63016288449E+01 -0.25210683528E+02  0.50604132594E+03  0.50672535465E+03  0.41800000000E+01 0. -1.
        -11    1    1    2    0    0 -0.22792542414E+02  0.12499077643E+03  0.54762397323E+03  0.56216920072E+03  0.00000000000E+00 0. -1.
         11    1    1    2    0    0  0.34642296324E+02  0.10134046438E+02  0.10799562697E+03  0.11386765579E+03  0.00000000000E+00 0.  1.
</event>
<event>
 6    1  0.1538147E-010  0.9853110E+02  0.7561462E-02  0.1283415E+00
         -1   -1    0    0    0  501 -0.00000000000E+00  0.00000000000E+00  0.65257529093E+02  0.65257529093E+02  0.00000000000E+00 0.  1.
          1   -1    0    0  501    0  0.00000000000E+00 -0.00000000000E+00 -0.17654928504E+03  0.17654928504E+03  0.00000000000E+00 0. -1.
          5    1    1    2  502    0  0.53390845828E+02  0.26144849451E+02 -0.48990706597E+02  0.77147244306E+02  0.41800000000E+01 0.  1.
         -5    1    1    2    0  502 -0.51151187735E+02 -0.36052560514E+02 -0.19956321030E+02  0.65817613717E+02  0.41800000000E+01 0.  1.
        -11    1    1    2    0    0  0.10666073795E+02  0.40321769439E+02  0.40287503573E+01  0.41902757073E+02  0.00000000000E+00 0.  1.
         11    1    1    2    0    0 -0.12905731888E+02 -0.30414058376E+02 -0.46373478673E+02  0.56939199035E+02  0.00000000000E+00 0. -1.
</event>
<event>
 7    1  0.1538147E-010  0.1150796E+03  0.7561462E-02  0.1251442E+00
          1   -1    0    0  501    0  0.00000000000E+00  0.00000000000E+00  0.19234697224E+03  0.19234697224E+03  0.00000000000E+00 0. -1.
         -1   -1    0    0    0  501 -0.00000000000E+00 -0.00000000000E+00 -0.79938708352E+02  0.79938708352E+02  0.00000000000E+00 0.  1.
         25    2    1    2    0    0 -0.26814851048E+02  0.39095893595E+02  0.21645519356E+02  0.13548872635E+03  0.12506454864E+03 0.  0.
          5    1    3    3  502    0 -0.68449295210E+02 -0.97259000360E+01  0.14789384107E+02  0.70824412659E+02  0.41800000000E+01 0. -1.
         -5    1    3    3    0  502  0.41634444162E+02  0.48821793631E+02  0.68561352494E+01  0.64664313687E+02  0.41800000000E+01 0. -1.
        -11    1    1    2    0    0  0.55533767862E+02 -0.11386644831E+02  0.30099919154E+02  0.64184579040E+02  0.00000000000E+00 0.  1.
         11    1    1    2    0    0 -0.28718916814E+02 -0.27709248764E+02  0.60662825375E+02  0.72612375203E+02  0.00000000000E+00 0. -1.
</event>
<event>
 6    1  0.1538147E-010  0.1027014E+03  0.7561462E-02  0.1274716E+00
          1   -1    0    0  501    0  0.00000000000E+00  0.00000000000E+00  0.24204609086E+03  0.24204609086E+03  0.00000000000E+00 0. -1.
         -1   -1    0    0    0  501 -0.00000000000E+00 -0.00000000000E+00 -0.93176153418E+02  0.93176153418E+02  0.00000000000E+00 0.  1.
          5    1    1    2  502    0  0.59581529484E-01 -0.75861517106E+02 -0.49777762479E+02  0.90831004426E+02  0.41800000000E+01 0.  1.
         -5    1    1    2    0  502 -0.48668959907E+01 -0.44084801962E+01  0.57484742290E+02  0.58009390363E+02  0.41800000000E+01 0.  1.
        -11    1    1    2    0    0 -0.33573944079E+02  0.10228156975E+01  0.36408547918E+02  0.49536231533E+02  0.00000000000E+00 0.  1.
         11    1    1    2    0    0  0.38381258540E+02  0.79247181605E+02  0.10475440972E+03  0.13684561796E+03  0.00000000000E+00 0. -1.
</event>
<event>
 7    1  0.1538147E-010  0.8690284E+02  0.7561462E-02  0.1310530E+00
          2   -1    0    0  501    0  0.00000000000E+00  0.00000000000E+00  0.24400391420E+03  0.24400391420E+03  0.00000000000E+00 0. -1.
         -2   -1    0    0    0  501 -0.00000000000E+00 -0.00000000000E+00 -0.53026360464E+02  0.53026360464E+02  0.00000000000E+00 0.  1.
         25    2    1    2    0    0  0.17052056202E+01 -0.16201215000E+02  0.68330728226E+02  0.14348201968E+03  0.12511040907E+03 0.  0.
          5    1    3    3  502    0  0.32433423953E+02 -0.58826289869E+02  0.59900193328E+02  0.90099749888E+02  0.41800000000E+01 0. -1.
         -5    1    3    3    0  502 -0.30728218333E+02  0.42625074869E+02  0.84305348976E+01  0.53382269792E+02  0.41800000000E+01 0. -1.
        -11    1    1    2    0    0  0.21814345117E+02 -0.47101586534E+01  0.11989761029E+03  0.12195691125E+03  0.00000000000E+00 0. -1.
         11    1    1    2    0    0 -0.23519550738E+02  0.20911373653E+02  0.27492152213E+01  0.31591343740E+02  0.00000000000E+00 0.  1.
</event>
<event>
 7    1  0.1538147E-010  0.1323650E+03  0.7561462E-02  0.1223988E+00
          1   -1    0    0  501    0  0.00000000000E+00  0.00000000000E+00  0.64631477674E+02  0.64631477674E+02  0.00000000000E+00 0. -1.
         -1   -1    0    0    0  501 -0.00000000000E+00 -0.00000000000E+00 -0.28728362935E+03  0.28728362935E+03  0.00000000000E+00 0.  1.
         25    2    1    2    0    0 -0.33938147784E+02 -0.69970168985E+02 -0.88088899636E+02  0.17164117890E+03  0.12511361890E+03 0.  0.
          5    1    3    3  502    0 -0.78188871046E+02 -0.21284921930E+02 -0.53534891468E+02  0.97211133423E+02  0.41800000000E+01 0.  1.
         -5    1    3    3    0  502  0.44250723261E+02 -0.48685247055E+02 -0.34554008168E+02  0.74430045482E+02  0.41800000000E+01 0.  1.
        -11    1    1    2    0    0 -0.17231935465E+02  0.63844997714E+02 -0.57877419106E+02  0.87880139823E+02  0.00000000000E+00 0.  1.
         11    1    1    2    0    0  0.51170083249E+02  0.61251712707E+01 -0.76685832932E+02  0.92393788294E+02  0.00000000000E+00 0. -1.
</event>
<event>
 7    1  0.1538147E-010  0.1078340E+03  0.7561462E-02  0.1264634E+00
         -2   -1    0    0    0  501 -0.00000000000E+00  0.00000000000E+00  0.17418346302E+03  0.17418346302E+03  0.00000000000E+00 0.  1.
          2   -1    0    0  501    0  0.00000000000E+00 -0.00000000000E+00 -0.11345878153E+03  0.11345878153E+03  0.00000000000E+00 0. -1.
         25    2    1    2    0    0  0.60795599285E+02 -0.62821820744E+02  0.59043047121E+02  0.16368024185E+03  0.12514972675E+03 0.  0.
          5    1    3    3  502    0  0.37991317484E+02 -0.19537816679E+02 -0.36443374777E+02  0.56308600141E+02  0.41800000000E+01 0.  1.
         -5    1    3    3    0  502  0.22804281801E+02 -0.43284004064E+02  0.95486421898E+02  0.10737164171E+03  0.41800000000E+01 0.  1.
        -11    1    1    2    0    0 -0.18418917111E+02  0.76831718994E+02 -0.31316680549E+01  0.79070708204E+02  0.00000000000E+00 0.  1.
         11    1    1    2    0    0 -0.42376682174E+02 -0.14009898250E+02  0.48133024217E+01  0.44891294493E+02  0.00000000000E+00 0. -1.
</event>
<event>
 7    1  0.1538147E-010  0.8856679E+02  0.7561462E-02  0.1306360E+00
          2   -1    0    0  501    0  0.00000000000E+00  0.00000000000E+00  0.11420058666E+03  0.11420058666E+03  0.00000000000E+00 0. -1.
         -2   -1    0    0    0  501 -0.00000000000E+00 -0.00000000000E+00 -0.12757441477E+03  0.12757441477E+03  0.00000000000E+00 0.  1.
         25    2    1    2    0    0  0.48446343843E+02 -0.21437148509E+00 -0.20439140449E+02  0.13571390622E+03  0.12511359515E+03 0.  0.
          5    1    3    3  502    0  0.19772196505E+02  0.40420723575E+02 -0.57800567182E+02  0.73369970802E+02  0.41800000000E+01 0.  1.
         -5    1    3    3    0  502  0.28674147337E+02 -0.40635095060E+02  0.37361426732E+02  0.62343935419E+02  0.41800000000E+01 0.  1.
        -11    1    1    2    0    0 -0.56645376792E+02 -0.20116769421E+02 -0.26723348957E+02  0.65783892431E+02  0.00000000000E+00 0.  1.
         11    1    1    2    0    0  0.81990329491E+01  0.20331140906E+02  0.33788661291E+02  0.40277202779E+02  0.00000000000E+00 0. -1.
</event>
<event>
 7    1  0.1538147E-010  0.4543300E+03  0.7561462E-02  0.1026439E+00
         -1   -1    0    0    0  501 -0.00000000000E+00  0.00000000000E+00  0.29656270996E+03  0.29656270996E+03  0.00000000000E+00 0.  1.
          1   -1    0    0  501    0  0.00000000000E+00 -0.00000000000E+00 -0.71442901154E+03  0.71442901154E+03  0.00000000000E+00 0. -1.
         25    2    1    2    0    0  0.86000459801E+02  0.43470022548E+03 -0.27964983795E+03  0.53872262954E+03  0.12513063016E+03 0.  0.
          5    1    3    3  502    0 -0.29985162202E+02  0.71849007237E+02 -0.31619794130E+02  0.84134853504E+02  0.41800000000E+01 0.  1.
         -5    1    3    3    0  502  0.11598562200E+03  0.36285121824E+03 -0.24803004382E+03  0.45458777604E+03  0.41800000000E+01 0.  1.
        -11    1    1    2    0    0 -0.24518118336E+02 -0.30725497407E+03 -0.74628077861E+02  0.31713736334E+03  0.00000000000E+00 0.  1.
         11    1    1    2    0    0 -0.61482341465E+02 -0.12744525141E+03 -0.63588385771E+02  0.15513172862E+03  0.00000000000E+00 0. -1.
</event>
<event>
 7    1  0.1538147E-010  0.1760816E+03  0.7561462E-02  0.1171650E+00
         -4   -1    0    0    0  501 -0.00000000000E+00  0.00000000000E+00  0.24070583254E+03  0.24070583254E+03  0.00000000000E+00 0.  1.
          4   -1    0    0  501    0  0.00000000000E+00 -0.00000000000E+00 -0.14101899173E+03  0.14101899173E+03  0.00000000000E+00 0. -1.
         25    2    1    2    0    0  0.81906834425E+02 -0.11904325717E+03  0.17609385750E+02  0.19189392501E+03  0.12503264129E+03 0.  0.
          5    1    3    3  502    0  0.98121942661E+02 -0.34879567852E+02  0.19646621086E+02  0.10605640954E+03  0.41800000000E+01 0.  1.
         -5    1    3    3    0  502 -0.16215108236E+02 -0.84163689314E+02 -0.20372353361E+01  0.85837515469E+02  0.41800000000E+01 0.  1.
        -11    1    1    2    0    0 -0.88202339223E+02  0.69785976583E+02  0.26987801533E+02  0.11566363561E+03  0.00000000000E+00 0. -1.
         11    1    1    2    0    0  0.62955047983E+01  0.49257280584E+02  0.55089653519E+02  0.74167263641E+02  0.00000000000E+00 0.  1.
</event>
<event>
 7    1  0.1538147E-010  0.9672345E+02  0.7561462E-02  0.1287341E+00
         -1   -1    0    0    0  501 -0.00000000000E+00  0.00000000000E+00  0.29456391091E+02  0.29456391091E+02  0.00000000000E+00 0.  1.
          1   -1    0    0  501    0  0.00000000000E+00 -0.00000000000E+00 -0.71084189699E+03  0.71084189699E+03  0.00000000000E+00 0. -1.
         25    2    1    2    0    0  0.75373712361E+02 -0.28289371642E+02 -0.50159406176E+03  0.52319353663E+03  0.12511350412E+03 0.  0.
          5    1    3    3  502    0 -0.13095692805E+02 -0.56231147935E+01 -0.31556010395E+03  0.31590943036E+03  0.41800000000E+01 0.  1.
         -5    1    3    3    0  502  0.88469405166E+02 -0.22666256849E+02 -0.18603395782E+03  0.20728410627E+03  0.41800000000E+01 0.  1.
        -11    1    1    2    0    0 -0.28182925584E+02 -0.60310308484E+01 -0.78909815741E+00  0.28831810618E+02  0.00000000000E+00 0.  1.
         11    1    1    2    0    0 -0.47190786777E+02  0.34320402491E+02 -0.17900234598E+03  0.18827294083E+03  0.00000000000E+00 0. -1.
</event>
<event>
 6    1  0.1538147E-010  0.1809975E+03  0.7561462E-02  0.1166841E+00
          2   -1    0    0  501    0  0.00000000000E+00  0.00000000000E+00  0.55295853349E+03  0.55295853349E+03  0.00000000000E+00 0. -1.
         -2   -1    0    0    0  501 -0.00000000000E+00 -0.00000000000E+00 -0.95971499355E+02  0.95971499355E+02  0.00000000000E+00 0.  1.
          5    1    1    2  502    0 -0.62630683447E+02 -0.87189517738E+02  0.25110102881E+03  0.27311868040E+03  0.41800000000E+01 0. -1.
         -5    1    1    2    0  502 -0.82578077848E+02  0.35925292347E+02  0.17384525957E+03  0.19583005961E+03  0.41800000000E+01 0. -1.
        -11    1    1    2    0    0  0.39413884614E+02  0.42942352214E+02 -0.20211801916E+02  0.61692923830E+02  0.00000000000E+00 0.  1.
         11    1    1    2    0    0  0.10579487668E+03  0.83218731773E+01  0.52252547671E+02  0.11828836901E+03  0.00000000000E+00 0. -1.
</event>
<event>
 7    1  0.1538147E-010  0.1241553E+03  0.7561462E-02  0.1236395E+00
          1   -1    0    0  501    0  0.00000000000E+00  0.00000000000E+00  0.45369615419E+03  0.45369615419E+03  0.00000000000E+00 0. -1.
         -1   -1    0    0    0  501 -0.00000000000E+00 -0.00000000000E+00 -0.39104333826E+02  0.39104333826E+02  0.00000000000E+00 0.  1.
         25    2    1    2    0    0  0.57448715548E+02  0.50501181679E+02  0.25112087272E+03  0.29081223134E+03  0.12513727227E+03 0.  0.
          5    1    3    3  502    0  0.84718344932E+02  0.69916566550E+02  0.16442586072E+03  0.19778488395E+03  0.41800000000E+01 0. -1.
         -5    1    3    3    0  502 -0.27269629384E+02 -0.19415384871E+02  0.86695011999E+02  0.93027347387E+02  0.41800000000E+01 0. -1.
        -11    1    1    2    0    0 -0.25809856228E+02 -0.64935509126E+02  0.14851529740E+03  0.16413275903E+03  0.00000000000E+00 0. -1.
         11    1    1    2    0    0 -0.31638859321E+02  0.14434327447E+02  0.14955650240E+02  0.37855497646E+02  0.00000000000E+00 0.  1.
</event>
<event>
 7    1  0.1538147E-010  0.8014855E+02  0.7561462E-02  0.1328630E+00
         -1   -1    0    0    0  501 -0.00000000000E+00  0.00000000000E+00  0.69364403628E+02  0.69364403628E+02  0.00000000000E+00 0.  1.
          1   -1    0    0  501    0  0.00000000000E+00 -0.00000000000E+00 -0.20202842422E+03  0.20202842422E+03  0.00000000000E+00 0. -1.
         25    2    1    2    0    0  0.29535141220E+02  0.99165985450E+01 -0.37238282101E+02  0.13415763638E+03  0.12506365680E+03 0.  0.
          5    1    3    3  502    0  0.50783934572E+02  0.50662510308E+02 -0.48460214736E+02  0.86669272373E+02  0.41800000000E+01 0. -1.
         -5    1    3    3    0  502 -0.21248793352E+02 -0.40745911763E+02  0.11221932635E+02  0.47488364011E+02  0.41800000000E+01 0. -1.
        -11    1    1    2    0    0 -0.27758244552E+01 -0.14833683371E+02  0.16318205883E+02  0.22226722813E+02  0.00000000000E+00 0.  1.
         11    1    1    2    0    0 -0.26759316765E+02  0.49170848265E+01 -0.11174394437E+03  0.11500846865E+03  0.00000000000E+00 0. -1.
</event>
<event>
 7    1  0.1538147E-010  0.1050650E+03  0.7561462E-02  0.1269992E+00
         -1   -1    0    0    0  501 -0.00000000000E+00  0.00000000000E+00  0.33205745510E+02  0.33205745510E+02  0.00000000000E+00 0.  1.
          1   -1    0    0  501    0  0.00000000000E+00 -0.00000000000E+00 -0.42253375308E+03  0.42253375308E+03  0.00000000000E+00 0. -1.
         25    2    1    2    0    0 -0.17109169636E+01  0.28931192374E+01 -0.32548067177E+03  0.34868609650E+03  0.12503211115E+03 0.  0.
          5    1    3    3  502    0 -0.26753816812E+02 -0.55268538281E+02 -0.16607914025E+03  0.17711615190E+03  0.41800000000E+01 0.  1.
         -5    1    3    3    0  502  0.25042899849E+02  0.58161657518E+02 -0.15940153151E+03  0.17156994459E+03  0.41800000000E+01 0.  1.
        -11    1    1    2    0    0 -0.25030379730E+02  0.32337379876E+02 -0.23381888498E+02  0.47105612791E+02  0.00000000000E+00 0.  1.
         11    1    1    2    0    0  0.26741296694E+02 -0.35230499114E+02 -0.40465447299E+02  0.59947789299E+02  0.00000000000E+00 0. -1.
</event>
<event>
 7    1  0.1538147E-010  0.1029122E+03  0.7561462E-02  0.1274289E+00
         -1   -1    0    0    0  501 -0.00000000000E+00  0.00000000000E+00  0.69138598935E+02  0.69138598935E+02  0.00000000000E+00 0.  1.
          1   -1    0    0  501    0  0.00000000000E+00 -0.00000000000E+00 -0.24131035667E+03  0.24131035667E+03  0.00000000000E+00 0. -1.
         25    2    1    2    0    0 -0.38803628035E+02  0.48595455747E+02 -0.12969877306E+03  0.19064681572E+03  0.12512872069E+03 0.  0.
          5    1    3    3  502    0  0.10581393182E+01 -0.23290214559E+02 -0.10059887887E+03  0.10334970045E+03  0.41800000000E+01 0. -1.
         -5    1    3    3    0  502 -0.39861767353E+02  0.71885670306E+02 -0.29099894189E+02  0.87297115265E+02  0.41800000000E+01 0. -1.
        -11    1    1    2    0    0 -0.10773221900E+02 -0.49086544341E+02 -0.48520374316E+02  0.69855406872E+02  0.00000000000E+00 0. -1.
         11    1    1    2    0    0  0.49576849934E+02  0.49108859481E+00  0.60473896438E+01  0.49946733015E+02  0.00000000000E+00 0.  1.
</event>
<event>
 7    1  0.1538147E-010  0.1521606E+03  0.7561462E-02  0.1197843E+00
         -2   -1    0    0    0  501 -0.00000000000E+00  0.00000000000E+00  0.65028299177E+02  0.65028299177E+02  0.00000000000E+00 0.  1.
          2   -1    0    0  501    0  0.00000000000E+00 -0.00000000000E+00 -0.37817616183E+03  0.37817616183E+03  0.00000000000E+00 0. -1.
         25    2    1    2    0    0 -0.68612805179E+02 -0.90614336629E+02 -0.17306771494E+03  0.24189330833E+03  0.12506503758E+03 0.  0.
          5    1    3    3  502    0 -0.98574777509E+02 -0.85907463248E+02 -0.10674928065E+03  0.16884892751E+03  0.41800000000E+01 0.  1.
         -5    1    3    3    0  502  0.29961972329E+02 -0.47068733801E+01 -0.66318434283E+02  0.73044380815E+02  0.41800000000E+01 0.  1.
        -11    1    1    2    0    0  0.58722154193E+02  0.10797045001E+03 -0.10851320201E+03  0.16395433657E+03  0.00000000000E+00 0.  1.
         11    1    1    2    0    0  0.98906509863E+01 -0.17356113383E+02 -0.31566945706E+02  0.37356816111E+02  0.00000000000E+00 0. -1.
</event>
<event>
 7    1  0.1538147E-010  0.1179704E+03  0.7561462E-02  0.1246483E+00
         -1   -1    0    0    0  501 -0.00000000000E+00  0.00000000000E+00  0.97059761158E+02  0.97059761158E+02  0.00000000000E+00 0.  1.
          1   -1    0    0  501    0  0.00000000000E+00 -0.00000000000E+00 -0.23276265077E+03  0.23276265077E+03  0.00000000000E+00 0. -1.
         25    2    1    2    0    0 -0.65982594857E+02  0.62747813200E+02 -0.18899387032E+02  0.15583389306E+03  0.12504409027E+03 0.  0.
          5    1    3    3  502    0 -0.87606775411E+02  0.66086523842E+02  0.19409269663E+02  0.11151936101E+03  0.41800000000E+01 0. -1.
         -5    1    3    3    0  502  0.21624180554E+02 -0.33387106416E+01 -0.38308656695E+02  0.44314532054E+02  0.41800000000E+01 0. -1.
        -11    1    1    2    0    0  0.37345979594E+02 -0.28482424057E+01  0.24121019336E+01  0.37532025157E+02  0.00000000000E+00 0.  1.
         11    1    1    2    0    0  0.28636615263E+02 -0.59899570795E+02 -0.11921560452E+03  0.13645649371E+03  0.00000000000E+00 0. -1.
</event>
<event>
 7    1  0.1538147E-010  0.9352334E+02  0.7561462E-02  0.1294537E+00
         -2   -1    0    0    0  501 -0.00000000000E+00  0.00000000000E+00  0.12751147802E+02  0.12751147802E+02  0.00000000000E+00 0.  1.
          2   -1    0    0  501    0  0.00000000000E+00 -0.00000000000E+00 -0.11065287646E+04  0.11065287646E+04  0.00000000000E+00 0. -1.
         25    2    1    2    0    0  0.14684641598E+02 -0.44921040463E+02 -0.68356870150E+03  0.69651572568E+03  0.12503778577E+03 0.  0.
          5    1    3    3  502    0  0.29182539175E+02 -0.65257362598E+02 -0.20262425826E+03  0.21490511022E+03  0.41800000000E+01 0.  1.
         -5    1    3    3    0  502 -0.14497897576E+02  0.20336322135E+02 -0.48094444324E+03  0.48161061545E+03  0.41800000000E+01 0.  1.
        -11    1    1    2    0    0 -0.96464992580E+01 -0.21468615417E+02 -0.38385566714E+02  0.45026749025E+02  0.00000000000E+00 0.  1.
         11    1    1    2    0    0 -0.50381423401E+01  0.66389655880E+02 -0.37182334854E+03  0.37773743766E+03  0.00000000000E+00 0. -1.
</event>
<event>
 7    1  0.1538147E-010  0.1358855E+03  0.7561462E-02  0.1218975E+00
          3   -1    0    0  501    0  0.00000000000E+00  0.00000000000E+00  0.29409900620E+02  0.29409900620E+02  0.00000000000E+00 0. -1.
         -3   -1    0    0    0  501 -0.00000000000E+00 -0.00000000000E+00 -0.71681838921E+03  0.71681838921E+03  0.00000000000E+00 0.  1.
         25    2    1    2    0    0 -0.80811543147E+02  0.28753894791E+02 -0.26222772511E+03  0.30292316151E+03  0.12506706196E+03 0.  0.
          5    1    3    3  502    0  0.23343087022E+02 -0.23202397172E+02 -0.39528018744E+02  0.51606081154E+02  0.41800000000E+01 0. -1.
         -5    1    3    3    0  502 -0.10415463017E+03  0.51956291963E+02 -0.22269970637E+03  0.25131708035E+03  0.41800000000E+01 0. -1.
        -11    1    1    2    0    0 -0.12242125730E+02 -0.26332695717E+02 -0.15062517741E+03  0.15339890670E+03  0.00000000000E+00 0.  1.
         11    1    1    2    0    0  0.93053668877E+02 -0.24211990736E+01 -0.27455558607E+03  0.28990622163E+03  0.00000000000E+00 0. -1.
</event>
<event>
 7    1  0.1538147E-010  0.1042268E+03  0.7561462E-02  0.1271651E+00
         -1   -1    0    0    0  501 -0.00000000000E+00  0.00000000000E+00  0.67171992698E+02  0.67171992698E+02  0.00000000000E+00 0.  1.
          1   -1    0    0  501    0  0.00000000000E+00 -0.00000000000E+00 -0.24600864277E+03  0.24600864277E+03  0.00000000000E+00 0. -1.
         25    2    1    2    0    0  0.68254375072E+02 -0.13618454613E+02 -0.94806476868E+02  0.17171282265E+03  0.12511156375E+03 0.  0.
          5    1    3    3  502    0  0.79125583087E+02  0.26654501984E+02 -0.19997274204E+02  0.85957453141E+02  0.41800000000E+01 0.  1.
         -5    1    3    3    0  502 -0.10871208015E+02 -0.40272956596E+02 -0.74809202664E+02  0.85755369511E+02  0.41800000000E+01 0.  1.
        -11    1    1    2    0    0 -0.72760237015E+02  0.46670690843E+01 -0.99306657897E+02  0.12319758897E+03  0.00000000000E+00 0. -1.
         11    1    1    2    0    0  0.45058619424E+01  0.89513855282E+01  0.15276484696E+02  0.18270223846E+02  0.00000000000E+00 0.  1.
</event>
<event>
 6    1  0.1538147E-010  0.1883740E+03  0.7561462E-02  0.1159936E+00
         -1   -1    0    0    0  501 -0.00000000000E+00  0.00000000000E+00  0.24900968815E+02  0.24900968815E+02  0.00000000000E+00 0.  1.
          1   -1    0    0  501    0  0.00000000000E+00 -0.00000000000E+00 -0.15146520434E+04  0.15146520434E+04  0.00000000000E+00 0. -1.
          5    1    1    2  502    0 -0.13408607598E+03 -0.38718031120E+02 -0.41709568126E+03  0.43984592920E+03  0.41800000000E+01 0. -1.
         -5    1    1    2    0  502 -0.23075290927E+02  0.54907392736E+02 -0.25021760781E+03  0.25724232639E+03  0.41800000000E+01 0. -1.
        -11    1    1    2    0    0  0.10091692637E+03  0.29293029701E+02 -0.38482466933E+03  0.39891394277E+03  0.00000000000E+00 0.  1.
         11    1    1    2    0    0  0.56244440536E+02 -0.45482391317E+02 -0.43761311617E+03  0.44355081383E+03  0.00000000000E+00 0. -1.
</event>
<event>
 7    1  0.1538147E-010  0.2217077E+03  0.7561462E-02  0.1132616E+00
          2   -1    0    0  501    0  0.00000000000E+00  0.00000000000E+00  0.36545804017E+03  0.36545804017E+03  0.00000000000E+00 0. -1.
         -2   -1    0    0    0  501 -0.00000000000E+00 -0.00000000000E+00 -0.15898269411E+03  0.15898269411E+03  0.00000000000E+00 0.  1.
         25    2    1    2    0    0  0.19339673110E+03 -0.88500137243E+02  0.15454525470E+03  0.29115900394E+03  0.12511898311E+03 0.  0.
          5    1    3    3  502    0  0.74959291327E+01  0.52227124434E+01  0.62822587048E+02  0.63620873322E+02  0.41800000000E+01 0.  1.
         -5    1    3    3    0  502  0.18590080197E+03 -0.93722849687E+02  0.91722667650E+02  0.22753813062E+03  0.41800000000E+01 0.  1.
        -11    1    1    2    0    0 -0.11548278242E+03  0.12268146529E+02  0.10262472575E+02  0.11658515685E+03  0.00000000000E+00 0.  1.
         11    1    1    2    0    0 -0.77913948677E+02  0.76231990714E+02  0.41667618793E+02  0.11669657348E+03  0.00000000000E+00 0. -1.
</event>
<event>
 7    1  0.1538147E-010  0.1111195E+03  0.7561462E-02  0.1258511E+00
          1   -1    0    0  501    0  0.00000000000E+00  0.00000000000E+00  0.47583147902E+03  0.47583147902E+03  0.00000000000E+00 0. -1.
         -1   -1    0    0    0  501 -0.00000000000E+00 -0.00000000000E+00 -0.42176799425E+02  0.42176799425E+02  0.00000000000E+00 0.  1.
         25    2    1    2    0    0  0.29525905404E+01  0.91146949944E+02  0.22731782108E+03  0.27500957502E+03  0.12506154603E+03 0.  0.
          5    1    3    3  502    0 -0.13482642826E+02 -0.16078990981E+02  0.12164132961E+03  0.12350870851E+03  0.41800000000E+01 0.  1.
         -5    1    3    3    0  502  0.16435233367E+02  0.10722594093E+03  0.10567649147E+03  0.15150086651E+03  0.41800000000E+01 0.  1.
        -11    1    1    2    0    0  0.57459496043E+01 -0.36096500300E+02  0.17557534806E+03  0.17933955536E+03  0.00000000000E+00 0. -1.
         11    1    1    2    0    0 -0.86985401446E+01 -0.55050449644E+02  0.30761510451E+02  0.63659148061E+02  0.00000000000E+00 0.  1.
</event>
<event>
 7    1  0.1538147E-010  0.9334941E+02  0.7561462E-02  0.1294937E+00
          1   -1    0    0  501    0  0.00000000000E+00  0.00000000000E+00  0.21869271385E+03  0.21869271385E+03  0.00000000000E+00 0. -1.
         -1   -1    0    0    0  501 -0.00000000000E+00 -0.00000000000E+00 -0.85610360947E+02  0.85610360947E+02  0.00000000000E+00 0.  1.
         25    2    1    2    0    0 -0.12897023637E+00 -0.36183779612E+02 -0.10792572060E+02  0.13068756963E+03  0.12511386296E+03 0.  0.
          5    1    3    3  502    0 -0.17548147438E+02  0.33666671570E+02  0.29338167732E+02  0.48162046665E+02  0.41800000000E+01 0.  1.
         -5    1    3    3    0  502  0.17419177202E+02 -0.69850451182E+02 -0.40130739792E+02  0.82525522967E+02  0.41800000000E+01 0.  1.
        -11    1    1    2    0    0 -0.24651547837E+02 -0.78448910983E+01  0.10948228602E+03  0.11249716476E+03  0.00000000000E+00 0. -1.
         11    1    1    2    0    0  0.24780518073E+02  0.44028670710E+02  0.34392638948E+02  0.61118340409E+02  0.00000000000E+00 0.  1.
</event>
<event>
 7    1  0.1538147E-010  0.1089938E+03  0.7561462E-02  0.1262445E+00
         -1   -1    0    0    0  501 -0.00000000000E+00  0.00000000000E+00  0.61193368442E+02  0.61193368442E+02  0.00000000000E+00 0.  1.
          1   -1    0    0  501    0  0.00000000000E+00 -0.00000000000E+00 -0.34837340634E+03  0.34837340634E+03  0.00000000000E+00 0. -1.
         25    2    1    2    0    0  0.84966275882E+02 -0.75086682115E+01 -0.90482539141E+02  0.17636035855E+03  0.12506093732E+03 0.  0.
          5    1    3    3  502    0  0.29313627375E+02 -0.52918403981E+02  0.15187583218E+00  0.60639440103E+02  0.41800000000E+01 0. -1.
         -5    1    3    3    0  502  0.55652648507E+02  0.45409735770E+02 -0.90634414973E+02  0.11572091845E+03  0.41800000000E+01 0. -1.
        -11    1    1    2    0    0 -0.50241347357E+02  0.23853926952E+01 -0.21795837361E+02  0.54817347700E+02  0.00000000000E+00 0.  1.
         11    1    1    2    0    0 -0.34724928525E+02  0.51232755163E+01 -0.17490166139E+03  0.17838906853E+03  0.00000000000E+00 0. -1.
</event>
<event>
 7    1  0.1538147E-010  0.1230968E+03  0.7561462E-02  0.1238074E+00
          2   -1    0    0  501    0  0.00000000000E+00  0.00000000000E+00  0.39204361479E+03  0.39204361479E+03  0.00000000000E+00 0. -1.
         -2   -1    0    0    0  501 -0.00000000000E+00 -0.00000000000E+00 -0.64705891380E+02  0.64705891380E+02  0.00000000000E+00 0.  1.
         25    2    1    2    0    0 -0.93686374965E+02  0.45970101923E+02  0.25018522439E+03  0.29852966515E+03  0.12504770029E+03 0.  0.
          5    1    3    3  502    0 -0.35293062801E+02  0.32928113253E+02  0.80957140048E+01  0.49121012912E+02  0.41800000000E+01 0. -1.
         -5    1    3    3    0  502 -0.58393312164E+02  0.13041988671E+02  0.24208951039E+03  0.24940865224E+03  0.41800000000E+01 0. -1.
        -11    1    1    2    0    0  0.26533234458E+02 -0.63109638908E+02  0.32573031074E+02  0.75814519766E+02  0.00000000000E+00 0.  1.
         11    1    1    2    0    0  0.67153140507E+02  0.17139536985E+02  0.44579467945E+02  0.82405321249E+02  0.00000000000E+00 0. -1.
</event>
<event>
 6    1  0.1538147E-010  0.2515883E+03  0.7561462E-02  0.1112305E+00
          1   -1    0    0  501    0  0.00000000000E+00  0.00000000000E+00  0.49743506810E+03  0.49743506810E+03  0.00000000000E+00 0. -1.
         -1   -1    0    0    0  501 -0.00000000000E+00 -0.00000000000E+00 -0.14442372196E+03  0.14442372196E+03  0.00000000000E+00 0.  1.
          5    1    1    2  502    0 -0.30582973624E+02 -0.81360144791E+00  0.78830261737E+02  0.84662050462E+02  0.41800000000E+01 0.  1.
         -5    1    1    2    0  502 -0.18020829563E+03  0.12420671944E+03  0.84438470960E+02  0.23462665395E+03  0.41800000000E+01 0.  1.
        -11    1    1    2    0    0  0.11725932232E+02  0.86010923670E+01 -0.39327217880E+01  0.15064613413E+02  0.00000000000E+00 0.  1.
         11    1    1    2    0    0  0.19906533702E+03 -0.13199421036E+03  0.19367533524E+03  0.30750547223E+03  0.00000000000E+00 0. -1.
</event>
<event>
 7    1  0.1538147E-010  0.8730678E+02  0.7561462E-02  0.1309508E+00
         -2   -1    0    0    0  501 -0.00000000000E+00  0.00000000000E+00  0.13753854845E+02  0.13753854845E+02  0.00000000000E+00 0.  1.
          2   -1    0    0  501    0  0.00000000000E+00 -0.00000000000E+00 -0.12415816920E+04  0.12415816920E+04  0.00000000000E+00 0. -1.
         25    2    1    2    0    0 -0.60262646997E+02 -0.11293777114E+01 -0.10213603636E+04  0.10307594160E+04  0.12512041890E+03 0.  0.
          5    1    3    3  502    0 -0.46784619410E+02 -0.35558234916E+02 -0.19848819837E+03  0.20704643435E+03  0.41800000000E+01 0. -1.
         -5    1    3    3    0  502 -0.13478027587E+02  0.34428857205E+02 -0.82287216523E+03  0.82371298166E+03  0.41800000000E+01 0. -1.
        -11    1    1    2    0    0  0.55533541696E+01 -0.19307959126E+02 -0.10990506313E+03  0.11172627234E+03  0.00000000000E+00 0. -1.
         11    1    1    2    0    0  0.54709292827E+02  0.20437336837E+02 -0.96562410431E+02  0.11284985851E+03  0.00000000000E+00 0.  1.
</event>
<event>
 7    1  0.1538147E-010  0.1430092E+03  0.7561462E-02  0.1209336E+00
          2   -1    0    0  501    0  0.00000000000E+00  0.00000000000E+00  0.17166357642E+03  0.17166357642E+03  0.00000000000E+00 0. -1.
         -2   -1    0    0    0  501 -0.00000000000E+00 -0.00000000000E+00 -0.16323085528E+03  0.16323085528E+03  0.00000000000E+00 0.  1.
         25    2    1    2    0    0 -0.10428682891E+03  0.55564827947E+02 -0.41277407288E+02  0.17694341615E+03  0.12506780313E+03 0.  0.
          5    1    3    3  502    0  0.22771096141E+02 -0.70497062655E+01 -0.24171425910E+02  0.34204552452E+02  0.41800000000E+01 0.  1.
         -5    1    3    3    0  502 -0.12705792505E+03  0.62614534212E+02 -0.17105981378E+02  0.14273886370E+03  0.41800000000E+01 0.  1.
        -11    1    1    2    0    0  0.23651571135E+02 -0.23467248868E+02 -0.26405624190E+02  0.42513122391E+02  0.00000000000E+00 0.  1.
         11    1    1    2    0    0  0.80635257772E+02 -0.32097579078E+02  0.76115752617E+02  0.11543789315E+03  0.00000000000E+00 0. -1.
</event>
<event>
 7    1  0.1538147E-010  0.8898025E+02  0.7561462E-02  0.1305340E+00
         -1   -1    0    0    0  501 -0.00000000000E+00  0.00000000000E+00  0.11339420124E+03  0.11339420124E+03  0.00000000000E+00 0.  1.
          1   -1    0    0  501    0  0.00000000000E+00 -0.00000000000E+00 -0.14209625833E+03  0.14209625833E+03  0.00000000000E+00 0. -1.
         25    2    1    2    0    0  0.34466176817E+02 -0.37800343369E+02 -0.57017678212E+02  0.14670415491E+03  0.12511718562E+03 0.  0.
          5    1    3    3  502    0  0.13318727577E+02 -0.74498743710E+02 -0.68989366597E+02  0.10249125047E+03  0.41800000000E+01 0.  1.
         -5    1    3    3    0  502  0.21147449240E+02  0.36698400341E+02  0.11971688384E+02  0.44212904448E+02  0.41800000000E+01 0.  1.
        -11    1    1    2    0    0 -0.99506133852E+01  0.33201810239E+02  0.59496409048E+02  0.68856354823E+02  0.00000000000E+00 0.  1.
         11    1    1    2    0    0 -0.24515563432E+02  0.45985331301E+01 -0.31180787929E+02  0.39929949827E+02  0.00000000000E+00 0. -1.
</event>
<event>
 7    1  0.1538147E-010  0.2038626E+03  0.7561462E-02  0.1146520E+00
          2   -1    0    0  501    0  0.00000000000E+00  0.00000000000E+00  0.59187096021E+03  0.59187096021E+03  0.00000000000E+00 0.  1.
         -2   -1    0    0    0  501 -0.00000000000E+00 -0.00000000000E+00 -0.87060887638E+02  0.87060887638E+02  0.00000000000E+00 0. -1.
         25    2    1    2    0    0  0.15681198331E+03 -0.10685215948E+03  0.35436305776E+03  0.42099103306E+03  0.12511151474E+03 0.  0.
          5    1    3    3  502    0  0.11794630901E+01 -0.53006051899E+02  0.14591541337E+03  0.15530554700E+03  0.41800000000E+01 0. -1.
         -5    1    3    3    0  502  0.15563252022E+03 -0.53846107577E+02  0.20844764439E+03  0.26568548606E+03  0.41800000000E+01 0. -1.
        -11    1    1    2    0    0 -0.68618705570E+02  0.49328878013E+02  0.12281314863E+03  0.14908029527E+03  0.00000000000E+00 0.  1.
         11    1    1    2    0    0 -0.88193277744E+02  0.57523281463E+02  0.27633866184E+02  0.10886051952E+03  0.00000000000E+00 0. -1.
</event>
<event>
 6    1  0.1538147E-010  0.1033592E+03  0.7561462E-02  0.1273387E+00
         -2   -1    0    0    0  501 -0.00000000000E+00  0.00000000000E+00  0.49543326577E+02  0.49543326577E+02  0.00000000000E+00 0.  1.
          2   -1    0    0  501    0  0.00000000000E+00 -0.00000000000E+00 -0.37516249263E+03  0.37516249263E+03  0.00000000000E+00 0. -1.
          5    1    1    2  502    0  0.41262851799E+01 -0.34883337909E+02 -0.81561122642E+01  0.36302452539E+02  0.41800000000E+01 0. -1.
         -5    1    1    2    0  502  0.60808654786E+02  0.24175249573E+02 -0.24666355703E+03  0.25523032335E+03  0.41800000000E+01 0. -1.
        -11    1    1    2    0    0  0.18737083266E+02 -0.74311684756E+01  0.26987186692E+01  0.20336755806E+02  0.00000000000E+00 0.  1.
         11    1    1    2    0    0 -0.83672023232E+02  0.18139256811E+02 -0.73498215428E+02  0.11283628752E+03  0.00000000000E+00 0. -1.
</event>
<event>
 7    1  0.1538147E-010  0.1035988E+03  0.7561462E-02  0.1272905E+00
          1   -1    0    0  501    0  0.00000000000E+00  0.00000000000E+00  0.52957454299E+03  0.52957454299E+03  0.00000000000E+00 0. -1.
         -1   -1    0    0    0  501 -0.00000000000E+00 -0.00000000000E+00 -0.25370730977E+02  0.25370730977E+02  0.00000000000E+00 0.  1.
         25    2    1    2    0    0  0.73488408709E+01  0.31951898695E+02  0.34840936437E+03  0.37162144598E+03  0.12505392693E+03 0.  0.
          5    1    3    3  502    0 -0.51187554592E+02  0.38327641934E+02  0.12402952854E+03  0.13960648349E+03  0.41800000000E+01 0.  1.
         -5    1    3    3    0  502  0.58536395463E+02 -0.63757432395E+01  0.22437983582E+03  0.23201496249E+03  0.41800000000E+01 0.  1.
        -11    1    1    2    0    0 -0.17647029176E+02  0.22540493547E+02  0.10245300035E+03  0.10637720041E+03  0.00000000000E+00 0. -1.
         11    1    1    2    0    0  0.10298188306E+02 -0.54492392242E+02  0.53341447296E+02  0.76946627569E+02  0.00000000000E+00 0.  1.
</event>
<event>
 6    1  0.1538147E-010  0.1321904E+03  0.7561462E-02  0.1224241E+00
          1   -1    0    0  501    0  0.00000000000E+00  0.00000000000E+00  0.77939816975E+03  0.77939816975E+03  0.00000000000E+00 0. -1.
         -1   -1    0    0    0  501 -0.00000000000E+00 -0.00000000000E+00 -0.23139156001E+02  0.23139156001E+02  0.00000000000E+00 0.  1.
          5    1    1    2  502    0 -0.62131522995E+02  0.16506993320E+01  0.21249684319E+03  0.22143945385E+03  0.41800000000E+01 0.  1.
         -5    1    1    2    0  502  0.46150651966E+02  0.65963247486E+02  0.25326786144E+03  0.26578772495E+03  0.41800000000E+01 0.  1.
        -11    1    1    2    0    0  0.41659368767E+02 -0.82046609897E+02  0.20024151749E+03  0.22037199126E+03  0.00000000000E+00 0.  1.
         11    1    1    2    0    0 -0.25678497738E+02  0.14432663079E+02  0.90252791630E+02  0.94938155694E+02  0.00000000000E+00 0. -1.
</event>
<event>
 7    1  0.1538147E-010  0.1744434E+03  0.7561462E-02  0.1173292E+00
          2   -1    0    0  501    0  0.00000000000E+00  0.00000000000E+00  0.12445240457E+03  0.12445240457E+03  0.00000000000E+00 0. -1.
         -2   -1    0    0    0  501 -0.00000000000E+00 -0.00000000000E+00 -0.27554911660E+03  0.27554911660E+03  0.00000000000E+00 0.  1.
         25    2    1    2    0    0  0.14511437727E+03  0.28265354905E+02 -0.42055187854E+02  0.19819285571E+03  0.12511856956E+03 0.  0.
          5    1    3    3  502    0 -0.22924956093E+02  0.48330381218E+01 -0.25177663397E+01  0.23931640493E+02  0.41800000000E+01 0. -1.
         -5    1    3    3    0  502  0.16803933336E+03  0.23432316783E+02 -0.39537421515E+02  0.17426121521E+03  0.41800000000E+01 0. -1.
        -11    1    1    2    0    0 -0.12037280194E+02 -0.18323085052E+02  0.89487100662E+01  0.23679336396E+02  0.00000000000E+00 0. -1.
         11    1    1    2    0    0 -0.13307709708E+03 -0.99422698528E+01 -0.11799023424E+03  0.17812932907E+03  0.00000000000E+00 0.  1.
</event>
<event>
 7    1  0.1538147E-010  0.1722366E+03  0.7561462E-02  0.1175535E+00
         -2   -1    0    0    0  501 -0.00000000000E+00  0.00000000000E+00  0.14709372305E+03  0.14709372305E+03  0.00000000000E+00 0.  1.
          2   -1    0    0  501    0  0.00000000000E+00 -0.00000000000E+00 -0.22630524492E+03  0.22630524492E+03  0.00000000000E+00 0. -1.
         25    2    1    2    0    0 -0.14223126605E+03  0.33659802418E+02 -0.48611880868E+02  0.19840991521E+03  0.12506264091E+03 0.  0.
          5    1    3    3  502    0 -0.47769458128E+02  0.71436622545E+02 -0.10909621502E+01  0.86045190272E+02  0.41800000000E+01 0. -1.
         -5    1    3    3    0  502 -0.94461807918E+02 -0.37776820127E+02 -0.47520918718E+02  0.11236472494E+03  0.41800000000E+01 0. -1.
        -11    1    1    2    0    0  0.77382301709E+02  0.10593451241E+02  0.21200943822E+02  0.80930351822E+02  0.00000000000E+00 0.  1.
         11    1    1    2    0    0  0.64848964337E+02 -0.44253253659E+02 -0.51800584818E+02  0.94058700940E+02  0.00000000000E+00 0. -1.
</event>
<event>
 7    1  0.1538147E-010  0.2071097E+03  0.7561462E-02  0.1143875E+00
          2   -1    0    0  501    0  0.00000000000E+00  0.00000000000E+00  0.18460104159E+04  0.18460104159E+04  0.00000000000E+00 0. -1.
         -2   -1    0    0    0  501 -0.00000000000E+00 -0.00000000000E+00 -0.26302154270E+02  0.26302154270E+02  0.00000000000E+00 0.  1.
         25    2    1    2    0    0 -0.16975944111E+03  0.83825538033E+02  0.10840079229E+04  0.11074980912E+04  0.12503542054E+03 0.  0.
          5    1    3    3  502    0 -0.11537509406E+03  0.96343887977E+02  0.53765768837E+03  0.55828918971E+03  0.41800000000E+01 0.  1.
         -5    1    3    3    0  502 -0.54384347046E+02 -0.12518349943E+02  0.54635023450E+03  0.54920890145E+03  0.41800000000E+01 0.  1.
        -11    1    1    2    0    0  0.78496378031E+02 -0.86210037906E+02  0.45147550007E+03  0.46628744264E+03  0.00000000000E+00 0. -1.
         11    1    1    2    0    0  0.91263063075E+02  0.23844998725E+01  0.28422483872E+03  0.29852703641E+03  0.00000000000E+00 0.  1.
</event>
<event>
 6    1  0.1538147E-010  0.1107752E+03  0.7561462E-02  0.1259141E+00
         -1   -1    0    0    0  501 -0.00000000000E+00  0.00000000000E+00  0.11197458304E+04  0.11197458304E+04  0.00000000000E+00 0.  1.
          1   -1    0    0  501    0  0.00000000000E+00 -0.00000000000E+00 -0.21167469992E+02  0.21167469992E+02  0.00000000000E+00 0. -1.
          5    1    1    2  502    0  0.15042324035E+01 -0.65526200242E+02  0.54654964075E+03  0.55048154178E+03  0.41800000000E+01 0. -1.
         -5    1    1    2    0  502  0.35319855992E+02  0.53831292014E+02  0.42730475172E+03  0.43214826561E+03  0.41800000000E+01 0.  1.
        -11    1    1    2    0    0 -0.61379987421E+02  0.21323127385E+02  0.60208883303E+02  0.88584921098E+02  0.00000000000E+00 0. -1.
         11    1    1    2    0    0  0.24555899025E+02 -0.96282191577E+01  0.64515084677E+02  0.69698571951E+02  0.00000000000E+00 0.  1.
</event>
<event>
 6    1  0.1538147E-010  0.1126138E+03  0.7561462E-02  0.1255805E+00
         -4   -1    0    0    0  501 -0.00000000000E+00  0.00000000000E+00  0.16280180545E+03  0.16280180545E+03  0.00000000000E+00 0.  1.
          4   -1    0    0  501    0  0.00000000000E+00 -0.00000000000E+00 -0.10209181866E+03  0.10209181866E+03  0.00000000000E+00 0. -1.
          5    1    1    2  502    0  0.19118681189E+02  0.31650628949E+02 -0.25801325737E+01  0.37301685852E+02  0.41800000000E+01 0.  1.
         -5    1    1    2    0  502 -0.69135139612E+02 -0.76816917262E+02  0.27366273361E+02  0.10699014732E+03  0.41800000000E+01 0.  1.
        -11    1    1    2    0    0  0.21094889609E+02  0.50901383868E+02 -0.18984145149E+02  0.58278152119E+02  0.00000000000E+00 0. -1.
         11    1    1    2    0    0  0.28921568813E+02 -0.57350955556E+01  0.54907991153E+02  0.62323638823E+02  0.00000000000E+00 0.  1.
</event>
<event>
 7    1  0.1538147E-010  0.1032174E+03  0.7561462E-02  0.1273672E+00
         -2   -1    0    0    0  501 -0.00000000000E+00  0.00000000000E+00  0.55147955915E+02  0.55147955915E+02  0.00000000000E+00 0. -1.
          2   -1    0    0  501    0  0.00000000000E+00 -0.00000000000E+00 -0.23961578225E+03  0.23961578225E+03  0.00000000000E+00 0.  1.
         25    2    1    2    0    0  0.30990336640E+02 -0.24628055573E+02 -0.89733347472E+02  0.15892873669E+03  0.12505729731E+03 0.  0.
          5    1    3    3  502    0  0.13122153080E+02 -0.74896458259E+02 -0.40688976439E+02  0.86340810541E+02  0.41800000000E+01 0.  1.
         -5    1    3    3    0  502  0.17868183559E+02  0.50268402685E+02 -0.49044371033E+02  0.72587926147E+02  0.41800000000E+01 0.  1.
        -11    1    1    2    0    0 -0.41695849267E+02 -0.79768992837E+01 -0.92104307651E+02  0.10141685391E+03  0.00000000000E+00 0.  1.
         11    1    1    2    0    0  0.10705512627E+02  0.32604954857E+02 -0.26301712151E+01  0.34418147575E+02  0.00000000000E+00 0. -1.
</event>
<event>
 7    1  0.1538147E-010  0.2319909E+03  0.7561462E-02  0.1125246E+00
          1   -1    0    0  501    0  0.00000000000E+00  0.00000000000E+00  0.99708577341E+02  0.99708577341E+02  0.00000000000E+00 0. -1.
         -1   -1    0    0    0  501 -0.00000000000E+00 -0.00000000000E+00 -0.10341768306E+04  0.10341768306E+04  0.00000000000E+00 0.  1.
         25    2    1    2    0    0  0.20828191002E+03  0.11697809523E+02 -0.86171419759E+03  0.89538954787E+03  0.12511151558E+03 0.  0.
          5    1    3    3  502    0  0.13406402394E+03 -0.51730342735E+02 -0.45882353587E+03  0.48081774129E+03  0.41800000000E+01 0.  1.
         -5    1    3    3    0  502  0.74217886080E+02  0.63428152257E+02 -0.40289066172E+03  0.41457180658E+03  0.41800000000E+01 0.  1.
        -11    1    1    2    0    0 -0.13087745224E+03 -0.44780601300E+02 -0.21624565987E+02  0.14000654132E+03  0.00000000000E+00 0.  1.
         11    1    1    2    0    0 -0.77404457779E+02  0.33082791777E+02 -0.51129489732E+02  0.98489318792E+02  0.00000000000E+00 0. -1.
</event>
<event>
 7    1  0.1538147E-010  0.1121565E+03  0.7561462E-02  0.1256628E+00
         -1   -1    0    0    0  501 -0.00000000000E+00  0.00000000000E+00  0.23569645849E+03  0.23569645849E+03  0.00000000000E+00 0.  1.
          1   -1    0    0  501    0  0.00000000000E+00 -0.00000000000E+00 -0.61936245451E+02  0.61936245451E+02  0.00000000000E+00 0. -1.
         25    2    1    2    0    0 -0.23347705326E+02  0.41813231166E+02  0.13071591157E+03  0.18717997918E+03  0.12512487131E+03 0.  0.
          5    1    3    3  502    0 -0.67535792076E+01 -0.39927294701E+02  0.79217365571E+02  0.89065498945E+02  0.41800000000E+01 0.  1.
         -5    1    3    3    0  502 -0.16594126119E+02  0.81740525867E+02  0.51498546003E+02  0.98114480231E+02  0.41800000000E+01 0.  1.
        -11    1    1    2    0    0  0.43975851807E+02 -0.58760399501E+02  0.39990472113E+02  0.83581684306E+02  0.00000000000E+00 0.  1.
         11    1    1    2    0    0 -0.20628146480E+02  0.16947168335E+02  0.30538293549E+01  0.26871040462E+02  0.00000000000E+00 0. -1.
</event>
<event>
 6    1  0.1538147E-010  0.1095987E+03  0.7561462E-02  0.1261315E+00
          1   -1    0    0  501    0  0.00000000000E+00  0.00000000000E+00  0.36119571410E+02  0.36119571410E+02  0.00000000000E+00 0. -1.
         -1   -1    0    0    0  501 -0.00000000000E+00 -0.00000000000E+00 -0.38996192056E+03  0.38996192056E+03  0.00000000000E+00 0.  1.
          5    1    1    2  502    0 -0.51821777161E+02 -0.21200698261E+02 -0.11602945005E+03  0.12890024000E+03  0.41800000000E+01 0.  1.
         -5    1    1    2    0  502  0.68645298497E+02  0.14109471865E+02 -0.16153651332E+03  0.17613282413E+03  0.41800000000E+01 0.  1.
        -11    1    1    2    0    0 -0.12616672153E+02 -0.41857088775E+02 -0.45379030464E+02  0.63011528333E+02  0.00000000000E+00 0.  1.
         11    1    1    2    0    0 -0.42068491825E+01  0.48948315171E+02 -0.30897355327E+02  0.58036899506E+02  0.00000000000E+00 0. -1.
</event>
<event>
 6    1  0.1538147E-010  0.1243230E+03  0.7561462E-02  0.1236131E+00
          1   -1    0    0  501    0  0.00000000000E+00  0.00000000000E+00  0.12142148653E+04  0.12142148653E+04  0.00000000000E+00 0. -1.
         -1   -1    0    0    0  501 -0.00000000000E+00 -0.00000000000E+00 -0.19088529018E+02  0.19088529018E+02  0.00000000000E+00 0.  1.
          5    1    1    2  502    0  0.17763045860E+02  0.61509881650E+02  0.48190538979E+03  0.48615765802E+03  0.41800000000E+01 0. -1.
         -5    1    1    2    0  502 -0.29856605066E+02  0.40717315089E+02  0.55425617148E+02  0.75091864076E+02  0.41800000000E+01 0. -1.
        -11    1    1    2    0    0 -0.33893938520E+02 -0.19315506953E+02  0.12697492525E+03  0.13283267489E+03  0.00000000000E+00 0. -1.
         11    1    1    2    0    0  0.45987497726E+02 -0.82911689786E+02  0.53082040405E+03  0.53922119729E+03  0.00000000000E+00 0.  1.
</event>
<event>
 6    1  0.1538147E-010  0.8238263E+02  0.7561462E-02  0.1322423E+00
          2   -1    0    0  501    0  0.00000000000E+00  0.00000000000E+00  0.31992948757E+03  0.31992948757E+03  0.00000000000E+00 0. -1.
         -2   -1    0    0    0  501 -0.00000000000E+00 -0.00000000000E+00 -0.56681628400E+02  0.56681628400E+02  0.00000000000E+00 0.  1.
          5    1    1    2  502    0 -0.27237855340E+02  0.30356218415E+01 -0.28425501664E+02  0.39706388760E+02  0.41800000000E+01 0. -1.
         -5    1    1    2    0  502 -0.39934061541E+02 -0.26886362623E+02  0.12391935092E+03  0.13300783322E+03  0.41800000000E+01 0. -1.
        -11    1    1    2    0    0  0.56703145055E+02 -0.60631290253E+01  0.16192396979E+03  0.17167230465E+03  0.00000000000E+00 0. -1.
         11    1    1    2    0    0  0.10468771827E+02  0.29913869806E+02  0.58300401340E+01  0.32224589343E+02  0.00000000000E+00 0.  1.
</event>
<event>
 7    1  0.1538147E-010  0.1521102E+03  0.7561462E-02  0.1197904E+00
          1   -1    0    0  501    0  0.00000000000E+00  0.00000000000E+00  0.33933916765E+03  0.33933916765E+03  0.00000000000E+00 0. -1.
         -1   -1    0    0    0  501 -0.00000000000E+00 -0.00000000000E+00 -0.10222452063E+03  0.10222452063E+03  0.00000000000E+00 0.  1.
         25    2    1    2    0    0 -0.46172968442E+02  0.12624700309E+03  0.20755546136E+03  0.27711257716E+03  0.12506743013E+03 0.  0.
          5    1    3    3  502    0 -0.26580636576E+02 -0.67988619976E+00  0.11663734581E+03  0.11970269556E+03  0.41800000000E+01 0.  1.
         -5    1    3    3    0  502 -0.19592331866E+02  0.12692688929E+03  0.90918115550E+02  0.15740988160E+03  0.41800000000E+01 0.  1.
        -11    1    1    2    0    0 -0.10349875057E+02 -0.63570341905E+02  0.45107270998E+02  0.78631890353E+02  0.00000000000E+00 0. -1.
         11    1    1    2    0    0  0.56522843499E+02 -0.62676661180E+02 -0.15548085343E+02  0.85819220759E+02  0.00000000000E+00 0.  1.
</event>
<event>
 6    1  0.1538147E-010  0.1427511E+03  0.7561462E-02  0.1209674E+00
         -1   -1    0    0    0  501 -0.00000000000E+00  0.00000000000E+00  0.39949170632E+02  0.39949170632E+02  0.00000000000E+00 0.  1.
          1   -1    0    0  501    0  0.00000000000E+00 -0.00000000000E+00 -0.64566574296E+03  0.64566574296E+03  0.00000000000E+00 0. -1.
          5    1    1    2  502    0 -0.88430578452E+02  0.18280354412E+02 -0.26065309305E+03  0.27588339182E+03  0.41800000000E+01 0.  1.
         -5    1    1    2    0  502 -0.15216319763E+02 -0.70561979038E+02 -0.10457973246E+03  0.12714134699E+03  0.41800000000E+01 0.  1.
        -11    1    1    2    0    0  0.52919525913E+02  0.48747707375E+02 -0.55851631200E+02  0.91083587461E+02  0.00000000000E+00 0.  1.
         11    1    1    2    0    0  0.50727372302E+02  0.35339172515E+01 -0.18463211561E+03  0.19150658732E+03  0.00000000000E+00 0. -1.
</event>
<event>
 7    1  0.1538147E-010  0.8324594E+02  0.7561462E-02  0.1320084E+00
          2   -1    0    0  501    0  0.00000000000E+00  0.00000000000E+00  0.24355196423E+03  0.24355196423E+03  0.00000000000E+00 0. -1.
         -2   -1    0    0    0  501 -0.00000000000E+00 -0.00000000000E+00 -0.58904878529E+02  0.58904878529E+02  0.00000000000E+00 0.  1.
         25    2    1    2    0    0  0.16731665875E+02 -0.26059384826E+02  0.15759289726E+03  0.20355015112E+03  0.12505239932E+03 0.  0.
          5    1    3    3  502    0  0.16248396539E+02 -0.47133519653E+02  0.17103504753E+03  0.17820224170E+03  0.41800000000E+01 0. -1.
         -5    1    3    3    0  502  0.48326933640E+00  0.21074134827E+02 -0.13442150274E+02  0.25347909419E+02  0.41800000000E+01 0. -1.
        -11    1    1    2    0    0  0.26334013647E+02  0.41560157279E+02  0.11118596422E+02  0.50441551663E+02  0.00000000000E+00 0.  1.
         11    1    1    2    0    0 -0.43065679522E+02 -0.15500772452E+02  0.15935592019E+02  0.48465139970E+02  0.00000000000E+00 0. -1.
</event>
<event>
 6    1  0.1538147E-010  0.2175606E+03  0.7561462E-02  0.1135715E+00
         -1   -1    0    0    0  501 -0.00000000000E+00  0.00000000000E+00  0.33908041007E+02  0.33908041007E+02  0.00000000000E+00 0.  1.
          1   -1    0    0  501    0  0.00000000000E+00 -0.00000000000E+00 -0.15798901517E+04  0.15798901517E+04  0.00000000000E+00 0. -1.
          5    1    1    2  502    0  0.49674091274E+02  0.16802866105E+03 -0.82926002870E+03  0.84757938500E+03  0.41800000000E+01 0. -1.
         -5    1    1    2    0  502 -0.47292207857E+02  0.24074211553E+02 -0.20992707685E+03  0.21657093660E+03  0.41800000000E+01 0. -1.
        -11    1    1    2    0    0 -0.38423028520E+02 -0.77778279636E+02 -0.15030145013E+03  0.17354053076E+03  0.00000000000E+00 0.  1.
         11    1    1    2    0    0  0.36041145103E+02 -0.11432459297E+03 -0.35649355500E+03  0.37610734034E+03  0.00000000000E+00 0. -1.
</event>
<event>
 7    1  0.1538147E-010  0.1884266E+03  0.7561462E-02  0.1159888E+00
         -2   -1    0    0    0  501 -0.00000000000E+00  0.00000000000E+00  0.13781422463E+03  0.13781422463E+03  0.00000000000E+00 0.  1.
          2   -1    0    0  501    0  0.00000000000E+00 -0.00000000000E+00 -0.34207839288E+03  0.34207839288E+03  0.00000000000E+00 0. -1.
         25    2    1    2    0    0 -0.15519682284E+03  0.86315823746E+02 -0.37390156150E+02  0.22039889057E+03  0.12506467103E+03 0.  0.
          5    1    3    3  502    0 -0.67106994625E+02  0.43731160990E+02 -0.80284161422E+02  0.11348472207E+03  0.41800000000E+01 0.  1.
         -5    1    3    3    0  502 -0.88089828213E+02  0.42584662756E+02  0.42894005271E+02  0.10691416849E+03  0.41800000000E+01 0.  1.
        -11    1    1    2    0    0  0.13080193118E+03 -0.10520469476E+03 -0.14178220346E+03  0.21972566126E+03  0.00000000000E+00 0.  1.
         11    1    1    2    0    0  0.24394891660E+02  0.18888871019E+02 -0.25091808638E+02  0.39768065684E+02  0.00000000000E+00 0. -1.
</event>
<event>
 7    1  0.1538147E-010  0.1051820E+03  0.7561462E-02  0.1269762E+00
         -2   -1    0    0    0  501 -0.00000000000E+00  0.00000000000E+00  0.23541854984E+02  0.23541854984E+02  0.00000000000E+00 0.  1.
          2   -1    0    0  501    0  0.00000000000E+00 -0.00000000000E+00 -0.51890192056E+03  0.51890192056E+03  0.00000000000E+00 0. -1.
         25    2    1    2    0    0 -0.73044186252E+01  0.33142621181E+02 -0.30821322050E+03  0.33436540884E+03  0.12511214757E+03 0.  0.
          5    1    3    3  502    0 -0.47713998685E+02 -0.28537947528E+02 -0.12952936216E+03  0.14101903481E+03  0.41800000000E+01 0. -1.
         -5    1    3    3    0  502  0.40409580060E+02  0.61680568708E+02 -0.17868385834E+03  0.19334637403E+03  0.41800000000E+01 0. -1.
        -11    1    1    2    0    0  0.14420911825E+02 -0.55472412857E+02 -0.16894839105E+03  0.17840602603E+03  0.00000000000E+00 0.  1.
         11    1    1    2    0    0 -0.71164931998E+01  0.22329791676E+02 -0.18198454021E+02  0.29672340665E+02  0.00000000000E+00 0. -1.
</event>
<event>
 7    1  0.1538147E-010  0.1688906E+03  0.7561462E-02  0.1179010E+00
         -3   -1    0    0    0  501 -0.00000000000E+00  0.00000000000E+00  0.79868765755E+02  0.79868765755E+02  0.00000000000E+00 0. -1.
          3   -1    0    0  501    0  0.00000000000E+00 -0.00000000000E+00 -0.36716304191E+03  0.36716304191E+03  0.00000000000E+00 0.  1.
         25    2    1    2    0    0  0.12888423943E+03 -0.23551632591E+02 -0.15813752650E+03  0.24048769046E+03  0.12514401866E+03 0.  0.
          5    1    3    3  502    0  0.89255886713E+02 -0.74588528942E+02 -0.99262363015E+02  0.15297238664E+03  0.41800000000E+01 0. -1.
         -5    1    3    3    0  502  0.39628352714E+02  0.51036896351E+02 -0.58875163483E+02  0.87515303822E+02  0.41800000000E+01 0. -1.
        -11    1    1    2    0    0 -0.13062562497E+03 -0.23794133115E+01 -0.12384481778E+03  0.18001737249E+03  0.00000000000E+00 0.  1.
         11    1    1    2    0    0  0.17413855374E+01  0.25931045903E+02 -0.53119318759E+01  0.26526744720E+02  0.00000000000E+00 0. -1.
</event>
<event>
 7    1  0.1538147E-010  0.2014167E+03  0.7561462E-02  0.1148549E+00
         -2   -1    0    0    0  501 -0.00000000000E+00  0.00000000000E+00  0.55217915902E+03  0.55217915902E+03  0.00000000000E+00 0.  1.
          2   -1    0    0  501    0  0.00000000000E+00 -0.00000000000E+00 -0.76852640380E+02  0.76852640380E+02  0.00000000000E+00 0. -1.
         25    2    1    2    0    0 -0.17067105414E+03  0.35540965256E+02  0.28443478557E+03  0.35629742920E+03  0.12511171758E+03 0.  0.
          5    1    3    3  502    0  0.15220838192E+01 -0.26382059741E+02  0.66597315257E+02  0.71770499613E+02  0.41800000000E+01 0.  1.
         -5    1    3    3    0  502 -0.17219313796E+03  0.61923024997E+02  0.21783747031E+03  0.28452692958E+03  0.41800000000E+01 0.  1.
        -11    1    1    2    0    0  0.60653929260E+02  0.27110086271E+02  0.83580057625E+02  0.10676835648E+03  0.00000000000E+00 0.  1.
         11    1    1    2    0    0  0.11001712488E+03 -0.62651051526E+02  0.10731167545E+03  0.16596601373E+03  0.00000000000E+00 0. -1.
</event>
<event>
 6    1  0.1538147E-010  0.1689619E+03  0.7561462E-02  0.1178935E+00
         -1   -1    0    0    0  501 -0.00000000000E+00  0.00000000000E+00  0.12291497485E+03  0.12291497485E+03  0.00000000000E+00 0.  1.
          1   -1    0    0  501    0  0.00000000000E+00 -0.00000000000E+00 -0.23619679231E+03  0.23619679231E+03  0.00000000000E+00 0. -1.
          5    1    1    2  502    0 -0.60069021320E+02  0.82175597900E+01 -0.35861505909E+02  0.70564407581E+02  0.41800000000E+01 0. -1.
         -5    1    1    2    0  502 -0.13217522670E+02 -0.11736968152E+03 -0.25389646452E+02  0.12088197381E+03  0.41800000000E+01 0. -1.
        -11    1    1    2    0    0  0.43984675144E+02  0.11993263765E+03 -0.36876949628E+02  0.13296013927E+03  0.00000000000E+00 0.  1.
         11    1    1    2    0    0  0.29301868846E+02 -0.10780515925E+02 -0.15153715471E+02  0.34705246492E+02  0.00000000000E+00 0. -1.
</event>
<event>
 6    1  0.1538147E-010  0.1004929E+03  0.7561462E-02  0.1279263E+00
         -1   -1    0    0    0  501 -0.00000000000E+00  0.00000000000E+00  0.10170462007E+03  0.10170462007E+03  0.00000000000E+00 0.  1.
          1   -1    0    0  501    0  0.00000000000E+00 -0.00000000000E+00 -0.22194432563E+03  0.22194432563E+03  0.00000000000E+00 0. -1.
          5    1    1    2  502    0 -0.26846204987E+02 -0.79154264320E+02 -0.94999105512E+02  0.12660339146E+03  0.41800000000E+01 0.  1.
         -5    1    1    2    0  502  0.42682351401E+02  0.29291562469E+02 -0.65841334730E+02  0.83859003762E+02  0.41800000000E+01 0.  1.
        -11    1    1    2    0    0 -0.62755921016E+01  0.54413963775E+02  0.65940837230E+02  0.85723138793E+02  0.00000000000E+00 0.  1.
         11    1    1    2    0    0 -0.95605543131E+01 -0.45512619230E+01 -0.25340102552E+02  0.27463411682E+02  0.00000000000E+00 0. -1.
</event>
<event>
 6    1  0.1538147E-010  0.1248984E+03  0.7561462E-02  0.1235228E+00
         -1   -1    0    0    0  501 -0.00000000000E+00  0.00000000000E+00  0.30211267173E+03  0.30211267173E+03  0.00000000000E+00 0.  1.
          1   -1    0    0  501    0  0.00000000000E+00 -0.00000000000E+00 -0.76790690250E+02  0.76790690250E+02  0.00000000000E+00 0. -1.
          5    1    1    2  502    0  0.77108755620E+02  0.72357033526E+02  0.17903472779E+03  0.20797164866E+03  0.41800000000E+01 0.  1.
         -5    1    1    2    0  502 -0.11161968136E+02  0.18694564013E+02 -0.15211192202E+02  0.26887339484E+02  0.41800000000E+01 0.  1.
        -11    1    1    2    0    0 -0.72747354719E+02 -0.75585298178E+02  0.31359940655E+02  0.10949319978E+03  0.00000000000E+00 0. -1.
         11    1    1    2    0    0  0.68005672342E+01 -0.15466299361E+02  0.30138505240E+02  0.34551174057E+02  0.00000000000E+00 0.  1.
</event>
<event>
 7    1  0.1538147E-010  0.1414615E+03  0.7561462E-02  0.1211376E+00
         -2   -1    0    0    0  501 -0.00000000000E+00  0.00000000000E+00  0.84667080254E+02  0.84667080254E+02  0.00000000000E+00 0.  1.
          2   -1    0    0  501    0  0.00000000000E+00 -0.00000000000E+00 -0.25997754857E+03  0.25997754857E+03  0.00000000000E+00 0. -1.
         25    2    1    2    0    0  0.83381853271E+02  0.47767544816E+02 -0.78226854321E+02  0.17604260260E+03  0.12504913195E+03 0.  0.
          5    1    3    3  502    0  0.34351451426E+02  0.86858982911E+02 -0.57976607013E+02  0.11001483758E+03  0.41800000000E+01 0. -1.
         -5    1    3    3    0  502  0.49030401845E+02 -0.39091438094E+02 -0.20250247308E+02  0.66027765019E+02  0.41800000000E+01 0. -1.
        -11    1    1    2    0    0  0.12708065962E+02 -0.24671389894E+02  0.30424069013E+01  0.27918249579E+02  0.00000000000E+00 0.  1.
         11    1    1    2    0    0 -0.96089919234E+02 -0.23096154923E+02 -0.10012602090E+03  0.14068377665E+03  0.00000000000E+00 0. -1.
</event>
<event>
 6    1  0.1538147E-010  0.1071446E+03  0.7561462E-02  0.1265951E+00
         -4   -1    0    0    0  501 -0.00000000000E+00  0.00000000000E+00  0.19196058912E+03  0.19196058912E+03  0.00000000000E+00 0.  1.
          4   -1    0    0  501    0  0.00000000000E+00 -0.00000000000E+00 -0.72043266871E+02  0.72043266871E+02  0.00000000000E+00 0. -1.
          5    1    1    2  502    0 -0.18299494404E+01 -0.79455039036E+02  0.66990574430E+02  0.10402721474E+03  0.41800000000E+01 0.  1.
         -5    1    1    2    0  502 -0.18197854055E+02  0.44433334156E+02  0.13117352584E+02  0.49950179331E+02  0.41800000000E+01 0.  1.
        -11    1    1    2    0    0 -0.20019524481E+02 -0.13081525033E+02  0.40953223542E+02  0.47424404857E+02  0.00000000000E+00 0.  1.
         11    1    1    2    0    0  0.40047327976E+02  0.48103229914E+02 -0.11438283028E+01  0.62602057070E+02  0.00000000000E+00 0. -1.
</event>
<event>
 6    1  0.1538147E-010  0.1096741E+03  0.7561462E-02  0.1261175E+00
         -1   -1    0    0    0  501 -0.00000000000E+00  0.00000000000E+00  0.19289823072E+03  0.19289823072E+03  0.00000000000E+00 0.  1.
          1   -1    0    0  501    0  0.00000000000E+00 -0.00000000000E+00 -0.85175833863E+02  0.85175833863E+02  0.00000000000E+00 0. -1.
          5    1    1    2  502    0  0.22111565416E+02 -0.37892914294E+02  0.72394211395E+02  0.84753693267E+02  0.41800000000E+01 0.  1.
         -5    1    1    2    0  502 -0.61230004804E+02 -0.18302870904E+02 -0.19848669110E+02  0.67048867530E+02  0.41800000000E+01 0.  1.
        -11    1    1    2    0    0 -0.98056267303E+01 -0.19082173145E+02  0.21529559470E+02  0.30394104338E+02  0.00000000000E+00 0. -1.
         11    1    1    2    0    0  0.48924066118E+02  0.75277958343E+02  0.33647295105E+02  0.95877399452E+02  0.00000000000E+00 0.  1.
</event>
<event>
 7    1  0.1538147E-010  0.1417623E+03  0.7561462E-02  0.1210977E+00
          1   -1    0    0  501    0  0.00000000000E+00  0.00000000000E+00  0.14641868010E+03  0.14641868010E+03  0.00000000000E+00 0. -1.
         -1   -1    0    0    0  501 -0.00000000000E+00 -0.00000000000E+00 -0.17869033057E+03  0.17869033057E+03  0.00000000000E+00 0.  1.
         25    2    1    2    0    0  0.51986916154E+02 -0.88085406870E+02 -0.80535175599E+02  0.18056403035E+03  0.12512304422E+03 0.  0.
          5    1    3    3  502    0 -0.50392391867E+01  0.29491927832E+02 -0.21679354840E+02  0.37183794388E+02  0.41800000000E+01 0. -1.
         -5    1    3    3    0  502  0.57026155341E+02 -0.11757733470E+03 -0.58855820760E+02  0.14338023597E+03  0.41800000000E+01 0. -1.
        -11    1    1    2    0    0 -0.60252806405E+02  0.36753167459E+02  0.58359055476E+02  0.91580431064E+02  0.00000000000E+00 0. -1.
         11    1    1    2    0    0  0.82658902505E+01  0.51332239411E+02 -0.10095530352E+02  0.52964549254E+02  0.00000000000E+00 0.  1.
</event>
<event>
 7    1  0.1538147E-010  0.2225859E+03  0.7561462E-02  0.1131970E+00
          4   -1    0    0  501    0  0.00000000000E+00  0.00000000000E+00  0.10520288847E+03  0.10520288847E+03  0.00000000000E+00 0.  1.
         -4   -1    0    0    0  501 -0.00000000000E+00 -0.00000000000E+00 -0.51306663244E+03  0.51306663244E+03  0.00000000000E+00 0. -1.
         25    2    1    2    0    0  0.18337658682E+03  0.84976967702E+02 -0.17314481427E+03  0.29405467162E+03  0.12506384593E+03 0.  0.
          5    1    3    3  502    0  0.53992163987E+02 -0.19390372794E+02 -0.93272319933E+02  0.10958256428E+03  0.41800000000E+01 0.  1.
         -5    1    3    3    0  502  0.12938442284E+03  0.10436734050E+03 -0.79872494341E+02  0.18447210734E+03  0.41800000000E+01 0.  1.
        -11    1    1    2    0    0 -0.15135910870E+03 -0.10444319282E+03 -0.21089476618E+03  0.27981165578E+03  0.00000000000E+00 0. -1.
         11    1    1    2    0    0 -0.32017478122E+02  0.19466225118E+02 -0.23824163518E+02  0.44403193499E+02  0.00000000000E+00 0.  1.
</event>
<event>
 6    1  0.1538147E-010  0.1309844E+03  0.7561462E-02  0.1226002E+00
          1   -1    0    0  501    0  0.00000000000E+00  0.00000000000E+00  0.88485293198E+02  0.88485293198E+02  0.00000000000E+00 0. -1.
         -1   -1    0    0    0  501 -0.00000000000E+00 -0.00000000000E+00 -0.25717859768E+03  0.25717859768E+03  0.00000000000E+00 0.  1.
          5    1    1    2  502    0 -0.11563527067E+02  0.52344508713E+02 -0.99907432106E+02  0.11345761385E+03  0.41800000000E+01 0. -1.
         -5    1    1    2    0  502  0.82985630507E+02  0.19711641855E+02 -0.20415964699E+02  0.87803460694E+02  0.41800000000E+01 0. -1.
        -11    1    1    2    0    0 -0.54903940736E+02 -0.85428319129E+02 -0.62163876635E+02  0.11906631755E+03  0.00000000000E+00 0.  1.
         11    1    1    2    0    0 -0.16518162704E+02  0.13372168560E+02  0.13793968954E+02  0.25336498784E+02  0.00000000000E+00 0. -1.
</event>
<event>
 6    1  0.1538147E-010  0.1648237E+03  0.7561462E-02  0.1183356E+00
         -2   -1    0    0    0  501 -0.00000000000E+00  0.00000000000E+00  0.16812552341E+03  0.16812552341E+03  0.00000000000E+00 0.  1.
          2   -1    0    0  501    0  0.00000000000E+00 -0.00000000000E+00 -0.21397589456E+03  0.21397589456E+03  0.00000000000E+00 0. -1.
          5    1    1    2  502    0  0.87286327427E+02  0.66907649197E+02  0.31597954048E+02  0.11450519454E+03  0.41800000000E+01 0.  1.
         -5    1    1    2    0  502  0.37173102746E+02 -0.54009275522E+02  0.37080856642E+02  0.75440729978E+02  0.41800000000E+01 0.  1.
        -11    1    1    2    0    0  0.50075403552E+00 -0.28013970782E+02 -0.15664322140E+02  0.32099911241E+02  0.00000000000E+00 0.  1.
         11    1    1    2    0    0 -0.12496018421E+03  0.15115597107E+02 -0.98864859700E+02  0.16005558221E+03  0.00000000000E+00 0. -1.
</event>
<event>
 7    1  0.1538147E-010  0.1180025E+03  0.7561462E-02  0.1246429E+00
         -1   -1    0    0    0  501 -0.00000000000E+00  0.00000000000E+00  0.16147347244E+02  0.16147347244E+02  0.00000000000E+00 0.  1.
          1   -1    0    0  501    0  0.00000000000E+00 -0.00000000000E+00 -0.10237202773E+04  0.10237202773E+04  0.00000000000E+00 0. -1.
         25    2    1    2    0    0  0.67229171404E+02 -0.41593984390E+01 -0.50567898236E+03  0.52525055904E+03  0.12505940385E+03 0.  0.
          5    1    3    3  502    0 -0.13285331780E+02  0.33161555357E+02 -0.53763967752E+02  0.64685588987E+02  0.41800000000E+01 0.  1.
         -5    1    3    3    0  502  0.80514503184E+02 -0.37320953796E+02 -0.45191501461E+03  0.46056497006E+03  0.41800000000E+01 0.  1.
        -11    1    1    2    0    0  0.62883755557E+01  0.31978270958E+02 -0.10232411274E+03  0.10738890784E+03  0.00000000000E+00 0.  1.
         11    1    1    2    0    0 -0.73517546960E+02 -0.27818872519E+02 -0.39956983498E+03  0.40722815768E+03  0.00000000000E+00 0. -1.
</event>
<event>
 7    1  0.1538147E-010  0.1038356E+03  0.7561462E-02  0.1272431E+00
         -4   -1    0    0    0  501 -0.00000000000E+00  0.00000000000E+00  0.26004739523E+02  0.26004739523E+02  0.00000000000E+00 0.  1.
          4   -1    0    0  501    0  0.00000000000E+00 -0.00000000000E+00 -0.53109382360E+03  0.53109382360E+03  0.00000000000E+00 0. -1.
         25    2    1    2    0    0  0.28890994204E+02 -0.13450459022E+02 -0.21357955063E+03  0.24954727090E+03  0.12506802778E+03 0.  0.
          5    1    3    3  502    0  0.51193130119E+02  0.32075349783E+02 -0.50919393450E+02  0.79119034779E+02  0.41800000000E+01 0.  1.
         -5    1    3    3    0  502 -0.22302135914E+02 -0.45525808806E+02 -0.16266015718E+03  0.17042823612E+03  0.41800000000E+01 0.  1.
        -11    1    1    2    0    0  0.17643417540E+02 -0.28550422550E+02 -0.75366763161E+02  0.82501913915E+02  0.00000000000E+00 0.  1.
         11    1    1    2    0    0 -0.46534411745E+02  0.42000881572E+02 -0.21614277029E+03  0.22504937831E+03  0.00000000000E+00 0. -1.
</event>
<event>
 7    1  0.1538147E-010  0.3035562E+03  0.7561462E-02  0.1083476E+00
         -1   -1    0    0    0  501 -0.00000000000E+00  0.00000000000E+00  0.11257762513E+03  0.11257762513E+03  0.00000000000E+00 0.  1.
          1   -1    0    0  501    0  0.00000000000E+00 -0.00000000000E+00 -0.87996412558E+03  0.87996412558E+03  0.00000000000E+00 0. -1.
         25    2    1    2    0    0  0.27216234388E+03  0.10086023788E+03 -0.30553249199E+03  0.43960096362E+03  0.12511504522E+03 0.  0.
          5    1    3    3  502    0  0.19232045632E+03  0.11171253929E+03 -0.27410348129E+03  0.35301138822E+03  0.41800000000E+01 0. -1.
         -5    1    3    3    0  502  0.79841887560E+02 -0.10852301408E+02 -0.31429010699E+02  0.86589575403E+02  0.41800000000E+01 0. -1.
        -11    1    1    2    0    0 -0.16461230474E+03 -0.10686730916E+03 -0.29323059227E+03  0.35284842763E+03  0.00000000000E+00 0.  1.
         11    1    1    2    0    0 -0.10755003914E+03  0.60070712728E+01 -0.16862341619E+03  0.20009235945E+03  0.00000000000E+00 0. -1.
</event>
<event>
 7    1  0.1538147E-010  0.1016274E+03  0.7561462E-02  0.1276911E+00
          2   -1    0    0  501    0  0.00000000000E+00  0.00000000000E+00  0.21551848135E+03  0.21551848135E+03  0.00000000000E+00 0. -1.
         -2   -1    0    0    0  501 -0.00000000000E+00 -0.00000000000E+00 -0.95674331757E+02  0.95674331757E+02  0.00000000000E+00 0.  1.
         25    2    1    2    0    0 -0.59913792554E+02  0.61957532209E+02  0.86726648103E+02  0.17489662687E+03  0.12505566866E+03 0.  0.
          5    1    3    3  502    0 -0.19254969702E+02 -0.17345740249E+02  0.81392059312E+02  0.85520572274E+02  0.41800000000E+01 0.  1.
         -5    1    3    3    0  502 -0.40658822852E+02  0.79303272458E+02  0.53345887902E+01  0.89376054600E+02  0.41800000000E+01 0.  1.
        -11    1    1    2    0    0  0.48387725910E+02 -0.39185825030E+02  0.68564069670E+02  0.92617128825E+02  0.00000000000E+00 0. -1.
         11    1    1    2    0    0  0.11526066644E+02 -0.22771707179E+02 -0.35446568181E+02  0.43679057407E+02  0.00000000000E+00 0.  1.
</event>
<event>
 6    1  0.1538147E-010  0.1467101E+03  0.7561462E-02  0.1204575E+00
         -1   -1    0    0    0  501 -0.00000000000E+00  0.00000000000E+00  0.69311171242E+02  0.69311171242E+02  0.00000000000E+00 0.  1.
          1   -1    0    0  501    0  0.00000000000E+00 -0.00000000000E+00 -0.41221210747E+03  0.41221210747E+03  0.00000000000E+00 0. -1.
          5    1    1    2  502    0 -0.30699856308E+02  0.11123579416E+03 -0.10515115337E+03  0.15617336692E+03  0.41800000000E+01 0.  1.
         -5    1    1    2    0  502  0.28087742657E+02  0.88599928344E+01 -0.14604796134E+03  0.14904663757E+03  0.41800000000E+01 0.  1.
        -11    1    1    2    0    0  0.40588056494E+02 -0.93238004620E+02 -0.47877702574E+02  0.11239657575E+03  0.00000000000E+00 0.  1.
         11    1    1    2    0    0 -0.37975942843E+02 -0.26857782373E+02 -0.43824118941E+02  0.63906698473E+02  0.00000000000E+00 0. -1.
</event>
<event>
 6    1  0.1538147E-010  0.6689138E+02  0.7561462E-02  0.1370995E+00
         -2   -1    0    0    0  501 -0.00000000000E+00  0.00000000000E+00  0.28946354710E+03  0.28946354710E+03  0.00000000000E+00 0.  1.
          2   -1    0    0  501    0  0.00000000000E+00 -0.00000000000E+00 -0.49123783151E+02  0.49123783151E+02  0.00000000000E+00 0. -1.
          5    1    1    2  502    0 -0.22464310579E+02 -0.63273743948E+01  0.10278566351E+03  0.10548481378E+03  0.41800000000E+01 0. -1.
         -5    1    1    2    0  502  0.22567264392E+02 -0.80680294686E+01 -0.31114567848E+02  0.39496370138E+02  0.41800000000E+01 0. -1.
        -11    1    1    2    0    0 -0.18598090178E+02  0.45725562287E+02  0.53346922522E+02  0.72681566764E+02  0.00000000000E+00 0. -1.
         11    1    1    2    0    0  0.18495136366E+02 -0.31330158423E+02  0.11532174577E+03  0.12092457957E+03  0.00000000000E+00 0.  1.
</event>
<event>
 7    1  0.1538147E-010  0.1117443E+03  0.7561462E-02  0.1257373E+00
          1   -1    0    0  501    0  0.00000000000E+00  0.00000000000E+00  0.52047708639E+03  0.52047708639E+03  0.00000000000E+00 0. -1.
         -1   -1    0    0    0  501 -0.00000000000E+00 -0.00000000000E+00 -0.39781335126E+02  0.39781335126E+02  0.00000000000E+00 0.  1.
         25    2    1    2    0    0  0.91064418465E+01 -0.93696706774E+02  0.27190111818E+03  0.31377096234E+03  0.12513991609E+03 0.  0.
          5    1    3    3  502    0  0.95470661371E+01 -0.57888066036E+02  0.27141290200E+03  0.27771318016E+03  0.41800000000E+01 0.  1.
         -5    1    3    3    0  502 -0.44062429058E+00 -0.35808640738E+02  0.48821618286E+00  0.36057782188E+02  0.41800000000E+01 0.  1.
        -11    1    1    2    0    0 -0.41823481466E+02  0.16842920237E+02  0.96695728357E+02  0.10669091548E+03  0.00000000000E+00 0.  1.
         11    1    1    2    0    0  0.32717039619E+02  0.76853786537E+02  0.11209890472E+03  0.13979654369E+03  0.00000000000E+00 0. -1.
</event>
<event>
 7    1  0.1538147E-010  0.1473047E+03  0.7561462E-02  0.1203825E+00
          4   -1    0    0  501    0  0.00000000000E+00  0.00000000000E+00  0.21317880680E+03  0.21317880680E+03  0.00000000000E+00 0. -1.
         -4   -1    0    0    0  501 -0.00000000000E+00 -0.00000000000E+00 -0.12591157563E+03  0.12591157563E+03  0.00000000000E+00 0.  1.
         25    2    1    2    0    0  0.93848600119E+02  0.58585404526E+02 -0.69709563520E+01  0.16716546599E+03  0.12512349667E+03 0.  0.
          5    1    3    3  502    0  0.19357522736E+02  0.80083054445E+02 -0.27316542281E+02  0.86900375016E+02  0.41800000000E+01 0.  1.
         -5    1    3    3    0  502  0.74491077384E+02 -0.21497649919E+02  0.20345585929E+02  0.80265090971E+02  0.41800000000E+01 0.  1.
        -11    1    1    2    0    0 -0.58469782863E+02  0.80540859505E+01  0.72339404536E+02  0.93362590245E+02  0.00000000000E+00 0.  1.
         11    1    1    2    0    0 -0.35378817256E+02 -0.66639490476E+02  0.21898782988E+02  0.78562326199E+02  0.00000000000E+00 0. -1.
</event>
<event>
 7    1  0.1538147E-010  0.1150795E+03  0.7561462E-02  0.1251442E+00
          1   -1    0    0  501    0  0.00000000000E+00  0.00000000000E+00  0.23757579723E+03  0.23757579723E+03  0.00000000000E+00 0. -1.
         -1   -1    0    0    0  501 -0.00000000000E+00 -0.00000000000E+00 -0.67235093891E+02  0.67235093891E+02  0.00000000000E+00 0.  1.
         25    2    1    2    0    0  0.37937067150E+02  0.24468144322E+02  0.15070775533E+03  0.20097627191E+03  0.12506287701E+03 0.  0.
          5    1    3    3  502    0 -0.11645591327E+02  0.64223058211E+02  0.52239425967E+02  0.83705740715E+02  0.41800000000E+01 0.  1.
         -5    1    3    3    0  502  0.49582658477E+02 -0.39754913889E+02  0.98468329362E+02  0.11727053120E+03  0.41800000000E+01 0.  1.
        -11    1    1    2    0    0 -0.16920068773E+02  0.34520633980E+02  0.83622769845E+00  0.38453376632E+02  0.00000000000E+00 0.  1.
         11    1    1    2    0    0 -0.21016998378E+02 -0.58988778302E+02  0.18796720313E+02  0.65381242577E+02  0.00000000000E+00 0. -1.
</event>
<event>
 7    1  0.1538147E-010  0.1473647E+03  0.7561462E-02  0.1203749E+00
          2   -1    0    0  501    0  0.00000000000E+00  0.00000000000E+00  0.15623635259E+03  0.15623635259E+03  0.00000000000E+00 0. -1.
         -2   -1    0    0    0  501 -0.00000000000E+00 -0.00000000000E+00 -0.18753828026E+03  0.18753828026E+03  0.00000000000E+00 0.  1.
         25    2    1    2    0    0  0.13184760288E+03  0.84850269977E+01 -0.12515621639E+02  0.18234822504E+03  0.12505378171E+03 0.  0.
          5    1    3    3  502    0  0.98847173043E+02  0.16212850580E+02  0.49304373663E+02  0.11172293321E+03  0.41800000000E+01 0. -1.
         -5    1    3    3    0  502  0.33000429840E+02 -0.77278235827E+01 -0.61819995302E+02  0.70625291830E+02  0.41800000000E+01 0. -1.
        -11    1    1    2    0    0 -0.33786214374E+02 -0.44487563836E+02 -0.59278905036E+01  0.56176431923E+02  0.00000000000E+00 0. -1.
         11    1    1    2    0    0 -0.98061388508E+02  0.36002536838E+02 -0.12858415532E+02  0.10524997589E+03  0.00000000000E+00 0.  1.
</event>
<event>
 7    1  0.1538147E-010  0.1378006E+03  0.7561462E-02  0.1216319E+00
          2   -1    0    0  501    0  0.00000000000E+00  0.00000000000E+00  0.65221024303E+02  0.65221024303E+02  0.00000000000E+00 0. -1.
         -2   -1    0    0    0  501 -0.00000000000E+00 -0.00000000000E+00 -0.42790035686E+03  0.42790035686E+03  0.00000000000E+00 0.  1.
         25    2    1    2    0    0  0.12920952595E+03 -0.29656987182E+02 -0.21528146701E+03  0.28209083054E+03  0.12511789701E+03 0.  0.
          5    1    3    3  502    0  0.58616831919E+02  0.12786622809E+02 -0.10138506516E+02  0.60989281201E+02  0.41800000000E+01 0.  1.
         -5    1    3    3    0  502  0.70592694030E+02 -0.42443609991E+02 -0.20514296049E+03  0.22110154934E+03  0.41800000000E+01 0.  1.
        -11    1    1    2    0    0 -0.55193043883E+02  0.18012012751E+02 -0.11614386092E+03  0.12984645211E+03  0.00000000000E+00 0.  1.
         11    1    1    2    0    0 -0.74016482066E+02  0.11644974431E+02 -0.31254004634E+02  0.81184098520E+02  0.00000000000E+00 0. -1.
</event>
<event>
 6    1  0.1538147E-010  0.1338350E+03  0.7561462E-02  0.1221874E+00
         -2   -1    0    0    0  501 -0.00000000000E+00  0.00000000000E+00  0.11973568230E+03  0.11973568230E+03  0.00000000000E+00 0.  1.
          2   -1    0    0  501    0  0.00000000000E+00 -0.00000000000E+00 -0.23739095157E+03  0.23739095157E+03  0.00000000000E+00 0. -1.
          5    1    1    2  502    0  0.36245627033E+02  0.87468242066E+01  0.56875496605E+02  0.68136237985E+02  0.41800000000E+01 0. -1.
         -5    1    1    2    0  502  0.75243948630E+02 -0.34526737176E+02 -0.58970201964E+02  0.10172858254E+03  0.41800000000E+01 0. -1.
        -11    1    1    2    0    0 -0.15966227600E+02 -0.31898477905E+02 -0.30911642754E+02  0.47201302674E+02  0.00000000000E+00 0.  1.
         11    1    1    2    0    0 -0.95523348062E+02  0.57678390874E+02 -0.84648921159E+02  0.14006051068E+03  0.00000000000E+00 0. -1.
</event>
<event>
 7    1  0.1538147E-010  0.1284767E+03  0.7561462E-02  0.1229734E+00
         -4   -1    0    0    0  501 -0.00000000000E+00  0.00000000000E+00  0.16679556760E+03  0.16679556760E+03  0.00000000000E+00 0. -1.
          4   -1    0    0  501    0  0.00000000000E+00 -0.00000000000E+00 -0.32794359035E+03  0.32794359035E+03  0.00000000000E+00 0.  1.
         25    2    1    2    0    0 -0.11014479914E+03  0.40566939473E+02 -0.26341042349E+03  0.31435192989E+03  0.12511806932E+03 0.  0.
          5    1    3    3  502    0  0.74392670040E+01 -0.84770527210E+01 -0.12731805933E+03  0.12788496295E+03  0.41800000000E+01 0. -1.
         -5    1    3    3    0  502 -0.11758406614E+03  0.49043992194E+02 -0.13609236415E+03  0.18646696694E+03  0.41800000000E+01 0. -1.
        -11    1    1    2    0    0  0.77729031754E+02 -0.26554550727E+02  0.11630236743E+03  0.14238394296E+03  0.00000000000E+00 0. -1.
         11    1    1    2    0    0  0.32415767381E+02 -0.14012388747E+02 -0.14039966691E+02  0.38003285095E+02  0.00000000000E+00 0.  1.
</event>
<event>
 7    1  0.1538147E-010  0.1729514E+03  0.7561462E-02  0.1174805E+00
          1   -1    0    0  501    0  0.00000000000E+00  0.00000000000E+00  0.49362820921E+03  0.49362820921E+03  0.00000000000E+00 0. -1.
         -1   -1    0    0    0  501 -0.00000000000E+00 -0.00000000000E+00 -0.13201378534E+03  0.13201378534E+03  0.00000000000E+00 0.  1.
         25    2    1    2    0    0  0.14932652943E+03 -0.34783817425E+02  0.39756790699E+03  0.44407575013E+03  0.12503881334E+03 0.  0.
          5    1    3    3  502    0  0.73446516554E+02 -0.69319620740E+02  0.13558961733E+03  0.16912012695E+03  0.41800000000E+01 0.  1.
         -5    1    3    3    0  502  0.75880012872E+02  0.34535803315E+02  0.26197828966E+03  0.27495562318E+03  0.41800000000E+01 0.  1.
        -11    1    1    2    0    0 -0.44503211824E+02  0.34851054988E+02  0.23317712721E+02  0.61146116990E+02  0.00000000000E+00 0. -1.
         11    1    1    2    0    0 -0.10482331760E+03 -0.67237562252E-01 -0.59271195839E+02  0.12042012743E+03  0.00000000000E+00 0.  1.
</event>
<event>
 6    1  0.1538147E-010  0.1448714E+03  0.7561462E-02  0.1206920E+00
         -1   -1    0    0    0  501 -0.00000000000E+00  0.00000000000E+00  0.40418957989E+02  0.40418957989E+02  0.00000000000E+00 0.  1.
          1   -1    0    0  501    0  0.00000000000E+00 -0.00000000000E+00 -0.67838508357E+03  0.67838508357E+03  0.00000000000E+00 0. -1.
          5    1    1    2  502    0 -0.10800091521E+02  0.18611813872E+02 -0.15628304154E+02  0.26921327664E+02  0.41800000000E+01 0. -1.
         -5    1    1    2    0  502  0.11522999379E+03 -0.52243531339E+02 -0.45118785538E+03  0.46860995644E+03  0.41800000000E+01 0. -1.
        -11    1    1    2    0    0 -0.16420614573E+01 -0.23552184121E+02 -0.15766684555E+02  0.28389964504E+02  0.00000000000E+00 0. -1.
         11    1    1    2    0    0 -0.10278784081E+03  0.57183901587E+02 -0.15538328150E+03  0.19488279295E+03  0.00000000000E+00 0.  1.
</event>
<event>
 6    1  0.1538147E-010  0.9232546E+02  0.7561462E-02  0.1297316E+00
         -4   -1    0    0    0  501 -0.00000000000E+00  0.00000000000E+00  0.95019799514E+02  0.95019799514E+02  0.00000000000E+00 0.  1.
          4   -1    0    0  501    0  0.00000000000E+00 -0.00000000000E+00 -0.20962271487E+03  0.20962271487E+03  0.00000000000E+00 0. -1.
          5    1    1    2  502    0  0.39006715976E+02 -0.49692840503E+02 -0.11219220681E+03  0.12882339057E+03  0.41800000000E+01 0.  1.
         -5    1    1    2    0  502 -0.46705066724E+02  0.32960878131E+02 -0.45401317743E+02  0.73120002719E+02  0.41800000000E+01 0.  1.
        -11    1    1    2    0    0  0.33161511902E+02 -0.69090066273E+00  0.59191221893E+02  0.67851042472E+02  0.00000000000E+00 0.  1.
         11    1    1    2    0    0 -0.25463161154E+02  0.17422863034E+02 -0.16200612699E+02  0.34848078629E+02  0.00000000000E+00 0. -1.
</event>
<event>
 7    1  0.1538147E-010  0.1114923E+03  0.7561462E-02  0.1257831E+00
          3   -1    0    0  501    0  0.00000000000E+00  0.00000000000E+00  0.81292835331E+02  0.81292835331E+02  0.00000000000E+00 0. -1.
         -3   -1    0    0    0  501 -0.00000000000E+00 -0.00000000000E+00 -0.17623792339E+03  0.17623792339E+03  0.00000000000E+00 0.  1.
         25    2    1    2    0    0  0.12860798809E+02  0.24172866673E+02 -0.98710445803E+02  0.16170022087E+03  0.12511387489E+03 0.  0.
          5    1    3    3  502    0  0.15159141375E+02  0.74799325106E+02 -0.50368136897E+02  0.91537752966E+02  0.41800000000E+01 0.  1.
         -5    1    3    3    0  502 -0.22983425660E+01 -0.50626458433E+02 -0.48342308905E+02  0.70162467904E+02  0.41800000000E+01 0.  1.
        -11    1    1    2    0    0  0.39867211048E+02 -0.10636450455E+02  0.32609905570E+01  0.41390369103E+02  0.00000000000E+00 0.  1.
         11    1    1    2    0    0 -0.52728009858E+02 -0.13536416218E+02  0.50436718267E+00  0.54440168753E+02  0.00000000000E+00 0. -1.
</event>
<event>
 6    1  0.1538147E-010  0.1634168E+03  0.7561462E-02  0.1184892E+00
         -2   -1    0    0    0  501 -0.00000000000E+00  0.00000000000E+00  0.96633300950E+02  0.96633300950E+02  0.00000000000E+00 0.  1.
          2   -1    0    0  501    0  0.00000000000E+00 -0.00000000000E+00 -0.40451263503E+03  0.40451263503E+03  0.00000000000E+00 0. -1.
          5    1    1    2  502    0 -0.12557279960E+02  0.11760067666E+03 -0.78885313363E+02  0.14222506634E+03  0.41800000000E+01 0. -1.
         -5    1    1    2    0  502  0.36418059165E+02  0.18580130233E+02  0.29674887182E+02  0.50690902558E+02  0.41800000000E+01 0. -1.
        -11    1    1    2    0    0  0.34764018237E+02 -0.29189508033E+02 -0.77412162422E+02  0.89739663662E+02  0.00000000000E+00 0. -1.
         11    1    1    2    0    0 -0.58624797443E+02 -0.10699129886E+03 -0.18125674547E+03  0.21849030342E+03  0.00000000000E+00 0.  1.
</event>
<event>
 7    1  0.1538147E-010  0.9062848E+02  0.7561462E-02  0.1301337E+00
         -1   -1    0    0    0  501 -0.00000000000E+00  0.00000000000E+00  0.73725961405E+03  0.73725961405E+03  0.00000000000E+00 0.  1.
          1   -1    0    0  501    0  0.00000000000E+00 -0.00000000000E+00 -0.26865327887E+02  0.26865327887E+02  0.00000000000E+00 0. -1.
         25    2    1    2    0    0 -0.42233600219E+01  0.59484921954E+02  0.57255964231E+03  0.58908484844E+03  0.12506047315E+03 0.  0.
          5    1    3    3  502    0 -0.18775374947E+01 -0.15788079871E+02  0.40497872658E+03  0.40531226233E+03  0.41800000000E+01 0.  1.
         -5    1    3    3    0  502 -0.23458225271E+01  0.75273001825E+02  0.16758091573E+03  0.18377258610E+03  0.41800000000E+01 0.  1.
        -11    1    1    2    0    0 -0.24653705697E+02 -0.54862335778E+02  0.13222491839E+03  0.14526221165E+03  0.00000000000E+00 0.  1.
         11    1    1    2    0    0  0.28877065719E+02 -0.46225861762E+01  0.56097254656E+01  0.29777881847E+02  0.00000000000E+00 0. -1.
</event>
<event>
 7    1  0.1538147E-010  0.1206370E+03  0.7561462E-02  0.1242050E+00
          1   -1    0    0  501    0  0.00000000000E+00  0.00000000000E+00  0.79670932819E+03  0.79670932819E+03  0.00000000000E+00 0. -1.
         -1   -1    0    0    0  501 -0.00000000000E+00 -0.00000000000E+00 -0.25267307996E+02  0.25267307996E+02  0.00000000000E+00 0.  1.
         25    2    1    2    0    0 -0.33314731777E+02  0.68169524242E+02  0.59963676136E+03  0.61723173102E+03  0.12511518221E+03 0.  0.
          5    1    3    3  502    0 -0.78339961982E+02  0.33684665455E+02  0.28563096348E+03  0.29811797334E+03  0.41800000000E+01 0.  1.
         -5    1    3    3    0  502  0.45025230205E+02  0.34484858786E+02  0.31400579788E+03  0.31911375768E+03  0.41800000000E+01 0.  1.
        -11    1    1    2    0    0 -0.58383287244E+00  0.11985914651E+02 -0.17168618889E+00  0.12001353549E+02  0.00000000000E+00 0.  1.
         11    1    1    2    0    0  0.33898564650E+02 -0.80155438893E+02  0.17197694503E+03  0.19274355162E+03  0.00000000000E+00 0. -1.
</event>
<event>
 7    1  0.1538147E-010  0.7304681E+02  0.7561462E-02  0.1350028E+00
          1   -1    0    0  501    0  0.00000000000E+00  0.00000000000E+00  0.36435630742E+02  0.36435630742E+02  0.00000000000E+00 0.  1.
         -1   -1    0    0    0  501 -0.00000000000E+00 -0.00000000000E+00 -0.29726362771E+03  0.29726362771E+03  0.00000000000E+00 0. -1.
         25    2    1    2    0    0 -0.42709668620E+01  0.22997861429E+02 -0.18165439301E+03  0.22181396421E+03  0.12512383239E+03 0.  0.
          5    1    3    3  502    0 -0.33276131583E+02  0.24535892298E+02 -0.39937214878E+01  0.41746055566E+02  0.41800000000E+01 0.  1.
         -5    1    3    3    0  502  0.29005164721E+02 -0.15380308688E+01 -0.17766067152E+03  0.18006790865E+03  0.41800000000E+01 0.  1.
        -11    1    1    2    0    0  0.22216656799E+02  0.19184127269E+02 -0.14842195521E+02  0.32892268792E+02  0.00000000000E+00 0.  1.
         11    1    1    2    0    0 -0.17945689937E+02 -0.42181988698E+02 -0.64331408440E+02  0.78993025450E+02  0.00000000000E+00 0. -1.
</event>
<event>
 7    1  0.1538147E-010  0.9186346E+02  0.7561462E-02  0.1298401E+00
         -4   -1    0    0    0  501 -0.00000000000E+00  0.00000000000E+00  0.28796684089E+03  0.28796684089E+03  0.00000000000E+00 0.  1.
          4   -1    0    0  501    0  0.00000000000E+00 -0.00000000000E+00 -0.44028857359E+02  0.44028857359E+02  0.00000000000E+00 0. -1.
         25    2    1    2    0    0  0.54627543798E+00  0.25510968509E+02  0.12010011819E+03  0.17526050511E+03  0.12506437674E+03 0.  0.
          5    1    3    3  502    0  0.56617350309E+02 -0.43785890968E+01  0.28427256309E+02  0.63641792085E+02  0.41800000000E+01 0. -1.
         -5    1    3    3    0  502 -0.56071074871E+02  0.29889557606E+02  0.91672861883E+02  0.11161871302E+03  0.41800000000E+01 0. -1.
        -11    1    1    2    0    0 -0.19864285288E+01 -0.44260278052E+02  0.12968367077E+03  0.13704295887E+03  0.00000000000E+00 0.  1.
         11    1    1    2    0    0  0.14401530909E+01  0.18749309544E+02 -0.58458054347E+01  0.19692234268E+02  0.00000000000E+00 0. -1.
</event>
<event>
 7    1  0.1538147E-010  0.1159851E+03  0.7561462E-02  0.1249871E+00
         -2   -1    0    0    0  501 -0.00000000000E+00  0.00000000000E+00  0.45631906568E+02  0.45631906568E+02  0.00000000000E+00 0.  1.
          2   -1    0    0  501    0  0.00000000000E+00 -0.00000000000E+00 -0.46747286903E+03  0.46747286903E+03  0.00000000000E+00 0. -1.
         25    2    1    2    0    0 -0.82484342797E+02  0.39486387082E+02 -0.28701852388E+03  0.32616551106E+03  0.12506584660E+03 0.  0.
          5    1    3    3  502    0 -0.28146660742E+02  0.59840123709E+02 -0.24655118431E+03  0.25529988994E+03  0.41800000000E+01 0. -1.
         -5    1    3    3    0  502 -0.54337682056E+02 -0.20353736626E+02 -0.40467339567E+02  0.70865621126E+02  0.41800000000E+01 0. -1.
        -11    1    1    2    0    0  0.27556661304E+02  0.13963315358E+02  0.10846809983E+01  0.30911491244E+02  0.00000000000E+00 0.  1.
         11    1    1    2    0    0  0.54927681493E+02 -0.53449702441E+02 -0.13590711958E+03  0.15602777329E+03  0.00000000000E+00 0. -1.
</event>
<event>
 6    1  0.1538147E-010  0.8487610E+02  0.7561462E-02  0.1315757E+00
         -2   -1    0    0    0  501 -0.00000000000E+00  0.00000000000E+00  0.22630964708E+02  0.22630964708E+02  0.00000000000E+00 0. -1.
          2   -1    0    0  501    0  0.00000000000E+00 -0.00000000000E+00 -0.57709635104E+03  0.57709635104E+03  0.00000000000E+00 0.  1.
          5    1    1    2  502    0 -0.20813407544E+02  0.38885573345E+02 -0.22606536377E+03  0.23036559388E+03  0.41800000000E+01 0.  1.
         -5    1    1    2    0  502 -0.26899726809E+01 -0.67258857479E+02 -0.97576827357E+02  0.11861576413E+03  0.41800000000E+01 0.  1.
        -11    1    1    2    0    0  0.60211846833E+01 -0.12322532963E+02  0.18995586734E+01  0.13845858831E+02  0.00000000000E+00 0. -1.
         11    1    1    2    0    0  0.17482195541E+02  0.40695817097E+02 -0.23272275387E+03  0.23690009890E+03  0.00000000000E+00 0.  1.
</event>
<event>
 7    1  0.1538147E-010  0.1545852E+03  0.7561462E-02  0.1194949E+00
          2   -1    0    0  501    0  0.00000000000E+00  0.00000000000E+00  0.34254316886E+03  0.34254316886E+03  0.00000000000E+00 0. -1.
         -2   -1    0    0    0  501 -0.00000000000E+00 -0.00000000000E+00 -0.11077736367E+03  0.11077736367E+03  0.00000000000E+00 0.  1.
         25    2    1    2    0    0  0.13416791679E+03  0.37648687801E+02  0.21481699252E+03  0.28496647000E+03  0.12506436406E+03 0.  0.
          5    1    3    3  502    0  0.19602240454E+02 -0.74566773545E+01  0.13829641474E+03  0.13994006073E+03  0.41800000000E+01 0.  1.
         -5    1    3    3    0  502  0.11456567633E+03  0.45105365156E+02  0.76520577783E+02  0.14502640926E+03  0.41800000000E+01 0.  1.
        -11    1    1    2    0    0 -0.90062078970E+02  0.19749767670E+02 -0.60518923494E+01  0.92400523767E+02  0.00000000000E+00 0.  1.
         11    1    1    2    0    0 -0.44105837819E+02 -0.57398455471E+02  0.23000705023E+02  0.75953538770E+02  0.00000000000E+00 0. -1.
</event>
<event>
 7    1  0.1538147E-010  0.1424068E+03  0.7561462E-02  0.1210127E+00
          1   -1    0    0  501    0  0.00000000000E+00  0.00000000000E+00  0.10705197670E+04  0.10705197670E+04  0.00000000000E+00 0. -1.
         -1   -1    0    0    0  501 -0.00000000000E+00 -0.00000000000E+00 -0.24516290341E+02  0.24516290341E+02  0.00000000000E+00 0.  1.
         25    2    1    2    0    0 -0.50389107921E+02 -0.10481918838E+03  0.65959239446E+03  0.68134415931E+03  0.12506643091E+03 0.  0.
          5    1    3    3  502    0  0.27981386516E+02 -0.14308703014E+01  0.44847801166E+02  0.53045292445E+02  0.41800000000E+01 0. -1.
         -5    1    3    3    0  502 -0.78370494437E+02 -0.10338831808E+03  0.61474459330E+03  0.62829886687E+03  0.41800000000E+01 0. -1.
        -11    1    1    2    0    0 -0.17885829570E+00  0.57273681876E+02  0.73527593508E+02  0.93202004447E+02  0.00000000000E+00 0.  1.
         11    1    1    2    0    0  0.50567966217E+02  0.47545506507E+02  0.31288348868E+03  0.32048989358E+03  0.00000000000E+00 0. -1.
</event>
<event>
 7    1  0.1538147E-010  0.9967011E+02  0.7561462E-02  0.1280991E+00
         -2   -1    0    0    0  501 -0.00000000000E+00  0.00000000000E+00  0.18767041931E+03  0.18767041931E+03  0.00000000000E+00 0.  1.
          2   -1    0    0  501    0  0.00000000000E+00 -0.00000000000E+00 -0.78425573889E+02  0.78425573889E+02  0.00000000000E+00 0. -1.
         25    2    1    2    0    0 -0.48563178673E+02  0.23711241364E+02  0.68761077024E+02  0.15266795066E+03  0.12513517553E+03 0.  0.
          5    1    3    3  502    0  0.39326892989E+02  0.67789984048E+01  0.67469087110E+00  0.40130872645E+02  0.41800000000E+01 0. -1.
         -5    1    3    3    0  502 -0.87890071661E+02  0.16932242959E+02  0.68086386153E+02  0.11253707801E+03  0.41800000000E+01 0. -1.
        -11    1    1    2    0    0  0.27004202497E+02  0.10665027295E+02  0.61296099843E+02  0.67824638706E+02  0.00000000000E+00 0.  1.
         11    1    1    2    0    0  0.21558976176E+02 -0.34376268658E+02 -0.20812331450E+02  0.45603403831E+02  0.00000000000E+00 0. -1.
</event>
<event>
 7    1  0.1538147E-010  0.9820686E+02  0.7561462E-02  0.1284113E+00
         -3   -1    0    0    0  501 -0.00000000000E+00  0.00000000000E+00  0.11089016508E+03  0.11089016508E+03  0.00000000000E+00 0.  1.
          3   -1    0    0  501    0  0.00000000000E+00 -0.00000000000E+00 -0.13307634670E+03  0.13307634670E+03  0.00000000000E+00 0. -1.
         25    2    1    2    0    0 -0.14739099810E+02 -0.29673803574E+02 -0.56023609583E+02  0.14102995716E+03  0.12511206298E+03 0.  0.
          5    1    3    3  502    0 -0.30084358929E+02  0.32032038010E+02  0.14040785908E+02  0.46322091707E+02  0.41800000000E+01 0.  1.
         -5    1    3    3    0  502  0.15345259118E+02 -0.61705841584E+02 -0.70064395491E+02  0.94707865453E+02  0.41800000000E+01 0.  1.
        -11    1    1    2    0    0 -0.28238699361E+02 -0.10099696567E+02 -0.79157152960E+01  0.31017520226E+02  0.00000000000E+00 0. -1.
         11    1    1    2    0    0  0.42977799172E+02  0.39773500141E+02  0.41753143258E+02  0.71919034386E+02  0.00000000000E+00 0.  1.
</event>
<event>
 6    1  0.1538147E-010  0.1017362E+03  0.7561462E-02  0.1276687E+00
         -2   -1    0    0    0  501 -0.00000000000E+00  0.00000000000E+00  0.36582930925E+02  0.36582930925E+02  0.00000000000E+00 0.  1.
          2   -1    0    0  501    0  0.00000000000E+00 -0.00000000000E+00 -0.51058713313E+03  0.51058713313E+03  0.00000000000E+00 0. -1.
          5    1    1    2  502    0 -0.18463885059E+02 -0.31153861586E+02 -0.24589067682E+03  0.24857830857E+03  0.41800000000E+01 0.  1.
         -5    1    1    2    0  502  0.28914075461E+02 -0.50146677552E+02 -0.30298160340E+02  0.65468801343E+02  0.41800000000E+01 0.  1.
        -11    1    1    2    0    0  0.22411672343E+02  0.71136919592E+02 -0.17899710846E+03  0.19391418004E+03  0.00000000000E+00 0. -1.
         11    1    1    2    0    0 -0.32861862746E+02  0.10163619546E+02 -0.18818256586E+02  0.39208774098E+02  0.00000000000E+00 0.  1.
</event>
<event>
 7    1  0.1538147E-010  0.2003205E+03  0.7561462E-02  0.1149469E+00
          2   -1    0    0  501    0  0.00000000000E+00  0.00000000000E+00  0.11333504003E+03  0.11333504003E+03  0.00000000000E+00 0.  1.
         -2   -1    0    0    0  501 -0.00000000000E+00 -0.00000000000E+00 -0.42480749718E+03  0.42480749718E+03  0.00000000000E+00 0. -1.
         25    2    1    2    0    0  0.19047139456E+03 -0.30018306609E+01 -0.17410384350E+03  0.28677756197E+03  0.12506341830E+03 0.  0.
          5    1    3    3  502    0  0.18757698220E+02 -0.30520120769E+02 -0.82806572647E+02  0.90320152169E+02  0.41800000000E+01 0.  1.
         -5    1    3    3    0  502  0.17171369634E+03  0.27518290108E+02 -0.91297270849E+02  0.19645740980E+03  0.41800000000E+01 0.  1.
        -11    1    1    2    0    0 -0.14959110793E+03 -0.47212428963E+00 -0.55069644089E+02  0.15940636177E+03  0.00000000000E+00 0.  1.
         11    1    1    2    0    0 -0.40880286635E+02  0.34739549505E+01 -0.82298969563E+02  0.91958613460E+02  0.00000000000E+00 0. -1.
</event>
<event>
 7    1  0.1538147E-010  0.1650773E+03  0.7561462E-02  0.1183081E+00
         -2   -1    0    0    0  501 -0.00000000000E+00  0.00000000000E+00  0.66816376202E+02  0.66816376202E+02  0.00000000000E+00 0.  1.
          2   -1    0    0  501    0  0.00000000000E+00 -0.00000000000E+00 -0.42080801147E+03  0.42080801147E+03  0.00000000000E+00 0. -1.
         25    2    1    2    0    0  0.39670911182E+02  0.12121197498E+03 -0.18440335925E+03  0.25673543082E+03  0.12506941458E+03 0.  0.
          5    1    3    3  502    0  0.31835448798E+02  0.14496086196E+03 -0.13262736937E+03  0.19908450168E+03  0.41800000000E+01 0. -1.
         -5    1    3    3    0  502  0.78354623841E+01 -0.23748886981E+02 -0.51775989881E+02  0.57650929149E+02  0.41800000000E+01 0. -1.
        -11    1    1    2    0    0 -0.32767148301E+02  0.20867022031E+01 -0.42200808013E+02  0.53469136245E+02  0.00000000000E+00 0.  1.
         11    1    1    2    0    0 -0.69037628810E+01 -0.12329867719E+03 -0.12738746800E+03  0.17741982060E+03  0.00000000000E+00 0. -1.
</event>
<event>
 6    1  0.1538147E-010  0.1151431E+03  0.7561462E-02  0.1251332E+00
         -1   -1    0    0    0  501 -0.00000000000E+00  0.00000000000E+00  0.81280130049E+02  0.81280130049E+02  0.00000000000E+00 0.  1.
          1   -1    0    0  501    0  0.00000000000E+00 -0.00000000000E+00 -0.26124879688E+03  0.26124879688E+03  0.00000000000E+00 0. -1.
          5    1    1    2  502    0  0.24534678519E+02  0.92947637867E+01 -0.10296001065E+03  0.10633239994E+03  0.41800000000E+01 0.  1.
         -5    1    1    2    0  502  0.55048332187E+02 -0.64558818711E+02 -0.48579583123E+01  0.85083677100E+02  0.41800000000E+01 0.  1.
        -11    1    1    2    0    0 -0.63667897529E+02  0.71705176330E+02 -0.25612509808E+02  0.99253383555E+02  0.00000000000E+00 0.  1.
         11    1    1    2    0    0 -0.15915113176E+02 -0.16441121406E+02 -0.46538188062E+02  0.51859466335E+02  0.00000000000E+00 0. -1.
</event>
<event>
 7    1  0.1910151E-010  0.1144390E+03  0.7561462E-02  0.1252563E+00
          1   -1    0    0  501    0  0.00000000000E+00  0.00000000000E+00  0.65406427737E+03  0.65406427737E+03  0.00000000000E+00 0. -1.
         -1   -1    0    0    0  501 -0.00000000000E+00 -0.00000000000E+00 -0.30815110412E+02  0.30815110412E+02  0.00000000000E+00 0.  1.
         25    2    1    2    0    0 -0.68145476908E+02 -0.35850095004E+02  0.46648888566E+03  0.48906272042E+03  0.12506569761E+03 0.  0.
          5    1    3    3  502    0 -0.82425351338E+02 -0.25074783808E+01  0.42846001249E+03  0.43634353518E+03  0.41800000000E+01 0. -1.
         -5    1    3    3    0  502  0.14279874430E+02 -0.33342616624E+02  0.38028873177E+02  0.52719185238E+02  0.41800000000E+01 0. -1.
        -11    1    1    2    0    0  0.50674705866E+02 -0.17537313390E+02  0.42242038889E+02  0.68263262632E+02  0.00000000000E+00 0.  1.
         11    1    1    2    0    0  0.17470771041E+02  0.53387408394E+02  0.11451824240E+03  0.12755340473E+03  0.00000000000E+00 0. -1.
</event>
<event>
 6    1  0.1538147E-010  0.1200239E+03  0.7561462E-02  0.1243058E+00
          4   -1    0    0  501    0  0.00000000000E+00  0.00000000000E+00  0.11111471798E+03  0.11111471798E+03  0.00000000000E+00 0.  1.
         -4   -1    0    0    0  501 -0.00000000000E+00 -0.00000000000E+00 -0.18229324176E+03  0.18229324176E+03  0.00000000000E+00 0. -1.
          5    1    1    2  502    0 -0.94544973317E+02 -0.49149178070E+02  0.14040558096E+02  0.10755930158E+03  0.41800000000E+01 0.  1.
         -5    1    1    2    0  502  0.70840244959E+01  0.33945120359E+02 -0.31260624240E+02  0.46873805341E+02  0.41800000000E+01 0.  1.
        -11    1    1    2    0    0  0.57380204613E+02  0.30230304023E+02  0.11044377636E+02  0.65790101384E+02  0.00000000000E+00 0.  1.
         11    1    1    2    0    0  0.30080744208E+02 -0.15026246312E+02 -0.65002835269E+02  0.73184751440E+02  0.00000000000E+00 0. -1.
</event>
<event>
 7    1  0.1538147E-010  0.1048621E+03  0.7561462E-02  0.1270392E+00
          1   -1    0    0  501    0  0.00000000000E+00  0.00000000000E+00  0.42553926730E+03  0.42553926730E+03  0.00000000000E+00 0. -1.
         -1   -1    0    0    0  501 -0.00000000000E+00 -0.00000000000E+00 -0.29908026061E+02  0.29908026061E+02  0.00000000000E+00 0.  1.
         25    2    1    2    0    0 -0.26621495211E+02  0.84080051676E+01  0.25736659612E+03  0.28752598023E+03  0.12511684917E+03 0.  0.
          5    1    3    3  502    0 -0.71891160026E+02  0.21879698097E+02  0.11471865854E+03  0.13720387420E+03  0.41800000000E+01 0.  1.
         -5    1    3    3    0  502  0.45269664815E+02 -0.13471692930E+02  0.14264793758E+03  0.15032210603E+03  0.41800000000E+01 0.  1.
        -11    1    1    2    0    0  0.35993150572E+02  0.30404921024E+02  0.39827169273E+02  0.61694161173E+02  0.00000000000E+00 0.  1.
         11    1    1    2    0    0 -0.93716553611E+01 -0.38812926192E+02  0.98437475847E+02  0.10622715197E+03  0.00000000000E+00 0. -1.
</event>
<event>
 7    1  0.1538147E-010  0.1104005E+03  0.7561462E-02  0.1259830E+00
         -2   -1    0    0    0  501 -0.00000000000E+00  0.00000000000E+00  0.64644277636E+02  0.64644277636E+02  0.00000000000E+00 0.  1.
          2   -1    0    0  501    0  0.00000000000E+00 -0.00000000000E+00 -0.26714710026E+03  0.26714710026E+03  0.00000000000E+00 0. -1.
         25    2    1    2    0    0 -0.28460619299E+02  0.66341511482E+02 -0.86094745320E+02  0.16812457753E+03  0.12506944231E+03 0.  0.
          5    1    3    3  502    0 -0.52092477553E+02  0.14449665190E+02 -0.95852462862E+02  0.11012531988E+03  0.41800000000E+01 0. -1.
         -5    1    3    3    0  502  0.23631858254E+02  0.51891846291E+02  0.97577175421E+01  0.57999257648E+02  0.41800000000E+01 0. -1.
        -11    1    1    2    0    0  0.57534131741E+02 -0.48871372286E+02 -0.10180224163E+03  0.12673706540E+03  0.00000000000E+00 0. -1.
         11    1    1    2    0    0 -0.29073512442E+02 -0.17470139196E+02 -0.14605835668E+02  0.36929734967E+02  0.00000000000E+00 0.  1.
</event>
<event>
 7    1  0.1538147E-010  0.1271093E+03  0.7561462E-02  0.1231809E+00
         -1   -1    0    0    0  501 -0.00000000000E+00  0.00000000000E+00  0.13005086883E+03  0.13005086883E+03  0.00000000000E+00 0.  1.
          1   -1    0    0  501    0  0.00000000000E+00 -0.00000000000E+00 -0.13133193630E+03  0.13133193630E+03  0.00000000000E+00 0. -1.
         25    2    1    2    0    0 -0.62377462581E+02  0.22046694506E+02 -0.28948506667E+02  0.14445883573E+03  0.12511328708E+03 0.  0.
          5    1    3    3  502    0  0.14378463092E+02  0.55446314164E+02 -0.72901107646E+01  0.57893454468E+02  0.41800000000E+01 0. -1.
         -5    1    3    3    0  502 -0.76755925674E+02 -0.33399619658E+02 -0.21658395902E+02  0.86565381258E+02  0.41800000000E+01 0. -1.
        -11    1    1    2    0    0  0.84973387036E+02 -0.28242240795E+02  0.26838348422E+02  0.93479396743E+02  0.00000000000E+00 0.  1.
         11    1    1    2    0    0 -0.22595924455E+02  0.61955462897E+01  0.82909078032E+00  0.23444572662E+02  0.00000000000E+00 0. -1.
</event>
<event>
 7    1  0.1538147E-010  0.8313949E+02  0.7561462E-02  0.1320371E+00
         -2   -1    0    0    0  501 -0.00000000000E+00  0.00000000000E+00  0.20720741280E+03  0.20720741280E+03  0.00000000000E+00 0.  1.
          2   -1    0    0  501    0  0.00000000000E+00 -0.00000000000E+00 -0.42766910342E+02  0.42766910342E+02  0.00000000000E+00 0. -1.
         25    2    1    2    0    0  0.77542353834E+01  0.57093401373E+01  0.12113056249E+03  0.17437560637E+03  0.12506603934E+03 0.  0.
          5    1    3    3  502    0  0.63408574971E+02  0.93129907003E+01  0.89386888098E+02  0.11006755807E+03  0.41800000000E+01 0.  1.
         -5    1    3    3    0  502 -0.55654339588E+02 -0.36036505630E+01  0.31743674396E+02  0.64308048303E+02  0.41800000000E+01 0.  1.
        -11    1    1    2    0    0 -0.95915924302E+01  0.19034570921E+02 -0.44536509713E+01  0.21774952181E+02  0.00000000000E+00 0. -1.
         11    1    1    2    0    0  0.18373570468E+01 -0.24743911059E+02  0.47763590934E+02  0.53823764587E+02  0.00000000000E+00 0.  1.
</event>
<event>
 7    1  0.1538147E-010  0.9336462E+02  0.7561462E-02  0.1294902E+00
          4   -1    0    0  501    0  0.00000000000E+00  0.00000000000E+00  0.64915907448E+02  0.64915907448E+02  0.00000000000E+00 0. -1.
         -4   -1    0    0    0  501 -0.00000000000E+00 -0.00000000000E+00 -0.20388115239E+03  0.20388115239E+03  0.00000000000E+00 0.  1.
         25    2    1    2    0    0  0.67290152817E+01  0.10663870747E+02 -0.26129313477E+02  0.12843269593E+03  0.12511282338E+03 0.  0.
          5    1    3    3  502    0 -0.56644765765E+02 -0.87510600711E+01 -0.23139997598E+02  0.61952743521E+02  0.41800000000E+01 0. -1.
         -5    1    3    3    0  502  0.63373781047E+02  0.19414930818E+02 -0.29893158793E+01  0.66479952409E+02  0.41800000000E+01 0. -1.
        -11    1    1    2    0    0 -0.16922108119E+02 -0.33670682530E+02 -0.17110060809E+02  0.41386311579E+02  0.00000000000E+00 0. -1.
         11    1    1    2    0    0  0.10193092838E+02  0.23006811783E+02 -0.95725870655E+02  0.98978052328E+02  0.00000000000E+00 0.  1.
</event>
<event>
 7    1  0.1538147E-010  0.1023378E+03  0.7561462E-02  0.1275455E+00
         -1   -1    0    0    0  501 -0.00000000000E+00  0.00000000000E+00  0.49309480127E+03  0.49309480127E+03  0.00000000000E+00 0.  1.
          1   -1    0    0  501    0  0.00000000000E+00 -0.00000000000E+00 -0.39700010788E+02  0.39700010788E+02  0.00000000000E+00 0. -1.
         25    2    1    2    0    0  0.54896512546E+02 -0.58493844905E+02  0.16381276034E+03  0.22120250016E+03  0.12514299280E+03 0.  0.
          5    1    3    3  502    0  0.64600854155E+01  0.71362882585E+01  0.13376380460E+03  0.13417483793E+03  0.41800000000E+01 0. -1.
         -5    1    3    3    0  502  0.48436427131E+02 -0.65630133163E+02  0.30048955743E+02  0.87027662232E+02  0.41800000000E+01 0. -1.
        -11    1    1    2    0    0 -0.14067668929E+01  0.58996952250E+02  0.11916433753E+03  0.13297653442E+03  0.00000000000E+00 0. -1.
         11    1    1    2    0    0 -0.53489745654E+02 -0.50310734462E+00  0.17041769261E+03  0.17861577747E+03  0.00000000000E+00 0.  1.
</event>
<event>
 7    1  0.1538147E-010  0.7791841E+02  0.7561462E-02  0.1335065E+00
         -2   -1    0    0    0  501 -0.00000000000E+00  0.00000000000E+00  0.64442164130E+02  0.64442164130E+02  0.00000000000E+00 0. -1.
          2   -1    0    0  501    0  0.00000000000E+00 -0.00000000000E+00 -0.17836697704E+03  0.17836697704E+03  0.00000000000E+00 0.  1.
         25    2    1    2    0    0 -0.15303436602E+02  0.50849019183E+01 -0.66706084996E+02  0.14269836296E+03  0.12511222808E+03 0.  0.
          5    1    3    3  502    0  0.34746577291E+02 -0.16959425593E+02 -0.77579956534E+02  0.86781730830E+02  0.41800000000E+01 0.  1.
         -5    1    3    3    0  502 -0.50050013893E+02  0.22044327511E+02  0.10873871539E+02  0.55916632126E+02  0.41800000000E+01 0.  1.
        -11    1    1    2    0    0  0.32005853509E+02  0.15522769539E+02 -0.60700215789E+02  0.70355150699E+02  0.00000000000E+00 0.  1.
         11    1    1    2    0    0 -0.16702416907E+02 -0.20607671457E+02  0.13481487875E+02  0.29755627514E+02  0.00000000000E+00 0. -1.
</event>
<event>
 7    1  0.1538147E-010  0.1363877E+03  0.7561462E-02  0.1218274E+00
         -2   -1    0    0    0  501 -0.00000000000E+00  0.00000000000E+00  0.35743695350E+02  0.35743695350E+02  0.00000000000E+00 0.  1.
          2   -1    0    0  501    0  0.00000000000E+00 -0.00000000000E+00 -0.57090986478E+03  0.57090986478E+03  0.00000000000E+00 0. -1.
         25    2    1    2    0    0 -0.33562637537E+02 -0.81712456796E+02 -0.24955986344E+03  0.29278815093E+03  0.12506558140E+03 0.  0.
          5    1    3    3  502    0  0.23189481641E+02  0.19077665515E+02 -0.94819983013E+02  0.99549037961E+02  0.41800000000E+01 0.  1.
         -5    1    3    3    0  502 -0.56752119178E+02 -0.10079012231E+03 -0.15473988043E+03  0.19323911297E+03  0.41800000000E+01 0.  1.
        -11    1    1    2    0    0 -0.20553630378E+02  0.67784937396E+02 -0.19439707095E+03  0.20689966325E+03  0.00000000000E+00 0.  1.
         11    1    1    2    0    0  0.54116267915E+02  0.13927519400E+02 -0.91209235038E+02  0.10696574595E+03  0.00000000000E+00 0. -1.
</event>
<event>
 7    1  0.1538147E-010  0.9712901E+02  0.7561462E-02  0.1286452E+00
          1   -1    0    0  501    0  0.00000000000E+00  0.00000000000E+00  0.35100951014E+03  0.35100951014E+03  0.00000000000E+00 0.  1.
         -1   -1    0    0    0  501 -0.00000000000E+00 -0.00000000000E+00 -0.54726772125E+02  0.54726772125E+02  0.00000000000E+00 0. -1.
         25    2    1    2    0    0 -0.20732939493E+02  0.53817336129E+02  0.67718051688E+02  0.15351387470E+03  0.12511840294E+03 0.  0.
          5    1    3    3  502    0  0.24777522806E+02  0.17697164238E+02 -0.27926143176E+02  0.41526583427E+02  0.41800000000E+01 0.  1.
         -5    1    3    3    0  502 -0.45510462299E+02  0.36120171890E+02  0.95644194864E+02  0.11198729128E+03  0.41800000000E+01 0.  1.
        -11    1    1    2    0    0  0.16997340586E+02 -0.78494211040E+02  0.19011040831E+03  0.20637882183E+03  0.00000000000E+00 0.  1.
         11    1    1    2    0    0  0.37355989068E+01  0.24676874911E+02  0.38454278018E+02  0.45843585729E+02  0.00000000000E+00 0. -1.
</event>
<event>
 6    1  0.1538147E-010  0.1464422E+03  0.7561462E-02  0.1204914E+00
          1   -1    0    0  501    0  0.00000000000E+00  0.00000000000E+00  0.18101632957E+03  0.18101632957E+03  0.00000000000E+00 0. -1.
         -1   -1    0    0    0  501 -0.00000000000E+00 -0.00000000000E+00 -0.12737568676E+03  0.12737568676E+03  0.00000000000E+00 0.  1.
          5    1    1    2  502    0  0.21891245696E+02 -0.65564548467E+02  0.19248283938E+02  0.71874233828E+02  0.41800000000E+01 0.  1.
         -5    1    1    2    0  502  0.77050901870E+02  0.46651327509E+02  0.48331609933E+02  0.10230642578E+03  0.41800000000E+01 0.  1.
        -11    1    1    2    0    0 -0.51590694849E+02 -0.34516713180E+02 -0.53168376712E+01  0.62299855911E+02  0.00000000000E+00 0. -1.
         11    1    1    2    0    0 -0.47351452716E+02  0.53429934138E+02 -0.86224133889E+01  0.71911500812E+02  0.00000000000E+00 0.  1.
</event>
<event>
 7    1  0.2323766E-010  0.5517173E+02  0.7561462E-02  0.1419289E+00
         -4   -1    0    0    0  501 -0.00000000000E+00  0.00000000000E+00  0.16207783944E+03  0.16207783944E+03  0.00000000000E+00 0. -1.
          4   -1    0    0  501    0  0.00000000000E+00 -0.00000000000E+00 -0.88516081617E+02  0.88516081617E+02  0.00000000000E+00 0.  1.
         25    2    1    2    0    0  0.40657852452E+02 -0.31824707304E+02  0.45945470357E+02  0.14289390552E+03  0.12506721804E+03 0.  0.
          5    1    3    3  502    0  0.49016654099E+01  0.37750873123E+01 -0.41328511392E+02  0.41997569714E+02  0.41800000000E+01 0.  1.
         -5    1    3    3    0  502  0.35756187042E+02 -0.35599794616E+02  0.87273981750E+02  0.10089633581E+03  0.41800000000E+01 0.  1.
        -11    1    1    2    0    0 -0.96638582246E+01  0.12197137650E+02  0.58008897248E+02  0.60059907448E+02  0.00000000000E+00 0. -1.
         11    1    1    2    0    0 -0.30993994228E+02  0.19627569653E+02 -0.30392609787E+02  0.47640108085E+02  0.00000000000E+00 0.  1.
</event>
<event>
 7    1  0.1538147E-010  0.1035121E+03  0.7561462E-02  0.1273079E+00
         -1   -1    0    0    0  501 -0.00000000000E+00  0.00000000000E+00  0.16731607162E+03  0.16731607162E+03  0.00000000000E+00 0.  1.
          1   -1    0    0  501    0  0.00000000000E+00 -0.00000000000E+00 -0.20392374893E+03  0.20392374893E+03  0.00000000000E+00 0. -1.
         25    2    1    2    0    0  0.65130663560E+02 -0.40674128430E+01  0.11559349285E+03  0.18241280277E+03  0.12511605749E+03 0.  0.
          5    1    3    3  502    0  0.17781681201E+02  0.59211766705E+02  0.51391039065E+02  0.80502998695E+02  0.41800000000E+01 0.  1.
         -5    1    3    3    0  502  0.47348982359E+02 -0.63279179548E+02  0.64202453782E+02  0.10190980407E+03  0.41800000000E+01 0.  1.
        -11    1    1    2    0    0 -0.21609806845E+02 -0.30259527249E+01  0.75593025142E+01  0.23092925243E+02  0.00000000000E+00 0.  1.
         11    1    1    2    0    0 -0.43520856715E+02  0.70933655679E+01 -0.15976047267E+03  0.16573409255E+03  0.00000000000E+00 0. -1.
</event>
<event>
 7    1  0.1538147E-010  0.1286544E+03  0.7561462E-02  0.1229466E+00
          3   -1    0    0  501    0  0.00000000000E+00  0.00000000000E+00  0.85895854407E+03  0.85895854407E+03  0.00000000000E+00 0. -1.
         -3   -1    0    0    0  501 -0.00000000000E+00 -0.00000000000E+00 -0.25667352301E+02  0.25667352301E+02  0.00000000000E+00 0.  1.
         25    2    1    2    0    0 -0.43563348448E+02  0.77599143213E+02  0.58309584508E+03  0.60297225903E+03  0.12512149397E+03 0.  0.
          5    1    3    3  502    0  0.20160168655E+02 -0.77098038950E+01  0.29468936525E+03  0.29550832115E+03  0.41800000000E+01 0. -1.
         -5    1    3    3    0  502 -0.63723517103E+02  0.85308947108E+02  0.28840647983E+03  0.30746393788E+03  0.41800000000E+01 0. -1.
        -11    1    1    2    0    0  0.67019652761E+01  0.21768007553E+02  0.55262526740E+02  0.59772145294E+02  0.00000000000E+00 0.  1.
         11    1    1    2    0    0  0.36861383171E+02 -0.99367150766E+02  0.19493281995E+03  0.22188149205E+03  0.00000000000E+00 0. -1.
</event>
<event>
 7    1  0.1538147E-010  0.1219853E+03  0.7561462E-02  0.1239857E+00
         -1   -1    0    0    0  501 -0.00000000000E+00  0.00000000000E+00  0.31995376677E+02  0.31995376677E+02  0.00000000000E+00 0.  1.
          1   -1    0    0  501    0  0.00000000000E+00 -0.00000000000E+00 -0.54998248253E+03  0.54998248253E+03  0.00000000000E+00 0. -1.
         25    2    1    2    0    0  0.57640613176E+02 -0.43175338892E+02 -0.23427989766E+03  0.27519122252E+03  0.12512628952E+03 0.  0.
          5    1    3    3  502    0  0.85212707479E+02 -0.51624329926E+02 -0.11412184669E+03  0.15155047096E+03  0.41800000000E+01 0. -1.
         -5    1    3    3    0  502 -0.27572094303E+02  0.84489910331E+01 -0.12015805097E+03  0.12364075156E+03  0.41800000000E+01 0. -1.
        -11    1    1    2    0    0  0.55253096312E+01 -0.22985868239E+02 -0.39808536156E+02  0.46299014418E+02  0.00000000000E+00 0. -1.
         11    1    1    2    0    0 -0.63165922808E+02  0.66161207131E+02 -0.24389867204E+03  0.26048762227E+03  0.00000000000E+00 0.  1.
</event>
<event>
 7    1  0.1538147E-010  0.1520550E+03  0.7561462E-02  0.1197970E+00
          1   -1    0    0  501    0  0.00000000000E+00  0.00000000000E+00  0.29311338013E+02  0.29311338013E+02  0.00000000000E+00 0. -1.
         -1   -1    0    0    0  501 -0.00000000000E+00 -0.00000000000E+00 -0.84422270705E+03  0.84422270705E+03  0.00000000000E+00 0.  1.
         25    2    1    2    0    0  0.13265275114E+02  0.11256745687E+03 -0.40401461547E+03  0.43785543053E+03  0.12506865577E+03 0.  0.
          5    1    3    3  502    0  0.63841129308E+01  0.13522597309E+03 -0.38182475452E+03  0.40513508396E+03  0.41800000000E+01 0. -1.
         -5    1    3    3    0  502  0.68811621832E+01 -0.22658516215E+02 -0.22189860959E+02  0.32720346567E+02  0.41800000000E+01 0. -1.
        -11    1    1    2    0    0  0.34966384675E+02 -0.77398058150E+02 -0.25304588556E+03  0.26691820406E+03  0.00000000000E+00 0.  1.
         11    1    1    2    0    0 -0.48231659789E+02 -0.35169398725E+02 -0.15785086800E+03  0.16876041047E+03  0.00000000000E+00 0. -1.
</event>
<event>
 6    1  0.1538147E-010  0.9480100E+02  0.7561462E-02  0.1291625E+00
         -2   -1    0    0    0  501 -0.00000000000E+00  0.00000000000E+00  0.37366043240E+02  0.37366043240E+02  0.00000000000E+00 0.  1.
          2   -1    0    0  501    0  0.00000000000E+00 -0.00000000000E+00 -0.46161557314E+03  0.46161557314E+03  0.00000000000E+00 0. -1.
          5    1    1    2  502    0 -0.22921030945E+02  0.25885882461E+02 -0.38879109362E+01  0.35043413386E+02  0.41800000000E+01 0.  1.
         -5    1    1    2    0  502  0.71644761758E+02  0.27882395003E+02 -0.20490567638E+03  0.21889314391E+03  0.41800000000E+01 0.  1.
        -11    1    1    2    0    0 -0.19999657740E+02 -0.41141252004E+01  0.16534583070E+01  0.20485269347E+02  0.00000000000E+00 0.  1.
         11    1    1    2    0    0 -0.28724073074E+02 -0.49654152264E+02 -0.21710940089E+03  0.22455978973E+03  0.00000000000E+00 0. -1.
</event>
<event>
 6    1  0.1538147E-010  0.2484452E+03  0.7561462E-02  0.1114291E+00
         -1   -1    0    0    0  501 -0.00000000000E+00  0.00000000000E+00  0.31942274834E+03  0.31942274834E+03  0.00000000000E+00 0.  1.
          1   -1    0    0  501    0  0.00000000000E+00 -0.00000000000E+00 -0.32244810593E+03  0.32244810593E+03  0.00000000000E+00 0. -1.
          5    1    1    2  502    0  0.17474208515E+03 -0.16098309625E+03 -0.14052870242E+03  0.27607271181E+03  0.41800000000E+01 0.  1.
         -5    1    1    2    0  502  0.21775087045E+01  0.90711507935E+01 -0.47343474726E+02  0.48434536439E+02  0.41800000000E+01 0.  1.
        -11    1    1    2    0    0 -0.15785382208E+03  0.84633775794E+02  0.92670773881E+02  0.20166451716E+03  0.00000000000E+00 0. -1.
         11    1    1    2    0    0 -0.19065771774E+02  0.67278169662E+02  0.92176045681E+02  0.11569908886E+03  0.00000000000E+00 0.  1.
</event>
<event>
 6    1  0.1538147E-010  0.1192203E+03  0.7561462E-02  0.1244389E+00
          4   -1    0    0  501    0  0.00000000000E+00  0.00000000000E+00  0.43075516845E+02  0.43075516845E+02  0.00000000000E+00 0. -1.
         -4   -1    0    0    0  501 -0.00000000000E+00 -0.00000000000E+00 -0.34440220883E+03  0.34440220883E+03  0.00000000000E+00 0.  1.
          5    1    1    2  502    0  0.54853298470E+02  0.32658141854E+02 -0.94044042710E+02  0.11374178191E+03  0.41800000000E+01 0.  1.
         -5    1    1    2    0  502 -0.67306230823E+02  0.20360372627E+02 -0.65029937120E+02  0.95869904574E+02  0.41800000000E+01 0.  1.
        -11    1    1    2    0    0 -0.34226474773E+02 -0.45193717617E+02 -0.57221339910E+02  0.80549397443E+02  0.00000000000E+00 0. -1.
         11    1    1    2    0    0  0.46679407127E+02 -0.78247968647E+01 -0.85031372242E+02  0.97316641747E+02  0.00000000000E+00 0.  1.
</event>
<event>
 6    1  0.1538147E-010  0.1041524E+03  0.7561462E-02  0.1271799E+00
         -2   -1    0    0    0  501 -0.00000000000E+00  0.00000000000E+00  0.19575676689E+03  0.19575676689E+03  0.00000000000E+00 0.  1.
          2   -1    0    0  501    0  0.00000000000E+00 -0.00000000000E+00 -0.83734594285E+02  0.83734594285E+02  0.00000000000E+00 0. -1.
          5    1    1    2  502    0 -0.44290763042E+01  0.29551676873E+02 -0.20310225373E+02  0.36371636994E+02  0.41800000000E+01 0.  1.
         -5    1    1    2    0  502 -0.30621034785E+02 -0.50360055425E+02  0.10400607786E+03  0.11961822430E+03  0.41800000000E+01 0.  1.
        -11    1    1    2    0    0  0.60162788532E+02  0.51636295761E+02  0.26869886296E+02  0.83712955708E+02  0.00000000000E+00 0.  1.
         11    1    1    2    0    0 -0.25112677442E+02 -0.30827917209E+02  0.14564338222E+01  0.39788544171E+02  0.00000000000E+00 0. -1.
</event>
<event>
 7    1  0.1538147E-010  0.1019195E+03  0.7561462E-02  0.1276311E+00
         -1   -1    0    0    0  501 -0.00000000000E+00  0.00000000000E+00  0.18187490500E+02  0.18187490500E+02  0.00000000000E+00 0.  1.
          1   -1    0    0  501    0  0.00000000000E+00 -0.00000000000E+00 -0.78462722850E+03  0.78462722850E+03  0.00000000000E+00 0. -1.
         25    2    1    2    0    0 -0.36973252098E+02 -0.26302662719E+02 -0.48615992411E+03  0.50404688082E+03  0.12511168936E+03 0.  0.
          5    1    3    3  502    0 -0.65000626926E+02  0.22496707010E+02 -0.18020219105E+03  0.19292870545E+03  0.41800000000E+01 0.  1.
         -5    1    3    3    0  502  0.28027374828E+02 -0.48799369729E+02 -0.30595773306E+03  0.31111817537E+03  0.41800000000E+01 0.  1.
        -11    1    1    2    0    0  0.19575321082E+01  0.40620894057E+02 -0.24033832984E+03  0.24375479843E+03  0.00000000000E+00 0. -1.
         11    1    1    2    0    0  0.35015719990E+02 -0.14318231338E+02 -0.39941484053E+02  0.55013039758E+02  0.00000000000E+00 0.  1.
</event>
<event>
 7    1  0.1538147E-010  0.7059849E+02  0.7561462E-02  0.1358070E+00
         -2   -1    0    0    0  501 -0.00000000000E+00  0.00000000000E+00  0.52295560193E+02  0.52295560193E+02  0.00000000000E+00 0.  1.
          2   -1    0    0  501    0  0.00000000000E+00 -0.00000000000E+00 -0.24640944331E+03  0.24640944331E+03  0.00000000000E+00 0. -1.
         25    2    1    2    0    0  0.31532545863E+02  0.67007376830E+01 -0.11123163860E+03  0.17045059297E+03  0.12506688564E+03 0.  0.
          5    1    3    3  502    0  0.11732380794E+02 -0.17327046172E+02  0.23711248746E+02  0.31899388791E+02  0.41800000000E+01 0. -1.
         -5    1    3    3    0  502  0.19800165069E+02  0.24027783855E+02 -0.13494288735E+03  0.13855120418E+03  0.41800000000E+01 0. -1.
        -11    1    1    2    0    0 -0.42901765971E+02 -0.36640045674E+02 -0.24174290526E+02  0.61379563316E+02  0.00000000000E+00 0.  1.
         11    1    1    2    0    0  0.11369220109E+02  0.29939307991E+02 -0.58707953993E+02  0.66874847221E+02  0.00000000000E+00 0. -1.
</event>
<event>
 7    1  0.1538147E-010  0.1655838E+03  0.7561462E-02  0.1182533E+00
          2   -1    0    0  501    0  0.00000000000E+00  0.00000000000E+00  0.31513338046E+03  0.31513338046E+03  0.00000000000E+00 0.  1.
         -2   -1    0    0    0  501 -0.00000000000E+00 -0.00000000000E+00 -0.12386000706E+03  0.12386000706E+03  0.00000000000E+00 0. -1.
         25    2    1    2    0    0  0.79531047540E+02  0.52107848884E+02  0.13519567622E+02  0.15767461381E+03  0.12505234781E+03 0.  0.
          5    1    3    3  502    0 -0.18451177062E+02 -0.16458475497E+02  0.27477827103E+02  0.37199875443E+02  0.41800000000E+01 0. -1.
         -5    1    3    3    0  502  0.97982224602E+02  0.68566324380E+02 -0.13958259481E+02  0.12047473837E+03  0.41800000000E+01 0. -1.
        -11    1    1    2    0    0 -0.12045970466E+03 -0.72610594238E+02  0.18762386228E+03  0.23448998388E+03  0.00000000000E+00 0.  1.
         11    1    1    2    0    0  0.40928657124E+02  0.20502745354E+02 -0.98700565023E+01  0.46828789824E+02  0.00000000000E+00 0. -1.
</event>
<event>
 7    1  0.1538147E-010  0.1250581E+03  0.7561462E-02  0.1234979E+00
          2   -1    0    0  501    0  0.00000000000E+00  0.00000000000E+00  0.38945126902E+03  0.38945126902E+03  0.00000000000E+00 0. -1.
         -2   -1    0    0    0  501 -0.00000000000E+00 -0.00000000000E+00 -0.57927850383E+02  0.57927850383E+02  0.00000000000E+00 0.  1.
         25    2    1    2    0    0  0.47191722471E+02 -0.77410649334E+02  0.25387581553E+03  0.29720583220E+03  0.12513556522E+03 0.  0.
          5    1    3    3  502    0 -0.33991901170E+02 -0.53488942559E+02  0.15173031481E+03  0.16448731609E+03  0.41800000000E+01 0. -1.
         -5    1    3    3    0  502  0.81183623641E+02 -0.23921706775E+02  0.10214550072E+03  0.13271851612E+03  0.41800000000E+01 0. -1.
        -11    1    1    2    0    0 -0.46856109513E+02  0.32666303554E+02  0.87369268297E+02  0.10438376995E+03  0.00000000000E+00 0. -1.
         11    1    1    2    0    0 -0.33561295878E+00  0.44744345780E+02 -0.97216651947E+01  0.45789517244E+02  0.00000000000E+00 0.  1.
</event>
<event>
 6    1  0.1538147E-010  0.9782364E+02  0.7561462E-02  0.1284940E+00
         -2   -1    0    0    0  501 -0.00000000000E+00  0.00000000000E+00  0.85193877039E+02  0.85193877039E+02  0.00000000000E+00 0.  1.
          2   -1    0    0  501    0  0.00000000000E+00 -0.00000000000E+00 -0.15974426443E+03  0.15974426443E+03  0.00000000000E+00 0. -1.
          5    1    1    2  502    0  0.15143175833E+02 -0.56801281952E+02 -0.36307081959E+02  0.69219780453E+02  0.41800000000E+01 0.  1.
         -5    1    1    2    0  502 -0.20062985523E+02  0.39811562006E+02  0.35582103638E+02  0.57193027169E+02  0.41800000000E+01 0.  1.
        -11    1    1    2    0    0 -0.91800265515E+01  0.52726231335E+02 -0.50484120065E+02  0.73572921221E+02  0.00000000000E+00 0.  1.
         11    1    1    2    0    0  0.14099836241E+02 -0.35736511389E+02 -0.23341289001E+02  0.44952412622E+02  0.00000000000E+00 0. -1.
</event>
<event>
 7    1  0.1538147E-010  0.1752207E+03  0.7561462E-02  0.1172510E+00
          1   -1    0    0  501    0  0.00000000000E+00  0.00000000000E+00  0.13979082004E+04  0.13979082004E+04  0.00000000000E+00 0. -1.
         -1   -1    0    0    0  501 -0.00000000000E+00 -0.00000000000E+00 -0.31775641358E+02  0.31775641358E+02  0.00000000000E+00 0.  1.
         25    2    1    2    0    0 -0.96570653235E+02 -0.10920794934E+03  0.10683952314E+04  0.10855304414E+04  0.12512274565E+03 0.  0.
          5    1    3    3  502    0  0.26610247439E+02 -0.34199416689E+02  0.35754091203E+03  0.36018145642E+03  0.41800000000E+01 0. -1.
         -5    1    3    3    0  502 -0.12318090067E+03 -0.75008532651E+02  0.71085431939E+03  0.72534898501E+03  0.41800000000E+01 0. -1.
        -11    1    1    2    0    0  0.32673197019E+02 -0.37092719217E+01  0.11790028592E+03  0.12240005687E+03  0.00000000000E+00 0. -1.
         11    1    1    2    0    0  0.63897456216E+02  0.11291722126E+03  0.17983704170E+03  0.22175334346E+03  0.00000000000E+00 0.  1.
</event>
<event>
 7    1  0.1538147E-010  0.1012250E+03  0.7561462E-02  0.1277741E+00
         -2   -1    0    0    0  501 -0.00000000000E+00  0.00000000000E+00  0.80521111823E+02  0.80521111823E+02  0.00000000000E+00 0. -1.
          2   -1    0    0  501    0  0.00000000000E+00 -0.00000000000E+00 -0.16707277774E+03  0.16707277774E+03  0.00000000000E+00 0.  1.
         25    2    1    2    0    0 -0.31528566845E+00  0.67972471819E+01 -0.94902692525E+02  0.15713220694E+03  0.12505081941E+03 0.  0.
          5    1    3    3  502    0  0.40912089103E+02 -0.42849387821E+02 -0.56204384239E+02  0.81769641549E+02  0.41800000000E+01 0.  1.
         -5    1    3    3    0  502 -0.41227374771E+02  0.49646635003E+02 -0.38698308285E+02  0.75362565387E+02  0.41800000000E+01 0.  1.
        -11    1    1    2    0    0  0.20914270490E+02 -0.36604546547E+02 -0.17816219596E+02  0.45768080785E+02  0.00000000000E+00 0.  1.
         11    1    1    2    0    0 -0.20598984822E+02  0.29807299365E+02  0.26167246207E+02  0.44693601838E+02  0.00000000000E+00 0. -1.
</event>
<event>
 7    1  0.1538147E-010  0.1181824E+03  0.7561462E-02  0.1246126E+00
         -4   -1    0    0    0  501 -0.00000000000E+00  0.00000000000E+00  0.43392415184E+02  0.43392415184E+02  0.00000000000E+00 0.  1.
          4   -1    0    0  501    0  0.00000000000E+00 -0.00000000000E+00 -0.43949012071E+03  0.43949012071E+03  0.00000000000E+00 0. -1.
         25    2    1    2    0    0 -0.42051207402E+01 -0.83814363033E+02 -0.24367141669E+03  0.28648474571E+03  0.12512082051E+03 0.  0.
          5    1    3    3  502    0 -0.61155158164E+02 -0.49299009471E+02 -0.93712316476E+02  0.12235120091E+03  0.41800000000E+01 0. -1.
         -5    1    3    3    0  502  0.56950037424E+02 -0.34515353562E+02 -0.14995910021E+03  0.16413354480E+03  0.41800000000E+01 0. -1.
        -11    1    1    2    0    0 -0.14979558681E+02  0.25332400584E+02 -0.12604281160E+03  0.12943302536E+03  0.00000000000E+00 0. -1.
         11    1    1    2    0    0  0.19184679421E+02  0.58481962449E+02 -0.26383477244E+02  0.66964764824E+02  0.00000000000E+00 0.  1.
</event>
<event>
 6    1  0.1538147E-010  0.1070587E+03  0.7561462E-02  0.1266116E+00
          4   -1    0    0  501    0  0.00000000000E+00  0.00000000000E+00  0.13140287657E+03  0.13140287657E+03  0.00000000000E+00 0.  1.
         -4   -1    0    0    0  501 -0.00000000000E+00 -0.00000000000E+00 -0.10795058726E+03  0.10795058726E+03  0.00000000000E+00 0. -1.
          5    1    1    2  502    0 -0.61090331513E+02 -0.14697272662E+02 -0.48500989460E+01  0.63158802141E+02  0.41800000000E+01 0. -1.
         -5    1    1    2    0  502  0.54242345687E+02 -0.31027308984E+02  0.41342810137E+02  0.75044162455E+02  0.41800000000E+01 0. -1.
        -11    1    1    2    0    0 -0.34462928590E+02  0.21751650147E+02 -0.29850145125E+02  0.50515927143E+02  0.00000000000E+00 0. -1.
         11    1    1    2    0    0  0.41310914416E+02  0.23972931499E+02  0.16809723247E+02  0.50634572085E+02  0.00000000000E+00 0.  1.
</event>
<event>
 6    1  0.1538147E-010  0.1150994E+03  0.7561462E-02  0.1251408E+00
         -1   -1    0    0    0  501 -0.00000000000E+00  0.00000000000E+00  0.60580821654E+02  0.60580821654E+02  0.00000000000E+00 0.  1.
          1   -1    0    0  501    0  0.00000000000E+00 -0.00000000000E+00 -0.39082727174E+03  0.39082727174E+03  0.00000000000E+00 0. -1.
          5    1    1    2  502    0 -0.39746330947E+01  0.97554558459E+02 -0.62932410310E+02  0.11623532274E+03  0.41800000000E+01 0. -1.
         -5    1    1    2    0  502  0.14066311571E+02 -0.35787577164E+02 -0.44487232602E+01  0.38934243786E+02  0.41800000000E+01 0. -1.
        -11    1    1    2    0    0 -0.20126017090E+02  0.91947809595E+01  0.16480427523E+01  0.22188208709E+02  0.00000000000E+00 0.  1.
         11    1    1    2    0    0  0.10034338613E+02 -0.70961762254E+02 -0.26451335927E+03  0.27405031816E+03  0.00000000000E+00 0. -1.
</event>
<event>
 7    1  0.1538147E-010  0.1016119E+03  0.7561462E-02  0.1276942E+00
         -1   -1    0    0    0  501 -0.00000000000E+00  0.00000000000E+00  0.45826594796E+03  0.45826594796E+03  0.00000000000E+00 0.  1.
          1   -1    0    0  501    0  0.00000000000E+00 -0.00000000000E+00 -0.33560852549E+02  0.33560852549E+02  0.00000000000E+00 0. -1.
         25    2    1    2    0    0 -0.52941178880E+02 -0.22572024334E+01  0.18132023793E+03  0.22655246978E+03  0.12506450134E+03 0.  0.
          5    1    3    3  502    0 -0.40851743435E+02  0.55360350895E+02  0.13480636637E+03  0.15140628193E+03  0.41800000000E+01 0.  1.
         -5    1    3    3    0  502 -0.12089435445E+02 -0.57617553329E+02  0.46513871564E+02  0.75146187853E+02  0.41800000000E+01 0.  1.
        -11    1    1    2    0    0  0.26079244524E+02 -0.25622676628E+02  0.21284939762E+03  0.21596646642E+03  0.00000000000E+00 0.  1.
         11    1    1    2    0    0  0.26861934356E+02  0.27879879062E+02  0.30535459860E+02  0.49307864309E+02  0.00000000000E+00 0. -1.
</event>
<event>
 6    1  0.1538147E-010  0.1072275E+03  0.7561462E-02  0.1265792E+00
          1   -1    0    0  501    0  0.00000000000E+00  0.00000000000E+00  0.38854828338E+03  0.38854828338E+03  0.00000000000E+00 0. -1.
         -1   -1    0    0    0  501 -0.00000000000E+00 -0.00000000000E+00 -0.49507233654E+02  0.49507233654E+02  0.00000000000E+00 0.  1.
          5    1    1    2  502    0  0.17641053608E+02  0.74998740538E+02  0.42014414177E+02  0.87856139532E+02  0.41800000000E+01 0.  1.
         -5    1    1    2    0  502 -0.38766394608E+02 -0.37628004634E+00  0.17386616254E+03  0.17818498763E+03  0.41800000000E+01 0.  1.
        -11    1    1    2    0    0 -0.16309418672E+02 -0.17822008836E+01 -0.73170793462E+01  0.17964215195E+02  0.00000000000E+00 0.  1.
         11    1    1    2    0    0  0.37434759673E+02 -0.72840259608E+02  0.13047755235E+03  0.15405017468E+03  0.00000000000E+00 0. -1.
</event>
<event>
 7    1  0.1538147E-010  0.1237489E+03  0.7561462E-02  0.1237038E+00
          1   -1    0    0  501    0  0.00000000000E+00  0.00000000000E+00  0.58931066449E+02  0.58931066449E+02  0.00000000000E+00 0. -1.
         -1   -1    0    0    0  501 -0.00000000000E+00 -0.00000000000E+00 -0.31387461650E+03  0.31387461650E+03  0.00000000000E+00 0.  1.
         25    2    1    2    0    0 -0.81548479975E+02 -0.54518559780E+01 -0.14598276946E+03  0.20891311170E+03  0.12511531458E+03 0.  0.
          5    1    3    3  502    0  0.22100123202E+02  0.11870120471E+02  0.39868090471E+01  0.25742615484E+02  0.41800000000E+01 0.  1.
         -5    1    3    3    0  502 -0.10364860318E+03 -0.17321976449E+02 -0.14996957850E+03  0.18317049622E+03  0.41800000000E+01 0.  1.
        -11    1    1    2    0    0  0.15736497754E+02 -0.35882073264E+02 -0.61220066273E+02  0.72684641141E+02  0.00000000000E+00 0.  1.
         11    1    1    2    0    0  0.65811982221E+02  0.41333929242E+02 -0.47740714326E+02  0.91207930109E+02  0.00000000000E+00 0. -1.
</event>
<event>
 7    1  0.1538147E-010  0.2179810E+03  0.7561462E-02  0.1135397E+00
          3   -1    0    0  501    0  0.00000000000E+00  0.00000000000E+00  0.62363055989E+02  0.62363055989E+02  0.00000000000E+00 0. -1.
         -3   -1    0    0    0  501 -0.00000000000E+00 -0.00000000000E+00 -0.93511218789E+03  0.93511218789E+03  0.00000000000E+00 0.  1.
         25    2    1    2    0    0 -0.18574520404E+03 -0.29582717858E+02 -0.66154630892E+03  0.69903863336E+03  0.12504028972E+03 0.  0.
          5    1    3    3  502    0 -0.15983444305E+03  0.28223554344E+02 -0.47250168213E+03  0.49961878489E+03  0.41800000000E+01 0. -1.
         -5    1    3    3    0  502 -0.25910760998E+02 -0.57806272202E+02 -0.18904462679E+03  0.19941984846E+03  0.41800000000E+01 0. -1.
        -11    1    1    2    0    0  0.13368459076E+03 -0.23534007634E+02 -0.14813372864E+03  0.20092043421E+03  0.00000000000E+00 0.  1.
         11    1    1    2    0    0  0.52060613280E+02  0.53116725492E+02 -0.63069094345E+02  0.97516176317E+02  0.00000000000E+00 0. -1.
</event>
<event>
 7    1  0.1538147E-010  0.1106228E+03  0.7561462E-02  0.1259421E+00
          2   -1    0    0  501    0  0.00000000000E+00  0.00000000000E+00  0.54580785084E+03  0.54580785084E+03  0.00000000000E+00 0. -1.
         -2   -1    0    0    0  501 -0.00000000000E+00 -0.00000000000E+00 -0.33538311591E+02  0.33538311591E+02  0.00000000000E+00 0.  1.
         25    2    1    2    0    0 -0.16194147391E+02  0.73406914542E+02  0.26985525264E+03  0.30677953543E+03  0.12506398551E+03 0.  0.
          5    1    3    3  502    0 -0.59727007913E+02  0.56916079011E+02  0.95514718683E+02  0.12628257762E+03  0.41800000000E+01 0. -1.
         -5    1    3    3    0  502  0.43532860522E+02  0.16490835532E+02  0.17434053395E+03  0.18049695782E+03  0.41800000000E+01 0. -1.
        -11    1    1    2    0    0  0.34472860327E+02 -0.33810370643E+02  0.32582719963E+02  0.58250775980E+02  0.00000000000E+00 0.  1.
         11    1    1    2    0    0 -0.18278712937E+02 -0.39596543900E+02  0.20983156665E+03  0.21431585102E+03  0.00000000000E+00 0. -1.
</event>
<event>
 7    1  0.1538147E-010  0.1031945E+03  0.7561462E-02  0.1273718E+00
          2   -1    0    0  501    0  0.00000000000E+00  0.00000000000E+00  0.10629347209E+03  0.10629347209E+03  0.00000000000E+00 0. -1.
         -2   -1    0    0    0  501 -0.00000000000E+00 -0.00000000000E+00 -0.15353105355E+03  0.15353105355E+03  0.00000000000E+00 0.  1.
         25    2    1    2    0    0 -0.14503717668E+02  0.63594089973E+02 -0.83233805105E+01  0.14135555431E+03  0.12513012413E+03 0.  0.
          5    1    3    3  502    0 -0.28982038634E+02  0.71671698189E+02 -0.52795184207E+02  0.93710163591E+02  0.41800000000E+01 0. -1.
         -5    1    3    3    0  502  0.14478320966E+02 -0.80776082164E+01  0.44471803697E+02  0.47645390717E+02  0.41800000000E+01 0. -1.
        -11    1    1    2    0    0 -0.31905132294E+02  0.14815959796E+01 -0.99387513737E+01  0.33450132619E+02  0.00000000000E+00 0.  1.
         11    1    1    2    0    0  0.46408849962E+02 -0.65075685953E+02 -0.28975449575E+02  0.85018838707E+02  0.00000000000E+00 0. -1.
</event>
<event>
 7    1  0.1538147E-010  0.1312401E+03  0.7561462E-02  0.1225627E+00
          1   -1    0    0  501    0  0.00000000000E+00  0.00000000000E+00  0.13673346119E+03  0.13673346119E+03  0.00000000000E+00 0. -1.
         -1   -1    0    0    0  501 -0.00000000000E+00 -0.00000000000E+00 -0.16383169993E+03  0.16383169993E+03  0.00000000000E+00 0.  1.
         25    2    1    2    0    0 -0.53760822351E+02 -0.66372696325E+02  0.37231958035E+02  0.15599856050E+03  0.12511503244E+03 0.  0.
          5    1    3    3  502    0  0.19219642812E+02  0.14835729067E+02 -0.20833793377E+02  0.32264731104E+02  0.41800000000E+01 0. -1.
         -5    1    3    3    0  502 -0.72980465163E+02 -0.81208425392E+02  0.58065751412E+02  0.12373382940E+03  0.41800000000E+01 0. -1.
        -11    1    1    2    0    0  0.20833608191E+01  0.75987621288E+02 -0.46246262203E+02  0.88978512850E+02  0.00000000000E+00 0.  1.
         11    1    1    2    0    0  0.51677461532E+02 -0.96149249627E+01 -0.18083934569E+02  0.55588087770E+02  0.00000000000E+00 0. -1.
</event>
<event>
 7    1  0.1538147E-010  0.1852080E+03  0.7561462E-02  0.1162856E+00
         -1   -1    0    0    0  501 -0.00000000000E+00  0.00000000000E+00  0.61863922458E+03  0.61863922458E+03  0.00000000000E+00 0.  1.
          1   -1    0    0  501    0  0.00000000000E+00 -0.00000000000E+00 -0.10071188536E+03  0.10071188536E+03  0.00000000000E+00 0. -1.
         25    2    1    2    0    0 -0.14782263857E+03  0.91617660945E+02  0.62897148029E+02  0.22325547675E+03  0.12506649590E+03 0.  0.
          5    1    3    3  502    0  0.12157857439E+02  0.12476990091E+02  0.39271334320E+02  0.43164787484E+02  0.41800000000E+01 0.  1.
         -5    1    3    3    0  502 -0.15998049601E+03  0.79140670854E+02  0.23625813709E+02  0.18009068927E+03  0.41800000000E+01 0.  1.
        -11    1    1    2    0    0  0.67108771626E+02 -0.44146392916E+02  0.96593681681E+02  0.12562973604E+03  0.00000000000E+00 0. -1.
         11    1    1    2    0    0  0.80713866945E+02 -0.47471268029E+02  0.35843650950E+03  0.37046589715E+03  0.00000000000E+00 0.  1.
</event>
<event>
 7    1  0.1538147E-010  0.1037743E+03  0.7561462E-02  0.1272553E+00
          1   -1    0    0  501    0  0.00000000000E+00  0.00000000000E+00  0.86308639124E+02  0.86308639124E+02  0.00000000000E+00 0. -1.
         -1   -1    0    0    0  501 -0.00000000000E+00 -0.00000000000E+00 -0.19008710359E+03  0.19008710359E+03  0.00000000000E+00 0.  1.
         25    2    1    2    0    0 -0.12879436606E+02 -0.65102574922E+02 -0.72327429385E+02  0.15898817179E+03  0.12506700835E+03 0.  0.
          5    1    3    3  502    0  0.11575414778E+02 -0.76194426807E+02 -0.95838654043E+02  0.12305324422E+03  0.41800000000E+01 0. -1.
         -5    1    3    3    0  502 -0.24454851384E+02  0.11091851885E+02  0.23511224658E+02  0.35934927569E+02  0.41800000000E+01 0. -1.
        -11    1    1    2    0    0 -0.13503837102E+02  0.74096094043E+02  0.87640835192E-01  0.75316614699E+02  0.00000000000E+00 0.  1.
         11    1    1    2    0    0  0.26383273707E+02 -0.89935191209E+01 -0.31538675920E+02  0.42090956231E+02  0.00000000000E+00 0. -1.
</event>
<event>
 7    1  0.1538147E-010  0.1206548E+03  0.7561462E-02  0.1242021E+00
         -1   -1    0    0    0  501 -0.00000000000E+00  0.00000000000E+00  0.39322539509E+02  0.39322539509E+02  0.00000000000E+00 0.  1.
          1   -1    0    0  501    0  0.00000000000E+00 -0.00000000000E+00 -0.71718668854E+03  0.71718668854E+03  0.00000000000E+00 0. -1.
         25    2    1    2    0    0 -0.16627277081E+02 -0.99651725827E+02 -0.53538857725E+03  0.55902551723E+03  0.12514658390E+03 0.  0.
          5    1    3    3  502    0 -0.21310920233E+02 -0.46109489324E+00 -0.33141361197E+03  0.33212470930E+03  0.41800000000E+01 0.  1.
         -5    1    3    3    0  502  0.46836431517E+01 -0.99190630934E+02 -0.20397496528E+03  0.22690080793E+03  0.41800000000E+01 0.  1.
        -11    1    1    2    0    0 -0.24838634094E+02  0.28136400609E+02 -0.61214990442E+01  0.38027457625E+02  0.00000000000E+00 0.  1.
         11    1    1    2    0    0  0.41465911175E+02  0.71515325218E+02 -0.13635407274E+03  0.15945625319E+03  0.00000000000E+00 0. -1.
</event>
<event>
 7    1  0.1538147E-010  0.8952720E+02  0.7561462E-02  0.1304001E+00
          1   -1    0    0  501    0  0.00000000000E+00  0.00000000000E+00  0.69559349776E+03  0.69559349776E+03  0.00000000000E+00 0. -1.
         -1   -1    0    0    0  501 -0.00000000000E+00 -0.00000000000E+00 -0.18223890983E+02  0.18223890983E+02  0.00000000000E+00 0.  1.
         25    2    1    2    0    0  0.44307589894E+01 -0.32594746669E+02  0.39777498407E+03  0.41828771266E+03  0.12513042585E+03 0.  0.
          5    1    3    3  502    0  0.26726692147E+02 -0.51239003681E+02  0.77992341840E+02  0.97159813488E+02  0.41800000000E+01 0.  1.
         -5    1    3    3    0  502 -0.22295933158E+02  0.18644257011E+02  0.31978264223E+03  0.32112789917E+03  0.41800000000E+01 0.  1.
        -11    1    1    2    0    0  0.29173758374E+02  0.46895024950E+02  0.12461821633E+03  0.13630829536E+03  0.00000000000E+00 0.  1.
         11    1    1    2    0    0 -0.33604517363E+02 -0.14300278281E+02  0.15497640638E+03  0.15922138073E+03  0.00000000000E+00 0. -1.
</event>
<event>
 7    1  0.1538147E-010  0.1005715E+03  0.7561462E-02  0.1279099E+00
         -1   -1    0    0    0  501 -0.00000000000E+00  0.00000000000E+00  0.22928119422E+02  0.22928119422E+02  0.00000000000E+00 0.  1.
          1   -1    0    0  501    0  0.00000000000E+00 -0.00000000000E+00 -0.79075364110E+03  0.79075364110E+03  0.00000000000E+00 0. -1.
         25    2    1    2    0    0  0.71112652199E+02  0.30904967307E+02 -0.37119574434E+03  0.39929864364E+03  0.12506398318E+03 0.  0.
          5    1    3    3  502    0 -0.52274745259E+01  0.15709141116E+02 -0.27479783052E+03  0.27532784760E+03  0.41800000000E+01 0.  1.
         -5    1    3    3    0  502  0.76340126725E+02  0.15195826191E+02 -0.96397913823E+02  0.12397079604E+03  0.41800000000E+01 0.  1.
        -11    1    1    2    0    0  0.12517157196E+02 -0.17353510533E+02 -0.23608660937E+02  0.31862084416E+02  0.00000000000E+00 0.  1.
         11    1    1    2    0    0 -0.83629809395E+02 -0.13551456774E+02 -0.37302111640E+03  0.38252103246E+03  0.00000000000E+00 0. -1.
</event>
<event>
 7    1  0.1538147E-010  0.9420956E+02  0.7561462E-02  0.1292966E+00
          4   -1    0    0  501    0  0.00000000000E+00  0.00000000000E+00  0.11423901648E+03  0.11423901648E+03  0.00000000000E+00 0. -1.
         -4   -1    0    0    0  501 -0.00000000000E+00 -0.00000000000E+00 -0.11703889756E+03  0.11703889756E+03  0.00000000000E+00 0.  1.
         25    2    1    2    0    0  0.92181747074E+01  0.25927651039E+02 -0.19084983669E+01  0.12804493356E+03  0.12503857329E+03 0.  0.
          5    1    3    3  502    0 -0.40661651110E+02 -0.29107335341E+01  0.39540600970E+02  0.56945357719E+02  0.41800000000E+01 0.  1.
         -5    1    3    3    0  502  0.49879825817E+02  0.28838384573E+02 -0.41449099337E+02  0.71099575837E+02  0.41800000000E+01 0.  1.
        -11    1    1    2    0    0  0.38100385807E+02 -0.71599996394E+01  0.24993004004E+02  0.46125429457E+02  0.00000000000E+00 0. -1.
         11    1    1    2    0    0 -0.47318560514E+02 -0.18767651399E+02 -0.25884386725E+02  0.57107551027E+02  0.00000000000E+00 0.  1.
</event>
<event>
 7    1  0.1538147E-010  0.8650115E+02  0.7561462E-02  0.1311553E+00
          2   -1    0    0  501    0  0.00000000000E+00  0.00000000000E+00  0.21807553407E+04  0.21807553407E+04  0.00000000000E+00 0. -1.
         -2   -1    0    0    0  501 -0.00000000000E+00 -0.00000000000E+00 -0.16706732408E+02  0.16706732408E+02  0.00000000000E+00 0.  1.
         25    2    1    2    0    0 -0.48643360910E+02 -0.83358181146E+01  0.19938449537E+04  0.19983758967E+04  0.12511140081E+03 0.  0.
          5    1    3    3  502    0 -0.59825649375E+02 -0.18355831058E+02  0.43946335266E+03  0.44391615829E+03  0.41800000000E+01 0. -1.
         -5    1    3    3    0  502  0.11182288466E+02  0.10020012944E+02  0.15543816010E+04  0.15544597384E+04  0.41800000000E+01 0. -1.
        -11    1    1    2    0    0  0.70563518010E+02  0.14264755218E+02  0.87434089198E+02  0.11325817087E+03  0.00000000000E+00 0.  1.
         11    1    1    2    0    0 -0.21920157100E+02 -0.59289371038E+01  0.82769565449E+02  0.85828005610E+02  0.00000000000E+00 0. -1.
</event>
<event>
 7    1  0.1538147E-010  0.1054443E+03  0.7561462E-02  0.1269247E+00
          2   -1    0    0  501    0  0.00000000000E+00  0.00000000000E+00  0.23308295106E+03  0.23308295106E+03  0.00000000000E+00 0. -1.
         -2   -1    0    0    0  501 -0.00000000000E+00 -0.00000000000E+00 -0.66796673361E+02  0.66796673361E+02  0.00000000000E+00 0.  1.
         25    2    1    2    0    0 -0.42030069953E+02  0.44770781536E+02  0.84345024612E+02  0.16291470209E+03  0.12512460718E+03 0.  0.
          5    1    3    3  502    0  0.19142676739E+02 -0.12302517084E+02 -0.18962030350E+02  0.29913625564E+02  0.41800000000E+01 0.  1.
         -5    1    3    3    0  502 -0.61172746692E+02  0.57073298621E+02  0.10330705496E+03  0.13300107653E+03  0.41800000000E+01 0.  1.
        -11    1    1    2    0    0  0.60043317412E+02 -0.56535332095E+02  0.44317716622E+02  0.93624269009E+02  0.00000000000E+00 0. -1.
         11    1    1    2    0    0 -0.18013247458E+02  0.11764550559E+02  0.37623536462E+02  0.43340653315E+02  0.00000000000E+00 0.  1.
</event>
<event>
 7    1  0.1538147E-010  0.7146417E+02  0.7561462E-02  0.1355184E+00
         -1   -1    0    0    0  501 -0.00000000000E+00  0.00000000000E+00  0.77242867947E+02  0.77242867947E+02  0.00000000000E+00 0.  1.
          1   -1    0    0  501    0  0.00000000000E+00 -0.00000000000E+00 -0.11323927477E+03  0.11323927477E+03  0.00000000000E+00 0. -1.
         25    2    1    2    0    0 -0.94453152679E+01 -0.72081840311E+00  0.11595956586E+02  0.12601809339E+03  0.12512537750E+03 0.  0.
          5    1    3    3  502    0  0.31785029225E+02  0.42314020343E+02 -0.22011817881E+02  0.57469617424E+02  0.41800000000E+01 0.  1.
         -5    1    3    3    0  502 -0.41230344493E+02 -0.43034838746E+02  0.33607774467E+02  0.68548475968E+02  0.41800000000E+01 0.  1.
        -11    1    1    2    0    0  0.19005337406E+02 -0.40198706559E+01 -0.49898800932E+02  0.53546732342E+02  0.00000000000E+00 0. -1.
         11    1    1    2    0    0 -0.95600221379E+01  0.47406890590E+01  0.23064375246E+01  0.10917316982E+02  0.00000000000E+00 0.  1.
</event>
<event>
 7    1  0.1538147E-010  0.1580444E+03  0.7561462E-02  0.1190922E+00
         -2   -1    0    0    0  501 -0.00000000000E+00  0.00000000000E+00  0.42103775267E+03  0.42103775267E+03  0.00000000000E+00 0.  1.
          2   -1    0    0  501    0  0.00000000000E+00 -0.00000000000E+00 -0.94335320825E+02  0.94335320825E+02  0.00000000000E+00 0. -1.
         25    2    1    2    0    0  0.21150255355E+02  0.12777126695E+03  0.30626931766E+03  0.35525893686E+03  0.12504074263E+03 0.  0.
          5    1    3    3  502    0 -0.48381894316E+02  0.76238679078E+02  0.12406994734E+03  0.15350559637E+03  0.41800000000E+01 0. -1.
         -5    1    3    3    0  502  0.69532149670E+02  0.51532587874E+02  0.18219937032E+03  0.20175334048E+03  0.41800000000E+01 0. -1.
        -11    1    1    2    0    0 -0.25186079321E+02 -0.22715724518E+02  0.40768793259E+02  0.53032416839E+02  0.00000000000E+00 0.  1.
         11    1    1    2    0    0  0.40358239668E+01 -0.10505554243E+03 -0.20335679077E+02  0.10708171980E+03  0.00000000000E+00 0. -1.
</event>
<event>
 7    1  0.1538147E-010  0.9663497E+02  0.7561462E-02  0.1287536E+00
         -3   -1    0    0    0  501 -0.00000000000E+00  0.00000000000E+00  0.94932428601E+02  0.94932428601E+02  0.00000000000E+00 0.  1.
          3   -1    0    0  501    0  0.00000000000E+00 -0.00000000000E+00 -0.15611859194E+03  0.15611859194E+03  0.00000000000E+00 0. -1.
         25    2    1    2    0    0  0.18640931299E+01 -0.55980982674E+02 -0.35693734364E+02  0.14158428234E+03  0.12503887823E+03 0.  0.
          5    1    3    3  502    0 -0.22094537745E+02  0.10579371253E+02  0.34051356899E+02  0.42155177629E+02  0.41800000000E+01 0. -1.
         -5    1    3    3    0  502  0.23958630875E+02 -0.66560353927E+02 -0.69745091263E+02  0.99429104711E+02  0.41800000000E+01 0. -1.
        -11    1    1    2    0    0 -0.20684518044E+02 -0.14072112249E+02  0.12074394378E+02  0.27778852198E+02  0.00000000000E+00 0.  1.
         11    1    1    2    0    0  0.18820424914E+02  0.70053094924E+02 -0.37566823350E+02  0.81687885998E+02  0.00000000000E+00 0. -1.
</event>
<event>
 7    1  0.1538147E-010  0.7962343E+02  0.7561462E-02  0.1330123E+00
          1   -1    0    0  501    0  0.00000000000E+00  0.00000000000E+00  0.25519450762E+03  0.25519450762E+03  0.00000000000E+00 0. -1.
         -1   -1    0    0    0  501 -0.00000000000E+00 -0.00000000000E+00 -0.53706238565E+02  0.53706238565E+02  0.00000000000E+00 0.  1.
         25    2    1    2    0    0 -0.32492527069E+02  0.11232214669E+02  0.15326318792E+03  0.20077446249E+03  0.12505539996E+03 0.  0.
          5    1    3    3  502    0 -0.41476319878E+02 -0.10646411413E+02  0.16744366676E+03  0.17288286533E+03  0.41800000000E+01 0. -1.
         -5    1    3    3    0  502  0.89837928088E+01  0.21878626082E+02 -0.14180478840E+02  0.27891597169E+02  0.41800000000E+01 0. -1.
        -11    1    1    2    0    0  0.20735672741E+02  0.37079122319E+02  0.38768449236E+02  0.57513668742E+02  0.00000000000E+00 0. -1.
         11    1    1    2    0    0  0.11756854328E+02 -0.48311336988E+02  0.94566319081E+01  0.50612614952E+02  0.00000000000E+00 0.  1.
</event>
<event>
 7    1  0.1538147E-010  0.3831724E+03  0.7561462E-02  0.1049767E+00
         -2   -1    0    0    0  501 -0.00000000000E+00  0.00000000000E+00  0.24955332595E+03  0.24955332595E+03  0.00000000000E+00 0.  1.
          2   -1    0    0  501    0  0.00000000000E+00 -0.00000000000E+00 -0.67728337820E+03  0.67728337820E+03  0.00000000000E+00 0. -1.
         25    2    1    2    0    0 -0.37345467799E+03  0.40006278550E+02 -0.73809139402E+02  0.40268586107E+03  0.12505684631E+03 0.  0.
          5    1    3    3  502    0 -0.22367795578E+03 -0.24443484444E+02 -0.81616146859E+02  0.23939085125E+03  0.41800000000E+01 0. -1.
         -5    1    3    3    0  502 -0.14977672221E+03  0.64449762994E+02  0.78070074570E+01  0.16329500982E+03  0.41800000000E+01 0. -1.
        -11    1    1    2    0    0  0.17081286930E+03  0.38436975079E+01 -0.21481810079E+03  0.27447882752E+03  0.00000000000E+00 0. -1.
         11    1    1    2    0    0  0.20264180870E+03 -0.43849976057E+02 -0.13910281206E+03  0.24967201556E+03  0.00000000000E+00 0.  1.
</event>
<event>
 7    1  0.1538147E-010  0.1376801E+03  0.7561462E-02  0.1216485E+00
         -1   -1    0    0    0  501 -0.00000000000E+00  0.00000000000E+00  0.11641723163E+03  0.11641723163E+03  0.00000000000E+00 0. -1.
          1   -1    0    0  501    0  0.00000000000E+00 -0.00000000000E+00 -0.22907668202E+03  0.22907668202E+03  0.00000000000E+00 0.  1.
         25    2    1    2    0    0  0.69149919212E+02 -0.71424114585E+02 -0.13428576485E+03  0.20869519840E+03  0.12505160424E+03 0.  0.
          5    1    3    3  502    0  0.40636382338E+02 -0.99637352333E+02 -0.12896985285E+03  0.16801670421E+03  0.41800000000E+01 0.  1.
         -5    1    3    3    0  502  0.28513536874E+02  0.28213237747E+02 -0.53159119952E+01  0.40678494190E+02  0.41800000000E+01 0.  1.
        -11    1    1    2    0    0  0.11528477549E+02 -0.80774236231E+01 -0.12158046127E+02  0.18600232595E+02  0.00000000000E+00 0. -1.
         11    1    1    2    0    0 -0.80678396761E+02  0.79501538209E+02  0.33784360581E+02  0.11819848265E+03  0.00000000000E+00 0.  1.
</event>
<event>
 7    1  0.1538147E-010  0.1930446E+03  0.7561462E-02  0.1155744E+00
         -2   -1    0    0    0  501 -0.00000000000E+00  0.00000000000E+00  0.32596430849E+02  0.32596430849E+02  0.00000000000E+00 0.  1.
          2   -1    0    0  501    0  0.00000000000E+00 -0.00000000000E+00 -0.14624082209E+04  0.14624082209E+04  0.00000000000E+00 0. -1.
         25    2    1    2    0    0  0.17033103053E+03 -0.59409223069E+02 -0.93972704086E+03  0.96501937661E+03  0.12503347620E+03 0.  0.
          5    1    3    3  502    0  0.44013636302E+02  0.18455735319E+01 -0.53088650602E+03  0.53272747348E+03  0.41800000000E+01 0. -1.
         -5    1    3    3    0  502  0.12631739422E+03 -0.61254796601E+02 -0.40884053484E+03  0.43229190313E+03  0.41800000000E+01 0. -1.
        -11    1    1    2    0    0 -0.59341148268E+02  0.67779613285E+02 -0.23493775144E+03  0.25161715940E+03  0.00000000000E+00 0.  1.
         11    1    1    2    0    0 -0.11098988226E+03 -0.83703902159E+01 -0.25514699778E+03  0.27836811576E+03  0.00000000000E+00 0. -1.
</event>
<event>
 6    1  0.1538147E-010  0.1523852E+03  0.7561462E-02  0.1197572E+00
         -2   -1    0    0    0  501 -0.00000000000E+00  0.00000000000E+00  0.65127381348E+02  0.65127381348E+02  0.00000000000E+00 0.  1.
          2   -1    0    0  501    0  0.00000000000E+00 -0.00000000000E+00 -0.85895364487E+03  0.85895364487E+03  0.00000000000E+00 0. -1.
          5    1    1    2  502    0 -0.28940360900E+02 -0.11239563525E+03 -0.52972389673E+03  0.54230545127E+03  0.41800000000E+01 0.  1.
         -5    1    1    2    0  502 -0.28231296912E+02  0.32382883949E+02 -0.21873050664E+03  0.22294879285E+03  0.41800000000E+01 0.  1.
        -11    1    1    2    0    0 -0.14641235380E+02  0.71697124108E+02  0.55545024567E+00  0.73178903406E+02  0.00000000000E+00 0.  1.
         11    1    1    2    0    0  0.71812893192E+02  0.83156271914E+01 -0.45927310402E+02  0.85647878695E+02  0.00000000000E+00 0. -1.
</event>
<event>
 6    1  0.1538147E-010  0.1268076E+03  0.7561462E-02  0.1232271E+00
         -2   -1    0    0    0  501 -0.00000000000E+00  0.00000000000E+00  0.32833306149E+03  0.32833306149E+03  0.00000000000E+00 0.  1.
          2   -1    0    0  501    0  0.00000000000E+00 -0.00000000000E+00 -0.61236947148E+02  0.61236947148E+02  0.00000000000E+00 0. -1.
          5    1    1    2  502    0  0.26024874410E+02 -0.57944910453E+02  0.84466615088E+02  0.10576855960E+03  0.41800000000E+01 0. -1.
         -5    1    1    2    0  502 -0.84326855988E+02  0.25220594739E+01  0.12684392648E+03  0.15239499175E+03  0.41800000000E+01 0. -1.
        -11    1    1    2    0    0 -0.42013747706E+01  0.41166449275E+02 -0.66583609379E+01  0.41912550223E+02  0.00000000000E+00 0. -1.
         11    1    1    2    0    0  0.62503356349E+02  0.14256401704E+02  0.62443933705E+02  0.89493907061E+02  0.00000000000E+00 0.  1.
</event>
<event>
 7    1  0.1538147E-010  0.2342134E+03  0.7561462E-02  0.1123709E+00
          2   -1    0    0  501    0  0.00000000000E+00  0.00000000000E+00  0.94494242912E+03  0.94494242912E+03  0.00000000000E+00 0. -1.
         -2   -1    0    0    0  501 -0.00000000000E+00 -0.00000000000E+00 -0.73943847017E+02  0.73943847017E+02  0.00000000000E+00 0.  1.
         25    2    1    2    0    0 -0.21718301293E+03  0.58642515479E+02  0.28385247550E+03  0.38319045195E+03  0.12512109690E+03 0.  0.
          5    1    3    3  502    0 -0.60723645641E+02  0.20681593252E+02  0.18104980376E+03  0.19212390085E+03  0.41800000000E+01 0.  1.
         -5    1    3    3    0  502 -0.15645936729E+03  0.37960922228E+02  0.10280267174E+03  0.19106655110E+03  0.41800000000E+01 0.  1.
        -11    1    1    2    0    0  0.51486085375E+02  0.25272830346E+02  0.12081859491E+03  0.13374104014E+03  0.00000000000E+00 0.  1.
         11    1    1    2    0    0  0.16569692756E+03 -0.83915345826E+02  0.46632751170E+03  0.50195478405E+03  0.00000000000E+00 0. -1.
</event>
<event>
 7    1  0.1538147E-010  0.9947293E+02  0.7561462E-02  0.1281408E+00
         -1   -1    0    0    0  501 -0.00000000000E+00  0.00000000000E+00  0.50736643023E+03  0.50736643023E+03  0.00000000000E+00 0.  1.
          1   -1    0    0  501    0  0.00000000000E+00 -0.00000000000E+00 -0.22895317047E+02  0.22895317047E+02  0.00000000000E+00 0. -1.
         25    2    1    2    0    0 -0.12085023826E+01 -0.73671582534E+01  0.28216708620E+03  0.30872691966E+03  0.12505323220E+03 0.  0.
          5    1    3    3  502    0 -0.20899766596E+02  0.52586807889E+02  0.89744329323E+02  0.10617763255E+03  0.41800000000E+01 0.  1.
         -5    1    3    3    0  502  0.19691264213E+02 -0.59953966143E+02  0.19242275688E+03  0.20254928711E+03  0.41800000000E+01 0.  1.
        -11    1    1    2    0    0 -0.38667601733E+02  0.19302146811E+01  0.15334956706E+03  0.15816130648E+03  0.00000000000E+00 0.  1.
         11    1    1    2    0    0  0.39876104116E+02  0.54369435723E+01  0.48954459920E+02  0.63373521134E+02  0.00000000000E+00 0. -1.
</event>
<event>
 6    1  0.1538147E-010  0.1015125E+03  0.7561462E-02  0.1277147E+00
          2   -1    0    0  501    0  0.00000000000E+00  0.00000000000E+00  0.14258601640E+03  0.14258601640E+03  0.00000000000E+00 0. -1.
         -2   -1    0    0    0  501 -0.00000000000E+00 -0.00000000000E+00 -0.91217873297E+02  0.91217873297E+02  0.00000000000E+00 0.  1.
          5    1    1    2  502    0  0.25656112558E+02  0.68772525519E+02  0.62904746468E+02  0.96759371154E+02  0.41800000000E+01 0.  1.
         -5    1    1    2    0  502 -0.18984592621E+02 -0.42490063644E+02  0.22290369863E+01  0.46778854959E+02  0.41800000000E+01 0.  1.
        -11    1    1    2    0    0  0.28513965622E+02 -0.36332510124E+02 -0.24298473870E+02  0.52187291171E+02  0.00000000000E+00 0.  1.
         11    1    1    2    0    0 -0.35185485558E+02  0.10050048248E+02  0.10532833520E+02  0.38078372414E+02  0.00000000000E+00 0. -1.
</event>
<event>
 7    1  0.1538147E-010  0.1791761E+03  0.7561462E-02  0.1168603E+00
         -2   -1    0    0    0  501 -0.00000000000E+00  0.00000000000E+00  0.10441953200E+03  0.10441953200E+03  0.00000000000E+00 0.  1.
          2   -1    0    0  501    0  0.00000000000E+00 -0.00000000000E+00 -0.43847682443E+03  0.43847682443E+03  0.00000000000E+00 0. -1.
         25    2    1    2    0    0  0.10350179304E+03 -0.10117322952E+03 -0.29029622662E+02  0.19347453668E+03  0.12506411881E+03 0.  0.
          5    1    3    3  502    0  0.42223914082E+02 -0.11802417925E+03 -0.32913685271E+02  0.12966629819E+03  0.41800000000E+01 0. -1.
         -5    1    3    3    0  502  0.61277878962E+02  0.16850949724E+02  0.38840626092E+01  0.63808238489E+02  0.41800000000E+01 0. -1.
        -11    1    1    2    0    0 -0.19497358019E+02  0.80369585265E+02 -0.12833735576E+03  0.15267578095E+03  0.00000000000E+00 0. -1.
         11    1    1    2    0    0 -0.84004435025E+02  0.20803644258E+02 -0.17669031401E+03  0.19674603880E+03  0.00000000000E+00 0.  1.
</event>
<event>
 6    1  0.1538147E-010  0.1218206E+03  0.7561462E-02  0.1240123E+00
          3   -1    0    0  501    0  0.00000000000E+00  0.00000000000E+00  0.60464564650E+03  0.60464564650E+03  0.00000000000E+00 0. -1.
         -3   -1    0    0    0  501 -0.00000000000E+00 -0.00000000000E+00 -0.26292435023E+02  0.26292435023E+02  0.00000000000E+00 0.  1.
          5    1    1    2  502    0 -0.12904922477E+01  0.48230957630E+02  0.96740890984E+02  0.10818578018E+03  0.41800000000E+01 0.  1.
         -5    1    1    2    0  502 -0.54411752279E+02 -0.70855055248E+02  0.23615928381E+03  0.25252674585E+03  0.41800000000E+01 0.  1.
        -11    1    1    2    0    0 -0.22950630845E+02  0.13424789768E+02  0.11140762631E+03  0.11453652534E+03  0.00000000000E+00 0. -1.
         11    1    1    2    0    0  0.78652875372E+02  0.91993078491E+01  0.13404541037E+03  0.15568903015E+03  0.00000000000E+00 0.  1.
</event>
<event>
 6    1  0.1538147E-010  0.1821724E+03  0.7561462E-02  0.1165717E+00
          2   -1    0    0  501    0  0.00000000000E+00  0.00000000000E+00  0.39858920106E+03  0.39858920106E+03  0.00000000000E+00 0. -1.
         -2   -1    0    0    0  501 -0.00000000000E+00 -0.00000000000E+00 -0.94999908903E+02  0.94999908903E+02  0.00000000000E+00 0.  1.
          5    1    1    2  502    0 -0.15919477482E+03  0.27095145112E+02  0.11961517179E+03  0.20100344510E+03  0.41800000000E+01 0.  1.
         -5    1    1    2    0  502  0.12995540140E+02  0.39341482561E+02  0.20907564759E+02  0.46596512507E+02  0.41800000000E+01 0.  1.
        -11    1    1    2    0    0  0.97701471285E+02 -0.51348954526E+02  0.48286253559E+02  0.12047346141E+03  0.00000000000E+00 0.  1.
         11    1    1    2    0    0  0.48497763395E+02 -0.15087673147E+02  0.11478030204E+03  0.12551569094E+03  0.00000000000E+00 0. -1.
</event>
<event>
 7    1  0.1538147E-010  0.3121161E+03  0.7561462E-02  0.1079336E+00
         -3   -1    0    0    0  501 -0.00000000000E+00  0.00000000000E+00  0.15485611210E+03  0.15485611210E+03  0.00000000000E+00 0.  1.
          3   -1    0    0  501    0  0.00000000000E+00 -0.00000000000E+00 -0.68261372913E+03  0.68261372913E+03  0.00000000000E+00 0. -1.
         25    2    1    2    0    0 -0.22383352187E+03 -0.20056663076E+03 -0.19504743860E+03  0.37950802825E+03  0.12511762992E+03 0.  0.
          5    1    3    3  502    0 -0.12645408269E+03 -0.17866965239E+03 -0.16814615187E+03  0.27605086579E+03  0.41800000000E+01 0.  1.
         -5    1    3    3    0  502 -0.97379439182E+02 -0.21896978371E+02 -0.26901286723E+02  0.10345716246E+03  0.41800000000E+01 0.  1.
        -11    1    1    2    0    0  0.16325035939E+03  0.17592178261E+03 -0.20997007546E+03  0.31888334234E+03  0.00000000000E+00 0. -1.
         11    1    1    2    0    0  0.60583162484E+02  0.24644848156E+02 -0.12274010297E+03  0.13907847063E+03  0.00000000000E+00 0.  1.
</event>
<event>
 7    1  0.1538147E-010  0.1337709E+03  0.7561462E-02  0.1221965E+00
          1   -1    0    0  501    0  0.00000000000E+00  0.00000000000E+00  0.47828636114E+02  0.47828636114E+02  0.00000000000E+00 0. -1.
         -1   -1    0    0    0  501 -0.00000000000E+00 -0.00000000000E+00 -0.40746230546E+03  0.40746230546E+03  0.00000000000E+00 0.  1.
         25    2    1    2    0    0  0.24697446503E+02  0.82020974201E+02 -0.21021216239E+03  0.25919330056E+03  0.12511838302E+03 0.  0.
          5    1    3    3  502    0 -0.41281130565E+02  0.66996094020E+02 -0.14549987203E+03  0.16546991725E+03  0.41800000000E+01 0. -1.
         -5    1    3    3    0  502  0.65978577069E+02  0.15024880181E+02 -0.64712290356E+02  0.93723383312E+02  0.41800000000E+01 0. -1.
        -11    1    1    2    0    0  0.37456162692E+01 -0.91028741273E+02 -0.13523651084E+03  0.16306187551E+03  0.00000000000E+00 0.  1.
         11    1    1    2    0    0 -0.28443062773E+02  0.90077670715E+01 -0.14184996117E+02  0.33035765503E+02  0.00000000000E+00 0. -1.
</event>
<event>
 7    1  0.1538147E-010  0.1509817E+03  0.7561462E-02  0.1199272E+00
          4   -1    0    0  501    0  0.00000000000E+00  0.00000000000E+00  0.86422116561E+02  0.86422116561E+02  0.00000000000E+00 0. -1.
         -4   -1    0    0    0  501 -0.00000000000E+00 -0.00000000000E+00 -0.37882650124E+03  0.37882650124E+03  0.00000000000E+00 0.  1.
         25    2    1    2    0    0 -0.40625626682E+02  0.11632268534E+03 -0.25118587172E+03  0.30649273773E+03  0.12514810211E+03 0.  0.
          5    1    3    3  502    0 -0.64150934200E+02  0.13213073585E+03 -0.21237789391E+03  0.25825513729E+03  0.41800000000E+01 0.  1.
         -5    1    3    3    0  502  0.23525307518E+02 -0.15808050505E+02 -0.38807977804E+02  0.48237600436E+02  0.41800000000E+01 0.  1.
        -11    1    1    2    0    0 -0.20971834284E+01 -0.29843189709E+02 -0.53723526934E+02  0.61491718927E+02  0.00000000000E+00 0.  1.
         11    1    1    2    0    0  0.42722810111E+02 -0.86479495634E+02  0.12505013974E+02  0.97264161146E+02  0.00000000000E+00 0. -1.
</event>
<event>
 7    1  0.1538147E-010  0.7347054E+02  0.7561462E-02  0.1348674E+00
          1   -1    0    0  501    0  0.00000000000E+00  0.00000000000E+00  0.37855444695E+03  0.37855444695E+03  0.00000000000E+00 0. -1.
         -1   -1    0    0    0  501 -0.00000000000E+00 -0.00000000000E+00 -0.33256424630E+02  0.33256424630E+02  0.00000000000E+00 0.  1.
         25    2    1    2    0    0  0.38576435926E+01  0.29903617373E+02  0.20857475093E+03  0.24508384312E+03  0.12511417061E+03 0.  0.
          5    1    3    3  502    0  0.35231076206E+02  0.44114299709E+02  0.20198607839E+03  0.20976927428E+03  0.41800000000E+01 0.  1.
         -5    1    3    3    0  502 -0.31373432613E+02 -0.14210682336E+02  0.65886725399E+01  0.35314568838E+02  0.41800000000E+01 0.  1.
        -11    1    1    2    0    0  0.12451649307E+02 -0.36101580270E+02  0.14313279019E+03  0.14813967496E+03  0.00000000000E+00 0. -1.
         11    1    1    2    0    0 -0.16309292900E+02  0.61979628971E+01 -0.64095188019E+01  0.18587353503E+02  0.00000000000E+00 0.  1.
</event>
<event>
 7    1  0.1538147E-010  0.1428337E+03  0.7561462E-02  0.1209566E+00
         -1   -1    0    0    0  501 -0.00000000000E+00  0.00000000000E+00  0.87187714042E+02  0.87187714042E+02  0.00000000000E+00 0.  1.
          1   -1    0    0  501    0  0.00000000000E+00 -0.00000000000E+00 -0.29693907706E+03  0.29693907706E+03  0.00000000000E+00 0. -1.
         25    2    1    2    0    0 -0.73529157930E+02  0.92671553341E+02 -0.12411450705E+03  0.21227021439E+03  0.12513863989E+03 0.  0.
          5    1    3    3  502    0 -0.44203406391E+02 -0.10761754413E+01 -0.10235370830E+03  0.11157442938E+03  0.41800000000E+01 0. -1.
         -5    1    3    3    0  502 -0.29325751539E+02  0.93747728783E+02 -0.21760798747E+02  0.10069578500E+03  0.41800000000E+01 0. -1.
        -11    1    1    2    0    0  0.13987573079E+01 -0.66028884838E+02 -0.15629617597E+02  0.67867923949E+02  0.00000000000E+00 0. -1.
         11    1    1    2    0    0  0.72130400622E+02 -0.26642668504E+02 -0.70007238374E+02  0.10398865276E+03  0.00000000000E+00 0.  1.
</event>
<event>
 7    1  0.2753652E-010  0.9927196E+02  0.7561462E-02  0.1281834E+00
          1   -1    0    0  501    0  0.00000000000E+00  0.00000000000E+00  0.47866456431E+03  0.47866456431E+03  0.00000000000E+00 0. -1.
         -1   -1    0    0    0  501 -0.00000000000E+00 -0.00000000000E+00 -0.27242086710E+02  0.27242086710E+02  0.00000000000E+00 0.  1.
         25    2    1    2    0    0 -0.22391658365E+02 -0.72290617606E+01  0.31783178478E+03  0.34237921430E+03  0.12511129952E+03 0.  0.
          5    1    3    3  502    0 -0.63881930733E+02  0.13401325473E+02  0.98988786329E+02  0.11864547533E+03  0.41800000000E+01 0. -1.
         -5    1    3    3    0  502  0.41490272368E+02 -0.20630387233E+02  0.21884299845E+03  0.22373373896E+03  0.41800000000E+01 0. -1.
        -11    1    1    2    0    0  0.41655470777E+01 -0.37803423268E+02  0.27781339501E+02  0.47098337738E+02  0.00000000000E+00 0.  1.
         11    1    1    2    0    0  0.18226111287E+02  0.45032485029E+02  0.10580935332E+03  0.11642909899E+03  0.00000000000E+00 0. -1.
</event>
<event>
 6    1  0.1538147E-010  0.1065070E+03  0.7561462E-02  0.1267179E+00
         -3   -1    0    0    0  501 -0.00000000000E+00  0.00000000000E+00  0.82711099267E+02  0.82711099267E+02  0.00000000000E+00 0.  1.
          3   -1    0    0  501    0  0.00000000000E+00 -0.00000000000E+00 -0.15587545525E+03  0.15587545525E+03  0.00000000000E+00 0. -1.
          5    1    1    2  502    0  0.60409255951E+02 -0.13005729297E+02 -0.16798597336E+01  0.61957417053E+02  0.41800000000E+01 0. -1.
         -5    1    1    2    0  502 -0.49357700582E+02  0.40873710979E+02 -0.25503323559E+02  0.69099455631E+02  0.41800000000E+01 0. -1.
        -11    1    1    2    0    0 -0.44978207692E+02 -0.35527736463E+01  0.41595717045E+00  0.45120221500E+02  0.00000000000E+00 0.  1.
         11    1    1    2    0    0  0.33926652323E+02 -0.24315208035E+02 -0.46397129859E+02  0.62409460331E+02  0.00000000000E+00 0. -1.
</event>
<event>
 7    1  0.1538147E-010  0.1048200E+03  0.7561462E-02  0.1270475E+00
         -2   -1    0    0    0  501 -0.00000000000E+00  0.00000000000E+00  0.16902409078E+02  0.16902409078E+02  0.00000000000E+00 0.  1.
          2   -1    0    0  501    0  0.00000000000E+00 -0.00000000000E+00 -0.10026249900E+04  0.10026249900E+04  0.00000000000E+00 0. -1.
         25    2    1    2    0    0 -0.29459600878E+02  0.23037506971E+02 -0.78732292277E+03  0.79806974370E+03  0.12505733201E+03 0.  0.
          5    1    3    3  502    0 -0.48907475079E+02  0.66247542457E+02 -0.46450470551E+03  0.47176558993E+03  0.41800000000E+01 0. -1.
         -5    1    3    3    0  502  0.19447874201E+02 -0.43210035486E+02 -0.32281821726E+03  0.32630415378E+03  0.41800000000E+01 0. -1.
        -11    1    1    2    0    0 -0.22766684035E+02 -0.13684724482E+02 -0.14932095066E+02  0.30472299703E+02  0.00000000000E+00 0.  1.
         11    1    1    2    0    0  0.52226284913E+02 -0.93527824889E+01 -0.18346756313E+03  0.19098535571E+03  0.00000000000E+00 0. -1.
</event>
<event>
 7    1  0.1538147E-010  0.1012736E+03  0.7561462E-02  0.1277640E+00
         -1   -1    0    0    0  501 -0.00000000000E+00  0.00000000000E+00  0.51489764067E+02  0.51489764067E+02  0.00000000000E+00 0.  1.
          1   -1    0    0  501    0  0.00000000000E+00 -0.00000000000E+00 -0.37719948634E+03  0.37719948634E+03  0.00000000000E+00 0. -1.
         25    2    1    2    0    0  0.35957214488E+02 -0.67265753929E+02 -0.24530947053E+03  0.28571790337E+03  0.12506150907E+03 0.  0.
          5    1    3    3  502    0  0.52225815685E+02 -0.64166149484E+02 -0.66864528225E+02  0.10645735343E+03  0.41800000000E+01 0.  1.
         -5    1    3    3    0  502 -0.16268601196E+02 -0.30996044447E+01 -0.17844494231E+03  0.17926054995E+03  0.41800000000E+01 0.  1.
        -11    1    1    2    0    0  0.10319009318E+02  0.53300166123E+02 -0.65156784762E+01  0.54679463494E+02  0.00000000000E+00 0.  1.
         11    1    1    2    0    0 -0.46276223806E+02  0.13965587806E+02 -0.73884573269E+02  0.88291883543E+02  0.00000000000E+00 0. -1.
</event>
<event>
 6    1  0.1538147E-010  0.1080308E+03  0.7561462E-02  0.1264261E+00
          1   -1    0    0  501    0  0.00000000000E+00  0.00000000000E+00  0.10794348106E+04  0.10794348106E+04  0.00000000000E+00 0. -1.
         -1   -1    0    0    0  501 -0.00000000000E+00 -0.00000000000E+00 -0.29728842790E+02  0.29728842790E+02  0.00000000000E+00 0.  1.
          5    1    1    2  502    0 -0.12045663290E+02 -0.70654399733E+02  0.35542522040E+03  0.36260405666E+03  0.41800000000E+01 0.  1.
         -5    1    1    2    0  502  0.63075413436E+02  0.21201810525E+02  0.58269283515E+03  0.58649504438E+03  0.41800000000E+01 0.  1.
        -11    1    1    2    0    0 -0.36602119540E+02  0.13777208866E+02  0.11496427876E+03  0.12143439394E+03  0.00000000000E+00 0. -1.
         11    1    1    2    0    0 -0.14427630606E+02  0.35675380342E+02 -0.33763665174E+01  0.38630158404E+02  0.00000000000E+00 0.  1.
</event>
<event>
 6    1  0.1538147E-010  0.1178447E+03  0.7561462E-02  0.1246696E+00
         -2   -1    0    0    0  501 -0.00000000000E+00  0.00000000000E+00  0.33576242566E+03  0.33576242566E+03  0.00000000000E+00 0.  1.
          2   -1    0    0  501    0  0.00000000000E+00 -0.00000000000E+00 -0.51273660940E+02  0.51273660940E+02  0.00000000000E+00 0. -1.
          5    1    1    2  502    0 -0.20198934209E+02  0.49533250559E+02  0.20820351677E+02  0.57554316068E+02  0.41800000000E+01 0. -1.
         -5    1    1    2    0  502 -0.36545353321E+02 -0.73453631498E+02  0.77374685457E+02  0.11285084483E+03  0.41800000000E+01 0. -1.
        -11    1    1    2    0    0  0.66898905930E+02 -0.70707800863E+01  0.75430129223E+02  0.10107009419E+03  0.00000000000E+00 0. -1.
         11    1    1    2    0    0 -0.10154618400E+02  0.30991161026E+02  0.11086359837E+03  0.11556083151E+03  0.00000000000E+00 0.  1.
</event>
<event>
 7    1  0.1538147E-010  0.1735447E+03  0.7561462E-02  0.1174201E+00
         -3   -1    0    0    0  501 -0.00000000000E+00  0.00000000000E+00  0.52046292610E+03  0.52046292610E+03  0.00000000000E+00 0.  1.
          3   -1    0    0  501    0  0.00000000000E+00 -0.00000000000E+00 -0.68328290566E+02  0.68328290566E+02  0.00000000000E+00 0. -1.
         25    2    1    2    0    0  0.14226027112E+03 -0.22105987284E+02  0.15344014880E+03  0.24476227098E+03  0.12505211160E+03 0.  0.
          5    1    3    3  502    0  0.16108018219E+03 -0.49205055630E+00  0.12274998798E+03  0.20256381502E+03  0.41800000000E+01 0. -1.
         -5    1    3    3    0  502 -0.18819911067E+02 -0.21613936727E+02  0.30690160824E+02  0.42198455953E+02  0.41800000000E+01 0. -1.
        -11    1    1    2    0    0 -0.27243991074E+02 -0.20754734590E+02  0.20389452061E+02  0.39858798438E+02  0.00000000000E+00 0. -1.
         11    1    1    2    0    0 -0.11501628005E+03  0.42860721874E+02  0.27830503467E+03  0.30417014725E+03  0.00000000000E+00 0.  1.
</event>
<event>
 6    1  0.1538147E-010  0.1533361E+03  0.7561462E-02  0.1196433E+00
         -3   -1    0    0    0  501 -0.00000000000E+00  0.00000000000E+00  0.25845061793E+03  0.25845061793E+03  0.00000000000E+00 0.  1.
          3   -1    0    0  501    0  0.00000000000E+00 -0.00000000000E+00 -0.96582457066E+02  0.96582457066E+02  0.00000000000E+00 0. -1.
          5    1    1    2  502    0  0.11192246484E+03  0.77728008076E+02  0.10176489234E+03  0.17012303515E+03  0.41800000000E+01 0.  1.
         -5    1    1    2    0  502 -0.12886565869E+02 -0.21471348994E+02 -0.34116748271E+01  0.25616290376E+02  0.41800000000E+01 0.  1.
        -11    1    1    2    0    0 -0.63789578108E+02 -0.80102965485E+02  0.53681945624E+02  0.11561724197E+03  0.00000000000E+00 0. -1.
         11    1    1    2    0    0 -0.35246320860E+02  0.23846306404E+02  0.98329977220E+01  0.43676507501E+02  0.00000000000E+00 0.  1.
</event>
<event>
 7    1  0.1538147E-010  0.8732154E+02  0.7561462E-02  0.1309471E+00
          1   -1    0    0  501    0  0.00000000000E+00  0.00000000000E+00  0.13820256277E+03  0.13820256277E+03  0.00000000000E+00 0. -1.
         -1   -1    0    0    0  501 -0.00000000000E+00 -0.00000000000E+00 -0.94379352759E+02  0.94379352759E+02  0.00000000000E+00 0.  1.
         25    2    1    2    0    0  0.99152749418E+01  0.36880042724E+02  0.15360852460E+02  0.13171912142E+03  0.12512202417E+03 0.  0.
          5    1    3    3  502    0 -0.25135063063E+02  0.52775127491E+02 -0.34952719513E+02  0.68235991077E+02  0.41800000000E+01 0.  1.
         -5    1    3    3    0  502  0.35050338005E+02 -0.15895084768E+02  0.50313571973E+02  0.63483130347E+02  0.41800000000E+01 0.  1.
        -11    1    1    2    0    0  0.68979399696E+01 -0.53347819521E+02  0.46584453366E+02  0.71159558169E+02  0.00000000000E+00 0. -1.
         11    1    1    2    0    0 -0.16813214911E+02  0.16467776797E+02 -0.18122095816E+02  0.29703235936E+02  0.00000000000E+00 0.  1.
</event>
<event>
 7    1  0.1538147E-010  0.1580551E+03  0.7561462E-02  0.1190910E+00
         -1   -1    0    0    0  501 -0.00000000000E+00  0.00000000000E+00  0.33507355967E+02  0.33507355967E+02  0.00000000000E+00 0.  1.
          1   -1    0    0  501    0  0.00000000000E+00 -0.00000000000E+00 -0.93832759037E+03  0.93832759037E+03  0.00000000000E+00 0. -1.
         25    2    1    2    0    0 -0.54034830428E+01 -0.13831374880E+03 -0.50636505404E+03  0.53963654213E+03  0.12506853688E+03 0.  0.
          5    1    3    3  502    0 -0.22105340101E+02  0.89168425437E+01 -0.20673662321E+02  0.31828114234E+02  0.41800000000E+01 0.  1.
         -5    1    3    3    0  502  0.16701857058E+02 -0.14723059134E+03 -0.48569139171E+03  0.50780842790E+03  0.41800000000E+01 0.  1.
        -11    1    1    2    0    0 -0.14401351942E+02  0.94546610748E+02 -0.35418977166E+03  0.36687444023E+03  0.00000000000E+00 0. -1.
         11    1    1    2    0    0  0.19804834985E+02  0.43767138051E+02 -0.44265408699E+02  0.65323963974E+02  0.00000000000E+00 0.  1.
</event>
<event>
 7    1  0.1538147E-010  0.1103987E+03  0.7561462E-02  0.1259833E+00
          1   -1    0    0  501    0  0.00000000000E+00  0.00000000000E+00  0.18333051214E+03  0.18333051214E+03  0.00000000000E+00 0. -1.
         -1   -1    0    0    0  501 -0.00000000000E+00 -0.00000000000E+00 -0.90133204655E+02  0.90133204655E+02  0.00000000000E+00 0.  1.
         25    2    1    2    0    0 -0.22267307940E+02 -0.54826657268E+02  0.23388236033E+02  0.14036794518E+03  0.12511736529E+03 0.  0.
          5    1    3    3  502    0  0.45191499627E+02 -0.57153544178E+01 -0.15387010438E+02  0.48261469154E+02  0.41800000000E+01 0. -1.
         -5    1    3    3    0  502 -0.67458807568E+02 -0.49111302851E+02  0.38775246472E+02  0.92106476021E+02  0.41800000000E+01 0. -1.
        -11    1    1    2    0    0 -0.25419567503E+02  0.16238741694E+02  0.64886276775E+02  0.71554734697E+02  0.00000000000E+00 0. -1.
         11    1    1    2    0    0  0.47686875443E+02  0.38587915574E+02  0.49227946747E+01  0.61541036921E+02  0.00000000000E+00 0.  1.
</event>
<event>
 6    1  0.1538147E-010  0.1226961E+03  0.7561462E-02  0.1238714E+00
         -1   -1    0    0    0  501 -0.00000000000E+00  0.00000000000E+00  0.40111957970E+02  0.40111957970E+02  0.00000000000E+00 0.  1.
          1   -1    0    0  501    0  0.00000000000E+00 -0.00000000000E+00 -0.62018317654E+03  0.62018317654E+03  0.00000000000E+00 0. -1.
          5    1    1    2  502    0  0.17838459183E+02  0.10762162309E+03 -0.94361474240E+02  0.14429894180E+03  0.41800000000E+01 0. -1.
         -5    1    1    2    0  502 -0.19993146166E+02  0.46766234373E+01 -0.15568690143E+03  0.15709067566E+03  0.41800000000E+01 0. -1.
        -11    1    1    2    0    0  0.13395019657E+02 -0.42214333900E+02 -0.24106914633E+03  0.24510367164E+03  0.00000000000E+00 0. -1.
         11    1    1    2    0    0 -0.11240332674E+02 -0.70083912627E+02 -0.88953696565E+02  0.11380184542E+03  0.00000000000E+00 0.  1.
</event>
<event>
 7    1  0.1538147E-010  0.1969578E+03  0.7561462E-02  0.1152331E+00
         -3   -1    0    0    0  501 -0.00000000000E+00  0.00000000000E+00  0.59299605501E+02  0.59299605501E+02  0.00000000000E+00 0.  1.
          3   -1    0    0  501    0  0.00000000000E+00 -0.00000000000E+00 -0.10197725515E+04  0.10197725515E+04  0.00000000000E+00 0. -1.
         25    2    1    2    0    0 -0.10353329917E+03  0.15587309551E+03 -0.74898758553E+03  0.78207002663E+03  0.12504222222E+03 0.  0.
          5    1    3    3  502    0  0.63350881707E+01  0.18760922878E+02 -0.10195670339E+02  0.22661192886E+02  0.41800000000E+01 0.  1.
         -5    1    3    3    0  502 -0.10986838734E+03  0.13711217263E+03 -0.73879191519E+03  0.75940883375E+03  0.41800000000E+01 0.  1.
        -11    1    1    2    0    0 -0.13125791604E+01 -0.46134942671E+02 -0.14599294797E+02  0.48407594527E+02  0.00000000000E+00 0.  1.
         11    1    1    2    0    0  0.10484587833E+03 -0.10973815284E+03 -0.19688606565E+03  0.24859453582E+03  0.00000000000E+00 0. -1.
</event>
<event>
 6    1  0.1538147E-010  0.1774861E+03  0.7561462E-02  0.1170258E+00
          2   -1    0    0  501    0  0.00000000000E+00  0.00000000000E+00  0.75804927931E+03  0.75804927931E+03  0.00000000000E+00 0. -1.
         -2   -1    0    0    0  501 -0.00000000000E+00 -0.00000000000E+00 -0.84916159183E+02  0.84916159183E+02  0.00000000000E+00 0.  1.
          5    1    1    2  502    0  0.74562825093E+02 -0.10980384073E+03  0.15383181497E+02  0.13368101211E+03  0.41800000000E+01 0. -1.
         -5    1    1    2    0  502  0.44128902170E+02  0.29098615752E+02  0.34210912084E+02  0.63102681013E+02  0.41800000000E+01 0. -1.
        -11    1    1    2    0    0 -0.92519349293E+02  0.10030406009E+03  0.51971041623E+03  0.53732639169E+03  0.00000000000E+00 0. -1.
         11    1    1    2    0    0 -0.26172377970E+02 -0.19598835111E+02  0.10382861032E+03  0.10885535369E+03  0.00000000000E+00 0.  1.
</event>
<event>
 7    1  0.1538147E-010  0.1048385E+03  0.7561462E-02  0.1270438E+00
         -4   -1    0    0    0  501 -0.00000000000E+00  0.00000000000E+00  0.16150341179E+04  0.16150341179E+04  0.00000000000E+00 0.  1.
          4   -1    0    0  501    0  0.00000000000E+00 -0.00000000000E+00 -0.87449480333E+01  0.87449480333E+01  0.00000000000E+00 0. -1.
         25    2    1    2    0    0 -0.31895877001E+02 -0.76605066452E+01  0.12790987948E+04  0.12856164076E+04  0.12505914680E+03 0.  0.
          5    1    3    3  502    0  0.21065499826E+02  0.46245458864E+02  0.39358014360E+03  0.39686924747E+03  0.41800000000E+01 0.  1.
         -5    1    3    3    0  502 -0.52961376827E+02 -0.53905965509E+02  0.88551865122E+03  0.88874716011E+03  0.41800000000E+01 0.  1.
        -11    1    1    2    0    0  0.34051898983E+02  0.38894659712E+02  0.16255673212E+03  0.17057847912E+03  0.00000000000E+00 0. -1.
         11    1    1    2    0    0 -0.21560219822E+01 -0.31234153067E+02  0.16463364293E+03  0.16758417924E+03  0.00000000000E+00 0.  1.
</event>
<event>
 6    1  0.1538147E-010  0.8862883E+02  0.7561462E-02  0.1306207E+00
         -2   -1    0    0    0  501 -0.00000000000E+00  0.00000000000E+00  0.42254089840E+02  0.42254089840E+02  0.00000000000E+00 0. -1.
          2   -1    0    0  501    0  0.00000000000E+00 -0.00000000000E+00 -0.33774297819E+03  0.33774297819E+03  0.00000000000E+00 0.  1.
          5    1    1    2  502    0 -0.25786959616E+00  0.25251740346E+02 -0.19709632575E+03  0.19875148027E+03  0.41800000000E+01 0.  1.
         -5    1    1    2    0  502 -0.16375267198E+02 -0.51517512463E+02 -0.28603896595E+02  0.61301376548E+02  0.41800000000E+01 0.  1.
        -11    1    1    2    0    0 -0.34032972163E+02  0.31669546527E+02 -0.30473236386E+02  0.55586162912E+02  0.00000000000E+00 0.  1.
         11    1    1    2    0    0  0.50666108957E+02 -0.54037744099E+01 -0.39315429626E+02  0.64358048303E+02  0.00000000000E+00 0. -1.
</event>
<event>
 7    1  0.1810803E-010  0.1546713E+03  0.7561462E-02  0.1194848E+00
          1   -1    0    0  501    0  0.00000000000E+00  0.00000000000E+00  0.64040042104E+03  0.64040042104E+03  0.00000000000E+00 0. -1.
         -1   -1    0    0    0  501 -0.00000000000E+00 -0.00000000000E+00 -0.50613432125E+02  0.50613432125E+02  0.00000000000E+00 0.  1.
         25    2    1    2    0    0  0.84854216019E+02  0.93428338813E+02  0.44262138436E+03  0.47696494370E+03  0.12511105129E+03 0.  0.
          5    1    3    3  502    0  0.10675279782E+03  0.10729203449E+03  0.38110924670E+03  0.41008471177E+03  0.41800000000E+01 0.  1.
         -5    1    3    3    0  502 -0.21898581805E+02 -0.13863695678E+02  0.61512137660E+02  0.66880231925E+02  0.41800000000E+01 0.  1.
        -11    1    1    2    0    0 -0.49228318111E+02 -0.79333241671E+02  0.42485464807E+02  0.10257780100E+03  0.00000000000E+00 0.  1.
         11    1    1    2    0    0 -0.35625897908E+02 -0.14095097141E+02  0.10468013974E+03  0.11147110846E+03  0.00000000000E+00 0. -1.
</event>
<event>
 7    1  0.1538147E-010  0.1091560E+03  0.7561462E-02  0.1262141E+00
         -3   -1    0    0    0  501 -0.00000000000E+00  0.00000000000E+00  0.37506106098E+03  0.37506106098E+03  0.00000000000E+00 0.  1.
          3   -1    0    0  501    0  0.00000000000E+00 -0.00000000000E+00 -0.43486320844E+02  0.43486320844E+02  0.00000000000E+00 0. -1.
         25    2    1    2    0    0 -0.61490415358E+02  0.26620526193E+02  0.17710413819E+03  0.22697405044E+03  0.12514639513E+03 0.  0.
          5    1    3    3  502    0  0.69898616304E+01 -0.35653138720E+02  0.99851832421E+02  0.10633844697E+03  0.41800000000E+01 0. -1.
         -5    1    3    3    0  502 -0.68480276988E+02  0.62273664913E+02  0.77252305768E+02  0.12063560347E+03  0.41800000000E+01 0. -1.
        -11    1    1    2    0    0  0.55654231755E+02 -0.43875796631E+02  0.53038766313E+02  0.88518866770E+02  0.00000000000E+00 0. -1.
         11    1    1    2    0    0  0.58361836028E+01  0.17255270438E+02  0.10143183564E+03  0.10305446462E+03  0.00000000000E+00 0.  1.
</event>
<event>
 6    1  0.1538147E-010  0.2438200E+03  0.7561462E-02  0.1117274E+00
          2   -1    0    0  501    0  0.00000000000E+00  0.00000000000E+00  0.87070187801E+03  0.87070187801E+03  0.00000000000E+00 0. -1.
         -2   -1    0    0    0  501 -0.00000000000E+00 -0.00000000000E+00 -0.79031333298E+02  0.79031333298E+02  0.00000000000E+00 0.  1.
          5    1    1    2  502    0 -0.31991164122E+01  0.13318744226E+02 -0.35592657805E+01  0.14756831180E+02  0.41800000000E+01 0.  1.
         -5    1    1    2    0  502  0.19867612583E+03  0.12399869749E+03  0.42400143614E+03  0.48439918477E+03  0.41800000000E+01 0.  1.
        -11    1    1    2    0    0 -0.34056747685E+02 -0.19527808094E+02  0.14800319055E+02  0.41955295208E+02  0.00000000000E+00 0.  1.
         11    1    1    2    0    0 -0.16142026173E+03 -0.11778963362E+03  0.35642805529E+03  0.40862190015E+03  0.00000000000E+00 0. -1.
</event>
<event>
 6    1  0.1538147E-010  0.1219694E+03  0.7561462E-02  0.1239883E+00
          2   -1    0    0  501    0  0.00000000000E+00  0.00000000000E+00  0.33162682274E+03  0.33162682274E+03  0.00000000000E+00 0. -1.
         -2   -1    0    0    0  501 -0.00000000000E+00 -0.00000000000E+00 -0.68392984749E+02  0.68392984749E+02  0.00000000000E+00 0.  1.
          5    1    1    2  502    0 -0.57681531318E+01 -0.58242581072E+02  0.12957842532E+03  0.14224454489E+03  0.41800000000E+01 0. -1.
         -5    1    1    2    0  502  0.86651626857E+02  0.34668241259E+01  0.63019320662E+02  0.10728201379E+03  0.41800000000E+01 0. -1.
        -11    1    1    2    0    0 -0.13667446862E+02  0.41224539262E+01 -0.21432749273E+02  0.25751824625E+02  0.00000000000E+00 0.  1.
         11    1    1    2    0    0 -0.67216026863E+02  0.50653303020E+02  0.92068841283E+02  0.12474142419E+03  0.00000000000E+00 0. -1.
</event>
<event>
 7    1  0.1538147E-010  0.3485743E+03  0.7561462E-02  0.1063202E+00
         -2   -1    0    0    0  501 -0.00000000000E+00  0.00000000000E+00  0.66392955563E+03  0.66392955563E+03  0.00000000000E+00 0.  1.
          2   -1    0    0  501    0  0.00000000000E+00 -0.00000000000E+00 -0.20461667707E+03  0.20461667707E+03  0.00000000000E+00 0. -1.
         25    2    1    2    0    0 -0.33150548487E+03  0.37588711634E+02  0.10009739325E+03  0.37011097689E+03  0.12511534412E+03 0.  0.
          5    1    3    3  502    0 -0.23288509751E+03  0.77033239511E+02  0.96872473110E+02  0.26376379031E+03  0.41800000000E+01 0.  1.
         -5    1    3    3    0  502 -0.98620387363E+02 -0.39444527877E+02  0.32249201412E+01  0.10634718658E+03  0.41800000000E+01 0.  1.
        -11    1    1    2    0    0  0.15679560750E+03 -0.62985756475E+02  0.17873497903E+03  0.24596394203E+03  0.00000000000E+00 0.  1.
         11    1    1    2    0    0  0.17470987737E+03  0.25397044842E+02  0.18048050628E+03  0.25247131379E+03  0.00000000000E+00 0. -1.
</event>
<event>
 7    1  0.1538147E-010  0.1850777E+03  0.7561462E-02  0.1162977E+00
         -2   -1    0    0    0  501 -0.00000000000E+00  0.00000000000E+00  0.20652046929E+02  0.20652046929E+02  0.00000000000E+00 0.  1.
          2   -1    0    0  501    0  0.00000000000E+00 -0.00000000000E+00 -0.18091098096E+04  0.18091098096E+04  0.00000000000E+00 0. -1.
         25    2    1    2    0    0 -0.13252007177E+03  0.71704903975E+02 -0.10937176778E+04  0.11111143709E+04  0.12511444323E+03 0.  0.
          5    1    3    3  502    0 -0.68134628179E+02 -0.28729022016E+02 -0.50649617832E+03  0.51188234518E+03  0.41800000000E+01 0. -1.
         -5    1    3    3    0  502 -0.64385443591E+02  0.10043392599E+03 -0.58722149944E+03  0.59923202571E+03  0.41800000000E+01 0. -1.
        -11    1    1    2    0    0  0.10456169332E+03 -0.53298714158E+01 -0.30939637294E+03  0.32663078672E+03  0.00000000000E+00 0.  1.
         11    1    1    2    0    0  0.27958378448E+02 -0.66375032559E+02 -0.38534371199E+03  0.39201669893E+03  0.00000000000E+00 0. -1.
</event>
<event>
 6    1  0.1538147E-010  0.6931771E+02  0.7561462E-02  0.1362429E+00
         -1   -1    0    0    0  501 -0.00000000000E+00  0.00000000000E+00  0.14150353386E+03  0.14150353386E+03  0.00000000000E+00 0.  1.
          1   -1    0    0  501    0  0.00000000000E+00 -0.00000000000E+00 -0.97680180767E+02  0.97680180767E+02  0.00000000000E+00 0. -1.
          5    1    1    2  502    0  0.45639431422E+02 -0.16923717563E+02  0.85510901466E+02  0.98483280744E+02  0.41800000000E+01 0.  1.
         -5    1    1    2    0  502 -0.14196172738E+02  0.27622732298E+02 -0.29139963807E+02  0.42792015034E+02  0.41800000000E+01 0.  1.
        -11    1    1    2    0    0  0.11606146261E+01 -0.23417446902E+02  0.32992080847E+02  0.40474698817E+02  0.00000000000E+00 0.  1.
         11    1    1    2    0    0 -0.32603873310E+02  0.12718432168E+02 -0.45539665408E+02  0.57433720035E+02  0.00000000000E+00 0. -1.
</event>
<event>
 7    1  0.1538147E-010  0.2019143E+03  0.7561462E-02  0.1148134E+00
         -2   -1    0    0    0  501 -0.00000000000E+00  0.00000000000E+00  0.95474616876E+02  0.95474616876E+02  0.00000000000E+00 0. -1.
          2   -1    0    0  501    0  0.00000000000E+00 -0.00000000000E+00 -0.48590488793E+03  0.48590488793E+03  0.00000000000E+00 0.  1.
         25    2    1    2    0    0 -0.99943135837E+02  0.15326039292E+03 -0.16275014141E+03  0.27500310615E+03  0.12514679951E+03 0.  0.
          5    1    3    3  502    0 -0.73911022794E+02  0.16116801872E+03 -0.17089896410E+03  0.24629636189E+03  0.41800000000E+01 0. -1.
         -5    1    3    3    0  502 -0.26032113043E+02 -0.79076257979E+01  0.81488226900E+01  0.28706744268E+02  0.41800000000E+01 0. -1.
        -11    1    1    2    0    0 -0.61629930028E+01 -0.51707662832E+02 -0.29969400396E+02  0.60081859479E+02  0.00000000000E+00 0. -1.
         11    1    1    2    0    0  0.10610612884E+03 -0.10155273009E+03 -0.19771072925E+03  0.24629453917E+03  0.00000000000E+00 0.  1.
</event>
<event>
 6    1  0.1538147E-010  0.8423420E+02  0.7561462E-02  0.1317447E+00
         -2   -1    0    0    0  501 -0.00000000000E+00  0.00000000000E+00  0.22770915288E+02  0.22770915288E+02  0.00000000000E+00 0.  1.
          2   -1    0    0  501    0  0.00000000000E+00 -0.00000000000E+00 -0.10060048493E+04  0.10060048493E+04  0.00000000000E+00 0. -1.
          5    1    1    2  502    0  0.89302595507E+01 -0.38310085712E+02 -0.66275455203E+02  0.77183680693E+02  0.41800000000E+01 0.  1.
         -5    1    1    2    0  502 -0.19885108477E+02 -0.19407024172E+02 -0.76208639649E+03  0.76260422123E+03  0.41800000000E+01 0.  1.
        -11    1    1    2    0    0 -0.11561217474E+02  0.72798707505E+02 -0.77267695230E+02  0.10678768791E+03  0.00000000000E+00 0.  1.
         11    1    1    2    0    0  0.22516066400E+02 -0.15081597620E+02 -0.77604387061E+02  0.82200174720E+02  0.00000000000E+00 0. -1.
</event>
<event>
 7    1  0.1538147E-010  0.1129922E+03  0.7561462E-02  0.1255127E+00
         -1   -1    0    0    0  501 -0.00000000000E+00  0.00000000000E+00  0.64308854578E+02  0.64308854578E+02  0.00000000000E+00 0.  1.
          1   -1    0    0  501    0  0.00000000000E+00 -0.00000000000E+00 -0.20298893190E+03  0.20298893190E+03  0.00000000000E+00 0. -1.
         25    2    1    2    0    0 -0.33440018862E+02 -0.19023532522E+01 -0.69127704179E+02  0.14675634672E+03  0.12504771892E+03 0.  0.
          5    1    3    3  502    0 -0.54282824179E+02 -0.51204865410E+02 -0.49235841505E+02  0.89499741514E+02  0.41800000000E+01 0.  1.
         -5    1    3    3    0  502  0.20842805317E+02  0.49302512157E+02 -0.19891862675E+02  0.57256605201E+02  0.41800000000E+01 0.  1.
        -11    1    1    2    0    0  0.52079692434E+02  0.32743791827E+02 -0.35853688662E+02  0.71203491894E+02  0.00000000000E+00 0.  1.
         11    1    1    2    0    0 -0.18639673571E+02 -0.30841438575E+02 -0.33698684482E+02  0.49337947870E+02  0.00000000000E+00 0. -1.
</event>
<event>
 6    1  0.1538147E-010  0.1261784E+03  0.7561462E-02  0.1233239E+00
          2   -1    0    0  501    0  0.00000000000E+00  0.00000000000E+00  0.31953328907E+03  0.31953328907E+03  0.00000000000E+00 0. -1.
         -2   -1    0    0    0  501 -0.00000000000E+00 -0.00000000000E+00 -0.68708058342E+02  0.68708058342E+02  0.00000000000E+00 0.  1.
          5    1    1    2  502    0 -0.35265021024E+02 -0.10249026910E+03  0.74667859765E+02  0.13168385873E+03  0.41800000000E+01 0. -1.
         -5    1    1    2    0  502  0.26469437559E+01  0.13191402426E+02  0.10993691339E+03  0.11083599025E+03  0.41800000000E+01 0. -1.
        -11    1    1    2    0    0 -0.28061410839E+02  0.50511225179E+02  0.28770436137E+02  0.64548932159E+02  0.00000000000E+00 0. -1.
         11    1    1    2    0    0  0.60679488107E+02  0.38787641496E+02  0.37450021438E+02  0.81172566274E+02  0.00000000000E+00 0.  1.
</event>
<event>
 6    1  0.1538147E-010  0.1908324E+03  0.7561462E-02  0.1157713E+00
          2   -1    0    0  501    0  0.00000000000E+00  0.00000000000E+00  0.10238972181E+04  0.10238972181E+04  0.00000000000E+00 0. -1.
         -2   -1    0    0    0  501 -0.00000000000E+00 -0.00000000000E+00 -0.57527076623E+02  0.57527076623E+02  0.00000000000E+00 0.  1.
          5    1    1    2  502    0 -0.39410514503E+02 -0.10577620549E+03  0.11348917768E+03  0.16012201645E+03  0.41800000000E+01 0. -1.
         -5    1    1    2    0  502  0.74161719057E+02 -0.56203347244E+02  0.71648497031E+02  0.11751491966E+03  0.41800000000E+01 0. -1.
        -11    1    1    2    0    0 -0.37818102762E+02  0.46038232716E+02  0.14000090897E+03  0.15215118232E+03  0.00000000000E+00 0.  1.
         11    1    1    2    0    0  0.30668982079E+01  0.11594132002E+03  0.64123155782E+03  0.65163617633E+03  0.00000000000E+00 0. -1.
</event>
<event>
 7    1  0.1538147E-010  0.1680397E+03  0.7561462E-02  0.1179908E+00
          2   -1    0    0  501    0  0.00000000000E+00  0.00000000000E+00  0.18304808174E+03  0.18304808174E+03  0.00000000000E+00 0. -1.
         -2   -1    0    0    0  501 -0.00000000000E+00 -0.00000000000E+00 -0.33500337912E+03  0.33500337912E+03  0.00000000000E+00 0.  1.
         25    2    1    2    0    0  0.14594138412E+03 -0.52690528693E+02 -0.24440588084E+03  0.31538716416E+03  0.12513852051E+03 0.  0.
          5    1    3    3  502    0  0.82578580878E+02 -0.11269723027E+02 -0.31179954986E+02  0.89083616170E+02  0.41800000000E+01 0. -1.
         -5    1    3    3    0  502  0.63362803238E+02 -0.41420805666E+02 -0.21322592585E+03  0.22630354799E+03  0.41800000000E+01 0. -1.
        -11    1    1    2    0    0 -0.32372719049E+01  0.32533701796E+02  0.25294360981E+01  0.32792068079E+02  0.00000000000E+00 0.  1.
         11    1    1    2    0    0 -0.14270411221E+03  0.20156826897E+02  0.89921147365E+02  0.16987222862E+03  0.00000000000E+00 0. -1.
</event>
<event>
 7    1  0.1538147E-010  0.2444534E+03  0.7561462E-02  0.1116861E+00
          1   -1    0    0  501    0  0.00000000000E+00  0.00000000000E+00  0.21077271802E+03  0.21077271802E+03  0.00000000000E+00 0. -1.
         -1   -1    0    0    0  501 -0.00000000000E+00 -0.00000000000E+00 -0.30540002377E+03  0.30540002377E+03  0.00000000000E+00 0.  1.
         25    2    1    2    0    0 -0.22083974984E+03  0.13377054349E+02  0.14435712804E+02  0.25455725374E+03  0.12506744153E+03 0.  0.
          5    1    3    3  502    0 -0.61800376459E+02 -0.51800109663E+02 -0.81316292885E+01  0.81154997914E+02  0.41800000000E+01 0.  1.
         -5    1    3    3    0  502 -0.15903937339E+03  0.65177164012E+02  0.22567342093E+02  0.17340225582E+03  0.41800000000E+01 0.  1.
        -11    1    1    2    0    0  0.87285568721E+02 -0.46123439075E+02 -0.60478907353E+02  0.11577495573E+03  0.00000000000E+00 0.  1.
         11    1    1    2    0    0  0.13355418112E+03  0.32746384725E+02 -0.48584111196E+02  0.14584053233E+03  0.00000000000E+00 0. -1.
</event>
<event>
 7    1  0.1538147E-010  0.2451721E+03  0.7561462E-02  0.1116395E+00
          2   -1    0    0  501    0  0.00000000000E+00  0.00000000000E+00  0.10969364299E+04  0.10969364299E+04  0.00000000000E+00 0. -1.
         -2   -1    0    0    0  501 -0.00000000000E+00 -0.00000000000E+00 -0.84211313367E+02  0.84211313367E+02  0.00000000000E+00 0.  1.
         25    2    1    2    0    0  0.73552814774E+02  0.22393757382E+03  0.21318259332E+03  0.34156409718E+03  0.12514455984E+03 0.  0.
          5    1    3    3  502    0  0.76957284242E+02  0.16638870081E+03  0.21643608948E+03  0.28367177615E+03  0.41800000000E+01 0.  1.
         -5    1    3    3    0  502 -0.34044694678E+01  0.57548873004E+02 -0.32534961583E+01  0.57892321025E+02  0.41800000000E+01 0.  1.
        -11    1    1    2    0    0 -0.52163830428E+02 -0.44798039660E+02  0.31813457740E+03  0.32548047392E+03  0.00000000000E+00 0. -1.
         11    1    1    2    0    0 -0.21388984347E+02 -0.17913953416E+03  0.48140794577E+03  0.51410317213E+03  0.00000000000E+00 0.  1.
</event>
<event>
 7    1  0.1538147E-010  0.1105604E+03  0.7561462E-02  0.1259536E+00
          3   -1    0    0  501    0  0.00000000000E+00  0.00000000000E+00  0.93291844035E+02  0.93291844035E+02  0.00000000000E+00 0. -1.
         -3   -1    0    0    0  501 -0.00000000000E+00 -0.00000000000E+00 -0.15282018991E+03  0.15282018991E+03  0.00000000000E+00 0.  1.
         25    2    1    2    0    0  0.34524519737E+02 -0.20791274179E+02 -0.69879340891E+02  0.14881330645E+03  0.12505222248E+03 0.  0.
          5    1    3    3  502    0  0.22026525342E+02 -0.70685691976E+02 -0.61897838285E+02  0.96594252692E+02  0.41800000000E+01 0.  1.
         -5    1    3    3    0  502  0.12497994396E+02  0.49894417797E+02 -0.79815026056E+01  0.52219053755E+02  0.41800000000E+01 0.  1.
        -11    1    1    2    0    0  0.20053878429E+02  0.33754748471E+02 -0.37960130527E+01  0.39445542200E+02  0.00000000000E+00 0.  1.
         11    1    1    2    0    0 -0.54578398166E+02 -0.12963474292E+02  0.14147008067E+02  0.57853185300E+02  0.00000000000E+00 0. -1.
</event>
<event>
 7    1  0.1538147E-010  0.9622629E+02  0.7561462E-02  0.1288438E+00
          2   -1    0    0  501    0  0.00000000000E+00  0.00000000000E+00  0.38423493396E+03  0.38423493396E+03  0.00000000000E+00 0.  1.
         -2   -1    0    0    0  501 -0.00000000000E+00 -0.00000000000E+00 -0.57663349649E+02  0.57663349649E+02  0.00000000000E+00 0. -1.
         25    2    1    2    0    0 -0.29013597116E+02  0.93072952080E+01  0.31981805786E+03  0.34477595984E+03  0.12513375960E+03 0.  0.
          5    1    3    3  502    0  0.28302319893E+02  0.28922238581E+02  0.24529574322E+03  0.24864631756E+03  0.41800000000E+01 0. -1.
         -5    1    3    3    0  502 -0.57315917009E+02 -0.19614943373E+02  0.74522314641E+02  0.96129642284E+02  0.41800000000E+01 0. -1.
        -11    1    1    2    0    0 -0.21382248941E+02  0.22827850161E+02  0.18313666986E+02  0.36245023261E+02  0.00000000000E+00 0.  1.
         11    1    1    2    0    0  0.50395846057E+02 -0.32135145369E+02 -0.11560140532E+02  0.60877300505E+02  0.00000000000E+00 0. -1.
</event>
<event>
 7    1  0.1538147E-010  0.1271549E+03  0.7561462E-02  0.1231739E+00
         -2   -1    0    0    0  501 -0.00000000000E+00  0.00000000000E+00  0.16376871097E+03  0.16376871097E+03  0.00000000000E+00 0.  1.
          2   -1    0    0  501    0  0.00000000000E+00 -0.00000000000E+00 -0.21477346587E+03  0.21477346587E+03  0.00000000000E+00 0. -1.
         25    2    1    2    0    0 -0.10812294114E+02 -0.71735767510E+02  0.10736636702E+03  0.18014184473E+03  0.12514240452E+03 0.  0.
          5    1    3    3  502    0 -0.60686748635E+02 -0.66170323887E+02  0.89134510966E+02  0.12658525455E+03  0.41800000000E+01 0.  1.
         -5    1    3    3    0  502  0.49874454520E+02 -0.55654436230E+01  0.18231856057E+02  0.53556590180E+02  0.41800000000E+01 0.  1.
        -11    1    1    2    0    0  0.15970965325E+02 -0.18069621447E+02 -0.62227173394E+02  0.66736826875E+02  0.00000000000E+00 0. -1.
         11    1    1    2    0    0 -0.51586712101E+01  0.89805388958E+02 -0.96143948528E+02  0.13166350524E+03  0.00000000000E+00 0.  1.
</event>
<event>
 7    1  0.1538147E-010  0.1011245E+03  0.7561462E-02  0.1277949E+00
          2   -1    0    0  501    0  0.00000000000E+00  0.00000000000E+00  0.15244954151E+03  0.15244954151E+03  0.00000000000E+00 0. -1.
         -2   -1    0    0    0  501 -0.00000000000E+00 -0.00000000000E+00 -0.92265221664E+02  0.92265221664E+02  0.00000000000E+00 0.  1.
         25    2    1    2    0    0  0.64800252036E+00 -0.47025106224E+02  0.52892682309E+02  0.14370708241E+03  0.12506921752E+03 0.  0.
          5    1    3    3  502    0  0.53941466294E+01 -0.82869695016E+02  0.46585954860E+01  0.83280598472E+02  0.41800000000E+01 0.  1.
         -5    1    3    3    0  502 -0.47461441090E+01  0.35844588792E+02  0.48234086823E+02  0.60426483939E+02  0.41800000000E+01 0.  1.
        -11    1    1    2    0    0  0.31882301973E+02  0.99977584540E+01  0.31655545245E+02  0.46027273414E+02  0.00000000000E+00 0. -1.
         11    1    1    2    0    0 -0.32530304494E+02  0.37027347770E+02 -0.24363907709E+02  0.54980407348E+02  0.00000000000E+00 0.  1.
</event>
<event>
 7    1  0.1538147E-010  0.1473161E+03  0.7561462E-02  0.1203810E+00
          1   -1    0    0  501    0  0.00000000000E+00  0.00000000000E+00  0.91246531266E+03  0.91246531266E+03  0.00000000000E+00 0. -1.
         -1   -1    0    0    0  501 -0.00000000000E+00 -0.00000000000E+00 -0.29076709485E+02  0.29076709485E+02  0.00000000000E+00 0.  1.
         25    2    1    2    0    0 -0.44473068627E+02 -0.10821139867E+03  0.37148971810E+03  0.40906017937E+03  0.12505222534E+03 0.  0.
          5    1    3    3  502    0 -0.29193810077E+02  0.91832131982E+01  0.18891142681E+03  0.19141998206E+03  0.41800000000E+01 0. -1.
         -5    1    3    3    0  502 -0.15279258550E+02 -0.11739461187E+03  0.18257829128E+03  0.21764019731E+03  0.41800000000E+01 0. -1.
        -11    1    1    2    0    0 -0.26082397979E+02  0.34489631412E+02  0.12143896755E+03  0.12890790899E+03  0.00000000000E+00 0. -1.
         11    1    1    2    0    0  0.70555466606E+02  0.73721767262E+02  0.39045991753E+03  0.40357393379E+03  0.00000000000E+00 0.  1.
</event>
<event>
 7    1  0.1538147E-010  0.1913087E+03  0.7561462E-02  0.1157286E+00
         -1   -1    0    0    0  501 -0.00000000000E+00  0.00000000000E+00  0.43139437586E+03  0.43139437586E+03  0.00000000000E+00 0. -1.
          1   -1    0    0  501    0  0.00000000000E+00 -0.00000000000E+00 -0.15028532051E+03  0.15028532051E+03  0.00000000000E+00 0.  1.
         25    2    1    2    0    0 -0.11953489739E+03 -0.11880254046E+03 -0.34680151204E+02  0.21275162429E+03  0.12513155252E+03 0.  0.
          5    1    3    3  502    0 -0.90590305312E+02 -0.14474827020E+03 -0.28042409137E+02  0.17309683490E+03  0.41800000000E+01 0. -1.
         -5    1    3    3    0  502 -0.28944592078E+02  0.25945729733E+02 -0.66377420674E+01  0.39654789392E+02  0.41800000000E+01 0. -1.
        -11    1    1    2    0    0  0.54976215405E+02  0.81015293676E+02  0.97486766737E+02  0.13816487165E+03  0.00000000000E+00 0.  1.
         11    1    1    2    0    0  0.64558681985E+02  0.37787246787E+02  0.21830243981E+03  0.23076320042E+03  0.00000000000E+00 0. -1.
</event>
<event>
 7    1  0.1538147E-010  0.1829945E+03  0.7561462E-02  0.1164936E+00
          2   -1    0    0  501    0  0.00000000000E+00  0.00000000000E+00  0.88959330381E+03  0.88959330381E+03  0.00000000000E+00 0. -1.
         -2   -1    0    0    0  501 -0.00000000000E+00 -0.00000000000E+00 -0.50196169701E+02  0.50196169701E+02  0.00000000000E+00 0.  1.
         25    2    1    2    0    0 -0.83987035349E+02 -0.12825683847E+03  0.65294207370E+03  0.68225925022E+03  0.12506276096E+03 0.  0.
          5    1    3    3  502    0 -0.16786652026E+02 -0.12739873457E+03  0.47189672365E+03  0.48909735171E+03  0.41800000000E+01 0.  1.
         -5    1    3    3    0  502 -0.67200383323E+02 -0.85810390197E+00  0.18104535005E+03  0.19316189851E+03  0.41800000000E+01 0.  1.
        -11    1    1    2    0    0  0.17899660695E+01  0.68351408864E+02  0.39982423237E+02  0.79206775216E+02  0.00000000000E+00 0.  1.
         11    1    1    2    0    0  0.82197069279E+02  0.59905429605E+02  0.14647263717E+03  0.17832344807E+03  0.00000000000E+00 0. -1.
</event>
<event>
 7    1  0.1538147E-010  0.1439169E+03  0.7561462E-02  0.1208154E+00
         -2   -1    0    0    0  501 -0.00000000000E+00  0.00000000000E+00  0.38139315608E+02  0.38139315608E+02  0.00000000000E+00 0.  1.
          2   -1    0    0  501    0  0.00000000000E+00 -0.00000000000E+00 -0.58164329754E+03  0.58164329754E+03  0.00000000000E+00 0. -1.
         25    2    1    2    0    0  0.36194230983E+02  0.91969035122E+02 -0.23688080501E+03  0.28554169311E+03  0.12511281687E+03 0.  0.
          5    1    3    3  502    0  0.75759293608E+02  0.22458391355E+02 -0.11020083496E+03  0.13566704219E+03  0.41800000000E+01 0.  1.
         -5    1    3    3    0  502 -0.39565062625E+02  0.69510643767E+02 -0.12667997005E+03  0.14987465092E+03  0.41800000000E+01 0.  1.
        -11    1    1    2    0    0 -0.55878431370E+02 -0.29644569943E+02 -0.10823255401E+03  0.12536141897E+03  0.00000000000E+00 0.  1.
         11    1    1    2    0    0  0.19684200387E+02 -0.62324465179E+02 -0.19839062292E+03  0.20887950107E+03  0.00000000000E+00 0. -1.
</event>
<event>
 7    1  0.1538147E-010  0.8314299E+02  0.7561462E-02  0.1320362E+00
         -2   -1    0    0    0  501 -0.00000000000E+00  0.00000000000E+00  0.10020580142E+03  0.10020580142E+03  0.00000000000E+00 0.  1.
          2   -1    0    0  501    0  0.00000000000E+00 -0.00000000000E+00 -0.13962784577E+03  0.13962784577E+03  0.00000000000E+00 0. -1.
         25    2    1    2    0    0 -0.28547971819E+02 -0.24092952195E+00  0.15648782314E+02  0.12922516536E+03  0.12505684400E+03 0.  0.
          5    1    3    3  502    0  0.18883955458E+02 -0.15785361652E+02 -0.44455476723E+02  0.50985715910E+02  0.41800000000E+01 0. -1.
         -5    1    3    3    0  502 -0.47431927277E+02  0.15544432130E+02  0.60104259037E+02  0.78239449447E+02  0.41800000000E+01 0. -1.
        -11    1    1    2    0    0 -0.29146128809E+02  0.13364706849E+02 -0.36524477190E+02  0.48601951069E+02  0.00000000000E+00 0. -1.
         11    1    1    2    0    0  0.57694100628E+02 -0.13123777327E+02 -0.18546349473E+02  0.62006530764E+02  0.00000000000E+00 0.  1.
</event>
<event>
 7    1  0.1538147E-010  0.9670405E+02  0.7561462E-02  0.1287384E+00
         -2   -1    0    0    0  501 -0.00000000000E+00  0.00000000000E+00  0.51662396122E+02  0.51662396122E+02  0.00000000000E+00 0. -1.
          2   -1    0    0  501    0  0.00000000000E+00 -0.00000000000E+00 -0.28065437975E+03  0.28065437975E+03  0.00000000000E+00 0.  1.
         25    2    1    2    0    0 -0.53380123682E+02 -0.16082879758E+02 -0.84776077214E+02  0.16102511401E+03  0.12503602460E+03 0.  0.
          5    1    3    3  502    0  0.25460261558E+02 -0.22670932414E+02  0.11611840462E+02  0.36256079960E+02  0.41800000000E+01 0. -1.
         -5    1    3    3    0  502 -0.78840385240E+02  0.65880526562E+01 -0.96387917676E+02  0.12476903405E+03  0.41800000000E+01 0. -1.
        -11    1    1    2    0    0  0.64184015336E+02  0.50309231967E+01 -0.14169050063E+03  0.15563128214E+03  0.00000000000E+00 0.  1.
         11    1    1    2    0    0 -0.10803891655E+02  0.11051956562E+02 -0.25254057861E+01  0.15660379724E+02  0.00000000000E+00 0. -1.
</event>
<event>
 7    1  0.1538147E-010  0.8466308E+02  0.7561462E-02  0.1316316E+00
         -2   -1    0    0    0  501 -0.00000000000E+00  0.00000000000E+00  0.23500233095E+02  0.23500233095E+02  0.00000000000E+00 0.  1.
          2   -1    0    0  501    0  0.00000000000E+00 -0.00000000000E+00 -0.54380508370E+03  0.54380508370E+03  0.00000000000E+00 0. -1.
         25    2    1    2    0    0  0.25200756078E+02  0.10977399681E+02 -0.26490431779E+03  0.29425692469E+03  0.12512896839E+03 0.  0.
          5    1    3    3  502    0 -0.12999622361E+02  0.33706092987E+02 -0.13301116291E+02  0.38723158194E+02  0.41800000000E+01 0. -1.
         -5    1    3    3    0  502  0.38200378438E+02 -0.22728693305E+02 -0.25160320150E+03  0.25553376649E+03  0.41800000000E+01 0. -1.
        -11    1    1    2    0    0 -0.55161096310E+01 -0.46967715045E+02 -0.80155057498E+02  0.93065713152E+02  0.00000000000E+00 0.  1.
         11    1    1    2    0    0 -0.19684646447E+02  0.35990315364E+02 -0.17524547531E+03  0.17998267896E+03  0.00000000000E+00 0. -1.
</event>
<event>
 7    1  0.1538147E-010  0.8405125E+02  0.7561462E-02  0.1317932E+00
          2   -1    0    0  501    0  0.00000000000E+00  0.00000000000E+00  0.30052361493E+03  0.30052361493E+03  0.00000000000E+00 0. -1.
         -2   -1    0    0    0  501 -0.00000000000E+00 -0.00000000000E+00 -0.46067418450E+02  0.46067418450E+02  0.00000000000E+00 0.  1.
         25    2    1    2    0    0  0.26209488210E+02 -0.20288392603E+02  0.95141269111E+02  0.16058801922E+03  0.12505236776E+03 0.  0.
          5    1    3    3  502    0  0.40516068738E+02  0.82823667577E+01 -0.16250666867E+02  0.44628533459E+02  0.41800000000E+01 0.  1.
         -5    1    3    3    0  502 -0.14306580528E+02 -0.28570759361E+02  0.11139193598E+03  0.11595948576E+03  0.41800000000E+01 0.  1.
        -11    1    1    2    0    0  0.32837800347E+02  0.10386352994E+02  0.42191511996E+02  0.54463943528E+02  0.00000000000E+00 0. -1.
         11    1    1    2    0    0 -0.59047288557E+02  0.99020396088E+01  0.11712341537E+03  0.13153907063E+03  0.00000000000E+00 0.  1.
</event>
<event>
 7    1  0.1538147E-010  0.8845732E+02  0.7561462E-02  0.1306631E+00
          1   -1    0    0  501    0  0.00000000000E+00  0.00000000000E+00  0.81752632125E+02  0.81752632125E+02  0.00000000000E+00 0. -1.
         -1   -1    0    0    0  501 -0.00000000000E+00 -0.00000000000E+00 -0.16020567794E+03  0.16020567794E+03  0.00000000000E+00 0.  1.
         25    2    1    2    0    0  0.31538888280E+01 -0.26353827146E+02 -0.57952573641E+02  0.14037220669E+03  0.12506552042E+03 0.  0.
          5    1    3    3  502    0 -0.33174886044E+02 -0.26794449884E+02 -0.84795826682E+02  0.95006948331E+02  0.41800000000E+01 0. -1.
         -5    1    3    3    0  502  0.36328774872E+02  0.44062273809E+00  0.26843253040E+02  0.45365258358E+02  0.41800000000E+01 0. -1.
        -11    1    1    2    0    0 -0.72478214820E+00  0.61880864956E+02 -0.22678327110E+02  0.65909584108E+02  0.00000000000E+00 0.  1.
         11    1    1    2    0    0 -0.24291066798E+01 -0.35527037810E+02  0.21778549381E+01  0.35676519266E+02  0.00000000000E+00 0. -1.
</event>
<event>
 7    1  0.1538147E-010  0.5815059E+02  0.7561462E-02  0.1405761E+00
          1   -1    0    0  501    0  0.00000000000E+00  0.00000000000E+00  0.37253419080E+03  0.37253419080E+03  0.00000000000E+00 0. -1.
         -1   -1    0    0    0  501 -0.00000000000E+00 -0.00000000000E+00 -0.38542762792E+02  0.38542762792E+02  0.00000000000E+00 0.  1.
         25    2    1    2    0    0 -0.52148949564E+01 -0.99002110917E+01  0.27283965686E+03  0.30034527014E+03  0.12506235895E+03 0.  0.
          5    1    3    3  502    0  0.28623276548E+02 -0.62897546931E+01  0.46414973589E+01  0.29964460151E+02  0.41800000000E+01 0. -1.
         -5    1    3    3    0  502 -0.33838171504E+02 -0.36104563987E+01  0.26819815951E+03  0.27038080999E+03  0.41800000000E+01 0. -1.
        -11    1    1    2    0    0 -0.18747872941E+02 -0.10014156878E+02 -0.16600215257E+02  0.26969116122E+02  0.00000000000E+00 0.  1.
         11    1    1    2    0    0  0.23962767898E+02  0.19914367969E+02  0.77751986399E+02  0.83762567331E+02  0.00000000000E+00 0. -1.
</event>
<event>
 7    1  0.1538147E-010  0.1349051E+03  0.7561462E-02  0.1220354E+00
         -3   -1    0    0    0  501 -0.00000000000E+00  0.00000000000E+00  0.14632166287E+03  0.14632166287E+03  0.00000000000E+00 0.  1.
          3   -1    0    0  501    0  0.00000000000E+00 -0.00000000000E+00 -0.13944952857E+03  0.13944952857E+03  0.00000000000E+00 0. -1.
         25    2    1    2    0    0 -0.71578407175E+02  0.58040259965E+02  0.48389384909E+01  0.15547135839E+03  0.12512309061E+03 0.  0.
          5    1    3    3  502    0 -0.31531354985E+02 -0.38986463849E+02  0.30199817479E+01  0.50405985759E+02  0.41800000000E+01 0. -1.
         -5    1    3    3    0  502 -0.40047052190E+02  0.97026723814E+02  0.18189567430E+01  0.10506537263E+03  0.41800000000E+01 0. -1.
        -11    1    1    2    0    0 -0.86926393647E+01  0.69768195390E+01  0.22392955491E+02  0.25013645189E+02  0.00000000000E+00 0.  1.
         11    1    1    2    0    0  0.80271046540E+02 -0.65017079504E+02 -0.20359759681E+02  0.10528618786E+03  0.00000000000E+00 0. -1.
</event>
<event>
 7    1  0.1538147E-010  0.9526857E+02  0.7561462E-02  0.1290572E+00
          2   -1    0    0  501    0  0.00000000000E+00  0.00000000000E+00  0.28086790341E+03  0.28086790341E+03  0.00000000000E+00 0.  1.
         -2   -1    0    0    0  501 -0.00000000000E+00 -0.00000000000E+00 -0.24524973996E+03  0.24524973996E+03  0.00000000000E+00 0. -1.
         25    2    1    2    0    0 -0.13154316845E+02 -0.80143626746E+02  0.24293606836E+03  0.28505377812E+03  0.12506672679E+03 0.  0.
          5    1    3    3  502    0 -0.10402115114E+02 -0.93583849072E+02  0.25133981796E+03  0.26843121521E+03  0.41800000000E+01 0.  1.
         -5    1    3    3    0  502 -0.27522017309E+01  0.13440222325E+02 -0.84037495957E+01  0.16622562913E+02  0.41800000000E+01 0.  1.
        -11    1    1    2    0    0  0.77785698151E+01  0.18552878255E+02  0.43237061299E+01  0.20576925781E+02  0.00000000000E+00 0.  1.
         11    1    1    2    0    0  0.53757470299E+01  0.61590748492E+02 -0.21164161104E+03  0.22048693948E+03  0.00000000000E+00 0. -1.
</event>
<event>
 7    1  0.2143648E-010  0.1314059E+03  0.7561462E-02  0.1225384E+00
         -1   -1    0    0    0  501 -0.00000000000E+00  0.00000000000E+00  0.28608043362E+03  0.28608043362E+03  0.00000000000E+00 0. -1.
          1   -1    0    0  501    0  0.00000000000E+00 -0.00000000000E+00 -0.98505663102E+02  0.98505663102E+02  0.00000000000E+00 0.  1.
         25    2    1    2    0    0  0.57634496051E+02 -0.60341969054E+02 -0.10960263378E+02  0.15074850183E+03  0.12506836157E+03 0.  0.
          5    1    3    3  502    0  0.92803420129E+02 -0.32962848397E+02  0.13893236830E+02  0.99546564941E+02  0.41800000000E+01 0. -1.
         -5    1    3    3    0  502 -0.35168924078E+02 -0.27379120657E+02 -0.24853500208E+02  0.51201936890E+02  0.41800000000E+01 0. -1.
        -11    1    1    2    0    0  0.89337824468E+01  0.51560869997E+02  0.11731427697E+03  0.12845612233E+03  0.00000000000E+00 0. -1.
         11    1    1    2    0    0 -0.66568278498E+02  0.87810990574E+01  0.81220756922E+02  0.10538147255E+03  0.00000000000E+00 0.  1.
</event>
<event>
 7    1  0.1538147E-010  0.1042692E+03  0.7561462E-02  0.1271566E+00
         -1   -1    0    0    0  501 -0.00000000000E+00  0.00000000000E+00  0.75236886009E+02  0.75236886009E+02  0.00000000000E+00 0.  1.
          1   -1    0    0  501    0  0.00000000000E+00 -0.00000000000E+00 -0.19005480701E+03  0.19005480701E+03  0.00000000000E+00 0. -1.
         25    2    1    2    0    0 -0.72369855048E+01 -0.22310462261E+02 -0.14694202693E+02  0.12814533727E+03  0.12512065052E+03 0.  0.
          5    1    3    3  502    0  0.53445317849E+02 -0.48101570877E+01 -0.31884314168E+02  0.62558944214E+02  0.41800000000E+01 0.  1.
         -5    1    3    3    0  502 -0.60682303354E+02 -0.17500305173E+02  0.17190111475E+02  0.65586393055E+02  0.41800000000E+01 0.  1.
        -11    1    1    2    0    0  0.11722190982E+02 -0.33468539272E+02 -0.54127835242E+02  0.64709933012E+02  0.00000000000E+00 0.  1.
         11    1    1    2    0    0 -0.44852054774E+01  0.55779001533E+02 -0.45995883065E+02  0.72436422738E+02  0.00000000000E+00 0. -1.
</event>
<event>
 6    1  0.1538147E-010  0.1302211E+03  0.7561462E-02  0.1227128E+00
          2   -1    0    0  501    0  0.00000000000E+00  0.00000000000E+00  0.23997370322E+03  0.23997370322E+03  0.00000000000E+00 0. -1.
         -2   -1    0    0    0  501 -0.00000000000E+00 -0.00000000000E+00 -0.95984961396E+02  0.95984961396E+02  0.00000000000E+00 0.  1.
          5    1    1    2  502    0 -0.40254388285E+02 -0.22302757671E+02  0.29357410873E+02  0.54746312653E+02  0.41800000000E+01 0. -1.
         -5    1    1    2    0  502  0.87428496944E+02 -0.68151455747E+02  0.10550406000E+02  0.11143225056E+03  0.41800000000E+01 0. -1.
        -11    1    1    2    0    0 -0.23154654654E+02  0.27674461466E+02  0.95410062680E+02  0.10200536216E+03  0.00000000000E+00 0. -1.
         11    1    1    2    0    0 -0.24019454004E+02  0.62779751952E+02  0.86708622674E+01  0.67774739234E+02  0.00000000000E+00 0.  1.
</event>
<event>
 7    1  0.1538147E-010  0.1675962E+03  0.7561462E-02  0.1180378E+00
         -1   -1    0    0    0  501 -0.00000000000E+00  0.00000000000E+00  0.14129984114E+03  0.14129984114E+03  0.00000000000E+00 0.  1.
          1   -1    0    0  501    0  0.00000000000E+00 -0.00000000000E+00 -0.22455111950E+03  0.22455111950E+03  0.00000000000E+00 0. -1.
         25    2    1    2    0    0 -0.74528533433E+02 -0.12407890352E+03 -0.42243887361E+02  0.19588832040E+03  0.12505043565E+03 0.  0.
          5    1    3    3  502    0 -0.39834163092E+02 -0.13379153841E+03 -0.63967170917E+02  0.15361057143E+03  0.41800000000E+01 0. -1.
         -5    1    3    3    0  502 -0.34694370341E+02  0.97126348927E+01  0.21723283556E+02  0.42277748975E+02  0.41800000000E+01 0. -1.
        -11    1    1    2    0    0  0.40449123823E+02  0.11787861078E+03 -0.12780155278E+02  0.12527901208E+03  0.00000000000E+00 0.  1.
         11    1    1    2    0    0  0.34079409610E+02  0.62002927334E+01 -0.28227235725E+02  0.44683628166E+02  0.00000000000E+00 0. -1.
</event>
<event>
 7    1  0.1538147E-010  0.8520663E+02  0.7561462E-02  0.1314893E+00
          3   -1    0    0  501    0  0.00000000000E+00  0.00000000000E+00  0.20194767034E+03  0.20194767034E+03  0.00000000000E+00 0. -1.
         -3   -1    0    0    0  501 -0.00000000000E+00 -0.00000000000E+00 -0.67327768091E+02  0.67327768091E+02  0.00000000000E+00 0.  1.
         25    2    1    2    0    0 -0.24642702450E+02  0.17947848734E+02  0.59022074557E+02  0.14158767003E+03  0.12503629457E+03 0.  0.
          5    1    3    3  502    0  0.39684250510E+02 -0.25813478597E+02  0.73328270422E+01  0.48087609301E+02  0.41800000000E+01 0.  1.
         -5    1    3    3    0  502 -0.64326952961E+02  0.43761327331E+02  0.51689247515E+02  0.93500060725E+02  0.41800000000E+01 0.  1.
        -11    1    1    2    0    0  0.26809444482E+02  0.87598568985E-01 -0.18033660775E+02  0.32310476752E+02  0.00000000000E+00 0.  1.
         11    1    1    2    0    0 -0.21667420320E+01 -0.18035447303E+02  0.93631488465E+02  0.95377291651E+02  0.00000000000E+00 0. -1.
</event>
<event>
 7    1  0.1538147E-010  0.6444660E+02  0.7561462E-02  0.1380065E+00
         -2   -1    0    0    0  501 -0.00000000000E+00  0.00000000000E+00  0.38062273792E+02  0.38062273792E+02  0.00000000000E+00 0.  1.
          2   -1    0    0  501    0  0.00000000000E+00 -0.00000000000E+00 -0.31022804937E+03  0.31022804937E+03  0.00000000000E+00 0. -1.
         25    2    1    2    0    0  0.12832452208E+01  0.59293709717E+01 -0.21035119002E+03  0.24479542715E+03  0.12506148030E+03 0.  0.
          5    1    3    3  502    0  0.25636809991E+02 -0.67792046920E+01 -0.21495975504E+03  0.21662957399E+03  0.41800000000E+01 0. -1.
         -5    1    3    3    0  502 -0.24353564771E+02  0.12708575664E+02  0.46085650229E+01  0.28165853156E+02  0.41800000000E+01 0. -1.
        -11    1    1    2    0    0  0.48947126189E+01  0.33750507402E+02 -0.58322060515E+01  0.34598693457E+02  0.00000000000E+00 0.  1.
         11    1    1    2    0    0 -0.61779578397E+01 -0.39679878374E+02 -0.55982379514E+02  0.68896202558E+02  0.00000000000E+00 0. -1.
</event>
<event>
 6    1  0.1538147E-010  0.8527614E+02  0.7561462E-02  0.1314712E+00
          2   -1    0    0  501    0  0.00000000000E+00  0.00000000000E+00  0.84163369336E+03  0.84163369336E+03  0.00000000000E+00 0. -1.
         -2   -1    0    0    0  501 -0.00000000000E+00 -0.00000000000E+00 -0.17287161640E+02  0.17287161640E+02  0.00000000000E+00 0.  1.
          5    1    1    2  502    0 -0.54111371867E+02  0.80644056198E+01  0.50963143819E+03  0.51257658003E+03  0.41800000000E+01 0.  1.
         -5    1    1    2    0  502  0.60063713500E+01 -0.19131381551E+02  0.76404297419E+01  0.21861720506E+02  0.41800000000E+01 0.  1.
        -11    1    1    2    0    0  0.48760802100E+02  0.41942698750E+02  0.26243351475E+03  0.27020021367E+03  0.00000000000E+00 0.  1.
         11    1    1    2    0    0 -0.65580158313E+00 -0.30875722819E+02  0.44641149035E+02  0.54282340798E+02  0.00000000000E+00 0. -1.
</event>
<event>
 7    1  0.1538147E-010  0.1329818E+03  0.7561462E-02  0.1223097E+00
          2   -1    0    0  501    0  0.00000000000E+00  0.00000000000E+00  0.41197445441E+03  0.41197445441E+03  0.00000000000E+00 0. -1.
         -2   -1    0    0    0  501 -0.00000000000E+00 -0.00000000000E+00 -0.53482206381E+02  0.53482206381E+02  0.00000000000E+00 0.  1.
         25    2    1    2    0    0 -0.97813816385E+02  0.14244136460E+02  0.22843033939E+03  0.27858189125E+03  0.12512798280E+03 0.  0.
          5    1    3    3  502    0 -0.70732101472E+02  0.58226866372E+02  0.19868750244E+03  0.21883234261E+03  0.41800000000E+01 0.  1.
         -5    1    3    3    0  502 -0.27081714913E+02 -0.43982729912E+02  0.29742836950E+02  0.59749548643E+02  0.41800000000E+01 0.  1.
        -11    1    1    2    0    0  0.10874494392E+03 -0.19205503205E+02  0.82557164621E+02  0.13787675516E+03  0.00000000000E+00 0.  1.
         11    1    1    2    0    0 -0.10931127537E+02  0.49613667450E+01  0.47504744020E+02  0.48998014384E+02  0.00000000000E+00 0. -1.
</event>
<event>
 7    1  0.1538147E-010  0.1989162E+03  0.7561462E-02  0.1150657E+00
          4   -1    0    0  501    0  0.00000000000E+00  0.00000000000E+00  0.42586250116E+02  0.42586250116E+02  0.00000000000E+00 0. -1.
         -4   -1    0    0    0  501 -0.00000000000E+00 -0.00000000000E+00 -0.23582212000E+04  0.23582212000E+04  0.00000000000E+00 0.  1.
         25    2    1    2    0    0  0.81373056194E+02 -0.15186816764E+03 -0.21003004941E+04  0.21110633614E+04  0.12506332673E+03 0.  0.
          5    1    3    3  502    0  0.18122016941E+02 -0.13923604187E+03 -0.11461453765E+04  0.11547215159E+04  0.41800000000E+01 0.  1.
         -5    1    3    3    0  502  0.63251039252E+02 -0.12632125775E+02 -0.95415511766E+03  0.95634184554E+03  0.41800000000E+01 0.  1.
        -11    1    1    2    0    0 -0.68038105805E+01  0.10376099886E+03 -0.10045564258E+03  0.14458206269E+03  0.00000000000E+00 0.  1.
         11    1    1    2    0    0 -0.74569245613E+02  0.48107168779E+02 -0.11487881319E+03  0.14516202602E+03  0.00000000000E+00 0. -1.
</event>
<event>
 7    1  0.1538147E-010  0.1363519E+03  0.7561462E-02  0.1218324E+00
         -2   -1    0    0    0  501 -0.00000000000E+00  0.00000000000E+00  0.81358696602E+02  0.81358696602E+02  0.00000000000E+00 0. -1.
          2   -1    0    0  501    0  0.00000000000E+00 -0.00000000000E+00 -0.49122021847E+03  0.49122021847E+03  0.00000000000E+00 0.  1.
         25    2    1    2    0    0 -0.62069311691E+02  0.10126951515E+03 -0.38533684647E+03  0.42217818477E+03  0.12506726311E+03 0.  0.
          5    1    3    3  502    0  0.15732322575E+02  0.43695314858E+02 -0.25799084174E+03  0.26217080946E+03  0.41800000000E+01 0.  1.
         -5    1    3    3    0  502 -0.77801634265E+02  0.57574200287E+02 -0.12734600473E+03  0.16000737531E+03  0.41800000000E+01 0.  1.
        -11    1    1    2    0    0  0.43366198013E+02 -0.23731298611E+02  0.26127475164E+02  0.55914636924E+02  0.00000000000E+00 0.  1.
         11    1    1    2    0    0  0.18703113677E+02 -0.77538216534E+02 -0.50652150567E+02  0.94486093377E+02  0.00000000000E+00 0. -1.
</event>
<event>
 6    1  0.1538147E-010  0.1512135E+03  0.7561462E-02  0.1198990E+00
         -1   -1    0    0    0  501 -0.00000000000E+00  0.00000000000E+00  0.50147095609E+02  0.50147095609E+02  0.00000000000E+00 0.  1.
          1   -1    0    0  501    0  0.00000000000E+00 -0.00000000000E+00 -0.61780963181E+03  0.61780963181E+03  0.00000000000E+00 0. -1.
          5    1    1    2  502    0  0.79695808752E+01  0.30755242447E+02  0.94966789356E+00  0.32058905571E+02  0.41800000000E+01 0. -1.
         -5    1    1    2    0  502  0.61235588788E+02  0.86903326198E+02 -0.31408308178E+03  0.33161369106E+03  0.41800000000E+01 0. -1.
        -11    1    1    2    0    0 -0.22542672929E+02  0.12459835246E+02 -0.22504576066E+02  0.34203443409E+02  0.00000000000E+00 0.  1.
         11    1    1    2    0    0 -0.46662496734E+02 -0.13011840389E+03 -0.23202454625E+03  0.27008068738E+03  0.00000000000E+00 0. -1.
</event>
<event>
 7    1  0.2211506E-010  0.1308219E+03  0.7561462E-02  0.1226241E+00
         -2   -1    0    0    0  501 -0.00000000000E+00  0.00000000000E+00  0.28480165567E+02  0.28480165567E+02  0.00000000000E+00 0.  1.
          2   -1    0    0  501    0  0.00000000000E+00 -0.00000000000E+00 -0.70009898531E+03  0.70009898531E+03  0.00000000000E+00 0. -1.
         25    2    1    2    0    0 -0.74900963353E+02  0.19405478821E+02 -0.25447056471E+03  0.29393057383E+03  0.12511269724E+03 0.  0.
          5    1    3    3  502    0 -0.10623481768E+03  0.94439158639E+01 -0.22715227383E+03  0.25097938549E+03  0.41800000000E+01 0.  1.
         -5    1    3    3    0  502  0.31333854327E+02  0.99615629571E+01 -0.27318290879E+02  0.42951188343E+02  0.41800000000E+01 0.  1.
        -11    1    1    2    0    0  0.74894101673E+02 -0.50718301619E+02 -0.29538670308E+03  0.30892519635E+03  0.00000000000E+00 0.  1.
         11    1    1    2    0    0  0.68616804434E-02  0.31312822798E+02 -0.12176155195E+03  0.12572338069E+03  0.00000000000E+00 0. -1.
</event>
<event>
 7    1  0.1538147E-010  0.2590822E+03  0.7561462E-02  0.1107696E+00
          1   -1    0    0  501    0  0.00000000000E+00  0.00000000000E+00  0.37464201898E+03  0.37464201898E+03  0.00000000000E+00 0. -1.
         -1   -1    0    0    0  501 -0.00000000000E+00 -0.00000000000E+00 -0.22630546622E+03  0.22630546622E+03  0.00000000000E+00 0.  1.
         25    2    1    2    0    0 -0.28153962711E+02 -0.25544085199E+03  0.16272794554E+03  0.32890290384E+03  0.12511619164E+03 0.  0.
          5    1    3    3  502    0 -0.22221122435E+02 -0.15545536433E+03  0.25793079679E+02  0.15919454745E+03  0.41800000000E+01 0. -1.
         -5    1    3    3    0  502 -0.59328402764E+01 -0.99985487661E+02  0.13693486586E+03  0.16970835638E+03  0.41800000000E+01 0. -1.
        -11    1    1    2    0    0  0.36330443046E+02  0.12619600088E+03 -0.45279909745E+02  0.13890861008E+03  0.00000000000E+00 0.  1.
         11    1    1    2    0    0 -0.81764803350E+01  0.12924485111E+03  0.30888516955E+02  0.13313597128E+03  0.00000000000E+00 0. -1.
</event>
<event>
 7    1  0.1538147E-010  0.1051837E+03  0.7561462E-02  0.1269758E+00
         -2   -1    0    0    0  501 -0.00000000000E+00  0.00000000000E+00  0.14272446782E+03  0.14272446782E+03  0.00000000000E+00 0.  1.
          2   -1    0    0  501    0  0.00000000000E+00 -0.00000000000E+00 -0.92120109677E+02  0.92120109677E+02  0.00000000000E+00 0. -1.
         25    2    1    2    0    0  0.40529825730E+02 -0.75421713563E+01  0.24374361280E+02  0.13399720891E+03  0.12514627995E+03 0.  0.
          5    1    3    3  502    0 -0.42533391602E+02  0.10027054424E+02  0.21656269682E+02  0.48949950338E+02  0.41800000000E+01 0. -1.
         -5    1    3    3    0  502  0.83063217332E+02 -0.17569225780E+02  0.27180915988E+01  0.85047258569E+02  0.41800000000E+01 0. -1.
        -11    1    1    2    0    0 -0.16204569866E+02  0.38688428637E+02  0.41002875599E+02  0.58656784794E+02  0.00000000000E+00 0.  1.
         11    1    1    2    0    0 -0.24325255864E+02 -0.31146257281E+02 -0.14772878731E+02  0.42190583801E+02  0.00000000000E+00 0. -1.
</event>
<event>
 6    1  0.1538147E-010  0.1453390E+03  0.7561462E-02  0.1206320E+00
         -1   -1    0    0    0  501 -0.00000000000E+00  0.00000000000E+00  0.13423908885E+03  0.13423908885E+03  0.00000000000E+00 0.  1.
          1   -1    0    0  501    0  0.00000000000E+00 -0.00000000000E+00 -0.22431538444E+03  0.22431538444E+03  0.00000000000E+00 0. -1.
          5    1    1    2  502    0  0.67345893008E+02  0.12680164384E+03  0.73236097540E+01  0.14382362061E+03  0.41800000000E+01 0. -1.
         -5    1    1    2    0  502 -0.15945714437E+01 -0.28026138792E+02  0.80065125904E+01  0.29488705593E+02  0.41800000000E+01 0. -1.
        -11    1    1    2    0    0 -0.25233890489E+02 -0.38426670635E+02  0.11676039965E+02  0.47430877649E+02  0.00000000000E+00 0.  1.
         11    1    1    2    0    0 -0.40517431075E+02 -0.60348834408E+02 -0.11708245790E+03  0.13781126944E+03  0.00000000000E+00 0. -1.
</event>
<event>
 6    1  0.1538147E-010  0.1673503E+03  0.7561462E-02  0.1180640E+00
         -1   -1    0    0    0  501 -0.00000000000E+00  0.00000000000E+00  0.11486466388E+04  0.11486466388E+04  0.00000000000E+00 0.  1.
          1   -1    0    0  501    0  0.00000000000E+00 -0.00000000000E+00 -0.25810809636E+02  0.25810809636E+02  0.00000000000E+00 0. -1.
          5    1    1    2  502    0 -0.33706987467E+02 -0.85358944341E+01  0.84569780834E+02  0.91534380034E+02  0.41800000000E+01 0.  1.
         -5    1    1    2    0  502  0.25184472320E+02  0.13895161934E+03  0.61318243636E+03  0.62924715559E+03  0.41800000000E+01 0.  1.
        -11    1    1    2    0    0  0.49069626388E+02 -0.65059729678E+02  0.22708630129E+03  0.24126496823E+03  0.00000000000E+00 0. -1.
         11    1    1    2    0    0 -0.40547111241E+02 -0.65355995229E+02  0.19799731073E+03  0.21241094463E+03  0.00000000000E+00 0.  1.
</event>
<event>
 7    1  0.1538147E-010  0.1051201E+03  0.7561462E-02  0.1269883E+00
         -1   -1    0    0    0  501 -0.00000000000E+00  0.00000000000E+00  0.57241255129E+03  0.57241255129E+03  0.00000000000E+00 0. -1.
          1   -1    0    0  501    0  0.00000000000E+00 -0.00000000000E+00 -0.27782319310E+02  0.27782319310E+02  0.00000000000E+00 0.  1.
         25    2    1    2    0    0 -0.39003420236E+02  0.21025747833E+02  0.41261063263E+03  0.43343374063E+03  0.12511564449E+03 0.  0.
          5    1    3    3  502    0  0.14499458468E+02  0.50765953894E+02  0.30497043525E+03  0.30953490134E+03  0.41800000000E+01 0.  1.
         -5    1    3    3    0  502 -0.53502878704E+02 -0.29740206061E+02  0.10764019738E+03  0.12389883930E+03  0.41800000000E+01 0.  1.
        -11    1    1    2    0    0  0.26993633619E+02 -0.54250275030E+02  0.54201742941E+02  0.81299308329E+02  0.00000000000E+00 0.  1.
         11    1    1    2    0    0  0.12009786617E+02  0.33224527197E+02  0.77817856410E+02  0.85461821641E+02  0.00000000000E+00 0. -1.
</event>
<event>
 7    1  0.1538147E-010  0.1060535E+03  0.7561462E-02  0.1268058E+00
          1   -1    0    0  501    0  0.00000000000E+00  0.00000000000E+00  0.46907977244E+03  0.46907977244E+03  0.00000000000E+00 0. -1.
         -1   -1    0    0    0  501 -0.00000000000E+00 -0.00000000000E+00 -0.37324296548E+02  0.37324296548E+02  0.00000000000E+00 0.  1.
         25    2    1    2    0    0 -0.46637506273E+02  0.12263566125E+02  0.34615274738E+03  0.37122202625E+03  0.12513439261E+03 0.  0.
          5    1    3    3  502    0 -0.77559700845E+02 -0.24367634723E+02  0.16797786105E+03  0.18666366283E+03  0.41800000000E+01 0.  1.
         -5    1    3    3    0  502  0.30922194572E+02  0.36631200848E+02  0.17817488633E+03  0.18455836343E+03  0.41800000000E+01 0.  1.
        -11    1    1    2    0    0  0.36746012734E+01 -0.34162997833E+02 -0.28087037358E+01  0.34474656374E+02  0.00000000000E+00 0. -1.
         11    1    1    2    0    0  0.42962905000E+02  0.21899431708E+02  0.88411432254E+02  0.10070738636E+03  0.00000000000E+00 0.  1.
</event>
<event>
 7    1  0.1538147E-010  0.1021706E+03  0.7561462E-02  0.1275797E+00
          3   -1    0    0  501    0  0.00000000000E+00  0.00000000000E+00  0.12901853428E+03  0.12901853428E+03  0.00000000000E+00 0. -1.
         -3   -1    0    0    0  501 -0.00000000000E+00 -0.00000000000E+00 -0.10306938043E+03  0.10306938043E+03  0.00000000000E+00 0.  1.
         25    2    1    2    0    0 -0.13712846373E+02  0.36780549583E+02 -0.15246506180E+02  0.13195077031E+03  0.12505078509E+03 0.  0.
          5    1    3    3  502    0  0.88371928276E+01 -0.44803394884E+02 -0.10661903502E+02  0.47080662235E+02  0.41800000000E+01 0.  1.
         -5    1    3    3    0  502 -0.22550039201E+02  0.81583944467E+02 -0.45846026782E+01  0.84870108074E+02  0.41800000000E+01 0.  1.
        -11    1    1    2    0    0 -0.15890679608E+02  0.97094138631E+01 -0.13101167722E+02  0.22768992328E+02  0.00000000000E+00 0.  1.
         11    1    1    2    0    0  0.29603525981E+02 -0.46489963446E+02  0.54296827753E+02  0.77368152077E+02  0.00000000000E+00 0. -1.
</event>
<event>
 7    1  0.1538147E-010  0.8255572E+02  0.7561462E-02  0.1321951E+00
         -1   -1    0    0    0  501 -0.00000000000E+00  0.00000000000E+00  0.46999995707E+02  0.46999995707E+02  0.00000000000E+00 0.  1.
          1   -1    0    0  501    0  0.00000000000E+00 -0.00000000000E+00 -0.29523271518E+03  0.29523271518E+03  0.00000000000E+00 0. -1.
         25    2    1    2    0    0  0.25822313854E+02  0.51085630739E+02 -0.14650361708E+03  0.20094643190E+03  0.12505848678E+03 0.  0.
          5    1    3    3  502    0 -0.20841392680E+02 -0.41961959847E+01  0.13340098584E+02  0.25444102259E+02  0.41800000000E+01 0.  1.
         -5    1    3    3    0  502  0.46663706534E+02  0.55281826724E+02 -0.15984371566E+03  0.17550232964E+03  0.41800000000E+01 0.  1.
        -11    1    1    2    0    0  0.37847617126E+01 -0.38704329867E+02 -0.48015442854E+01  0.39184236616E+02  0.00000000000E+00 0.  1.
         11    1    1    2    0    0 -0.29607075567E+02 -0.12381300872E+02 -0.96927558109E+02  0.10210204237E+03  0.00000000000E+00 0. -1.
</event>
<event>
 7    1  0.1538147E-010  0.1062205E+03  0.7561462E-02  0.1267733E+00
         -2   -1    0    0    0  501 -0.00000000000E+00  0.00000000000E+00  0.68727571982E+02  0.68727571982E+02  0.00000000000E+00 0.  1.
          2   -1    0    0  501    0  0.00000000000E+00 -0.00000000000E+00 -0.22131546110E+03  0.22131546110E+03  0.00000000000E+00 0. -1.
         25    2    1    2    0    0  0.63915497321E+01  0.12237184510E+02 -0.15071193430E+03  0.19637208215E+03  0.12512916093E+03 0.  0.
          5    1    3    3  502    0 -0.94435537752E+01  0.66306382020E+02 -0.63025763754E+02  0.92062132831E+02  0.41800000000E+01 0. -1.
         -5    1    3    3    0  502  0.15835103507E+02 -0.54069197511E+02 -0.87686170547E+02  0.10430994932E+03  0.41800000000E+01 0. -1.
        -11    1    1    2    0    0  0.21219033519E+02  0.30983415267E+02  0.13852369642E+02  0.40026335703E+02  0.00000000000E+00 0.  1.
         11    1    1    2    0    0 -0.27610583251E+02 -0.43220599777E+02 -0.15728324460E+02  0.53644615227E+02  0.00000000000E+00 0. -1.
</event>
<event>
 6    1  0.1538147E-010  0.1266617E+03  0.7561462E-02  0.1232495E+00
          1   -1    0    0  501    0  0.00000000000E+00  0.00000000000E+00  0.37865713156E+02  0.37865713156E+02  0.00000000000E+00 0. -1.
         -1   -1    0    0    0  501 -0.00000000000E+00 -0.00000000000E+00 -0.43861812325E+03  0.43861812325E+03  0.00000000000E+00 0.  1.
          5    1    1    2  502    0 -0.35855236320E+02 -0.57617153059E+01 -0.68096609206E+02  0.77287876929E+02  0.41800000000E+01 0.  1.
         -5    1    1    2    0  502  0.10381668731E+03  0.17063875660E+02 -0.17942163974E+03  0.20803527976E+03  0.41800000000E+01 0.  1.
        -11    1    1    2    0    0 -0.70446917613E+02  0.25252768074E+02 -0.81733023516E+02  0.11081857980E+03  0.00000000000E+00 0. -1.
         11    1    1    2    0    0  0.24854666273E+01 -0.36554928428E+02 -0.71501137637E+02  0.80342099923E+02  0.00000000000E+00 0.  1.
</event>
<event>
 7    1  0.1538147E-010  0.1280642E+03  0.7561462E-02  0.1230357E+00
          1   -1    0    0  501    0  0.00000000000E+00  0.00000000000E+00  0.23044093705E+03  0.23044093705E+03  0.00000000000E+00 0. -1.
         -1   -1    0    0    0  501 -0.00000000000E+00 -0.00000000000E+00 -0.10675318322E+03  0.10675318322E+03  0.00000000000E+00 0.  1.
         25    2    1    2    0    0  0.81458319415E+02  0.73970910384E+02  0.45901308348E+02  0.17278182251E+03  0.12505788538E+03 0.  0.
          5    1    3    3  502    0  0.38595172196E+01  0.51197186065E+00  0.64060906649E+02  0.64315084926E+02  0.41800000000E+01 0.  1.
         -5    1    3    3    0  502  0.77598802195E+02  0.73458938523E+02 -0.18159598300E+02  0.10846673758E+03  0.41800000000E+01 0.  1.
        -11    1    1    2    0    0 -0.83190441647E+02 -0.15058416862E+02  0.34614395951E+02  0.91354047020E+02  0.00000000000E+00 0.  1.
         11    1    1    2    0    0  0.17321222319E+01 -0.58912493522E+02  0.43172049531E+02  0.73058250740E+02  0.00000000000E+00 0. -1.
</event>
<event>
 7    1  0.1538147E-010  0.1596696E+03  0.7561462E-02  0.1189070E+00
         -2   -1    0    0    0  501 -0.00000000000E+00  0.00000000000E+00  0.39212264216E+02  0.39212264216E+02  0.00000000000E+00 0. -1.
          2   -1    0    0  501    0  0.00000000000E+00 -0.00000000000E+00 -0.75224339830E+03  0.75224339830E+03  0.00000000000E+00 0.  1.
         25    2    1    2    0    0 -0.14048444019E+02 -0.11928626256E+03 -0.51822401681E+03  0.54648200962E+03  0.12513945831E+03 0.  0.
          5    1    3    3  502    0 -0.45128290379E+02 -0.13187430908E+03 -0.42759763464E+03  0.44976060914E+03  0.41800000000E+01 0.  1.
         -5    1    3    3    0  502  0.31079846360E+02  0.12588046519E+02 -0.90626382171E+02  0.96721400477E+02  0.41800000000E+01 0.  1.
        -11    1    1    2    0    0  0.48442411634E+02  0.55763905190E+02 -0.12052463861E+03  0.14135936078E+03  0.00000000000E+00 0.  1.
         11    1    1    2    0    0 -0.34393967615E+02  0.63522357373E+02 -0.74282478662E+02  0.10361429212E+03  0.00000000000E+00 0. -1.
</event>
<event>
 7    1  0.1538147E-010  0.1374310E+03  0.7561462E-02  0.1216828E+00
          2   -1    0    0  501    0  0.00000000000E+00  0.00000000000E+00  0.16704606058E+03  0.16704606058E+03  0.00000000000E+00 0.  1.
         -2   -1    0    0    0  501 -0.00000000000E+00 -0.00000000000E+00 -0.14390361863E+03  0.14390361863E+03  0.00000000000E+00 0. -1.
         25    2    1    2    0    0  0.33483582472E+02 -0.78702735942E+02  0.82200420765E+02  0.17241006125E+03  0.12511214612E+03 0.  0.
          5    1    3    3  502    0 -0.41683192428E+02 -0.17902960245E+01  0.10946465525E+02  0.43335795808E+02  0.41800000000E+01 0.  1.
         -5    1    3    3    0  502  0.75166774899E+02 -0.76912439917E+02  0.71253955240E+02  0.12907426544E+03  0.41800000000E+01 0.  1.
        -11    1    1    2    0    0  0.29928075132E+02  0.43435622793E+02 -0.23831948232E+02  0.57881817223E+02  0.00000000000E+00 0.  1.
         11    1    1    2    0    0 -0.63411657603E+02  0.35267113149E+02 -0.35226030582E+02  0.80657800741E+02  0.00000000000E+00 0. -1.
</event>
<event>
 7    1  0.1538147E-010  0.1354607E+03  0.7561462E-02  0.1219571E+00
         -3   -1    0    0    0  501 -0.00000000000E+00  0.00000000000E+00  0.18229120717E+02  0.18229120717E+02  0.00000000000E+00 0.  1.
          3   -1    0    0  501    0  0.00000000000E+00 -0.00000000000E+00 -0.10371164901E+04  0.10371164901E+04  0.00000000000E+00 0. -1.
         25    2    1    2    0    0  0.68336066400E+02 -0.34593277623E+02 -0.58416749143E+03  0.60229589216E+03  0.12506866451E+03 0.  0.
          5    1    3    3  502    0  0.10269896208E+03 -0.14897117982E+02 -0.47129752885E+03  0.48260525695E+03  0.41800000000E+01 0.  1.
         -5    1    3    3    0  502 -0.34362895679E+02 -0.19696159641E+02 -0.11286996257E+03  0.11969063520E+03  0.41800000000E+01 0.  1.
        -11    1    1    2    0    0  0.22672587003E+02 -0.11275722823E+02 -0.10017623426E+03  0.10332698601E+03  0.00000000000E+00 0.  1.
         11    1    1    2    0    0 -0.91008653403E+02  0.45869000446E+02 -0.33454364365E+03  0.34972273260E+03  0.00000000000E+00 0. -1.
</event>
<event>
 7    1  0.1538147E-010  0.1241144E+03  0.7561462E-02  0.1236460E+00
         -2   -1    0    0    0  501 -0.00000000000E+00  0.00000000000E+00  0.21719699809E+02  0.21719699809E+02  0.00000000000E+00 0.  1.
          2   -1    0    0  501    0  0.00000000000E+00 -0.00000000000E+00 -0.10429968997E+04  0.10429968997E+04  0.00000000000E+00 0. -1.
         25    2    1    2    0    0  0.22295014658E+02 -0.59459307448E+02 -0.83981453154E+03  0.85145415971E+03  0.12511299603E+03 0.  0.
          5    1    3    3  502    0  0.53428927533E+02  0.17603845725E+02 -0.29906160347E+03  0.30433511259E+03  0.41800000000E+01 0. -1.
         -5    1    3    3    0  502 -0.31133912875E+02 -0.77063153174E+02 -0.54075292807E+03  0.54711904712E+03  0.41800000000E+01 0. -1.
        -11    1    1    2    0    0  0.30077954446E+02  0.45248076708E+02 -0.11699119061E+03  0.12899228841E+03  0.00000000000E+00 0. -1.
         11    1    1    2    0    0 -0.52372969104E+02  0.14211230741E+02 -0.64471477713E+02  0.84270151361E+02  0.00000000000E+00 0.  1.
</event>
<event>
 7    1  0.1538147E-010  0.1303475E+03  0.7561462E-02  0.1226941E+00
          1   -1    0    0  501    0  0.00000000000E+00  0.00000000000E+00  0.32431771623E+03  0.32431771623E+03  0.00000000000E+00 0. -1.
         -1   -1    0    0    0  501 -0.00000000000E+00 -0.00000000000E+00 -0.10930816791E+03  0.10930816791E+03  0.00000000000E+00 0.  1.
         25    2    1    2    0    0 -0.52175212752E+02 -0.10169361398E+03 -0.54728369027E+01  0.16955076537E+03  0.12511461203E+03 0.  0.
          5    1    3    3  502    0 -0.35451784913E+02 -0.53388110937E+02 -0.64727104170E+02  0.91182179493E+02  0.41800000000E+01 0.  1.
         -5    1    3    3    0  502 -0.16723427839E+02 -0.48305503040E+02  0.59254267267E+02  0.78368585875E+02  0.41800000000E+01 0.  1.
        -11    1    1    2    0    0 -0.69034651470E+01  0.82900312305E+02  0.12026433221E+03  0.14623142348E+03  0.00000000000E+00 0. -1.
         11    1    1    2    0    0  0.59078677899E+02  0.18793301672E+02  0.10021805302E+03  0.11784369529E+03  0.00000000000E+00 0.  1.
</event>
<event>
 7    1  0.1538147E-010  0.1006395E+03  0.7561462E-02  0.1278957E+00
          2   -1    0    0  501    0  0.00000000000E+00  0.00000000000E+00  0.33312831885E+03  0.33312831885E+03  0.00000000000E+00 0. -1.
         -2   -1    0    0    0  501 -0.00000000000E+00 -0.00000000000E+00 -0.54617718823E+02  0.54617718823E+02  0.00000000000E+00 0.  1.
         25    2    1    2    0    0 -0.90258718497E+01  0.50357817583E+02  0.63336265153E+02  0.14923079568E+03  0.12506387065E+03 0.  0.
          5    1    3    3  502    0  0.45579630385E+02  0.27371324577E+02  0.71585149409E+02  0.89267004717E+02  0.41800000000E+01 0. -1.
         -5    1    3    3    0  502 -0.54605502235E+02  0.22986493007E+02 -0.82488842567E+01  0.59963790962E+02  0.41800000000E+01 0. -1.
        -11    1    1    2    0    0  0.37460776892E+02 -0.92761418076E+01  0.36982361323E+02  0.53451395316E+02  0.00000000000E+00 0.  1.
         11    1    1    2    0    0 -0.28434905042E+02 -0.41081675776E+02  0.17819197355E+03  0.18506384668E+03  0.00000000000E+00 0. -1.
</event>
<event>
 7    1  0.1538147E-010  0.9054636E+02  0.7561462E-02  0.1301534E+00
          1   -1    0    0  501    0  0.00000000000E+00  0.00000000000E+00  0.15965299539E+03  0.15965299539E+03  0.00000000000E+00 0. -1.
         -1   -1    0    0    0  501 -0.00000000000E+00 -0.00000000000E+00 -0.17498636233E+03  0.17498636233E+03  0.00000000000E+00 0.  1.
         25    2    1    2    0    0  0.39352460466E+02 -0.24209587038E+02 -0.12676254490E+03  0.18400272830E+03  0.12511411184E+03 0.  0.
          5    1    3    3  502    0  0.65937085680E+02 -0.15992321597E+02 -0.13789720805E+03  0.15374188111E+03  0.41800000000E+01 0.  1.
         -5    1    3    3    0  502 -0.26584625214E+02 -0.82172654407E+01  0.11134663151E+02  0.30260847189E+02  0.41800000000E+01 0.  1.
        -11    1    1    2    0    0 -0.22048613193E+02  0.49583612693E+02  0.10650417061E+03  0.11953164581E+03  0.00000000000E+00 0. -1.
         11    1    1    2    0    0 -0.17303847273E+02 -0.25374025655E+02  0.49250073495E+01  0.31104983616E+02  0.00000000000E+00 0.  1.
</event>
<event>
 7    1  0.1538147E-010  0.1196203E+03  0.7561462E-02  0.1243725E+00
          1   -1    0    0  501    0  0.00000000000E+00  0.00000000000E+00  0.48094158745E+02  0.48094158745E+02  0.00000000000E+00 0. -1.
         -1   -1    0    0    0  501 -0.00000000000E+00 -0.00000000000E+00 -0.40485343718E+03  0.40485343718E+03  0.00000000000E+00 0.  1.
         25    2    1    2    0    0 -0.15681551378E+02 -0.54590472519E+02 -0.86742540494E+02  0.16248999096E+03  0.12511074329E+03 0.  0.
          5    1    3    3  502    0 -0.52415764464E+02 -0.75838194021E+02 -0.73070277536E+02  0.11770973577E+03  0.41800000000E+01 0.  1.
         -5    1    3    3    0  502  0.36734213086E+02  0.21247721501E+02 -0.13672262959E+02  0.44780255185E+02  0.41800000000E+01 0.  1.
        -11    1    1    2    0    0 -0.35618977876E+02  0.11836624633E+02 -0.67758370764E+02  0.77459757785E+02  0.00000000000E+00 0. -1.
         11    1    1    2    0    0  0.51300529254E+02  0.42753847886E+02 -0.20225836718E+03  0.21299784718E+03  0.00000000000E+00 0.  1.
</event>
<event>
 7    1  0.1538147E-010  0.8262216E+02  0.7561462E-02  0.1321771E+00
          1   -1    0    0  501    0  0.00000000000E+00  0.00000000000E+00  0.96295049724E+03  0.96295049724E+03  0.00000000000E+00 0. -1.
         -1   -1    0    0    0  501 -0.00000000000E+00 -0.00000000000E+00 -0.13543149216E+02  0.13543149216E+02  0.00000000000E+00 0.  1.
         25    2    1    2    0    0  0.17733484548E+02 -0.21575421196E+02  0.62167346263E+03  0.63474405460E+03  0.12506856297E+03 0.  0.
          5    1    3    3  502    0  0.25210154014E+02  0.15949706248E+02  0.32494831517E+02  0.44309496388E+02  0.41800000000E+01 0.  1.
         -5    1    3    3    0  502 -0.74766694664E+01 -0.37525127444E+02  0.58917863111E+03  0.59043455822E+03  0.41800000000E+01 0.  1.
        -11    1    1    2    0    0 -0.35294200485E+02 -0.27348839390E+02  0.13959154878E+03  0.14655865752E+03  0.00000000000E+00 0.  1.
         11    1    1    2    0    0  0.17560715937E+02  0.48924260586E+02  0.18814233662E+03  0.19519093433E+03  0.00000000000E+00 0. -1.
</event>
<event>
 6    1  0.1538147E-010  0.1359373E+03  0.7561462E-02  0.1218903E+00
         -2   -1    0    0    0  501 -0.00000000000E+00  0.00000000000E+00  0.20884804655E+02  0.20884804655E+02  0.00000000000E+00 0.  1.
          2   -1    0    0  501    0  0.00000000000E+00 -0.00000000000E+00 -0.10642783624E+04  0.10642783624E+04  0.00000000000E+00 0. -1.
          5    1    1    2  502    0  0.82182098873E+02  0.37638324312E+02 -0.56217201354E+03  0.56940792587E+03  0.41800000000E+01 0.  1.
         -5    1    1    2    0  502 -0.27362577377E+02  0.41008653388E+02 -0.10486905384E+03  0.11595434941E+03  0.41800000000E+01 0.  1.
        -11    1    1    2    0    0 -0.18196814782E+02 -0.91352115085E+02 -0.22401608219E+03  0.24260984745E+03  0.00000000000E+00 0.  1.
         11    1    1    2    0    0 -0.36622706714E+02  0.12705137386E+02 -0.15233640820E+03  0.15719104436E+03  0.00000000000E+00 0. -1.
</event>
<event>
 7    1  0.1538147E-010  0.1229988E+03  0.7561462E-02  0.1238230E+00
          2   -1    0    0  501    0  0.00000000000E+00  0.00000000000E+00  0.54313674521E+03  0.54313674521E+03  0.00000000000E+00 0. -1.
         -2   -1    0    0    0  501 -0.00000000000E+00 -0.00000000000E+00 -0.41716957874E+02  0.41716957874E+02  0.00000000000E+00 0.  1.
         25    2    1    2    0    0  0.47078930899E+02  0.88309144743E+02  0.28635471021E+03  0.32813548057E+03  0.12513569743E+03 0.  0.
          5    1    3    3  502    0 -0.48991173407E+01  0.86487549046E+02  0.90080788922E+02  0.12504446578E+03  0.41800000000E+01 0.  1.
         -5    1    3    3    0  502  0.51978048239E+02  0.18215956978E+01  0.19627392129E+03  0.20309101479E+03  0.41800000000E+01 0.  1.
        -11    1    1    2    0    0 -0.50550773226E+02 -0.59496401771E+02  0.58686112823E+02  0.97669147308E+02  0.00000000000E+00 0.  1.
         11    1    1    2    0    0  0.34718423271E+01 -0.28812742972E+02  0.15637896430E+03  0.15904907520E+03  0.00000000000E+00 0. -1.
</event>
<event>
 7    1  0.1538147E-010  0.1337122E+03  0.7561462E-02  0.1222049E+00
          2   -1    0    0  501    0  0.00000000000E+00  0.00000000000E+00  0.48969319362E+02  0.48969319362E+02  0.00000000000E+00 0. -1.
         -2   -1    0    0    0  501 -0.00000000000E+00 -0.00000000000E+00 -0.41672233346E+03  0.41672233346E+03  0.00000000000E+00 0.  1.
         25    2    1    2    0    0 -0.46443117283E+02 -0.79410166444E+02 -0.19628901488E+03  0.25026749257E+03  0.12506599377E+03 0.  0.
          5    1    3    3  502    0 -0.55568823303E+01  0.30344730969E+02 -0.76927376773E+02  0.82987802332E+02  0.41800000000E+01 0. -1.
         -5    1    3    3    0  502 -0.40886234953E+02 -0.10975489741E+03 -0.11936163811E+03  0.16727969024E+03  0.41800000000E+01 0. -1.
        -11    1    1    2    0    0  0.60290013276E+02  0.29158482322E+02 -0.51039706961E+02  0.84203055044E+02  0.00000000000E+00 0. -1.
         11    1    1    2    0    0 -0.13846895993E+02  0.50251684123E+02 -0.12042429225E+03  0.13122110520E+03  0.00000000000E+00 0.  1.
</event>
<event>
 6    1  0.1538147E-010  0.1228309E+03  0.7561462E-02  0.1238499E+00
          2   -1    0    0  501    0  0.00000000000E+00  0.00000000000E+00  0.42296658240E+03  0.42296658240E+03  0.00000000000E+00 0. -1.
         -2   -1    0    0    0  501 -0.00000000000E+00 -0.00000000000E+00 -0.46735423584E+02  0.46735423584E+02  0.00000000000E+00 0.  1.
          5    1    1    2  502    0  0.89601809844E+01  0.40233069020E+02  0.48770873380E+02  0.63992618139E+02  0.41800000000E+01 0.  1.
         -5    1    1    2    0  502 -0.87055867785E+02 -0.61975281898E+02  0.94826643594E+02  0.14293083788E+03  0.41800000000E+01 0.  1.
        -11    1    1    2    0    0  0.70071593706E+02 -0.41358214306E+01  0.74571423379E+02  0.10241108557E+03  0.00000000000E+00 0.  1.
         11    1    1    2    0    0  0.80240930942E+01  0.25878034308E+02  0.15806221847E+03  0.16036746440E+03  0.00000000000E+00 0. -1.
</event>
<event>
 7    1  0.1538147E-010  0.8537122E+02  0.7561462E-02  0.1314465E+00
          2   -1    0    0  501    0  0.00000000000E+00  0.00000000000E+00  0.12910028295E+03  0.12910028295E+03  0.00000000000E+00 0. -1.
         -2   -1    0    0    0  501 -0.00000000000E+00 -0.00000000000E+00 -0.10635403461E+03  0.10635403461E+03  0.00000000000E+00 0.  1.
         25    2    1    2    0    0  0.20056517595E+02  0.74155762608E+01  0.77584134019E+02  0.14871640952E+03  0.12506005733E+03 0.  0.
          5    1    3    3  502    0  0.57175746043E+02 -0.32380442228E+02  0.18738990647E+02  0.68455687455E+02  0.41800000000E+01 0. -1.
         -5    1    3    3    0  502 -0.37119228448E+02  0.39796018489E+02  0.58845143372E+02  0.80260722066E+02  0.41800000000E+01 0. -1.
        -11    1    1    2    0    0  0.10974654270E+02  0.99047002430E+01  0.62618342106E+01  0.16054802737E+02  0.00000000000E+00 0. -1.
         11    1    1    2    0    0 -0.31031171865E+02 -0.17320276504E+02 -0.61099719886E+02  0.70683105305E+02  0.00000000000E+00 0.  1.
</event>
<event>
 6    1  0.1538147E-010  0.2485183E+03  0.7561462E-02  0.1114245E+00
          1   -1    0    0  501    0  0.00000000000E+00  0.00000000000E+00  0.10955243289E+04  0.10955243289E+04  0.00000000000E+00 0. -1.
         -1   -1    0    0    0  501 -0.00000000000E+00 -0.00000000000E+00 -0.13955145863E+03  0.13955145863E+03  0.00000000000E+00 0.  1.
          5    1    1    2  502    0  0.12117290220E+03  0.93535909824E+02 -0.32575866760E+02  0.15655828994E+03  0.41800000000E+01 0. -1.
         -5    1    1    2    0  502  0.97890265780E+02  0.16744831138E+01  0.58884111666E+02  0.11432462130E+03  0.41800000000E+01 0. -1.
        -11    1    1    2    0    0 -0.60394967934E+01 -0.18558260998E+02  0.25476264803E+02  0.32092439002E+02  0.00000000000E+00 0.  1.
         11    1    1    2    0    0 -0.21302367119E+03 -0.76652131939E+02  0.90418836052E+03  0.93210043724E+03  0.00000000000E+00 0. -1.
</event>
<event>
 7    1  0.1538147E-010  0.1120270E+03  0.7561462E-02  0.1256862E+00
         -1   -1    0    0    0  501 -0.00000000000E+00  0.00000000000E+00  0.14835220919E+03  0.14835220919E+03  0.00000000000E+00 0.  1.
          1   -1    0    0  501    0  0.00000000000E+00 -0.00000000000E+00 -0.99080044037E+02  0.99080044037E+02  0.00000000000E+00 0. -1.
         25    2    1    2    0    0 -0.36833172632E+02  0.37285748488E+02  0.10674498100E+02  0.13607351353E+03  0.12512052800E+03 0.  0.
          5    1    3    3  502    0  0.29480500794E+02  0.58596298767E+02  0.20056350189E+01  0.65758049911E+02  0.41800000000E+01 0.  1.
         -5    1    3    3    0  502 -0.66313673426E+02 -0.21310550280E+02  0.86688630808E+01  0.70315463616E+02  0.41800000000E+01 0.  1.
        -11    1    1    2    0    0  0.33905484068E+02 -0.58239530939E+02  0.53025386436E+02  0.85750314405E+02  0.00000000000E+00 0.  1.
         11    1    1    2    0    0  0.29276885636E+01  0.20953782451E+02 -0.14427719385E+02  0.25608425293E+02  0.00000000000E+00 0. -1.
</event>
<event>
 7    1  0.1538147E-010  0.1204815E+03  0.7561462E-02  0.1242305E+00
          1   -1    0    0  501    0  0.00000000000E+00  0.00000000000E+00  0.70223617175E+03  0.70223617175E+03  0.00000000000E+00 0.  1.
         -1   -1    0    0    0  501 -0.00000000000E+00 -0.00000000000E+00 -0.30506516656E+02  0.30506516656E+02  0.00000000000E+00 0. -1.
         25    2    1    2    0    0  0.81134695533E+02 -0.38908817985E+02  0.46528020609E+03  0.49012329699E+03  0.12505375297E+03 0.  0.
          5    1    3    3  502    0  0.89167303591E+02 -0.63889914719E+02  0.43985869950E+03  0.45334961912E+03  0.41800000000E+01 0. -1.
         -5    1    3    3    0  502 -0.80326080577E+01  0.24981096734E+02  0.25421506591E+02  0.36773677863E+02  0.41800000000E+01 0. -1.
        -11    1    1    2    0    0 -0.68922505938E+02  0.52281428073E+02  0.20715856956E+03  0.22449572933E+03  0.00000000000E+00 0.  1.
         11    1    1    2    0    0 -0.12212189595E+02 -0.13372610087E+02 -0.70912056444E+00  0.18123662081E+02  0.00000000000E+00 0. -1.
</event>
<event>
 6    1  0.1538147E-010  0.1453362E+03  0.7561462E-02  0.1206324E+00
          2   -1    0    0  501    0  0.00000000000E+00  0.00000000000E+00  0.19154914619E+03  0.19154914619E+03  0.00000000000E+00 0. -1.
         -2   -1    0    0    0  501 -0.00000000000E+00 -0.00000000000E+00 -0.13645271244E+03  0.13645271244E+03  0.00000000000E+00 0.  1.
          5    1    1    2  502    0 -0.10424353030E+03 -0.10277737026E+02  0.26950308989E+01  0.10486696848E+03  0.41800000000E+01 0.  1.
         -5    1    1    2    0  502  0.80596369888E+01  0.49902688531E+02 -0.33517470741E+02  0.60795800150E+02  0.41800000000E+01 0.  1.
        -11    1    1    2    0    0  0.44466465893E+02  0.26041785695E+02  0.48476735229E+02  0.70749099286E+02  0.00000000000E+00 0. -1.
         11    1    1    2    0    0  0.51717427417E+02 -0.65666737200E+02  0.37442138364E+02  0.91589990711E+02  0.00000000000E+00 0.  1.
</event>
<event>
 7    1  0.1538147E-010  0.1514291E+03  0.7561462E-02  0.1198728E+00
          3   -1    0    0  501    0  0.00000000000E+00  0.00000000000E+00  0.15560945213E+04  0.15560945213E+04  0.00000000000E+00 0. -1.
         -3   -1    0    0    0  501 -0.00000000000E+00 -0.00000000000E+00 -0.14744932626E+02  0.14744932626E+02  0.00000000000E+00 0.  1.
         25    2    1    2    0    0  0.48114083809E+02 -0.94074860812E+02  0.83068468835E+03  0.84666636566E+03  0.12506733703E+03 0.  0.
          5    1    3    3  502    0 -0.42516309592E+02 -0.23860498157E+02  0.26001608420E+03  0.26458041574E+03  0.41800000000E+01 0. -1.
         -5    1    3    3    0  502  0.90630393401E+02 -0.70214362655E+02  0.57066860415E+03  0.58208594992E+03  0.41800000000E+01 0. -1.
        -11    1    1    2    0    0 -0.33511191030E+02  0.11152328190E+03  0.59022217359E+03  0.60160008023E+03  0.00000000000E+00 0. -1.
         11    1    1    2    0    0 -0.14602892779E+02 -0.17448421087E+02  0.12044272676E+03  0.12257300806E+03  0.00000000000E+00 0.  1.
</event>
<event>
 7    1  0.1538147E-010  0.8351664E+02  0.7561462E-02  0.1319358E+00
         -2   -1    0    0    0  501 -0.00000000000E+00  0.00000000000E+00  0.15233082958E+02  0.15233082958E+02  0.00000000000E+00 0.  1.
          2   -1    0    0  501    0  0.00000000000E+00 -0.00000000000E+00 -0.97360213691E+03  0.97360213691E+03  0.00000000000E+00 0. -1.
         25    2    1    2    0    0  0.16635172853E+01  0.29135328867E+02 -0.79332643302E+03  0.80366103804E+03  0.12511035150E+03 0.  0.
          5    1    3    3  502    0 -0.12243776921E+02 -0.24544888558E+02 -0.42357058561E+02  0.50635505700E+02  0.41800000000E+01 0.  1.
         -5    1    3    3    0  502  0.13907294206E+02  0.53680217425E+02 -0.75096937446E+03  0.75302553234E+03  0.41800000000E+01 0.  1.
        -11    1    1    2    0    0 -0.24871888928E+02  0.18293476976E+02 -0.53634820672E+02  0.61886639489E+02  0.00000000000E+00 0.  1.
         11    1    1    2    0    0  0.23208371643E+02 -0.47428805842E+02 -0.11140780025E+03  0.12328754234E+03  0.00000000000E+00 0. -1.
</event>
<event>
 6    1  0.1538147E-010  0.1039515E+03  0.7561462E-02  0.1272199E+00
          1   -1    0    0  501    0  0.00000000000E+00  0.00000000000E+00  0.72662361621E+03  0.72662361621E+03  0.00000000000E+00 0. -1.
         -1   -1    0    0    0  501 -0.00000000000E+00 -0.00000000000E+00 -0.19069575188E+02  0.19069575188E+02  0.00000000000E+00 0.  1.
          5    1    1    2  502    0 -0.33154943403E+02 -0.13773151417E+02  0.24631945098E+03  0.24895721380E+03  0.41800000000E+01 0. -1.
         -5    1    1    2    0  502  0.32158776432E+02  0.72487671357E+02  0.13439361843E+03  0.15610178242E+03  0.41800000000E+01 0. -1.
        -11    1    1    2    0    0 -0.32450833005E+02 -0.11380043467E+02  0.79961479239E+02  0.87042519001E+02  0.00000000000E+00 0.  1.
         11    1    1    2    0    0  0.33446999976E+02 -0.47334476473E+02  0.24687949237E+03  0.25359167617E+03  0.00000000000E+00 0. -1.
</event>
<event>
 7    1  0.1538147E-010  0.1654656E+03  0.7561462E-02  0.1182661E+00
          1   -1    0    0  501    0  0.00000000000E+00  0.00000000000E+00  0.14742598401E+03  0.14742598401E+03  0.00000000000E+00 0. -1.
         -1   -1    0    0    0  501 -0.00000000000E+00 -0.00000000000E+00 -0.22696859625E+03  0.22696859625E+03  0.00000000000E+00 0.  1.
         25    2    1    2    0    0 -0.94896953235E+02 -0.11130463072E+03 -0.61717836760E+02  0.20213610868E+03  0.12512298952E+03 0.  0.
          5    1    3    3  502    0 -0.29522919732E+01 -0.47460467332E+02  0.30837610955E+02  0.56829944894E+02  0.41800000000E+01 0. -1.
         -5    1    3    3    0  502 -0.91944661262E+02 -0.63844163392E+02 -0.92555447715E+02  0.14530616379E+03  0.41800000000E+01 0. -1.
        -11    1    1    2    0    0 -0.16550297689E+02  0.26053488971E+02 -0.42288016706E+00  0.30868681034E+02  0.00000000000E+00 0. -1.
         11    1    1    2    0    0  0.11144725092E+03  0.85251141753E+02 -0.17401895309E+02  0.14138979054E+03  0.00000000000E+00 0.  1.
</event>
<event>
 7    1  0.1538147E-010  0.1397482E+03  0.7561462E-02  0.1213668E+00
          2   -1    0    0  501    0  0.00000000000E+00  0.00000000000E+00  0.14068870691E+04  0.14068870691E+04  0.00000000000E+00 0. -1.
         -2   -1    0    0    0  501 -0.00000000000E+00 -0.00000000000E+00 -0.16415617506E+02  0.16415617506E+02  0.00000000000E+00 0.  1.
         25    2    1    2    0    0 -0.66375738565E+02 -0.81891770620E+02  0.82189161503E+03  0.83801662800E+03  0.12511611083E+03 0.  0.
          5    1    3    3  502    0 -0.88446670095E+02 -0.45948087265E+02  0.73043460594E+03  0.73721518306E+03  0.41800000000E+01 0.  1.
         -5    1    3    3    0  502  0.22070931530E+02 -0.35943683355E+02  0.91457009084E+02  0.10080144494E+03  0.41800000000E+01 0.  1.
        -11    1    1    2    0    0 -0.33271960766E+01  0.65713301807E+02  0.22994168238E+03  0.23917041114E+03  0.00000000000E+00 0.  1.
         11    1    1    2    0    0  0.69702934642E+02  0.16178468812E+02  0.33863815421E+03  0.34611564749E+03  0.00000000000E+00 0. -1.
</event>
<event>
 7    1  0.1538147E-010  0.2522131E+03  0.7561462E-02  0.1111914E+00
          3   -1    0    0  501    0  0.00000000000E+00  0.00000000000E+00  0.24599019438E+03  0.24599019438E+03  0.00000000000E+00 0. -1.
         -3   -1    0    0    0  501 -0.00000000000E+00 -0.00000000000E+00 -0.27615733626E+03  0.27615733626E+03  0.00000000000E+00 0.  1.
         25    2    1    2    0    0  0.23084008115E+03  0.53298416258E+02  0.12449819378E+01  0.26792213570E+03  0.12511137668E+03 0.  0.
          5    1    3    3  502    0  0.16302887291E+03 -0.17308932446E+02 -0.26403300507E+02  0.16611026224E+03  0.41800000000E+01 0.  1.
         -5    1    3    3    0  502  0.67811208240E+02  0.70607348704E+02  0.27648282444E+02  0.10181187345E+03  0.41800000000E+01 0.  1.
        -11    1    1    2    0    0 -0.18237277499E+03 -0.19626169209E+02 -0.53725357470E+02  0.19113196909E+03  0.00000000000E+00 0.  1.
         11    1    1    2    0    0 -0.48467306166E+02 -0.33672247049E+02  0.22313233654E+02  0.63093425842E+02  0.00000000000E+00 0. -1.
</event>
<event>
 6    1  0.1538147E-010  0.7120442E+02  0.7561462E-02  0.1356045E+00
          1   -1    0    0  501    0  0.00000000000E+00  0.00000000000E+00  0.16911107237E+03  0.16911107237E+03  0.00000000000E+00 0. -1.
         -1   -1    0    0    0  501 -0.00000000000E+00 -0.00000000000E+00 -0.17516934813E+03  0.17516934813E+03  0.00000000000E+00 0.  1.
          5    1    1    2  502    0  0.88106934171E+01  0.76627741199E+01  0.23127346026E+02  0.26242960197E+02  0.41800000000E+01 0.  1.
         -5    1    1    2    0  502  0.20337665343E+02 -0.52447753236E+02 -0.14826524688E+03  0.15863304600E+03  0.41800000000E+01 0.  1.
        -11    1    1    2    0    0 -0.43223353960E+02  0.27180665248E+02  0.15440656293E+02  0.53342860419E+02  0.00000000000E+00 0.  1.
         11    1    1    2    0    0  0.14074995200E+02  0.17604313869E+02  0.10363896880E+03  0.10606155388E+03  0.00000000000E+00 0. -1.
</event>
<event>
 7    1  0.1538147E-010  0.2016047E+03  0.7561462E-02  0.1148392E+00
         -2   -1    0    0    0  501 -0.00000000000E+00  0.00000000000E+00  0.38611070063E+02  0.38611070063E+02  0.00000000000E+00 0.  1.
          2   -1    0    0  501    0  0.00000000000E+00 -0.00000000000E+00 -0.11826889350E+04  0.11826889350E+04  0.00000000000E+00 0. -1.
         25    2    1    2    0    0 -0.22625150075E+02 -0.18006602437E+03 -0.66968249815E+03  0.70501789528E+03  0.12505964093E+03 0.  0.
          5    1    3    3  502    0  0.34219897629E+02 -0.65278848608E+02 -0.39589618408E+03  0.40272023843E+03  0.41800000000E+01 0.  1.
         -5    1    3    3    0  502 -0.56845047704E+02 -0.11478717576E+03 -0.27378631407E+03  0.30229765686E+03  0.41800000000E+01 0.  1.
        -11    1    1    2    0    0 -0.33591957118E+02  0.69171695219E+02 -0.22168834752E+03  0.23464625808E+03  0.00000000000E+00 0. -1.
         11    1    1    2    0    0  0.56217107194E+02  0.11089432915E+03 -0.25270701924E+03  0.28163585168E+03  0.00000000000E+00 0.  1.
</event>
<event>
 7    1  0.1538147E-010  0.8502430E+02  0.7561462E-02  0.1315369E+00
         -1   -1    0    0    0  501 -0.00000000000E+00  0.00000000000E+00  0.50131381386E+02  0.50131381386E+02  0.00000000000E+00 0.  1.
          1   -1    0    0  501    0  0.00000000000E+00 -0.00000000000E+00 -0.31796142687E+03  0.31796142687E+03  0.00000000000E+00 0. -1.
         25    2    1    2    0    0  0.56994371571E+02 -0.11729851244E+02 -0.18642329915E+03  0.23193383921E+03  0.12511479330E+03 0.  0.
          5    1    3    3  502    0  0.36127313808E+02  0.49649307681E+00 -0.20041059562E+03  0.20368433554E+03  0.41800000000E+01 0.  1.
         -5    1    3    3    0  502  0.20867057762E+02 -0.12226344321E+02  0.13987296467E+02  0.28249503669E+02  0.41800000000E+01 0.  1.
        -11    1    1    2    0    0 -0.40006430413E+02 -0.38856611203E+02 -0.42513916727E+02  0.70126912266E+02  0.00000000000E+00 0.  1.
         11    1    1    2    0    0 -0.16987941158E+02  0.50586462447E+02 -0.38892829605E+02  0.66032056778E+02  0.00000000000E+00 0. -1.
</event>
<event>
 7    1  0.1538147E-010  0.2211771E+03  0.7561462E-02  0.1133008E+00
         -1   -1    0    0    0  501 -0.00000000000E+00  0.00000000000E+00  0.44506342960E+03  0.44506342960E+03  0.00000000000E+00 0.  1.
          1   -1    0    0  501    0  0.00000000000E+00 -0.00000000000E+00 -0.13119328267E+03  0.13119328267E+03  0.00000000000E+00 0. -1.
         25    2    1    2    0    0  0.12047604296E+02  0.21497854042E+03  0.16397705358E+03  0.29817080230E+03  0.12512567934E+03 0.  0.
          5    1    3    3  502    0 -0.18597865334E+02  0.15386670904E+03  0.45948527806E+02  0.16170833112E+03  0.41800000000E+01 0. -1.
         -5    1    3    3    0  502  0.30645469631E+02  0.61111831386E+02  0.11802852577E+03  0.13646247118E+03  0.41800000000E+01 0. -1.
        -11    1    1    2    0    0 -0.22705982747E+02 -0.73221042559E+02  0.10299255144E+03  0.12839138748E+03  0.00000000000E+00 0.  1.
         11    1    1    2    0    0  0.10658378451E+02 -0.14175749787E+03  0.46900541910E+02  0.14969452249E+03  0.00000000000E+00 0. -1.
</event>
<event>
 7    1  0.1538147E-010  0.1217054E+03  0.7561462E-02  0.1240310E+00
          1   -1    0    0  501    0  0.00000000000E+00  0.00000000000E+00  0.71940323038E+02  0.71940323038E+02  0.00000000000E+00 0. -1.
         -1   -1    0    0    0  501 -0.00000000000E+00 -0.00000000000E+00 -0.25168373105E+03  0.25168373105E+03  0.00000000000E+00 0.  1.
         25    2    1    2    0    0 -0.57347169302E+02 -0.20563672335E+02 -0.37639205964E+02  0.14409596862E+03  0.12504149671E+03 0.  0.
          5    1    3    3  502    0 -0.35758879844E+02  0.51684667786E+02 -0.10557778087E+02  0.63866591031E+02  0.41800000000E+01 0. -1.
         -5    1    3    3    0  502 -0.21588289458E+02 -0.72248340121E+02 -0.27081427877E+02  0.80229377586E+02  0.41800000000E+01 0. -1.
        -11    1    1    2    0    0  0.39877259608E+02  0.54028968385E+02 -0.11458325157E+03  0.13281056735E+03  0.00000000000E+00 0.  1.
         11    1    1    2    0    0  0.17469909694E+02 -0.33465296050E+02 -0.27520950478E+02  0.46717518124E+02  0.00000000000E+00 0. -1.
</event>
<event>
 6    1  0.1538147E-010  0.1083729E+03  0.7561462E-02  0.1263613E+00
         -1   -1    0    0    0  501 -0.00000000000E+00  0.00000000000E+00  0.17947825683E+02  0.17947825683E+02  0.00000000000E+00 0.  1.
          1   -1    0    0  501    0  0.00000000000E+00 -0.00000000000E+00 -0.12136802408E+04  0.12136802408E+04  0.00000000000E+00 0. -1.
          5    1    1    2  502    0  0.35818971887E+02  0.40707823745E+02 -0.25515251433E+03  0.26088388917E+03  0.41800000000E+01 0. -1.
         -5    1    1    2    0  502 -0.70905468778E+02 -0.19990111858E+01 -0.75008895389E+03  0.75344707358E+03  0.41800000000E+01 0. -1.
        -11    1    1    2    0    0  0.43790427636E+00  0.21678947159E+02 -0.10414825617E+03  0.10638151988E+03  0.00000000000E+00 0. -1.
         11    1    1    2    0    0  0.34648592615E+02 -0.60387759718E+02 -0.86342690687E+02  0.11091558380E+03  0.00000000000E+00 0.  1.
</event>
<event>
 6    1  0.1538147E-010  0.1297028E+03  0.7561462E-02  0.1227897E+00
         -1   -1    0    0    0  501 -0.00000000000E+00  0.00000000000E+00  0.50839494895E+03  0.50839494895E+03  0.00000000000E+00 0.  1.
          1   -1    0    0  501    0  0.00000000000E+00 -0.00000000000E+00 -0.37093210774E+02  0.37093210774E+02  0.00000000000E+00 0. -1.
          5    1    1    2  502    0  0.21385585176E+02  0.19046558953E+02  0.22317647174E+02  0.36546743174E+02  0.41800000000E+01 0. -1.
         -5    1    1    2    0  502 -0.93412973614E+02 -0.56799509836E+02  0.28348089527E+03  0.30386026120E+03  0.41800000000E+01 0. -1.
        -11    1    1    2    0    0  0.68468838818E+02  0.64506446365E+02  0.12614790657E+03  0.15736059813E+03  0.00000000000E+00 0. -1.
         11    1    1    2    0    0  0.35585496197E+01 -0.26753495482E+02  0.39355289171E+02  0.47720557223E+02  0.00000000000E+00 0.  1.
</event>
<event>
 6    1  0.1538147E-010  0.8725648E+02  0.7561462E-02  0.1309635E+00
         -1   -1    0    0    0  501 -0.00000000000E+00  0.00000000000E+00  0.11295372360E+03  0.11295372360E+03  0.00000000000E+00 0.  1.
          1   -1    0    0  501    0  0.00000000000E+00 -0.00000000000E+00 -0.21113512926E+03  0.21113512926E+03  0.00000000000E+00 0. -1.
          5    1    1    2  502    0 -0.25486454928E+02  0.47969446220E+02 -0.58286035415E+02  0.79783215527E+02  0.41800000000E+01 0. -1.
         -5    1    1    2    0  502  0.62552499874E+02 -0.42780822857E+02 -0.10475080177E+03  0.12935693609E+03  0.41800000000E+01 0. -1.
        -11    1    1    2    0    0 -0.17076501944E+02 -0.14198873592E+02  0.83353705715E+02  0.86261551031E+02  0.00000000000E+00 0.  1.
         11    1    1    2    0    0 -0.19989543002E+02  0.90102502290E+01 -0.18498274203E+02  0.28687150209E+02  0.00000000000E+00 0. -1.
</event>
<event>
 7    1  0.1538147E-010  0.3222337E+03  0.7561462E-02  0.1074626E+00
         -1   -1    0    0    0  501 -0.00000000000E+00  0.00000000000E+00  0.13561963053E+03  0.13561963053E+03  0.00000000000E+00 0.  1.
          1   -1    0    0  501    0  0.00000000000E+00 -0.00000000000E+00 -0.85980253105E+03  0.85980253105E+03  0.00000000000E+00 0. -1.
         25    2    1    2    0    0  0.29997053662E+03  0.77265409716E+02 -0.50386040567E+03  0.60454999103E+03  0.12511241696E+03 0.  0.
          5    1    3    3  502    0  0.15117701090E+03  0.83296289421E+02 -0.18760004137E+03  0.25495883663E+03  0.41800000000E+01 0.  1.
         -5    1    3    3    0  502  0.14879352572E+03 -0.60308797048E+01 -0.31626036430E+03  0.34959115440E+03  0.41800000000E+01 0.  1.
        -11    1    1    2    0    0 -0.12614731003E+03 -0.79298781184E+02 -0.99306069095E+02  0.17906182141E+03  0.00000000000E+00 0.  1.
         11    1    1    2    0    0 -0.17382322658E+03  0.20333714677E+01 -0.12101642576E+03  0.21181034914E+03  0.00000000000E+00 0. -1.
</event>
<event>
 7    1  0.1538147E-010  0.1114420E+03  0.7561462E-02  0.1257923E+00
          2   -1    0    0  501    0  0.00000000000E+00  0.00000000000E+00  0.41851599047E+03  0.41851599047E+03  0.00000000000E+00 0. -1.
         -2   -1    0    0    0  501 -0.00000000000E+00 -0.00000000000E+00 -0.41073035586E+02  0.41073035586E+02  0.00000000000E+00 0.  1.
         25    2    1    2    0    0 -0.18777785280E+02 -0.27058975262E+02  0.97679339473E+02  0.16206837120E+03  0.12506042628E+03 0.  0.
          5    1    3    3  502    0 -0.16993453286E+02  0.45755382277E+02  0.66821452356E+02  0.82854760617E+02  0.41800000000E+01 0.  1.
         -5    1    3    3    0  502 -0.17843319944E+01 -0.72814357539E+02  0.30857887116E+02  0.79213610584E+02  0.41800000000E+01 0.  1.
        -11    1    1    2    0    0 -0.17143778810E+02 -0.29393586133E+02  0.10552484552E+03  0.11087553869E+03  0.00000000000E+00 0. -1.
         11    1    1    2    0    0  0.35921564090E+02  0.56452561395E+02  0.17423876989E+03  0.18664511616E+03  0.00000000000E+00 0.  1.
</event>
<event>
 7    1  0.1538147E-010  0.9411071E+02  0.7561462E-02  0.1293192E+00
          2   -1    0    0  501    0  0.00000000000E+00  0.00000000000E+00  0.18046616832E+03  0.18046616832E+03  0.00000000000E+00 0. -1.
         -2   -1    0    0    0  501 -0.00000000000E+00 -0.00000000000E+00 -0.79103691046E+02  0.79103691046E+02  0.00000000000E+00 0.  1.
         25    2    1    2    0    0  0.11691574160E+02  0.54649554356E+01  0.22322122435E+01  0.12580961234E+03  0.12512600506E+03 0.  0.
          5    1    3    3  502    0  0.65548873216E+02 -0.25063497460E+01  0.19463663934E+02  0.68551026124E+02  0.41800000000E+01 0.  1.
         -5    1    3    3    0  502 -0.53857299057E+02  0.79713051816E+01 -0.17231451690E+02  0.57258586215E+02  0.41800000000E+01 0.  1.
        -11    1    1    2    0    0  0.25635514056E+02  0.99550922086E+01  0.87518284173E+02  0.91737307058E+02  0.00000000000E+00 0. -1.
         11    1    1    2    0    0 -0.37327088215E+02 -0.15420047644E+02  0.11611980854E+02  0.42022939965E+02  0.00000000000E+00 0.  1.
</event>
<event>
 7    1  0.1538147E-010  0.7092355E+02  0.7561462E-02  0.1356980E+00
          2   -1    0    0  501    0  0.00000000000E+00  0.00000000000E+00  0.31780719532E+03  0.31780719532E+03  0.00000000000E+00 0. -1.
         -2   -1    0    0    0  501 -0.00000000000E+00 -0.00000000000E+00 -0.38521333876E+02  0.38521333876E+02  0.00000000000E+00 0.  1.
         25    2    1    2    0    0  0.47597299414E+01  0.17246021325E+02  0.17623367575E+03  0.21682581858E+03  0.12504018096E+03 0.  0.
          5    1    3    3  502    0  0.41780827329E+02  0.30738188890E+02  0.20169511994E+02  0.55809993752E+02  0.41800000000E+01 0.  1.
         -5    1    3    3    0  502 -0.37021097388E+02 -0.13492167564E+02  0.15606416376E+03  0.16101582483E+03  0.41800000000E+01 0.  1.
        -11    1    1    2    0    0 -0.11349561411E+02  0.14130408497E+02  0.10578417466E+03  0.10732554494E+03  0.00000000000E+00 0. -1.
         11    1    1    2    0    0  0.65898314697E+01 -0.31376429823E+02 -0.27319889612E+01  0.32177165675E+02  0.00000000000E+00 0.  1.
</event>
<event>
 7    1  0.1538147E-010  0.1108361E+03  0.7561462E-02  0.1259029E+00
         -1   -1    0    0    0  501 -0.00000000000E+00  0.00000000000E+00  0.25133861842E+02  0.25133861842E+02  0.00000000000E+00 0.  1.
          1   -1    0    0  501    0  0.00000000000E+00 -0.00000000000E+00 -0.10046263096E+04  0.10046263096E+04  0.00000000000E+00 0. -1.
         25    2    1    2    0    0  0.38851125362E+02  0.52236773839E+02 -0.83469290141E+03  0.84651378854E+03  0.12504104946E+03 0.  0.
          5    1    3    3  502    0 -0.18924852428E+02  0.58826852890E+02 -0.20564126140E+03  0.21476626702E+03  0.41800000000E+01 0. -1.
         -5    1    3    3    0  502  0.57775977791E+02 -0.65900790514E+01 -0.62905164001E+03  0.63174752152E+03  0.41800000000E+01 0. -1.
        -11    1    1    2    0    0 -0.13953454510E+02 -0.69661358973E+02 -0.13273028582E+03  0.15054810726E+03  0.00000000000E+00 0. -1.
         11    1    1    2    0    0 -0.24897670853E+02  0.17424585134E+02 -0.12069260558E+02  0.32698275664E+02  0.00000000000E+00 0.  1.
</event>
<event>
 7    1  0.1538147E-010  0.1267551E+03  0.7561462E-02  0.1232352E+00
         -2   -1    0    0    0  501 -0.00000000000E+00  0.00000000000E+00  0.13498601825E+02  0.13498601825E+02  0.00000000000E+00 0.  1.
          2   -1    0    0  501    0  0.00000000000E+00 -0.00000000000E+00 -0.17099741059E+04  0.17099741059E+04  0.00000000000E+00 0. -1.
         25    2    1    2    0    0  0.10327244774E+03  0.18701154555E+02 -0.10188889561E+04  0.10318931023E+04  0.12511489926E+03 0.  0.
          5    1    3    3  502    0  0.71311053136E+02  0.35306555145E+02 -0.25535195519E+03  0.26749563091E+03  0.41800000000E+01 0. -1.
         -5    1    3    3    0  502  0.31961394605E+02 -0.16605400590E+02 -0.76353700090E+03  0.76439747135E+03  0.41800000000E+01 0. -1.
        -11    1    1    2    0    0 -0.63701350676E+02 -0.54782009718E+02 -0.37564895746E+03  0.38492995455E+03  0.00000000000E+00 0.  1.
         11    1    1    2    0    0 -0.39571097066E+02  0.36080855163E+02 -0.30193759051E+03  0.30664965090E+03  0.00000000000E+00 0. -1.
</event>
<event>
 6    1  0.1538147E-010  0.1241734E+03  0.7561462E-02  0.1236367E+00
         -1   -1    0    0    0  501 -0.00000000000E+00  0.00000000000E+00  0.38945201778E+03  0.38945201778E+03  0.00000000000E+00 0.  1.
          1   -1    0    0  501    0  0.00000000000E+00 -0.00000000000E+00 -0.55188575468E+02  0.55188575468E+02  0.00000000000E+00 0. -1.
          5    1    1    2  502    0 -0.95379003261E+01 -0.27867450325E+02  0.15504693215E+03  0.15787523524E+03  0.41800000000E+01 0. -1.
         -5    1    1    2    0  502 -0.75544966121E+02  0.61321731453E+02  0.93662795398E+02  0.13512064349E+03  0.41800000000E+01 0. -1.
        -11    1    1    2    0    0  0.85445548097E+02  0.22749059531E+01  0.76675884846E+02  0.11482729729E+03  0.00000000000E+00 0.  1.
         11    1    1    2    0    0 -0.36268165073E+00 -0.35729187081E+02  0.88778299093E+01  0.36817417228E+02  0.00000000000E+00 0. -1.
</event>
<event>
 7    1  0.1538147E-010  0.1091187E+03  0.7561462E-02  0.1262211E+00
         -1   -1    0    0    0  501 -0.00000000000E+00  0.00000000000E+00  0.16876153945E+03  0.16876153945E+03  0.00000000000E+00 0.  1.
          1   -1    0    0  501    0  0.00000000000E+00 -0.00000000000E+00 -0.87683830625E+02  0.87683830625E+02  0.00000000000E+00 0. -1.
         25    2    1    2    0    0 -0.43862368286E+02 -0.18145134009E+02  0.82991452231E+02  0.15741677353E+03  0.12505721173E+03 0.  0.
          5    1    3    3  502    0  0.21524440824E+02  0.39892680720E+02  0.36235933511E+02  0.58182839439E+02  0.41800000000E+01 0. -1.
         -5    1    3    3    0  502 -0.65386809110E+02 -0.58037814729E+02  0.46755518720E+02  0.99233934090E+02  0.41800000000E+01 0. -1.
        -11    1    1    2    0    0 -0.17077261090E+02 -0.80212385990E+01  0.21585187988E+02  0.28668684230E+02  0.00000000000E+00 0.  1.
         11    1    1    2    0    0  0.60939629376E+02  0.26166372608E+02 -0.23498931397E+02  0.70359912314E+02  0.00000000000E+00 0. -1.
</event>
<event>
 7    1  0.1538147E-010  0.9956063E+02  0.7561462E-02  0.1281223E+00
         -2   -1    0    0    0  501 -0.00000000000E+00  0.00000000000E+00  0.21262474107E+02  0.21262474107E+02  0.00000000000E+00 0.  1.
          2   -1    0    0  501    0  0.00000000000E+00 -0.00000000000E+00 -0.25248716402E+04  0.25248716402E+04  0.00000000000E+00 0. -1.
         25    2    1    2    0    0 -0.35863819454E+02 -0.16910443396E+02 -0.23961077611E+04  0.23996962197E+04  0.12504945819E+03 0.  0.
          5    1    3    3  502    0  0.18986068665E+02 -0.38009750875E+02 -0.33020101135E+03  0.33294953411E+03  0.41800000000E+01 0.  1.
         -5    1    3    3    0  502 -0.54849888119E+02  0.21099307479E+02 -0.20659067498E+04  0.20667466856E+04  0.41800000000E+01 0.  1.
        -11    1    1    2    0    0  0.65946419861E+02  0.12085541532E+02 -0.59811077320E+02  0.89846288608E+02  0.00000000000E+00 0.  1.
         11    1    1    2    0    0 -0.30082600407E+02  0.48249018641E+01 -0.47690327667E+02  0.56591606075E+02  0.00000000000E+00 0. -1.
</event>
<event>
 7    1  0.1538147E-010  0.1659242E+03  0.7561462E-02  0.1182166E+00
          1   -1    0    0  501    0  0.00000000000E+00  0.00000000000E+00  0.34860135561E+03  0.34860135561E+03  0.00000000000E+00 0.  1.
         -1   -1    0    0    0  501 -0.00000000000E+00 -0.00000000000E+00 -0.11313564373E+03  0.11313564373E+03  0.00000000000E+00 0. -1.
         25    2    1    2    0    0  0.16550081106E+03 -0.22529696957E+00  0.13536463228E+03  0.24770118532E+03  0.12506687936E+03 0.  0.
          5    1    3    3  502    0  0.24020823570E+02  0.40026508868E+01 -0.24047006594E+02  0.34478284546E+02  0.41800000000E+01 0.  1.
         -5    1    3    3    0  502  0.14147998749E+03 -0.42279478563E+01  0.15941163888E+03  0.21322290077E+03  0.41800000000E+01 0.  1.
        -11    1    1    2    0    0 -0.13158750999E+03  0.15405789835E+01  0.11703197504E+03  0.17610828870E+03  0.00000000000E+00 0.  1.
         11    1    1    2    0    0 -0.33913301076E+02 -0.13152820139E+01 -0.16930895449E+02  0.37927525325E+02  0.00000000000E+00 0. -1.
</event>
<event>
 7    1  0.1538147E-010  0.1271941E+03  0.7561462E-02  0.1231680E+00
          1   -1    0    0  501    0  0.00000000000E+00  0.00000000000E+00  0.16789602075E+04  0.16789602075E+04  0.00000000000E+00 0. -1.
         -1   -1    0    0    0  501 -0.00000000000E+00 -0.00000000000E+00 -0.18103461363E+02  0.18103461363E+02  0.00000000000E+00 0.  1.
         25    2    1    2    0    0 -0.90916436209E+02  0.25453835351E+02  0.13883834308E+04  0.13972055030E+04  0.12514379913E+03 0.  0.
          5    1    3    3  502    0 -0.21921164466E+02 -0.49710621156E+02  0.51337426480E+03  0.51625796989E+03  0.41800000000E+01 0. -1.
         -5    1    3    3    0  502 -0.68995271743E+02  0.75164456507E+02  0.87500916605E+03  0.88094753312E+03  0.41800000000E+01 0. -1.
        -11    1    1    2    0    0  0.53574172855E+02 -0.27818330531E+02  0.24778003638E+03  0.25502744546E+03  0.00000000000E+00 0. -1.
         11    1    1    2    0    0  0.37342263353E+02  0.23644951799E+01  0.24693278952E+02  0.44830720440E+02  0.00000000000E+00 0.  1.
</event>
<event>
 6    1  0.1538147E-010  0.1069848E+03  0.7561462E-02  0.1266258E+00
         -1   -1    0    0    0  501 -0.00000000000E+00  0.00000000000E+00  0.14515819727E+03  0.14515819727E+03  0.00000000000E+00 0.  1.
          1   -1    0    0  501    0  0.00000000000E+00 -0.00000000000E+00 -0.86689821932E+02  0.86689821932E+02  0.00000000000E+00 0. -1.
          5    1    1    2  502    0  0.38010703437E+02 -0.61449564833E+02  0.43249017477E+02  0.84313774122E+02  0.41800000000E+01 0.  1.
         -5    1    1    2    0  502 -0.31815975179E+02  0.38449240460E+02 -0.13265952071E+01  0.50098229743E+02  0.41800000000E+01 0.  1.
        -11    1    1    2    0    0 -0.47381168815E+02  0.11715632743E+02 -0.59487181796E+01  0.49169283672E+02  0.00000000000E+00 0.  1.
         11    1    1    2    0    0  0.41186440558E+02  0.11284691630E+02  0.22494671248E+02  0.48266731665E+02  0.00000000000E+00 0. -1.
</event>
<event>
 6    1  0.1538147E-010  0.1642970E+03  0.7561462E-02  0.1183929E+00
          1   -1    0    0  501    0  0.00000000000E+00  0.00000000000E+00  0.15680359599E+03  0.15680359599E+03  0.00000000000E+00 0. -1.
         -1   -1    0    0    0  501 -0.00000000000E+00 -0.00000000000E+00 -0.22258335024E+03  0.22258335024E+03  0.00000000000E+00 0.  1.
          5    1    1    2  502    0 -0.11102570680E+03  0.57489989052E+01 -0.36636304830E+02  0.11713005502E+03  0.41800000000E+01 0.  1.
         -5    1    1    2    0  502 -0.34566454980E+01  0.60327009691E+02 -0.75133983754E+02  0.96508468080E+02  0.41800000000E+01 0.  1.
        -11    1    1    2    0    0  0.12679113725E+03 -0.49470234308E+02  0.29390190658E+02  0.13923749450E+03  0.00000000000E+00 0. -1.
         11    1    1    2    0    0 -0.12308784956E+02 -0.16605774288E+02  0.16600343672E+02  0.26510928630E+02  0.00000000000E+00 0.  1.
</event>
<event>
 7    1  0.1538147E-010  0.1129835E+03  0.7561462E-02  0.1255143E+00
         -1   -1    0    0    0  501 -0.00000000000E+00  0.00000000000E+00  0.81625416394E+02  0.81625416394E+02  0.00000000000E+00 0.  1.
          1   -1    0    0  501    0  0.00000000000E+00 -0.00000000000E+00 -0.17283428249E+03  0.17283428249E+03  0.00000000000E+00 0. -1.
         25    2    1    2    0    0 -0.45507107797E+02  0.23492665485E+02 -0.54110533284E+02  0.14561531691E+03  0.12511222369E+03 0.  0.
          5    1    3    3  502    0  0.34760278793E+02 -0.10525607118E+02  0.93126562583E+01  0.37726162719E+02  0.41800000000E+01 0. -1.
         -5    1    3    3    0  502 -0.80267386590E+02  0.34018272603E+02 -0.63423189542E+02  0.10788915419E+03  0.41800000000E+01 0. -1.
        -11    1    1    2    0    0 -0.86956010626E+01  0.26808036522E+02 -0.72475780011E+01  0.29100028984E+02  0.00000000000E+00 0.  1.
         11    1    1    2    0    0  0.54202708859E+02 -0.50300702007E+02 -0.29850754807E+02  0.79744352983E+02  0.00000000000E+00 0. -1.
</event>
<event>
 7    1  0.1538147E-010  0.1094236E+03  0.7561462E-02  0.1261641E+00
          3   -1    0    0  501    0  0.00000000000E+00  0.00000000000E+00  0.11417270631E+03  0.11417270631E+03  0.00000000000E+00 0. -1.
         -3   -1    0    0    0  501 -0.00000000000E+00 -0.00000000000E+00 -0.13551116846E+03  0.13551116846E+03  0.00000000000E+00 0.  1.
         25    2    1    2    0    0  0.13360907550E+02 -0.19109280436E+02 -0.68232126443E+02  0.14435292279E+03  0.12505384756E+03 0.  0.
          5    1    3    3  502    0  0.47622811615E+01  0.53396947268E+02 -0.24010308289E+02  0.58888713720E+02  0.41800000000E+01 0. -1.
         -5    1    3    3    0  502  0.85986263887E+01 -0.72506227704E+02 -0.44221818154E+02  0.85464209073E+02  0.41800000000E+01 0. -1.
        -11    1    1    2    0    0 -0.17465075368E+02 -0.34238784059E+02  0.31387791218E+02  0.49623750655E+02  0.00000000000E+00 0. -1.
         11    1    1    2    0    0  0.41041678177E+01  0.53348064495E+02  0.15505873076E+02  0.55707201318E+02  0.00000000000E+00 0.  1.
</event>
<event>
 7    1  0.1538147E-010  0.1046243E+03  0.7561462E-02  0.1270862E+00
         -2   -1    0    0    0  501 -0.00000000000E+00  0.00000000000E+00  0.18737897409E+03  0.18737897409E+03  0.00000000000E+00 0. -1.
          2   -1    0    0  501    0  0.00000000000E+00 -0.00000000000E+00 -0.10123588490E+03  0.10123588490E+03  0.00000000000E+00 0.  1.
         25    2    1    2    0    0 -0.35996499775E+02 -0.39995965202E+02  0.10938541758E+03  0.17468086247E+03  0.12511118617E+03 0.  0.
          5    1    3    3  502    0  0.10607354164E+02 -0.60974048559E+02  0.99797726942E+01  0.62828487353E+02  0.41800000000E+01 0. -1.
         -5    1    3    3    0  502 -0.46603853939E+02  0.20978083357E+02  0.99405644889E+02  0.11185237512E+03  0.41800000000E+01 0. -1.
        -11    1    1    2    0    0  0.43467518355E+02  0.60283222655E+02 -0.41951888567E+02  0.85343148759E+02  0.00000000000E+00 0.  1.
         11    1    1    2    0    0 -0.74710185802E+01 -0.20287257453E+02  0.18709560176E+02  0.28590847759E+02  0.00000000000E+00 0. -1.
</event>
<event>
 6    1  0.1538147E-010  0.8735502E+02  0.7561462E-02  0.1309386E+00
         -1   -1    0    0    0  501 -0.00000000000E+00  0.00000000000E+00  0.17720552319E+02  0.17720552319E+02  0.00000000000E+00 0.  1.
          1   -1    0    0  501    0  0.00000000000E+00 -0.00000000000E+00 -0.14759712460E+04  0.14759712460E+04  0.00000000000E+00 0. -1.
          5    1    1    2  502    0 -0.12256839277E+02 -0.51636626271E+02 -0.10442359666E+04  0.10455920800E+04  0.41800000000E+01 0. -1.
         -5    1    1    2    0  502  0.20882569987E+02  0.46749670745E+02 -0.28922367023E+03  0.29375060386E+03  0.41800000000E+01 0. -1.
        -11    1    1    2    0    0 -0.16914069539E+02 -0.29894052169E+02 -0.12578956739E+02  0.36578275739E+02  0.00000000000E+00 0.  1.
         11    1    1    2    0    0  0.82883388281E+01  0.34781007695E+02 -0.11221210004E+03  0.11777083871E+03  0.00000000000E+00 0. -1.
</event>
<event>
 6    1  0.1538147E-010  0.1835788E+03  0.7561462E-02  0.1164384E+00
         -1   -1    0    0    0  501 -0.00000000000E+00  0.00000000000E+00  0.28752900556E+02  0.28752900556E+02  0.00000000000E+00 0.  1.
          1   -1    0    0  501    0  0.00000000000E+00 -0.00000000000E+00 -0.13068653645E+04  0.13068653645E+04  0.00000000000E+00 0. -1.
          5    1    1    2  502    0 -0.98961650021E+02 -0.19394763986E+02 -0.30969746616E+03  0.32572927100E+03  0.41800000000E+01 0. -1.
         -5    1    1    2    0  502 -0.44828445068E+02  0.81313586454E+02 -0.48742583381E+03  0.49620852944E+03  0.41800000000E+01 0. -1.
        -11    1    1    2    0    0  0.10781922750E+03 -0.78800132703E+02 -0.42142829310E+03  0.44208172656E+03  0.00000000000E+00 0. -1.
         11    1    1    2    0    0  0.35970867588E+02  0.16881310235E+02 -0.59560870876E+02  0.71598738046E+02  0.00000000000E+00 0.  1.
</event>
<event>
 7    1  0.1538147E-010  0.9879418E+02  0.7561462E-02  0.1282852E+00
         -2   -1    0    0    0  501 -0.00000000000E+00  0.00000000000E+00  0.15408955256E+03  0.15408955256E+03  0.00000000000E+00 0.  1.
          2   -1    0    0  501    0  0.00000000000E+00 -0.00000000000E+00 -0.90447693302E+02  0.90447693302E+02  0.00000000000E+00 0. -1.
         25    2    1    2    0    0 -0.33556608900E+02 -0.33882593115E+02  0.32602391001E+02  0.13780471525E+03  0.12511253945E+03 0.  0.
          5    1    3    3  502    0  0.32293340695E+02 -0.45155574900E+02 -0.12540167522E+02  0.57066750383E+02  0.41800000000E+01 0. -1.
         -5    1    3    3    0  502 -0.65849949595E+02  0.11272981785E+02  0.45142558522E+02  0.80737964862E+02  0.41800000000E+01 0. -1.
        -11    1    1    2    0    0  0.29201223412E+02  0.50207574804E+02 -0.13038317748E+02  0.59527386522E+02  0.00000000000E+00 0. -1.
         11    1    1    2    0    0  0.43553854880E+01 -0.16324981689E+02  0.44077786007E+02  0.47205144096E+02  0.00000000000E+00 0.  1.
</event>
<event>
 7    1  0.1538147E-010  0.2856740E+03  0.7561462E-02  0.1092630E+00
         -2   -1    0    0    0  501 -0.00000000000E+00  0.00000000000E+00  0.88732816841E+02  0.88732816841E+02  0.00000000000E+00 0.  1.
          2   -1    0    0  501    0  0.00000000000E+00 -0.00000000000E+00 -0.16592976793E+04  0.16592976793E+04  0.00000000000E+00 0. -1.
         25    2    1    2    0    0  0.21541338302E+03  0.36800012900E+02 -0.17070880369E+03  0.30419927444E+03  0.12505413379E+03 0.  0.
          5    1    3    3  502    0  0.13558645026E+02  0.99825109122E+01  0.19094174468E+02  0.25798202993E+02  0.41800000000E+01 0. -1.
         -5    1    3    3    0  502  0.20185473800E+03  0.26817501988E+02 -0.18980297816E+03  0.27840107145E+03  0.41800000000E+01 0. -1.
        -11    1    1    2    0    0  0.66470271175E+02 -0.50331993482E+01 -0.35207735904E+03  0.35833238312E+03  0.00000000000E+00 0. -1.
         11    1    1    2    0    0 -0.28188365420E+03 -0.31766813552E+02 -0.10477786998E+04  0.10854988386E+04  0.00000000000E+00 0.  1.
</event>
<event>
 7    1  0.1538147E-010  0.1195341E+03  0.7561462E-02  0.1243868E+00
          2   -1    0    0  501    0  0.00000000000E+00  0.00000000000E+00  0.29659717246E+02  0.29659717246E+02  0.00000000000E+00 0. -1.
         -2   -1    0    0    0  501 -0.00000000000E+00 -0.00000000000E+00 -0.53205395696E+03  0.53205395696E+03  0.00000000000E+00 0.  1.
         25    2    1    2    0    0 -0.54689597424E+02 -0.73723458859E+01 -0.22730017337E+03  0.26523300784E+03  0.12505149374E+03 0.  0.
          5    1    3    3  502    0  0.28592891906E+02 -0.36822202769E+02 -0.61088529163E+02  0.76959137727E+02  0.41800000000E+01 0. -1.
         -5    1    3    3    0  502 -0.83282489330E+02  0.29449856883E+02 -0.16621164420E+03  0.18827387012E+03  0.41800000000E+01 0. -1.
        -11    1    1    2    0    0 -0.23266910501E+02 -0.75359414182E+01 -0.29170371979E+02  0.38066391197E+02  0.00000000000E+00 0. -1.
         11    1    1    2    0    0  0.77956507925E+02  0.14908287304E+02 -0.24592369437E+03  0.25841427517E+03  0.00000000000E+00 0.  1.
</event>
<event>
 7    1  0.1538147E-010  0.1428521E+03  0.7561462E-02  0.1209542E+00
          2   -1    0    0  501    0  0.00000000000E+00  0.00000000000E+00  0.13080457740E+04  0.13080457740E+04  0.00000000000E+00 0. -1.
         -2   -1    0    0    0  501 -0.00000000000E+00 -0.00000000000E+00 -0.25514945823E+02  0.25514945823E+02  0.00000000000E+00 0.  1.
         25    2    1    2    0    0  0.26173259411E+02 -0.61702571802E+02  0.93910486226E+03  0.94977039850E+03  0.12511443026E+03 0.  0.
          5    1    3    3  502    0 -0.51007487057E+01  0.25906261775E+02  0.59245290242E+02  0.64997144955E+02  0.41800000000E+01 0.  1.
         -5    1    3    3    0  502  0.31274008117E+02 -0.87608833577E+02  0.87985957202E+03  0.88477325354E+03  0.41800000000E+01 0.  1.
        -11    1    1    2    0    0  0.56846245059E+02  0.60232665485E+02  0.21963022979E+03  0.23472730435E+03  0.00000000000E+00 0. -1.
         11    1    1    2    0    0 -0.83019504471E+02  0.14699063174E+01  0.12379573610E+03  0.14906301696E+03  0.00000000000E+00 0.  1.
</event>
<event>
 7    1  0.1538147E-010  0.8801484E+02  0.7561462E-02  0.1307732E+00
          1   -1    0    0  501    0  0.00000000000E+00  0.00000000000E+00  0.13824302238E+03  0.13824302238E+03  0.00000000000E+00 0. -1.
         -1   -1    0    0    0  501 -0.00000000000E+00 -0.00000000000E+00 -0.96058058316E+02  0.96058058316E+02  0.00000000000E+00 0.  1.
         25    2    1    2    0    0  0.41165641577E+01 -0.35346287840E+02  0.38786929905E+01  0.13005744752E+03  0.12503435221E+03 0.  0.
          5    1    3    3  502    0 -0.49962676756E+02 -0.14133581618E+02  0.36213721674E+02  0.63442361521E+02  0.41800000000E+01 0. -1.
         -5    1    3    3    0  502  0.54079240914E+02 -0.21212706221E+02 -0.32335028683E+02  0.66615086001E+02  0.41800000000E+01 0. -1.
        -11    1    1    2    0    0 -0.26748461684E+01 -0.15047299969E+02 -0.21274994325E+02  0.26195446587E+02  0.00000000000E+00 0.  1.
         11    1    1    2    0    0 -0.14417179893E+01  0.50393587808E+02  0.59581265402E+02  0.78048186589E+02  0.00000000000E+00 0. -1.
</event>
<event>
 6    1  0.1538147E-010  0.1398146E+03  0.7561462E-02  0.1213579E+00
         -3   -1    0    0    0  501 -0.00000000000E+00  0.00000000000E+00  0.24653407379E+03  0.24653407379E+03  0.00000000000E+00 0.  1.
          3   -1    0    0  501    0  0.00000000000E+00 -0.00000000000E+00 -0.94811772869E+02  0.94811772869E+02  0.00000000000E+00 0. -1.
          5    1    1    2  502    0  0.11250641403E+03  0.60804100961E+02  0.10520516548E+03  0.16565153526E+03  0.41800000000E+01 0. -1.
         -5    1    1    2    0  502 -0.26904195062E+02 -0.13953451520E+02  0.27471235611E+02  0.41117827122E+02  0.41800000000E+01 0. -1.
        -11    1    1    2    0    0 -0.81617452547E+02 -0.63846926852E+02  0.36525540622E+02  0.10987244307E+03  0.00000000000E+00 0.  1.
         11    1    1    2    0    0 -0.39847664190E+01  0.16996277411E+02 -0.17479640796E+02  0.24704041200E+02  0.00000000000E+00 0. -1.
</event>
<event>
 6    1  0.1538147E-010  0.9794355E+02  0.7561462E-02  0.1284681E+00
          2   -1    0    0  501    0  0.00000000000E+00  0.00000000000E+00  0.43695891775E+03  0.43695891775E+03  0.00000000000E+00 0. -1.
         -2   -1    0    0    0  501 -0.00000000000E+00 -0.00000000000E+00 -0.29502009007E+02  0.29502009007E+02  0.00000000000E+00 0.  1.
          5    1    1    2  502    0  0.21547870044E+02  0.62100344877E+02  0.16077204957E+03  0.17374086410E+03  0.41800000000E+01 0. -1.
         -5    1    1    2    0  502  0.11187574079E+02 -0.59487147920E+02  0.91700886568E+02  0.10995638944E+03  0.41800000000E+01 0. -1.
        -11    1    1    2    0    0 -0.12298855921E+01 -0.28527279741E+02  0.71927908235E+01  0.29445789985E+02  0.00000000000E+00 0.  1.
         11    1    1    2    0    0 -0.31505558531E+02  0.25914082784E+02  0.14779118179E+03  0.15331788323E+03  0.00000000000E+00 0. -1.
</event>
<event>
 6    1  0.1538147E-010  0.1743288E+03  0.7561462E-02  0.1173407E+00
          1   -1    0    0  501    0  0.00000000000E+00  0.00000000000E+00  0.28901685432E+03  0.28901685432E+03  0.00000000000E+00 0. -1.
         -1   -1    0    0    0  501 -0.00000000000E+00 -0.00000000000E+00 -0.17694435213E+03  0.17694435213E+03  0.00000000000E+00 0.  1.
          5    1    1    2  502    0 -0.30413624892E+02 -0.15468480515E+02 -0.28804252488E+02  0.44848855391E+02  0.41800000000E+01 0.  1.
         -5    1    1    2    0  502  0.11958119829E+03 -0.91922351303E+02 -0.58188773980E+02  0.16171823481E+03  0.41800000000E+01 0.  1.
        -11    1    1    2    0    0 -0.78049299840E+02  0.27528520547E+02  0.76617032180E+02  0.11278156884E+03  0.00000000000E+00 0. -1.
         11    1    1    2    0    0 -0.11118273557E+02  0.79862311271E+02  0.12244849648E+03  0.14661254741E+03  0.00000000000E+00 0.  1.
</event>
<event>
 7    1  0.1538147E-010  0.1636371E+03  0.7561462E-02  0.1184651E+00
          2   -1    0    0  501    0  0.00000000000E+00  0.00000000000E+00  0.16036450947E+04  0.16036450947E+04  0.00000000000E+00 0. -1.
         -2   -1    0    0    0  501 -0.00000000000E+00 -0.00000000000E+00 -0.22138007319E+02  0.22138007319E+02  0.00000000000E+00 0.  1.
         25    2    1    2    0    0 -0.10018323372E+02  0.13868954549E+03  0.11145884080E+04  0.11301674754E+04  0.12504417760E+03 0.  0.
          5    1    3    3  502    0  0.36221048940E+02  0.13338335348E+03  0.89904375164E+03  0.90961542595E+03  0.41800000000E+01 0.  1.
         -5    1    3    3    0  502 -0.46239372311E+02  0.53061920125E+01  0.21554465641E+03  0.22055204948E+03  0.41800000000E+01 0.  1.
        -11    1    1    2    0    0 -0.86951808189E+01 -0.84315703039E+02  0.39260900767E+03  0.40165479812E+03  0.00000000000E+00 0. -1.
         11    1    1    2    0    0  0.18713504190E+02 -0.54373842450E+02  0.74309671649E+02  0.93960828447E+02  0.00000000000E+00 0.  1.
</event>
<event>
 7    1  0.1538147E-010  0.1783640E+03  0.7561462E-02  0.1169396E+00
         -1   -1    0    0    0  501 -0.00000000000E+00  0.00000000000E+00  0.26808234308E+02  0.26808234308E+02  0.00000000000E+00 0.  1.
          1   -1    0    0  501    0  0.00000000000E+00 -0.00000000000E+00 -0.14088451263E+04  0.14088451263E+04  0.00000000000E+00 0. -1.
         25    2    1    2    0    0 -0.15285687309E+03  0.30704191204E+02 -0.87026426824E+03  0.89293169819E+03  0.12513652559E+03 0.  0.
          5    1    3    3  502    0 -0.12430476824E+03 -0.32847319818E+02 -0.51039427553E+03  0.52635578341E+03  0.41800000000E+01 0. -1.
         -5    1    3    3    0  502 -0.28552104847E+02  0.63551511023E+02 -0.35986999271E+03  0.36657591478E+03  0.41800000000E+01 0. -1.
        -11    1    1    2    0    0  0.91175689200E+02 -0.45312598005E+01 -0.41560879840E+03  0.42551640617E+03  0.00000000000E+00 0. -1.
         11    1    1    2    0    0  0.61681183890E+02 -0.26172931404E+02 -0.96163825300E+02  0.11720525620E+03  0.00000000000E+00 0.  1.
</event>
<event>
 6    1  0.1538147E-010  0.8785619E+02  0.7561462E-02  0.1308128E+00
         -2   -1    0    0    0  501 -0.00000000000E+00  0.00000000000E+00  0.25888090025E+02  0.25888090025E+02  0.00000000000E+00 0.  1.
          2   -1    0    0  501    0  0.00000000000E+00 -0.00000000000E+00 -0.58726334029E+03  0.58726334029E+03  0.00000000000E+00 0. -1.
          5    1    1    2  502    0  0.89156933976E+01  0.32471870387E+02 -0.21311986710E+03  0.21580422171E+03  0.41800000000E+01 0. -1.
         -5    1    1    2    0  502  0.37985240128E+02 -0.21945298930E+02 -0.11234495460E+02  0.45477037073E+02  0.41800000000E+01 0. -1.
        -11    1    1    2    0    0 -0.65352639280E+02 -0.29093983855E+02 -0.28211710158E+03  0.29104550565E+03  0.00000000000E+00 0. -1.
         11    1    1    2    0    0  0.18451705754E+02  0.18567412397E+02 -0.54903786125E+02  0.60824665878E+02  0.00000000000E+00 0.  1.
</event>
<event>
 7    1  0.1929376E-010  0.1017077E+03  0.7561462E-02  0.1276745E+00
          3   -1    0    0  501    0  0.00000000000E+00  0.00000000000E+00  0.25418991008E+03  0.25418991008E+03  0.00000000000E+00 0. -1.
         -3   -1    0    0    0  501 -0.00000000000E+00 -0.00000000000E+00 -0.74747594745E+02  0.74747594745E+02  0.00000000000E+00 0.  1.
         25    2    1    2    0    0  0.15120183821E+02  0.83476019526E+01 -0.11980799274E+01  0.12630369157E+03  0.12511148905E+03 0.  0.
          5    1    3    3  502    0 -0.52312628186E+02  0.16939471885E+02 -0.14252371408E+02  0.56957521594E+02  0.41800000000E+01 0.  1.
         -5    1    3    3    0  502  0.67432812007E+02 -0.85918699324E+01  0.13054291480E+02  0.69346169975E+02  0.41800000000E+01 0.  1.
        -11    1    1    2    0    0  0.29569426055E+02  0.10887584485E+02  0.12411847211E+03  0.12805579085E+03  0.00000000000E+00 0. -1.
         11    1    1    2    0    0 -0.44689609876E+02 -0.19235186438E+02  0.56521923155E+02  0.74578022401E+02  0.00000000000E+00 0.  1.
</event>
<event>
 7    1  0.1538147E-010  0.1803164E+03  0.7561462E-02  0.1167497E+00
         -2   -1    0    0    0  501 -0.00000000000E+00  0.00000000000E+00  0.48280832831E+02  0.48280832831E+02  0.00000000000E+00 0.  1.
          2   -1    0    0  501    0  0.00000000000E+00 -0.00000000000E+00 -0.81783286979E+03  0.81783286979E+03  0.00000000000E+00 0. -1.
         25    2    1    2    0    0 -0.10240512207E+03 -0.11961002245E+03 -0.29018535416E+03  0.35304230361E+03  0.12505183674E+03 0.  0.
          5    1    3    3  502    0 -0.52232325223E+02  0.82705819349E+01 -0.36090132524E+02  0.64160645176E+02  0.41800000000E+01 0.  1.
         -5    1    3    3    0  502 -0.50172796847E+02 -0.12788060439E+03 -0.25409522163E+03  0.28888165843E+03  0.41800000000E+01 0.  1.
        -11    1    1    2    0    0 -0.92598283296E+01  0.10983649606E+02 -0.76074617926E+01  0.16256028244E+02  0.00000000000E+00 0.  1.
         11    1    1    2    0    0  0.11166495040E+03  0.10862637285E+03 -0.47175922101E+03  0.49681537077E+03  0.00000000000E+00 0. -1.
</event>
<event>
 7    1  0.1538147E-010  0.7930893E+02  0.7561462E-02  0.1331024E+00
         -1   -1    0    0    0  501 -0.00000000000E+00  0.00000000000E+00  0.21859183599E+03  0.21859183599E+03  0.00000000000E+00 0.  1.
          1   -1    0    0  501    0  0.00000000000E+00 -0.00000000000E+00 -0.70965300450E+02  0.70965300450E+02  0.00000000000E+00 0. -1.
         25    2    1    2    0    0 -0.47920566586E+02  0.33213832171E+02  0.61530527423E+02  0.15106452348E+03  0.12503977407E+03 0.  0.
          5    1    3    3  502    0 -0.19021795377E+02 -0.15721960077E+02  0.85614965693E+02  0.89198674198E+02  0.41800000000E+01 0.  1.
         -5    1    3    3    0  502 -0.28898771209E+02  0.48935792248E+02 -0.24084438270E+02  0.61865849279E+02  0.41800000000E+01 0.  1.
        -11    1    1    2    0    0  0.14645483465E+02 -0.40040468498E+02  0.94350245244E+02  0.10353597482E+03  0.00000000000E+00 0.  1.
         11    1    1    2    0    0  0.33275083121E+02  0.68266363273E+01 -0.82542371247E+01  0.34956638150E+02  0.00000000000E+00 0. -1.
</event>
<event>
 7    1  0.1538147E-010  0.7646631E+02  0.7561462E-02  0.1339390E+00
         -1   -1    0    0    0  501 -0.00000000000E+00  0.00000000000E+00  0.68741636240E+03  0.68741636240E+03  0.00000000000E+00 0.  1.
          1   -1    0    0  501    0  0.00000000000E+00 -0.00000000000E+00 -0.21084916792E+02  0.21084916792E+02  0.00000000000E+00 0. -1.
         25    2    1    2    0    0  0.32728906822E+01  0.10755367787E+02  0.50613124852E+03  0.52148693975E+03  0.12511353982E+03 0.  0.
          5    1    3    3  502    0 -0.39988874411E+02  0.58188735891E+01  0.55725746321E+02  0.68962312676E+02  0.41800000000E+01 0. -1.
         -5    1    3    3    0  502  0.43261765093E+02  0.49364941982E+01  0.45040550220E+03  0.45252462707E+03  0.41800000000E+01 0. -1.
        -11    1    1    2    0    0 -0.26235527694E+02  0.17961959362E+02  0.14287110125E+03  0.14636627505E+03  0.00000000000E+00 0.  1.
         11    1    1    2    0    0  0.22962637012E+02 -0.28717327149E+02  0.17329095836E+02  0.40648064402E+02  0.00000000000E+00 0. -1.
</event>
<event>
 7    1  0.1538147E-010  0.1056407E+03  0.7561462E-02  0.1268862E+00
         -1   -1    0    0    0  501 -0.00000000000E+00  0.00000000000E+00  0.19691823577E+03  0.19691823577E+03  0.00000000000E+00 0.  1.
          1   -1    0    0  501    0  0.00000000000E+00 -0.00000000000E+00 -0.87651067388E+02  0.87651067388E+02  0.00000000000E+00 0. -1.
         25    2    1    2    0    0  0.38905242156E+02  0.45944038393E+02  0.94212090975E+02  0.16779198434E+03  0.12511498469E+03 0.  0.
          5    1    3    3  502    0  0.40754913202E+02 -0.34112855928E+02  0.60961569905E+02  0.80984166939E+02  0.41800000000E+01 0.  1.
         -5    1    3    3    0  502 -0.18496710456E+01  0.80056894321E+02  0.33250521070E+02  0.86807817405E+02  0.41800000000E+01 0.  1.
        -11    1    1    2    0    0 -0.64441181344E+01 -0.44842106033E+02 -0.34903240263E+02  0.57188961460E+02  0.00000000000E+00 0. -1.
         11    1    1    2    0    0 -0.32461124022E+02 -0.11019323604E+01  0.49958317675E+02  0.59588357358E+02  0.00000000000E+00 0.  1.
</event>
<event>
 7    1  0.1538147E-010  0.1001191E+03  0.7561462E-02  0.1280046E+00
         -1   -1    0    0    0  501 -0.00000000000E+00  0.00000000000E+00  0.59450549446E+03  0.59450549446E+03  0.00000000000E+00 0.  1.
          1   -1    0    0  501    0  0.00000000000E+00 -0.00000000000E+00 -0.91635294028E+02  0.91635294028E+02  0.00000000000E+00 0. -1.
         25    2    1    2    0    0  0.11397749493E+02 -0.74262381053E+02  0.54260671976E+03  0.56189141079E+03  0.12512032313E+03 0.  0.
          5    1    3    3  502    0 -0.37957817098E+01 -0.70189546304E+02  0.54096975323E+03  0.54553343315E+03  0.41800000000E+01 0. -1.
         -5    1    3    3    0  502  0.15193531203E+02 -0.40728347495E+01  0.16369665300E+01  0.16357977648E+02  0.41800000000E+01 0. -1.
        -11    1    1    2    0    0  0.35206950958E+02  0.49580311311E+02 -0.48174957344E+01  0.60999548610E+02  0.00000000000E+00 0.  1.
         11    1    1    2    0    0 -0.46604700451E+02  0.24682069742E+02 -0.34919023592E+02  0.63249829087E+02  0.00000000000E+00 0. -1.
</event>
<event>
 7    1  0.1538147E-010  0.9382488E+02  0.7561462E-02  0.1293845E+00
          3   -1    0    0  501    0  0.00000000000E+00  0.00000000000E+00  0.45703225944E+03  0.45703225944E+03  0.00000000000E+00 0.  1.
         -3   -1    0    0    0  501 -0.00000000000E+00 -0.00000000000E+00 -0.63894578045E+02  0.63894578045E+02  0.00000000000E+00 0. -1.
         25    2    1    2    0    0 -0.39964053069E+01 -0.39073473764E+02  0.40123367086E+03  0.42211866874E+03  0.12511196688E+03 0.  0.
          5    1    3    3  502    0  0.29793907279E+02  0.37025218536E+02  0.14012021507E+03  0.14801922439E+03  0.41800000000E+01 0.  1.
         -5    1    3    3    0  502 -0.33790312586E+02 -0.76098692300E+02  0.26111345579E+03  0.27409944434E+03  0.41800000000E+01 0.  1.
        -11    1    1    2    0    0 -0.13933540882E+02  0.35708804561E+02  0.35065002417E+02  0.51950136469E+02  0.00000000000E+00 0.  1.
         11    1    1    2    0    0  0.17929946189E+02  0.33646692030E+01 -0.43160991881E+02  0.46858032282E+02  0.00000000000E+00 0. -1.
</event>
<event>
 6    1  0.1538147E-010  0.9921347E+02  0.7561462E-02  0.1281959E+00
          1   -1    0    0  501    0  0.00000000000E+00  0.00000000000E+00  0.42488260403E+03  0.42488260403E+03  0.00000000000E+00 0. -1.
         -1   -1    0    0    0  501 -0.00000000000E+00 -0.00000000000E+00 -0.31944675832E+02  0.31944675832E+02  0.00000000000E+00 0.  1.
          5    1    1    2  502    0 -0.46009155123E+02 -0.39946429646E+01  0.14427909006E+03  0.15154777384E+03  0.41800000000E+01 0.  1.
         -5    1    1    2    0  502  0.73809395634E+02 -0.26415540483E+02  0.11360244111E+03  0.13808908244E+03  0.41800000000E+01 0.  1.
        -11    1    1    2    0    0 -0.47315624273E+02  0.23654666278E+02  0.13659621931E+03  0.14648153012E+03  0.00000000000E+00 0. -1.
         11    1    1    2    0    0  0.19515383762E+02  0.67555171698E+01 -0.15398222833E+01  0.20708893458E+02  0.00000000000E+00 0.  1.
</event>
<event>
 6    1  0.1538147E-010  0.1134208E+03  0.7561462E-02  0.1254363E+00
          2   -1    0    0  501    0  0.00000000000E+00  0.00000000000E+00  0.26514135176E+03  0.26514135176E+03  0.00000000000E+00 0. -1.
         -2   -1    0    0    0  501 -0.00000000000E+00 -0.00000000000E+00 -0.54387243967E+02  0.54387243967E+02  0.00000000000E+00 0.  1.
          5    1    1    2  502    0  0.45240857209E+02 -0.10010520894E+02  0.44775413236E+02  0.64569774043E+02  0.41800000000E+01 0.  1.
         -5    1    1    2    0  502 -0.77826805144E+02  0.22856494599E+02  0.35609781867E+02  0.88684609200E+02  0.41800000000E+01 0.  1.
        -11    1    1    2    0    0  0.36563453981E+02  0.35278750912E+02  0.89925165392E+02  0.10328606781E+03  0.00000000000E+00 0. -1.
         11    1    1    2    0    0 -0.39775060463E+01 -0.48124724618E+02  0.40443747300E+02  0.62988144675E+02  0.00000000000E+00 0.  1.
</event>
<event>
 7    1  0.1538147E-010  0.8933099E+02  0.7561462E-02  0.1304480E+00
          1   -1    0    0  501    0  0.00000000000E+00  0.00000000000E+00  0.52007910008E+03  0.52007910008E+03  0.00000000000E+00 0. -1.
         -1   -1    0    0    0  501 -0.00000000000E+00 -0.00000000000E+00 -0.25388548907E+02  0.25388548907E+02  0.00000000000E+00 0.  1.
         25    2    1    2    0    0  0.39295494870E+02 -0.25191394763E+01  0.28447676232E+03  0.31326007711E+03  0.12511740737E+03 0.  0.
          5    1    3    3  502    0  0.59157204387E+02 -0.33535585326E+02  0.78357621106E+02  0.10383448126E+03  0.41800000000E+01 0. -1.
         -5    1    3    3    0  502 -0.19861709517E+02  0.31016445850E+02  0.20611914122E+03  0.20942559585E+03  0.41800000000E+01 0. -1.
        -11    1    1    2    0    0 -0.23264478076E+02  0.32203776800E+02  0.32523452315E+02  0.51342907308E+02  0.00000000000E+00 0.  1.
         11    1    1    2    0    0 -0.16031016794E+02 -0.29684637324E+02  0.17769033653E+03  0.18086466457E+03  0.00000000000E+00 0. -1.
</event>
<event>
 7    1  0.1538147E-010  0.8473306E+02  0.7561462E-02  0.1316132E+00
         -2   -1    0    0    0  501 -0.00000000000E+00  0.00000000000E+00  0.90994977461E+02  0.90994977461E+02  0.00000000000E+00 0.  1.
          2   -1    0    0  501    0  0.00000000000E+00 -0.00000000000E+00 -0.12985617125E+03  0.12985617125E+03  0.00000000000E+00 0. -1.
         25    2    1    2    0    0 -0.19182416351E+01 -0.35128234204E+01 -0.29069634758E+02  0.12845810046E+03  0.12506166611E+03 0.  0.
          5    1    3    3  502    0 -0.57661345773E+02 -0.20863505769E+02 -0.33064524388E+02  0.69791488323E+02  0.41800000000E+01 0. -1.
         -5    1    3    3    0  502  0.55743104138E+02  0.17350682349E+02  0.39948896302E+01  0.58666612141E+02  0.41800000000E+01 0. -1.
        -11    1    1    2    0    0  0.20719413691E+02  0.16614108318E+02 -0.43896031081E+02  0.51304816963E+02  0.00000000000E+00 0. -1.
         11    1    1    2    0    0 -0.18801172056E+02 -0.13101284898E+02  0.34104472047E+02  0.41088231287E+02  0.00000000000E+00 0.  1.
</event>
<event>
 7    1  0.1538147E-010  0.1273839E+03  0.7561462E-02  0.1231390E+00
         -1   -1    0    0    0  501 -0.00000000000E+00  0.00000000000E+00  0.32486226248E+03  0.32486226248E+03  0.00000000000E+00 0.  1.
          1   -1    0    0  501    0  0.00000000000E+00 -0.00000000000E+00 -0.66638580299E+02  0.66638580299E+02  0.00000000000E+00 0. -1.
         25    2    1    2    0    0  0.92569678864E+02  0.46960017351E+02  0.15651740127E+03  0.22563297418E+03  0.12505260279E+03 0.  0.
          5    1    3    3  502    0  0.21703221332E+02 -0.35506674863E+02  0.97790978361E+01  0.42951797756E+02  0.41800000000E+01 0. -1.
         -5    1    3    3    0  502  0.70866457532E+02  0.82466692213E+02  0.14673830343E+03  0.18268117643E+03  0.41800000000E+01 0. -1.
        -11    1    1    2    0    0 -0.34605227221E+02 -0.22102111309E+02  0.93687215508E+02  0.10229036819E+03  0.00000000000E+00 0.  1.
         11    1    1    2    0    0 -0.57964451644E+02 -0.24857906042E+02  0.80190654054E+01  0.63577500400E+02  0.00000000000E+00 0. -1.
</event>
<event>
 7    1  0.1538147E-010  0.1559508E+03  0.7561462E-02  0.1193346E+00
          2   -1    0    0  501    0  0.00000000000E+00  0.00000000000E+00  0.42044954489E+03  0.42044954489E+03  0.00000000000E+00 0. -1.
         -2   -1    0    0    0  501 -0.00000000000E+00 -0.00000000000E+00 -0.75384489887E+02  0.75384489887E+02  0.00000000000E+00 0.  1.
         25    2    1    2    0    0  0.13600332271E+03 -0.37027409160E+02  0.16761147554E+03  0.25222516902E+03  0.12512392393E+03 0.  0.
          5    1    3    3  502    0  0.14331119758E+03 -0.13085203422E+02  0.88154739613E+02  0.16881366182E+03  0.41800000000E+01 0. -1.
         -5    1    3    3    0  502 -0.73078748693E+01 -0.23942205737E+02  0.79456735924E+02  0.83411507206E+02  0.41800000000E+01 0. -1.
        -11    1    1    2    0    0 -0.67013501704E+02  0.29280004640E+02  0.27080695752E+02  0.77983922477E+02  0.00000000000E+00 0.  1.
         11    1    1    2    0    0 -0.68989821005E+02  0.77474045194E+01  0.15037288371E+03  0.16562494327E+03  0.00000000000E+00 0. -1.
</event>
<event>
 7    1  0.1538147E-010  0.1091253E+03  0.7561462E-02  0.1262198E+00
          4   -1    0    0  501    0  0.00000000000E+00  0.00000000000E+00  0.31247086235E+02  0.31247086235E+02  0.00000000000E+00 0. -1.
         -4   -1    0    0    0  501 -0.00000000000E+00 -0.00000000000E+00 -0.44117596057E+03  0.44117596057E+03  0.00000000000E+00 0.  1.
         25    2    1    2    0    0 -0.44036937936E+02 -0.12338283069E+01 -0.24274359734E+03  0.27659678331E+03  0.12506219353E+03 0.  0.
          5    1    3    3  502    0  0.25318661977E+02  0.43067117797E+02 -0.95846781829E+02  0.10816602640E+03  0.41800000000E+01 0.  1.
         -5    1    3    3    0  502 -0.69355599914E+02 -0.44300946104E+02 -0.14689681551E+03  0.16843075691E+03  0.41800000000E+01 0.  1.
        -11    1    1    2    0    0  0.34822230538E+01 -0.32670080060E+02 -0.12180716912E+03  0.12616039972E+03  0.00000000000E+00 0.  1.
         11    1    1    2    0    0  0.40554714882E+02  0.33903908367E+02 -0.45378107869E+02  0.69665863775E+02  0.00000000000E+00 0. -1.
</event>
<event>
 7    1  0.1538147E-010  0.1835321E+03  0.7561462E-02  0.1164428E+00
         -2   -1    0    0    0  501 -0.00000000000E+00  0.00000000000E+00  0.98021094448E+03  0.98021094448E+03  0.00000000000E+00 0.  1.
          2   -1    0    0  501    0  0.00000000000E+00 -0.00000000000E+00 -0.44301061506E+02  0.44301061506E+02  0.00000000000E+00 0. -1.
         25    2    1    2    0    0  0.10413039302E+03  0.12417803573E+03  0.30797626459E+03  0.36980306447E+03  0.12506639692E+03 0.  0.
          5    1    3    3  502    0 -0.19735704754E+02  0.55103239848E+02  0.58855215585E+02  0.83110010741E+02  0.41800000000E+01 0.  1.
         -5    1    3    3    0  502  0.12386609777E+03  0.69074795885E+02  0.24912104900E+03  0.28669305373E+03  0.41800000000E+01 0.  1.
        -11    1    1    2    0    0 -0.60211794588E+01 -0.29665920464E+02  0.34758975489E+02  0.46092383493E+02  0.00000000000E+00 0. -1.
         11    1    1    2    0    0 -0.98109213556E+02 -0.94512115269E+02  0.59317464290E+03  0.60861655802E+03  0.00000000000E+00 0.  1.
</event>
<event>
 6    1  0.1538147E-010  0.1318630E+03  0.7561462E-02  0.1224717E+00
          1   -1    0    0  501    0  0.00000000000E+00  0.00000000000E+00  0.53659631585E+02  0.53659631585E+02  0.00000000000E+00 0. -1.
         -1   -1    0    0    0  501 -0.00000000000E+00 -0.00000000000E+00 -0.36624450785E+03  0.36624450785E+03  0.00000000000E+00 0.  1.
          5    1    1    2  502    0  0.21614099381E+02 -0.20333148003E+02 -0.69021477977E+02  0.75246548239E+02  0.41800000000E+01 0.  1.
         -5    1    1    2    0  502 -0.92150465314E+02  0.72033255557E+02 -0.11821823071E+03  0.16635360121E+03  0.41800000000E+01 0.  1.
        -11    1    1    2    0    0  0.77539802945E+02 -0.14522396778E+02 -0.11432290267E+03  0.13889941370E+03  0.00000000000E+00 0.  1.
         11    1    1    2    0    0 -0.70034370125E+01 -0.37177710777E+02 -0.11022264894E+02  0.39404576282E+02  0.00000000000E+00 0. -1.
</event>
<event>
 7    1  0.1538147E-010  0.1044357E+03  0.7561462E-02  0.1271235E+00
          3   -1    0    0  501    0  0.00000000000E+00  0.00000000000E+00  0.38659529969E+03  0.38659529969E+03  0.00000000000E+00 0. -1.
         -3   -1    0    0    0  501 -0.00000000000E+00 -0.00000000000E+00 -0.33733330837E+02  0.33733330837E+02  0.00000000000E+00 0.  1.
         25    2    1    2    0    0 -0.33106086331E+02  0.21881765233E+02  0.23985326667E+03  0.27343013347E+03  0.12513841840E+03 0.  0.
          5    1    3    3  502    0 -0.71242830133E+02 -0.12100247203E+01  0.79035189421E+02  0.10649431239E+03  0.41800000000E+01 0. -1.
         -5    1    3    3    0  502  0.38136743802E+02  0.23091789953E+02  0.16081807725E+03  0.16693582108E+03  0.41800000000E+01 0. -1.
        -11    1    1    2    0    0 -0.24372352925E+02  0.10732176850E+02  0.22704782490E+02  0.34995690520E+02  0.00000000000E+00 0.  1.
         11    1    1    2    0    0  0.57478439256E+02 -0.32613942082E+02  0.90303919693E+02  0.11190280653E+03  0.00000000000E+00 0. -1.
</event>
<event>
 7    1  0.1538147E-010  0.2781145E+03  0.7561462E-02  0.1096723E+00
         -2   -1    0    0    0  501 -0.00000000000E+00  0.00000000000E+00  0.60900727983E+02  0.60900727983E+02  0.00000000000E+00 0. -1.
          2   -1    0    0  501    0  0.00000000000E+00 -0.00000000000E+00 -0.13106866929E+04  0.13106866929E+04  0.00000000000E+00 0.  1.
         25    2    1    2    0    0 -0.25499585493E+03  0.40327092686E+01 -0.51825211745E+03  0.59099688451E+03  0.12511159611E+03 0.  0.
          5    1    3    3  502    0 -0.25871719145E+03 -0.19846202416E+02 -0.47573278635E+03  0.54191107510E+03  0.41800000000E+01 0. -1.
         -5    1    3    3    0  502  0.37213365168E+01  0.23878911684E+02 -0.42519331101E+02  0.49085809416E+02  0.41800000000E+01 0. -1.
        -11    1    1    2    0    0  0.27594599881E+02 -0.32928678614E+02 -0.12575972960E+03  0.13289570876E+03  0.00000000000E+00 0.  1.
         11    1    1    2    0    0  0.22740125505E+03  0.28895969346E+02 -0.60577411787E+03  0.64769482762E+03  0.00000000000E+00 0. -1.
</event>
<event>
 6    1  0.1538147E-010  0.1768473E+03  0.7561462E-02  0.1170890E+00
          3   -1    0    0  501    0  0.00000000000E+00  0.00000000000E+00  0.19135227170E+03  0.19135227170E+03  0.00000000000E+00 0. -1.
         -3   -1    0    0    0  501 -0.00000000000E+00 -0.00000000000E+00 -0.37118249493E+03  0.37118249493E+03  0.00000000000E+00 0.  1.
          5    1    1    2  502    0  0.15683099696E+03 -0.45965899499E+02 -0.22914941448E+03  0.28148845816E+03  0.41800000000E+01 0.  1.
         -5    1    1    2    0  502 -0.81805493566E+01  0.28301488323E+02 -0.65101933212E+02  0.71579534345E+02  0.41800000000E+01 0.  1.
        -11    1    1    2    0    0 -0.42965077365E+02 -0.21126566931E+02  0.77297585251E+02  0.90924399304E+02  0.00000000000E+00 0. -1.
         11    1    1    2    0    0 -0.10568537024E+03  0.38790978106E+02  0.37123539211E+02  0.11854237482E+03  0.00000000000E+00 0.  1.
</event>
<event>
 7    1  0.1538147E-010  0.4208294E+03  0.7561462E-02  0.1036797E+00
         -1   -1    0    0    0  501 -0.00000000000E+00  0.00000000000E+00  0.12543860476E+03  0.12543860476E+03  0.00000000000E+00 0.  1.
          1   -1    0    0  501    0  0.00000000000E+00 -0.00000000000E+00 -0.14642633466E+04  0.14642633466E+04  0.00000000000E+00 0. -1.
         25    2    1    2    0    0  0.90243975565E+02 -0.40074544334E+03 -0.75695441196E+03  0.87027472077E+03  0.12512882295E+03 0.  0.
          5    1    3    3  502    0  0.68964653391E+02 -0.86624465156E+02 -0.14973984156E+03  0.18627778700E+03  0.41800000000E+01 0. -1.
         -5    1    3    3    0  502  0.21279322175E+02 -0.31412097818E+03 -0.60721457041E+03  0.68399693376E+03  0.41800000000E+01 0. -1.
        -11    1    1    2    0    0 -0.89182923607E+02  0.25337055308E+03 -0.31002713164E+03  0.41020367305E+03  0.00000000000E+00 0. -1.
         11    1    1    2    0    0 -0.10610519585E+01  0.14737489026E+03 -0.27184319825E+03  0.30922355755E+03  0.00000000000E+00 0.  1.
</event>
<event>
 7    1  0.1538147E-010  0.5490018E+02  0.7561462E-02  0.1420572E+00
         -2   -1    0    0    0  501 -0.00000000000E+00  0.00000000000E+00  0.56016127814E+03  0.56016127814E+03  0.00000000000E+00 0.  1.
          2   -1    0    0  501    0  0.00000000000E+00 -0.00000000000E+00 -0.24418468343E+02  0.24418468343E+02  0.00000000000E+00 0. -1.
         25    2    1    2    0    0  0.61711305577E+01  0.28526719967E+02  0.39676491574E+03  0.41702215533E+03  0.12503288796E+03 0.  0.
          5    1    3    3  502    0  0.80396221638E+01  0.19037660877E+02  0.40380211759E+03  0.40435218638E+03  0.41800000000E+01 0.  1.
         -5    1    3    3    0  502 -0.18684916060E+01  0.94890590899E+01 -0.70372018547E+01  0.12669968952E+02  0.41800000000E+01 0.  1.
        -11    1    1    2    0    0  0.24849150544E+02 -0.38301699776E+02  0.12324154915E+03  0.13142670933E+03  0.00000000000E+00 0.  1.
         11    1    1    2    0    0 -0.31020281102E+02  0.97749798095E+01  0.15736344901E+02  0.36130881815E+02  0.00000000000E+00 0. -1.
</event>
<event>
 7    1  0.1538147E-010  0.1166789E+03  0.7561462E-02  0.1248679E+00
         -3   -1    0    0    0  501 -0.00000000000E+00  0.00000000000E+00  0.24215540672E+03  0.24215540672E+03  0.00000000000E+00 0.  1.
          3   -1    0    0  501    0  0.00000000000E+00 -0.00000000000E+00 -0.78279669363E+02  0.78279669363E+02  0.00000000000E+00 0. -1.
         25    2    1    2    0    0  0.25837853717E+02 -0.72260397969E+02  0.49204518592E+02  0.15474775867E+03  0.12504648881E+03 0.  0.
          5    1    3    3  502    0 -0.38652211865E+02 -0.52354160202E+02  0.57087142421E+02  0.86668136027E+02  0.41800000000E+01 0. -1.
         -5    1    3    3    0  502  0.64490065582E+02 -0.19906237768E+02 -0.78826238298E+01  0.68079622644E+02  0.41800000000E+01 0. -1.
        -11    1    1    2    0    0  0.21548684592E+02  0.15283232129E+02 -0.30382683301E+01  0.26592368574E+02  0.00000000000E+00 0. -1.
         11    1    1    2    0    0 -0.47386538309E+02  0.56977165841E+02  0.11770948709E+03  0.13909494884E+03  0.00000000000E+00 0.  1.
</event>
<event>
 6    1  0.1538147E-010  0.1664841E+03  0.7561462E-02  0.1181565E+00
          2   -1    0    0  501    0  0.00000000000E+00  0.00000000000E+00  0.11036247312E+03  0.11036247312E+03  0.00000000000E+00 0. -1.
         -2   -1    0    0    0  501 -0.00000000000E+00 -0.00000000000E+00 -0.26863902590E+03  0.26863902590E+03  0.00000000000E+00 0.  1.
          5    1    1    2  502    0  0.23203823184E+02 -0.26351476891E+02 -0.40726166754E+02  0.53934319344E+02  0.41800000000E+01 0.  1.
         -5    1    1    2    0  502 -0.13715581533E+03 -0.32327719338E+02 -0.86135746710E+02  0.16520786415E+03  0.41800000000E+01 0.  1.
        -11    1    1    2    0    0  0.23663694419E+02  0.61918504112E+02 -0.16250221954E+02  0.68249112072E+02  0.00000000000E+00 0.  1.
         11    1    1    2    0    0  0.90288297728E+02 -0.32393078836E+01 -0.15164417371E+02  0.91610203451E+02  0.00000000000E+00 0. -1.
</event>
<event>
 7    1  0.1538147E-010  0.1338754E+03  0.7561462E-02  0.1221816E+00
         -2   -1    0    0    0  501 -0.00000000000E+00  0.00000000000E+00  0.20973554215E+02  0.20973554215E+02  0.00000000000E+00 0.  1.
          2   -1    0    0  501    0  0.00000000000E+00 -0.00000000000E+00 -0.11042181698E+04  0.11042181698E+04  0.00000000000E+00 0. -1.
         25    2    1    2    0    0 -0.93969270155E+02  0.28092978054E+01 -0.39988816980E+03  0.42939890176E+03  0.12503900430E+03 0.  0.
          5    1    3    3  502    0 -0.65835348886E+02  0.51168908819E+02 -0.32659902129E+03  0.33710079131E+03  0.41800000000E+01 0.  1.
         -5    1    3    3    0  502 -0.28133921269E+02 -0.48359611013E+02 -0.73289148514E+02  0.92298110453E+02  0.41800000000E+01 0.  1.
        -11    1    1    2    0    0  0.83320957449E+02  0.33888442625E+02 -0.53954738238E+03  0.54699377174E+03  0.00000000000E+00 0.  1.
         11    1    1    2    0    0  0.10648312706E+02 -0.36697740431E+02 -0.14380906339E+03  0.14879905050E+03  0.00000000000E+00 0. -1.
</event>
<event>
 7    1  0.1538147E-010  0.9814557E+02  0.7561462E-02  0.1284245E+00
          3   -1    0    0  501    0  0.00000000000E+00  0.00000000000E+00  0.16606743876E+03  0.16606743876E+03  0.00000000000E+00 0. -1.
         -3   -1    0    0    0  501 -0.00000000000E+00 -0.00000000000E+00 -0.10583451802E+03  0.10583451802E+03  0.00000000000E+00 0.  1.
         25    2    1    2    0    0  0.27445288530E+02 -0.63953686006E+02  0.61890410185E+02  0.15597108457E+03  0.12511290314E+03 0.  0.
          5    1    3    3  502    0  0.37611638446E+02  0.19156531428E+02 -0.12151056804E+02  0.44121747749E+02  0.41800000000E+01 0.  1.
         -5    1    3    3    0  502 -0.10166349916E+02 -0.83110217434E+02  0.74041466989E+02  0.11184933682E+03  0.41800000000E+01 0.  1.
        -11    1    1    2    0    0 -0.22246549156E+02  0.42539512083E+02  0.44072596358E+02  0.65168341910E+02  0.00000000000E+00 0. -1.
         11    1    1    2    0    0 -0.51987393739E+01  0.21414173923E+02 -0.45730085798E+02  0.50762530305E+02  0.00000000000E+00 0.  1.
</event>
<event>
 6    1  0.1538147E-010  0.1724609E+03  0.7561462E-02  0.1175306E+00
          2   -1    0    0  501    0  0.00000000000E+00  0.00000000000E+00  0.72140207902E+03  0.72140207902E+03  0.00000000000E+00 0. -1.
         -2   -1    0    0    0  501 -0.00000000000E+00 -0.00000000000E+00 -0.60159030646E+02  0.60159030646E+02  0.00000000000E+00 0.  1.
          5    1    1    2  502    0  0.12298358471E+02 -0.19367957955E+02  0.45314378022E+02  0.50963052027E+02  0.41800000000E+01 0.  1.
         -5    1    1    2    0  502 -0.99821870579E+02  0.12640099607E+03  0.50879404006E+03  0.53369510514E+03  0.41800000000E+01 0.  1.
        -11    1    1    2    0    0  0.66316093689E+02 -0.11892781849E+03  0.10599830917E+03  0.17256098006E+03  0.00000000000E+00 0. -1.
         11    1    1    2    0    0  0.21207418418E+02  0.11894780376E+02  0.11363211265E+01  0.24341972432E+02  0.00000000000E+00 0.  1.
</event>
<event>
 7    1  0.1538147E-010  0.2974581E+03  0.7561462E-02  0.1086518E+00
          2   -1    0    0  501    0  0.00000000000E+00  0.00000000000E+00  0.49791315196E+03  0.49791315196E+03  0.00000000000E+00 0. -1.
         -2   -1    0    0    0  501 -0.00000000000E+00 -0.00000000000E+00 -0.20755206392E+03  0.20755206392E+03  0.00000000000E+00 0.  1.
         25    2    1    2    0    0  0.23901715903E+03  0.16012547164E+03  0.24818044146E+03  0.40002290081E+03  0.12512162352E+03 0.  0.
          5    1    3    3  502    0  0.18086243476E+03  0.69023755489E+02  0.20918533480E+03  0.28504644503E+03  0.41800000000E+01 0.  1.
         -5    1    3    3    0  502  0.58154724275E+02  0.91101716149E+02  0.38995106656E+02  0.11497645578E+03  0.41800000000E+01 0.  1.
        -11    1    1    2    0    0 -0.14390824637E+03 -0.12839922066E+03  0.63292960698E+02  0.20298261530E+03  0.00000000000E+00 0.  1.
         11    1    1    2    0    0 -0.95108912661E+02 -0.31726250983E+02 -0.21112314116E+02  0.10245969977E+03  0.00000000000E+00 0. -1.
</event>
<event>
 7    1  0.1538147E-010  0.5455510E+02  0.7561462E-02  0.1422215E+00
          1   -1    0    0  501    0  0.00000000000E+00  0.00000000000E+00  0.71288721162E+02  0.71288721162E+02  0.00000000000E+00 0. -1.
         -1   -1    0    0    0  501 -0.00000000000E+00 -0.00000000000E+00 -0.25768895111E+03  0.25768895111E+03  0.00000000000E+00 0.  1.
         25    2    1    2    0    0 -0.20463722217E+01  0.53257652837E+02 -0.24542838683E+02  0.13818865663E+03  0.12511270385E+03 0.  0.
          5    1    3    3  502    0  0.39024973798E+01  0.23118890115E+02 -0.75153514129E+02  0.78836765864E+02  0.41800000000E+01 0.  1.
         -5    1    3    3    0  502 -0.59488696015E+01  0.30138762723E+02  0.50610675446E+02  0.59351890763E+02  0.41800000000E+01 0.  1.
        -11    1    1    2    0    0 -0.38561254765E+01 -0.31925054708E+02 -0.16529113423E+03  0.16839013592E+03  0.00000000000E+00 0.  1.
         11    1    1    2    0    0  0.59024976982E+01 -0.21332598130E+02  0.34337429638E+01  0.22398879722E+02  0.00000000000E+00 0. -1.
</event>
<event>
 7    1  0.1538147E-010  0.2042968E+03  0.7561462E-02  0.1146164E+00
         -1   -1    0    0    0  501 -0.00000000000E+00  0.00000000000E+00  0.26506314075E+02  0.26506314075E+02  0.00000000000E+00 0.  1.
          1   -1    0    0  501    0  0.00000000000E+00 -0.00000000000E+00 -0.29510063898E+04  0.29510063898E+04  0.00000000000E+00 0. -1.
         25    2    1    2    0    0 -0.74322476561E+01 -0.18231524664E+03 -0.24450712354E+04  0.24550565968E+04  0.12504183231E+03 0.  0.
          5    1    3    3  502    0 -0.64242153044E+02 -0.94579495803E+02 -0.14480760234E+04  0.14525887158E+04  0.41800000000E+01 0.  1.
         -5    1    3    3    0  502  0.56809905388E+02 -0.87735750833E+02 -0.99699521200E+03  0.10024678810E+04  0.41800000000E+01 0.  1.
        -11    1    1    2    0    0  0.27851905902E+02  0.68522877619E+02 -0.30017894152E+03  0.30915774347E+03  0.00000000000E+00 0. -1.
         11    1    1    2    0    0 -0.20419658246E+02  0.11379236902E+03 -0.17924989874E+03  0.21329836353E+03  0.00000000000E+00 0.  1.
</event>
<event>
 6    1  0.1538147E-010  0.1459999E+03  0.7561462E-02  0.1205476E+00
          2   -1    0    0  501    0  0.00000000000E+00  0.00000000000E+00  0.15600446597E+04  0.15600446597E+04  0.00000000000E+00 0. -1.
         -2   -1    0    0    0  501 -0.00000000000E+00 -0.00000000000E+00 -0.15917496085E+02  0.15917496085E+02  0.00000000000E+00 0.  1.
          5    1    1    2  502    0 -0.59338009437E+02  0.50042078892E+02  0.35402308137E+03  0.36245692650E+03  0.41800000000E+01 0. -1.
         -5    1    1    2    0  502 -0.49900443357E+02 -0.70978790083E+02  0.59240082590E+03  0.59873554581E+03  0.41800000000E+01 0. -1.
        -11    1    1    2    0    0  0.70585424835E+01 -0.16998452427E+02  0.21294951671E+02  0.28146853707E+02  0.00000000000E+00 0.  1.
         11    1    1    2    0    0  0.10217991031E+03  0.37935163618E+02  0.57640830467E+03  0.58662282976E+03  0.00000000000E+00 0. -1.
</event>
<event>
 7    1  0.1538147E-010  0.1164090E+03  0.7561462E-02  0.1249142E+00
          4   -1    0    0  501    0  0.00000000000E+00  0.00000000000E+00  0.49108112979E+02  0.49108112979E+02  0.00000000000E+00 0. -1.
         -4   -1    0    0    0  501 -0.00000000000E+00 -0.00000000000E+00 -0.27890847035E+03  0.27890847035E+03  0.00000000000E+00 0.  1.
         25    2    1    2    0    0  0.42864387577E+02  0.93455833083E+01 -0.12568525015E+03  0.18265335381E+03  0.12506306370E+03 0.  0.
          5    1    3    3  502    0 -0.44316124927E+02 -0.14392577947E+01 -0.39800270945E+02  0.59728756548E+02  0.41800000000E+01 0.  1.
         -5    1    3    3    0  502  0.87180512503E+02  0.10784841103E+02 -0.85884979208E+02  0.12292459726E+03  0.41800000000E+01 0.  1.
        -11    1    1    2    0    0 -0.56803283822E+01 -0.47044302546E+02 -0.59914135928E+02  0.76388063312E+02  0.00000000000E+00 0.  1.
         11    1    1    2    0    0 -0.37184059195E+02  0.37698719238E+02 -0.44200971289E+02  0.68975166207E+02  0.00000000000E+00 0. -1.
</event>
<event>
 7    1  0.1538147E-010  0.9712150E+02  0.7561462E-02  0.1286468E+00
         -1   -1    0    0    0  501 -0.00000000000E+00  0.00000000000E+00  0.35732428908E+02  0.35732428908E+02  0.00000000000E+00 0.  1.
          1   -1    0    0  501    0  0.00000000000E+00 -0.00000000000E+00 -0.40175348494E+03  0.40175348494E+03  0.00000000000E+00 0. -1.
         25    2    1    2    0    0  0.36429010861E+02  0.35854756085E+02 -0.20928196776E+03  0.24909539563E+03  0.12504774180E+03 0.  0.
          5    1    3    3  502    0 -0.10685325038E+02 -0.16308200672E+02  0.73926180664E+01  0.21266329777E+02  0.41800000000E+01 0. -1.
         -5    1    3    3    0  502  0.47114335898E+02  0.52162956757E+02 -0.21667458582E+03  0.22782906585E+03  0.41800000000E+01 0. -1.
        -11    1    1    2    0    0  0.18400842605E+02  0.18915685147E+02 -0.31277438824E+02  0.40922760568E+02  0.00000000000E+00 0.  1.
         11    1    1    2    0    0 -0.54829853465E+02 -0.54770441232E+02 -0.12546164945E+03  0.14746775765E+03  0.00000000000E+00 0. -1.
</event>
<event>
 6    1  0.1538147E-010  0.1064023E+03  0.7561462E-02  0.1267381E+00
          4   -1    0    0  501    0  0.00000000000E+00  0.00000000000E+00  0.30228866545E+02  0.30228866545E+02  0.00000000000E+00 0.  1.
         -4   -1    0    0    0  501 -0.00000000000E+00 -0.00000000000E+00 -0.44704838491E+03  0.44704838491E+03  0.00000000000E+00 0. -1.
          5    1    1    2  502    0  0.13856487218E+02  0.61933343383E+02 -0.21235211228E+03  0.22167235563E+03  0.41800000000E+01 0.  1.
         -5    1    1    2    0  502  0.26269393746E+02 -0.42579693838E+02 -0.42523490785E+02  0.65793852628E+02  0.41800000000E+01 0.  1.
        -11    1    1    2    0    0 -0.84004743876E+01 -0.52469047310E+02 -0.85584504748E+02  0.10073865370E+03  0.00000000000E+00 0.  1.
         11    1    1    2    0    0 -0.31725406577E+02  0.33115397764E+02 -0.76359410554E+02  0.89072389503E+02  0.00000000000E+00 0. -1.
</event>
<event>
 6    1  0.1538147E-010  0.1688581E+03  0.7561462E-02  0.1179044E+00
         -2   -1    0    0    0  501 -0.00000000000E+00  0.00000000000E+00  0.57211886916E+02  0.57211886916E+02  0.00000000000E+00 0.  1.
          2   -1    0    0  501    0  0.00000000000E+00 -0.00000000000E+00 -0.59733049338E+03  0.59733049338E+03  0.00000000000E+00 0. -1.
          5    1    1    2  502    0  0.97513878156E+01  0.38754055202E+02 -0.62476549877E+02  0.74281613091E+02  0.41800000000E+01 0.  1.
         -5    1    1    2    0  502  0.13301268011E+03 -0.71072822529E+02 -0.16045151901E+03  0.22024050836E+03  0.41800000000E+01 0.  1.
        -11    1    1    2    0    0 -0.26722138336E+02  0.97925033464E+01 -0.88604195717E+01  0.29807261431E+02  0.00000000000E+00 0.  1.
         11    1    1    2    0    0 -0.11604192958E+03  0.22526263980E+02 -0.30833011801E+03  0.33021299741E+03  0.00000000000E+00 0. -1.
</event>
<event>
 6    1  0.1538147E-010  0.9727676E+02  0.7561462E-02  0.1286129E+00
         -1   -1    0    0    0  501 -0.00000000000E+00  0.00000000000E+00  0.26433751695E+02  0.26433751695E+02  0.00000000000E+00 0.  1.
          1   -1    0    0  501    0  0.00000000000E+00 -0.00000000000E+00 -0.50772700355E+03  0.50772700355E+03  0.00000000000E+00 0. -1.
          5    1    1    2  502    0 -0.31080549644E+02  0.15213127143E+02 -0.24489508236E+03  0.24736312087E+03  0.41800000000E+01 0.  1.
         -5    1    1    2    0  502  0.39985529919E+02 -0.50946923787E+02 -0.82119423725E+02  0.10466854255E+03  0.41800000000E+01 0.  1.
        -11    1    1    2    0    0 -0.22208571852E+02  0.61726037557E+02 -0.88506482504E+02  0.11016679092E+03  0.00000000000E+00 0.  1.
         11    1    1    2    0    0  0.13303591577E+02 -0.25992240912E+02 -0.65772263265E+02  0.71962300904E+02  0.00000000000E+00 0. -1.
</event>
<event>
 7    1  0.1538147E-010  0.8393734E+02  0.7561462E-02  0.1318235E+00
          1   -1    0    0  501    0  0.00000000000E+00  0.00000000000E+00  0.99764951557E+02  0.99764951557E+02  0.00000000000E+00 0. -1.
         -1   -1    0    0    0  501 -0.00000000000E+00 -0.00000000000E+00 -0.12229537088E+03  0.12229537088E+03  0.00000000000E+00 0.  1.
         25    2    1    2    0    0  0.16513020315E+02  0.13306407038E+02 -0.82198701935E+01  0.12711944990E+03  0.12506817328E+03 0.  0.
          5    1    3    3  502    0  0.11233933456E+02 -0.41736921555E+02  0.35831219088E+02  0.56298495034E+02  0.41800000000E+01 0. -1.
         -5    1    3    3    0  502  0.52790868599E+01  0.55043328593E+02 -0.44051089281E+02  0.70820954862E+02  0.41800000000E+01 0. -1.
        -11    1    1    2    0    0  0.24884289084E+02 -0.11881146399E+02  0.25449771507E+02  0.37524396767E+02  0.00000000000E+00 0. -1.
         11    1    1    2    0    0 -0.41397309400E+02 -0.14252606385E+01 -0.39760320637E+02  0.57416475776E+02  0.00000000000E+00 0.  1.
</event>
<event>
 7    1  0.2139492E-010  0.1010327E+03  0.7561462E-02  0.1278139E+00
          1   -1    0    0  501    0  0.00000000000E+00  0.00000000000E+00  0.28359072671E+03  0.28359072671E+03  0.00000000000E+00 0. -1.
         -1   -1    0    0    0  501 -0.00000000000E+00 -0.00000000000E+00 -0.70309685572E+02  0.70309685572E+02  0.00000000000E+00 0.  1.
         25    2    1    2    0    0 -0.77415873498E+02 -0.30400144355E+02  0.16379535754E+03  0.22225912599E+03  0.12511120529E+03 0.  0.
          5    1    3    3  502    0 -0.80314590600E+02 -0.52431958051E+02  0.17299398072E+03  0.19784825866E+03  0.41800000000E+01 0. -1.
         -5    1    3    3    0  502  0.28987171022E+01  0.22031813696E+02 -0.91986231810E+01  0.24410867334E+02  0.41800000000E+01 0. -1.
        -11    1    1    2    0    0  0.45949035236E+02  0.14432241721E+02 -0.21212157652E+02  0.52626600427E+02  0.00000000000E+00 0.  1.
         11    1    1    2    0    0  0.31466838261E+02  0.15967902634E+02  0.70697841250E+02  0.79014685863E+02  0.00000000000E+00 0. -1.
</event>
<event>
 6    1  0.1538147E-010  0.1378623E+03  0.7561462E-02  0.1216235E+00
         -1   -1    0    0    0  501 -0.00000000000E+00  0.00000000000E+00  0.15746955623E+03  0.15746955623E+03  0.00000000000E+00 0.  1.
          1   -1    0    0  501    0  0.00000000000E+00 -0.00000000000E+00 -0.34959601119E+03  0.34959601119E+03  0.00000000000E+00 0. -1.
          5    1    1    2  502    0  0.23106183652E+02  0.60605069776E+00  0.56300277921E+02  0.61003743445E+02  0.41800000000E+01 0.  1.
         -5    1    1    2    0  502 -0.63864754486E+02  0.11178593823E+03  0.28276485792E+02  0.13187810622E+03  0.41800000000E+01 0.  1.
        -11    1    1    2    0    0  0.26216678689E+02 -0.30357286892E+02 -0.21052410634E+02  0.45299923868E+02  0.00000000000E+00 0.  1.
         11    1    1    2    0    0  0.14541892144E+02 -0.82034702031E+02 -0.25565080804E+03  0.26888379389E+03  0.00000000000E+00 0. -1.
</event>
<event>
 6    1  0.1538147E-010  0.1660335E+03  0.7561462E-02  0.1182049E+00
          2   -1    0    0  501    0  0.00000000000E+00  0.00000000000E+00  0.25959778446E+03  0.25959778446E+03  0.00000000000E+00 0. -1.
         -2   -1    0    0    0  501 -0.00000000000E+00 -0.00000000000E+00 -0.14410398187E+03  0.14410398187E+03  0.00000000000E+00 0.  1.
          5    1    1    2  502    0 -0.76070093324E+02 -0.11157128715E+03  0.69455525324E+02  0.15190903072E+03  0.41800000000E+01 0.  1.
         -5    1    1    2    0  502 -0.34632372148E+02  0.15874839618E+01 -0.36625744924E+02  0.50604731965E+02  0.41800000000E+01 0.  1.
        -11    1    1    2    0    0  0.10826523847E+02  0.36440023386E+02 -0.17416566283E+02  0.41814180658E+02  0.00000000000E+00 0.  1.
         11    1    1    2    0    0  0.99875941625E+02  0.73543779807E+02  0.10008058848E+03  0.15937382299E+03  0.00000000000E+00 0. -1.
</event>
<event>
 7    1  0.1538147E-010  0.8372515E+02  0.7561462E-02  0.1318800E+00
         -2   -1    0    0    0  501 -0.00000000000E+00  0.00000000000E+00  0.50188002559E+02  0.50188002559E+02  0.00000000000E+00 0.  1.
          2   -1    0    0  501    0  0.00000000000E+00 -0.00000000000E+00 -0.36589166475E+03  0.36589166475E+03  0.00000000000E+00 0. -1.
         25    2    1    2    0    0 -0.44493334046E+02 -0.11763952828E+02 -0.71377480143E+02  0.15117291547E+03  0.12506181807E+03 0.  0.
          5    1    3    3  502    0 -0.57829822615E+02 -0.56603155293E+01  0.17632160023E+02  0.60866189487E+02  0.41800000000E+01 0.  1.
         -5    1    3    3    0  502  0.13336488570E+02 -0.61036372992E+01 -0.89009640166E+02  0.90306725985E+02  0.41800000000E+01 0.  1.
        -11    1    1    2    0    0 -0.19698089597E+02 -0.14630481313E+02 -0.12033967637E+03  0.12281572955E+03  0.00000000000E+00 0. -1.
         11    1    1    2    0    0  0.64191423643E+02  0.26394434142E+02 -0.12398650568E+03  0.14209102228E+03  0.00000000000E+00 0.  1.
</event>
<event>
 6    1  0.1538147E-010  0.2056494E+03  0.7561462E-02  0.1145058E+00
          4   -1    0    0  501    0  0.00000000000E+00  0.00000000000E+00  0.15694188188E+04  0.15694188188E+04  0.00000000000E+00 0. -1.
         -4   -1    0    0    0  501 -0.00000000000E+00 -0.00000000000E+00 -0.27713619910E+02  0.27713619910E+02  0.00000000000E+00 0.  1.
          5    1    1    2  502    0  0.13435982270E+03  0.35145496320E+02  0.42818292345E+03  0.45016203328E+03  0.41800000000E+01 0. -1.
         -5    1    1    2    0  502  0.15171900846E+01  0.76777851507E+02  0.24811915773E+03  0.25976475738E+03  0.41800000000E+01 0. -1.
        -11    1    1    2    0    0  0.74951681926E+01 -0.28722381197E+02  0.12612519237E+03  0.12957128107E+03  0.00000000000E+00 0. -1.
         11    1    1    2    0    0 -0.14337218098E+03 -0.83200966630E+02  0.73927792530E+03  0.75763436693E+03  0.00000000000E+00 0.  1.
</event>
<event>
 7    1  0.1538147E-010  0.3410387E+03  0.7561462E-02  0.1066354E+00
          1   -1    0    0  501    0  0.00000000000E+00  0.00000000000E+00  0.64307128745E+03  0.64307128745E+03  0.00000000000E+00 0. -1.
         -1   -1    0    0    0  501 -0.00000000000E+00 -0.00000000000E+00 -0.19422477843E+03  0.19422477843E+03  0.00000000000E+00 0.  1.
         25    2    1    2    0    0  0.64731288854E+02  0.32858785080E+03  0.19396942674E+03  0.40672153260E+03  0.12505259342E+03 0.  0.
          5    1    3    3  502    0  0.46799078734E+02  0.22804232803E+03  0.19620604657E+03  0.30447946114E+03  0.41800000000E+01 0. -1.
         -5    1    3    3    0  502  0.17932210120E+02  0.10054552276E+03 -0.22366198345E+01  0.10224207146E+03  0.41800000000E+01 0. -1.
        -11    1    1    2    0    0 -0.69024231866E+02 -0.12030091156E+03  0.10309167072E+03  0.17281361775E+03  0.00000000000E+00 0.  1.
         11    1    1    2    0    0  0.42929430124E+01 -0.20828693923E+03  0.15178541156E+03  0.25776091554E+03  0.00000000000E+00 0. -1.
</event>
<event>
 6    1  0.1538147E-010  0.1145526E+03  0.7561462E-02  0.1252364E+00
          4   -1    0    0  501    0  0.00000000000E+00  0.00000000000E+00  0.86597963572E+02  0.86597963572E+02  0.00000000000E+00 0. -1.
         -4   -1    0    0    0  501 -0.00000000000E+00 -0.00000000000E+00 -0.21004395462E+03  0.21004395462E+03  0.00000000000E+00 0.  1.
          5    1    1    2  502    0 -0.33308848390E+02 -0.87090362100E+00  0.17311689932E+02  0.37781011930E+02  0.41800000000E+01 0.  1.
         -5    1    1    2    0  502  0.91401003814E+02  0.30877859800E+02 -0.42662703974E+02  0.10557066086E+03  0.41800000000E+01 0.  1.
        -11    1    1    2    0    0 -0.74667839491E+02 -0.14107244774E+02 -0.30468314742E+02  0.81869523100E+02  0.00000000000E+00 0. -1.
         11    1    1    2    0    0  0.16575684067E+02 -0.15899711405E+02 -0.67626662262E+02  0.71420722299E+02  0.00000000000E+00 0.  1.
</event>
<event>
 6    1  0.1538147E-010  0.1326542E+03  0.7561462E-02  0.1223570E+00
          2   -1    0    0  501    0  0.00000000000E+00  0.00000000000E+00  0.10940469467E+03  0.10940469467E+03  0.00000000000E+00 0. -1.
         -2   -1    0    0    0  501 -0.00000000000E+00 -0.00000000000E+00 -0.20272217901E+03  0.20272217901E+03  0.00000000000E+00 0.  1.
          5    1    1    2  502    0 -0.20773050779E+02  0.72407542780E+02 -0.33565675309E+02  0.82574202079E+02  0.41800000000E+01 0. -1.
         -5    1    1    2    0  502 -0.69547978535E+02 -0.32620992221E+02 -0.55745854436E+02  0.95005911072E+02  0.41800000000E+01 0. -1.
        -11    1    1    2    0    0  0.44834356147E+02  0.95357080944E+01  0.34333977234E+02  0.57270159880E+02  0.00000000000E+00 0. -1.
         11    1    1    2    0    0  0.45486673167E+02 -0.49322258654E+02 -0.38339931838E+02  0.77276600649E+02  0.00000000000E+00 0.  1.
</event>
<event>
 7    1  0.1538147E-010  0.1910851E+03  0.7561462E-02  0.1157486E+00
          2   -1    0    0  501    0  0.00000000000E+00  0.00000000000E+00  0.13832292762E+04  0.13832292762E+04  0.00000000000E+00 0. -1.
         -2   -1    0    0    0  501 -0.00000000000E+00 -0.00000000000E+00 -0.33547188650E+02  0.33547188650E+02  0.00000000000E+00 0.  1.
         25    2    1    2    0    0  0.79756957391E+02  0.15257447423E+03  0.91166315072E+03  0.93617548224E+03  0.12511870653E+03 0.  0.
          5    1    3    3  502    0 -0.14195675880E+02 -0.72073466155E+01  0.20280266372E+03  0.20346954531E+03  0.41800000000E+01 0. -1.
         -5    1    3    3    0  502  0.93952633271E+02  0.15978182085E+03  0.70886048700E+03  0.73270593693E+03  0.41800000000E+01 0. -1.
        -11    1    1    2    0    0 -0.85215829537E+01 -0.73034138248E+02  0.88096651088E+02  0.11475026213E+03  0.00000000000E+00 0. -1.
         11    1    1    2    0    0 -0.71235374437E+02 -0.79540335982E+02  0.34992228573E+03  0.36585072047E+03  0.00000000000E+00 0.  1.
</event>
<event>
 7    1  0.1538147E-010  0.3111393E+03  0.7561462E-02  0.1079801E+00
          1   -1    0    0  501    0  0.00000000000E+00  0.00000000000E+00  0.32804250942E+03  0.32804250942E+03  0.00000000000E+00 0. -1.
         -1   -1    0    0    0  501 -0.00000000000E+00 -0.00000000000E+00 -0.32191831777E+03  0.32191831777E+03  0.00000000000E+00 0.  1.
         25    2    1    2    0    0  0.23394565520E+03 -0.18234654202E+03  0.78150584034E+02  0.33128127137E+03  0.12513567038E+03 0.  0.
          5    1    3    3  502    0  0.51322111645E+02  0.33299929326E+01 -0.16459107190E+02  0.54161080179E+02  0.41800000000E+01 0. -1.
         -5    1    3    3    0  502  0.18262354355E+03 -0.18567653495E+03  0.94609691225E+02  0.27712019119E+03  0.41800000000E+01 0. -1.
        -11    1    1    2    0    0 -0.10033964604E+03  0.13554466132E+03 -0.45185707496E+02  0.17459137419E+03  0.00000000000E+00 0. -1.
         11    1    1    2    0    0 -0.13360600916E+03  0.46801880693E+02 -0.26840684895E+02  0.14408818163E+03  0.00000000000E+00 0.  1.
</event>
<event>
 6    1  0.1538147E-010  0.1364245E+03  0.7561462E-02  0.1218223E+00
          1   -1    0    0  501    0  0.00000000000E+00  0.00000000000E+00  0.61434779801E+02  0.61434779801E+02  0.00000000000E+00 0. -1.
         -1   -1    0    0    0  501 -0.00000000000E+00 -0.00000000000E+00 -0.39946521293E+03  0.39946521293E+03  0.00000000000E+00 0.  1.
          5    1    1    2  502    0 -0.28742278937E+02  0.17223812380E+02 -0.26245856532E+02  0.42767928363E+02  0.41800000000E+01 0.  1.
         -5    1    1    2    0  502  0.26585814495E+02 -0.11814888090E+03 -0.22795984998E+03  0.25816492634E+03  0.41800000000E+01 0.  1.
        -11    1    1    2    0    0 -0.28119175353E+02  0.31844465352E+02 -0.72032953066E+02  0.83627174552E+02  0.00000000000E+00 0.  1.
         11    1    1    2    0    0  0.30275639795E+02  0.69080603172E+02 -0.11791773553E+02  0.76339963474E+02  0.00000000000E+00 0. -1.
</event>
<event>
 7    1  0.1538147E-010  0.1307018E+03  0.7561462E-02  0.1226418E+00
          2   -1    0    0  501    0  0.00000000000E+00  0.00000000000E+00  0.22214380850E+03  0.22214380850E+03  0.00000000000E+00 0. -1.
         -2   -1    0    0    0  501 -0.00000000000E+00 -0.00000000000E+00 -0.15401163113E+03  0.15401163113E+03  0.00000000000E+00 0.  1.
         25    2    1    2    0    0 -0.83284379738E+02  0.23212246921E+01 -0.90241206551E+02  0.17529066809E+03  0.12506665009E+03 0.  0.
          5    1    3    3  502    0 -0.11008929207E+03  0.71328961300E+01 -0.38952045029E+02  0.11706948640E+03  0.41800000000E+01 0. -1.
         -5    1    3    3    0  502  0.26804912328E+02 -0.48116714379E+01 -0.51289161521E+02  0.58221181683E+02  0.41800000000E+01 0. -1.
        -11    1    1    2    0    0  0.14505666328E+02 -0.41732687571E+02  0.60542725832E+02  0.74949671239E+02  0.00000000000E+00 0. -1.
         11    1    1    2    0    0  0.68778713410E+02  0.39411462879E+02  0.97830658085E+02  0.12591510031E+03  0.00000000000E+00 0.  1.
</event>
<event>
 7    1  0.1538147E-010  0.2190007E+03  0.7561462E-02  0.1134630E+00
         -1   -1    0    0    0  501 -0.00000000000E+00  0.00000000000E+00  0.54632253741E+03  0.54632253741E+03  0.00000000000E+00 0.  1.
          1   -1    0    0  501    0  0.00000000000E+00 -0.00000000000E+00 -0.10573070453E+03  0.10573070453E+03  0.00000000000E+00 0. -1.
         25    2    1    2    0    0 -0.20148845335E+03  0.17332155524E+02  0.13266076583E+03  0.27228437965E+03  0.12506759837E+03 0.  0.
          5    1    3    3  502    0 -0.10606534984E+03 -0.46891048395E+02  0.34640361850E+02  0.12110349262E+03  0.41800000000E+01 0. -1.
         -5    1    3    3    0  502 -0.95423103505E+02  0.64223203920E+02  0.98020403979E+02  0.15118088702E+03  0.41800000000E+01 0. -1.
        -11    1    1    2    0    0  0.11224386951E+03 -0.31305031981E+02  0.23983667551E+03  0.26664643667E+03  0.00000000000E+00 0.  1.
         11    1    1    2    0    0  0.89244583839E+02  0.13972876456E+02  0.68094391530E+02  0.11312242562E+03  0.00000000000E+00 0. -1.
</event>
<event>
 6    1  0.1538147E-010  0.1050401E+03  0.7561462E-02  0.1270041E+00
         -1   -1    0    0    0  501 -0.00000000000E+00  0.00000000000E+00  0.86072190601E+02  0.86072190601E+02  0.00000000000E+00 0.  1.
          1   -1    0    0  501    0  0.00000000000E+00 -0.00000000000E+00 -0.17090543418E+03  0.17090543418E+03  0.00000000000E+00 0. -1.
          5    1    1    2  502    0 -0.41901982478E+02 -0.57430875327E+02 -0.77629282915E+02  0.10534637888E+03  0.41800000000E+01 0. -1.
         -5    1    1    2    0  502 -0.69556921160E+01  0.33447487093E+02  0.23157277147E+02  0.41483104157E+02  0.41800000000E+01 0. -1.
        -11    1    1    2    0    0  0.50112790934E+02  0.54423721966E+02 -0.29569215876E+02  0.79671650262E+02  0.00000000000E+00 0.  1.
         11    1    1    2    0    0 -0.12551163402E+01 -0.30440333732E+02 -0.79202193860E+00  0.30476491489E+02  0.00000000000E+00 0. -1.
</event>
<event>
 7    1  0.1538147E-010  0.1008104E+03  0.7561462E-02  0.1278601E+00
          2   -1    0    0  501    0  0.00000000000E+00  0.00000000000E+00  0.13765362062E+02  0.13765362062E+02  0.00000000000E+00 0. -1.
         -2   -1    0    0    0  501 -0.00000000000E+00 -0.00000000000E+00 -0.97149359722E+03  0.97149359722E+03  0.00000000000E+00 0.  1.
         25    2    1    2    0    0 -0.35237064266E+02  0.32407049149E+01 -0.45540033207E+03  0.47358183343E+03  0.12505253952E+03 0.  0.
          5    1    3    3  502    0  0.21074951353E+02 -0.31990257922E+02 -0.32403293506E+03  0.32631632748E+03  0.41800000000E+01 0.  1.
         -5    1    3    3    0  502 -0.56312015619E+02  0.35230962837E+02 -0.13136739701E+03  0.14726550595E+03  0.41800000000E+01 0.  1.
        -11    1    1    2    0    0  0.20464835073E+02  0.43196311680E+02 -0.21530587109E+03  0.22054783822E+03  0.00000000000E+00 0. -1.
         11    1    1    2    0    0  0.14772229193E+02 -0.46437016595E+02 -0.28702203200E+03  0.29112928763E+03  0.00000000000E+00 0.  1.
</event>
<event>
 6    1  0.1538147E-010  0.1080132E+03  0.7561462E-02  0.1264294E+00
         -2   -1    0    0    0  501 -0.00000000000E+00  0.00000000000E+00  0.24587548170E+02  0.24587548170E+02  0.00000000000E+00 0. -1.
          2   -1    0    0  501    0  0.00000000000E+00 -0.00000000000E+00 -0.51988975031E+03  0.51988975031E+03  0.00000000000E+00 0.  1.
          5    1    1    2  502    0  0.45225760987E+02 -0.65724223075E-01 -0.14476956384E+03  0.15172696791E+03  0.41800000000E+01 0. -1.
         -5    1    1    2    0  502 -0.75048675402E+02 -0.13912613576E+02 -0.10580790854E+03  0.13053218149E+03  0.41800000000E+01 0. -1.
        -11    1    1    2    0    0 -0.30472115618E+02  0.14776511683E+02 -0.86748408490E+02  0.93124548339E+02  0.00000000000E+00 0.  1.
         11    1    1    2    0    0  0.60295030033E+02 -0.79817388402E+00 -0.15797632128E+03  0.16909360075E+03  0.00000000000E+00 0. -1.
</event>
<event>
 7    1  0.1538147E-010  0.1058913E+03  0.7561462E-02  0.1268373E+00
         -1   -1    0    0    0  501 -0.00000000000E+00  0.00000000000E+00  0.11433687708E+03  0.11433687708E+03  0.00000000000E+00 0.  1.
          1   -1    0    0  501    0  0.00000000000E+00 -0.00000000000E+00 -0.14592815729E+03  0.14592815729E+03  0.00000000000E+00 0. -1.
         25    2    1    2    0    0 -0.58339344521E+02 -0.41273316585E+01  0.21585416334E+02  0.13981084839E+03  0.12514243543E+03 0.  0.
          5    1    3    3  502    0 -0.94742947955E+02  0.81860079589E+01 -0.70083185146E+00  0.95190338159E+02  0.41800000000E+01 0.  1.
         -5    1    3    3    0  502  0.36403603434E+02 -0.12313339617E+02  0.22286248186E+02  0.44620510236E+02  0.41800000000E+01 0.  1.
        -11    1    1    2    0    0  0.60464093173E+02 -0.12024005918E+02 -0.72508784580E+02  0.95173563151E+02  0.00000000000E+00 0. -1.
         11    1    1    2    0    0 -0.21247486519E+01  0.16151337576E+02  0.19332088037E+02  0.25280622820E+02  0.00000000000E+00 0.  1.
</event>
<event>
 6    1  0.1538147E-010  0.2582539E+03  0.7561462E-02  0.1108197E+00
          3   -1    0    0  501    0  0.00000000000E+00  0.00000000000E+00  0.94906327048E+02  0.94906327048E+02  0.00000000000E+00 0. -1.
         -3   -1    0    0    0  501 -0.00000000000E+00 -0.00000000000E+00 -0.78001840971E+03  0.78001840971E+03  0.00000000000E+00 0.  1.
          5    1    1    2  502    0 -0.25334550673E+02  0.38005416094E+01 -0.87526976391E+02  0.91294729150E+02  0.41800000000E+01 0. -1.
         -5    1    1    2    0  502 -0.25239727447E+02 -0.23559831799E+03 -0.38500639739E+03  0.45209623944E+03  0.41800000000E+01 0. -1.
        -11    1    1    2    0    0  0.70523980713E+02  0.21848222889E+03 -0.18395775137E+03  0.29419138411E+03  0.00000000000E+00 0.  1.
         11    1    1    2    0    0 -0.19949702594E+02  0.13315547488E+02 -0.28620957509E+02  0.37342384059E+02  0.00000000000E+00 0. -1.
</event>
<event>
 7    1  0.1538147E-010  0.1130069E+03  0.7561462E-02  0.1255101E+00
         -2   -1    0    0    0  501 -0.00000000000E+00  0.00000000000E+00  0.67913383776E+02  0.67913383776E+02  0.00000000000E+00 0. -1.
          2   -1    0    0  501    0  0.00000000000E+00 -0.00000000000E+00 -0.33675094680E+03  0.33675094680E+03  0.00000000000E+00 0.  1.
         25    2    1    2    0    0  0.42545093364E+02 -0.29950937823E+02 -0.26668518364E+03  0.29911093046E+03  0.12505685868E+03 0.  0.
          5    1    3    3  502    0  0.80815313096E+02 -0.34259963949E+02 -0.12905601255E+03  0.15613387440E+03  0.41800000000E+01 0.  1.
         -5    1    3    3    0  502 -0.38270219733E+02  0.43090261261E+01 -0.13762917110E+03  0.14297705606E+03  0.41800000000E+01 0.  1.
        -11    1    1    2    0    0 -0.50666844756E+02  0.53980401506E+02 -0.17274895469E+02  0.76022594784E+02  0.00000000000E+00 0.  1.
         11    1    1    2    0    0  0.81217513926E+01 -0.24029463682E+02  0.15122516085E+02  0.29530805328E+02  0.00000000000E+00 0. -1.
</event>
<event>
 6    1  0.1538147E-010  0.9828110E+02  0.7561462E-02  0.1283953E+00
         -1   -1    0    0    0  501 -0.00000000000E+00  0.00000000000E+00  0.25327699297E+02  0.25327699297E+02  0.00000000000E+00 0.  1.
          1   -1    0    0  501    0  0.00000000000E+00 -0.00000000000E+00 -0.70710312490E+03  0.70710312490E+03  0.00000000000E+00 0. -1.
          5    1    1    2  502    0 -0.32442640853E+02 -0.29647199199E+02 -0.32109609978E+02  0.54589200570E+02  0.41800000000E+01 0.  1.
         -5    1    1    2    0  502  0.24712364972E+02 -0.37514866667E+02 -0.35284778667E+03  0.35572053520E+03  0.41800000000E+01 0.  1.
        -11    1    1    2    0    0 -0.32358384969E+02  0.41619947201E+01 -0.27583116629E+02  0.42722542069E+02  0.00000000000E+00 0.  1.
         11    1    1    2    0    0  0.40088660850E+02  0.63000071146E+02 -0.26923491233E+03  0.27939854636E+03  0.00000000000E+00 0. -1.
</event>
<event>
 7    1  0.1538147E-010  0.1007654E+03  0.7561462E-02  0.1278695E+00
         -2   -1    0    0    0  501 -0.00000000000E+00  0.00000000000E+00  0.11452636321E+03  0.11452636321E+03  0.00000000000E+00 0.  1.
          2   -1    0    0  501    0  0.00000000000E+00 -0.00000000000E+00 -0.18997583405E+03  0.18997583405E+03  0.00000000000E+00 0. -1.
         25    2    1    2    0    0 -0.81905571847E+01  0.11447443828E+02 -0.14261210258E+03  0.19024551553E+03  0.12512799519E+03 0.  0.
          5    1    3    3  502    0 -0.79227844799E+01 -0.52745192417E+02 -0.98984686948E+02  0.11251784964E+03  0.41800000000E+01 0.  1.
         -5    1    3    3    0  502 -0.26777270477E+00  0.64192636245E+02 -0.43627415631E+02  0.77727665892E+02  0.41800000000E+01 0.  1.
        -11    1    1    2    0    0  0.44262115183E+02 -0.16581640584E+02  0.61215087689E+02  0.77339334143E+02  0.00000000000E+00 0.  1.
         11    1    1    2    0    0 -0.36071557998E+02  0.51341967558E+01  0.59475440444E+01  0.36917347588E+02  0.00000000000E+00 0. -1.
</event>
<event>
 7    1  0.1538147E-010  0.1105082E+03  0.7561462E-02  0.1259632E+00
          3   -1    0    0  501    0  0.00000000000E+00  0.00000000000E+00  0.41607694776E+03  0.41607694776E+03  0.00000000000E+00 0. -1.
         -3   -1    0    0    0  501 -0.00000000000E+00 -0.00000000000E+00 -0.30506166848E+02  0.30506166848E+02  0.00000000000E+00 0.  1.
         25    2    1    2    0    0  0.26616461527E+02  0.58442990993E+01  0.24460760382E+03  0.27607329911E+03  0.12506396275E+03 0.  0.
          5    1    3    3  502    0  0.75130961822E+02 -0.45480596922E+01  0.17446808575E+03  0.19005770602E+03  0.41800000000E+01 0. -1.
         -5    1    3    3    0  502 -0.48514500295E+02  0.10392358792E+02  0.70139518067E+02  0.86015593091E+02  0.41800000000E+01 0. -1.
        -11    1    1    2    0    0  0.32270426513E+02 -0.16106739673E+02  0.56677710760E+02  0.67180133873E+02  0.00000000000E+00 0.  1.
         11    1    1    2    0    0 -0.58886888041E+02  0.10262440573E+02  0.84285466331E+02  0.10332968162E+03  0.00000000000E+00 0. -1.
</event>
<event>
 7    1  0.2746825E-010  0.6649439E+02  0.7561462E-02  0.1372437E+00
          1   -1    0    0  501    0  0.00000000000E+00  0.00000000000E+00  0.34307684314E+02  0.34307684314E+02  0.00000000000E+00 0. -1.
         -1   -1    0    0    0  501 -0.00000000000E+00 -0.00000000000E+00 -0.36159886683E+03  0.36159886683E+03  0.00000000000E+00 0.  1.
         25    2    1    2    0    0  0.21298407842E+02 -0.52265111394E+01 -0.21653438675E+03  0.25104025145E+03  0.12511246384E+03 0.  0.
          5    1    3    3  502    0 -0.11976132274E+02 -0.40788647776E+02 -0.19133711457E+03  0.19604720182E+03  0.41800000000E+01 0. -1.
         -5    1    3    3    0  502  0.33274540116E+02  0.35562136637E+02 -0.25197272188E+02  0.54993049632E+02  0.41800000000E+01 0. -1.
        -11    1    1    2    0    0 -0.20717676562E+02 -0.12142470780E+02 -0.12188628363E+03  0.12422933573E+03  0.00000000000E+00 0.  1.
         11    1    1    2    0    0 -0.58073127953E+00  0.17368981920E+02  0.11129487861E+02  0.20636963968E+02  0.00000000000E+00 0. -1.
</event>
<event>
 7    1  0.1538147E-010  0.9650733E+02  0.7561462E-02  0.1287817E+00
          2   -1    0    0  501    0  0.00000000000E+00  0.00000000000E+00  0.98442302726E+03  0.98442302726E+03  0.00000000000E+00 0. -1.
         -2   -1    0    0    0  501 -0.00000000000E+00 -0.00000000000E+00 -0.10943414749E+03  0.10943414749E+03  0.00000000000E+00 0.  1.
         25    2    1    2    0    0 -0.54687848344E+01  0.69494882230E+02  0.94728542457E+03  0.95804533291E+03  0.12506693425E+03 0.  0.
          5    1    3    3  502    0  0.21988821291E+02  0.40847570867E+02  0.86835069106E+03  0.86959900378E+03  0.41800000000E+01 0. -1.
         -5    1    3    3    0  502 -0.27457606125E+02  0.28647311363E+02  0.78934733507E+02  0.88446329129E+02  0.41800000000E+01 0. -1.
        -11    1    1    2    0    0 -0.36199483007E+02 -0.18408108110E+02 -0.38709135544E+01  0.40795158854E+02  0.00000000000E+00 0. -1.
         11    1    1    2    0    0  0.41668267841E+02 -0.51086774120E+02 -0.68425631240E+02  0.95016682985E+02  0.00000000000E+00 0.  1.
</event>
<event>
 6    1  0.1538147E-010  0.1355562E+03  0.7561462E-02  0.1219437E+00
          1   -1    0    0  501    0  0.00000000000E+00  0.00000000000E+00  0.37338404160E+03  0.37338404160E+03  0.00000000000E+00 0. -1.
         -1   -1    0    0    0  501 -0.00000000000E+00 -0.00000000000E+00 -0.66437131347E+02  0.66437131347E+02  0.00000000000E+00 0.  1.
          5    1    1    2  502    0  0.10130621430E+03 -0.46267244647E+02  0.46305803395E+02  0.12068681291E+03  0.41800000000E+01 0. -1.
         -5    1    1    2    0  502 -0.32294530851E+02 -0.31287349132E+02  0.53905730552E+02  0.70321654737E+02  0.41800000000E+01 0. -1.
        -11    1    1    2    0    0  0.33407668943E+01  0.24643072438E+02  0.12518479326E+03  0.12763100801E+03  0.00000000000E+00 0. -1.
         11    1    1    2    0    0 -0.72352450345E+02  0.52911521340E+02  0.81550583046E+02  0.12118169728E+03  0.00000000000E+00 0.  1.
</event>
<event>
 7    1  0.1538147E-010  0.1164457E+03  0.7561462E-02  0.1249078E+00
         -2   -1    0    0    0  501 -0.00000000000E+00  0.00000000000E+00  0.41526153518E+02  0.41526153518E+02  0.00000000000E+00 0.  1.
          2   -1    0    0  501    0  0.00000000000E+00 -0.00000000000E+00 -0.45661256583E+03  0.45661256583E+03  0.00000000000E+00 0. -1.
         25    2    1    2    0    0  0.13221735676E+02  0.60963043149E+02 -0.32707638640E+03  0.35571362854E+03  0.12514757716E+03 0.  0.
          5    1    3    3  502    0 -0.16293846034E+01 -0.36046391870E+02 -0.13728237057E+03  0.14200675664E+03  0.41800000000E+01 0. -1.
         -5    1    3    3    0  502  0.14851120279E+02  0.97009435019E+02 -0.18979401583E+03  0.21370687190E+03  0.41800000000E+01 0. -1.
        -11    1    1    2    0    0  0.23007288241E+02 -0.57514388195E+02 -0.85986575942E+02  0.10597608883E+03  0.00000000000E+00 0. -1.
         11    1    1    2    0    0 -0.36229023916E+02 -0.34486549538E+01 -0.20234499704E+01  0.36449001971E+02  0.00000000000E+00 0.  1.
</event>
<event>
 6    1  0.1538147E-010  0.1902446E+03  0.7561462E-02  0.1158241E+00
         -2   -1    0    0    0  501 -0.00000000000E+00  0.00000000000E+00  0.31811002550E+03  0.31811002550E+03  0.00000000000E+00 0.  1.
          2   -1    0    0  501    0  0.00000000000E+00 -0.00000000000E+00 -0.27767833261E+03  0.27767833261E+03  0.00000000000E+00 0. -1.
          5    1    1    2  502    0  0.45698725273E+02 -0.72735460479E+02  0.15246511230E+03  0.17504828925E+03  0.41800000000E+01 0. -1.
         -5    1    1    2    0  502  0.11080441500E+03  0.19132435920E+02  0.90289386321E+02  0.14426820222E+03  0.41800000000E+01 0. -1.
        -11    1    1    2    0    0 -0.76995110159E+02  0.66106419178E+02 -0.14769578565E+03  0.17919919292E+03  0.00000000000E+00 0. -1.
         11    1    1    2    0    0 -0.79508030117E+02 -0.12503394619E+02 -0.54627020070E+02  0.97272673716E+02  0.00000000000E+00 0.  1.
</event>
<event>
 7    1  0.1538147E-010  0.7913737E+02  0.7561462E-02  0.1331517E+00
         -1   -1    0    0    0  501 -0.00000000000E+00  0.00000000000E+00  0.11789271806E+03  0.11789271806E+03  0.00000000000E+00 0.  1.
          1   -1    0    0  501    0  0.00000000000E+00 -0.00000000000E+00 -0.13164207815E+03  0.13164207815E+03  0.00000000000E+00 0. -1.
         25    2    1    2    0    0  0.66454239924E+02  0.78001958054E+01  0.20269721710E+02  0.14333344047E+03  0.12512635406E+03 0.  0.
          5    1    3    3  502    0  0.42941043588E+02 -0.27285213615E+01 -0.51339417639E+02  0.67116214559E+02  0.41800000000E+01 0.  1.
         -5    1    3    3    0  502  0.23513196336E+02  0.10528717167E+02  0.71609139348E+02  0.76217225909E+02  0.41800000000E+01 0.  1.
        -11    1    1    2    0    0 -0.61275976286E+01  0.21158264253E+02 -0.32506803079E+02  0.39267185350E+02  0.00000000000E+00 0. -1.
         11    1    1    2    0    0 -0.60326642295E+02 -0.28958460059E+02 -0.15122787213E+01  0.66934170396E+02  0.00000000000E+00 0.  1.
</event>
<event>
 7    1  0.1538147E-010  0.8949284E+02  0.7561462E-02  0.1304085E+00
         -2   -1    0    0    0  501 -0.00000000000E+00  0.00000000000E+00  0.74908863625E+02  0.74908863625E+02  0.00000000000E+00 0.  1.
          2   -1    0    0  501    0  0.00000000000E+00 -0.00000000000E+00 -0.21590844944E+03  0.21590844944E+03  0.00000000000E+00 0. -1.
         25    2    1    2    0    0  0.66656753221E+02 -0.63902651403E+01 -0.90579642404E+02  0.16836299338E+03  0.12512980333E+03 0.  0.
          5    1    3    3  502    0  0.73604917860E+02  0.91593179423E+01  0.18212909261E+01  0.74312627049E+02  0.41800000000E+01 0. -1.
         -5    1    3    3    0  502 -0.69481646388E+01 -0.15549583083E+02 -0.92400933330E+02  0.94050366327E+02  0.41800000000E+01 0. -1.
        -11    1    1    2    0    0 -0.26060462573E+02 -0.24791626593E+02  0.15353254766E+02  0.39108757211E+02  0.00000000000E+00 0.  1.
         11    1    1    2    0    0 -0.40596290648E+02  0.31181891733E+02 -0.65773198176E+02  0.83345562478E+02  0.00000000000E+00 0. -1.
</event>
<event>
 7    1  0.1538147E-010  0.8648376E+02  0.7561462E-02  0.1311597E+00
          1   -1    0    0  501    0  0.00000000000E+00  0.00000000000E+00  0.13428181865E+03  0.13428181865E+03  0.00000000000E+00 0. -1.
         -1   -1    0    0    0  501 -0.00000000000E+00 -0.00000000000E+00 -0.12282987304E+03  0.12282987304E+03  0.00000000000E+00 0.  1.
         25    2    1    2    0    0  0.23164448851E+02 -0.10801184984E-01  0.69122273759E+02  0.14476098632E+03  0.12506503357E+03 0.  0.
          5    1    3    3  502    0 -0.41724794628E+01  0.38294171504E+02  0.86213200886E+02  0.94520059052E+02  0.41800000000E+01 0.  1.
         -5    1    3    3    0  502  0.27336928314E+02 -0.38304972689E+02 -0.17090927128E+02  0.50240927265E+02  0.41800000000E+01 0.  1.
        -11    1    1    2    0    0  0.27765032821E+02 -0.17847208149E+02  0.48665807420E+00  0.33009948839E+02  0.00000000000E+00 0. -1.
         11    1    1    2    0    0 -0.50929481672E+02  0.17858009334E+02 -0.58156986224E+02  0.79340756534E+02  0.00000000000E+00 0.  1.
</event>
<event>
 7    1  0.1538147E-010  0.2720044E+03  0.7561462E-02  0.1100138E+00
         -2   -1    0    0    0  501 -0.00000000000E+00  0.00000000000E+00  0.58246469639E+03  0.58246469639E+03  0.00000000000E+00 0.  1.
          2   -1    0    0  501    0  0.00000000000E+00 -0.00000000000E+00 -0.15543903892E+03  0.15543903892E+03  0.00000000000E+00 0. -1.
         25    2    1    2    0    0 -0.21626182200E+03  0.14271418771E+03  0.10196282515E+03  0.30526853696E+03  0.12512372643E+03 0.  0.
          5    1    3    3  502    0 -0.43163413771E+02  0.60117070906E+02 -0.21441581814E+02  0.77164475851E+02  0.41800000000E+01 0. -1.
         -5    1    3    3    0  502 -0.17309840823E+03  0.82597116803E+02  0.12340440696E+03  0.22810406111E+03  0.41800000000E+01 0. -1.
        -11    1    1    2    0    0  0.10035027142E+03 -0.85082078696E+01  0.72748509688E+02  0.12423732224E+03  0.00000000000E+00 0. -1.
         11    1    1    2    0    0  0.11591155058E+03 -0.13420597984E+03  0.25231432263E+03  0.30839787611E+03  0.00000000000E+00 0.  1.
</event>
<event>
 7    1  0.1722835E-010  0.1358274E+03  0.7561462E-02  0.1219056E+00
          1   -1    0    0  501    0  0.00000000000E+00  0.00000000000E+00  0.40134198497E+03  0.40134198497E+03  0.00000000000E+00 0. -1.
         -1   -1    0    0    0  501 -0.00000000000E+00 -0.00000000000E+00 -0.68069626347E+02  0.68069626347E+02  0.00000000000E+00 0.  1.
         25    2    1    2    0    0  0.11959908064E+03 -0.33233387533E+02  0.19273105962E+03  0.26113746887E+03  0.12505645992E+03 0.  0.
          5    1    3    3  502    0  0.64664411210E+02 -0.41376818780E+02  0.19046765326E+03  0.20539943171E+03  0.41800000000E+01 0.  1.
         -5    1    3    3    0  502  0.54934669427E+02  0.81434312474E+01  0.22634063620E+01  0.55738037155E+02  0.41800000000E+01 0.  1.
        -11    1    1    2    0    0 -0.24060445643E+02 -0.18576518860E+02 -0.27016621863E+00  0.30398438896E+02  0.00000000000E+00 0.  1.
         11    1    1    2    0    0 -0.95538634995E+02  0.51809906393E+02  0.14081146522E+03  0.17787570356E+03  0.00000000000E+00 0. -1.
</event>
<event>
 6    1  0.1538147E-010  0.1101582E+03  0.7561462E-02  0.1260277E+00
         -1   -1    0    0    0  501 -0.00000000000E+00  0.00000000000E+00  0.22876882876E+03  0.22876882876E+03  0.00000000000E+00 0.  1.
          1   -1    0    0  501    0  0.00000000000E+00 -0.00000000000E+00 -0.70241114091E+02  0.70241114091E+02  0.00000000000E+00 0. -1.
          5    1    1    2  502    0  0.33337377691E+02 -0.56243391805E+02 -0.74395073631E+01  0.65935715230E+02  0.41800000000E+01 0. -1.
         -5    1    1    2    0  502  0.62195692941E+01  0.57383686551E+02  0.36157322716E+02  0.68237782133E+02  0.41800000000E+01 0. -1.
        -11    1    1    2    0    0 -0.67918619205E+02 -0.58922779335E+01  0.11167292716E+03  0.13083768736E+03  0.00000000000E+00 0.  1.
         11    1    1    2    0    0  0.28361672219E+02  0.47519831869E+01  0.18136972163E+02  0.33998758132E+02  0.00000000000E+00 0. -1.
</event>
<event>
 7    1  0.1538147E-010  0.1467482E+03  0.7561462E-02  0.1204527E+00
          1   -1    0    0  501    0  0.00000000000E+00  0.00000000000E+00  0.48902188725E+03  0.48902188725E+03  0.00000000000E+00 0. -1.
         -1   -1    0    0    0  501 -0.00000000000E+00 -0.00000000000E+00 -0.53738834625E+02  0.53738834625E+02  0.00000000000E+00 0.  1.
         25    2    1    2    0    0  0.76931678005E+02  0.92036132760E+02  0.25123997588E+03  0.30520541729E+03  0.12505873999E+03 0.  0.
          5    1    3    3  502    0  0.95567951813E+02  0.76326430007E+02  0.25234147598E+03  0.28045079823E+03  0.41800000000E+01 0. -1.
         -5    1    3    3    0  502 -0.18636273808E+02  0.15709702753E+02 -0.11015001000E+01  0.24754619054E+02  0.41800000000E+01 0. -1.
        -11    1    1    2    0    0 -0.53602537613E+02 -0.10629560736E+03  0.12571345162E+03  0.17313538084E+03  0.00000000000E+00 0.  1.
         11    1    1    2    0    0 -0.23329140391E+02  0.14259474600E+02  0.58329625133E+02  0.64419923746E+02  0.00000000000E+00 0. -1.
</event>
<event>
 7    1  0.1538147E-010  0.1132997E+03  0.7561462E-02  0.1254579E+00
          2   -1    0    0  501    0  0.00000000000E+00  0.00000000000E+00  0.15097675322E+03  0.15097675322E+03  0.00000000000E+00 0. -1.
         -2   -1    0    0    0  501 -0.00000000000E+00 -0.00000000000E+00 -0.12829898092E+03  0.12829898092E+03  0.00000000000E+00 0.  1.
         25    2    1    2    0    0  0.39448662022E+02  0.52409493444E+02 -0.45542146700E+02  0.14843147199E+03  0.12511939423E+03 0.  0.
          5    1    3    3  502    0  0.16789431653E+02  0.83902099691E+02  0.35244194342E+01  0.85739963145E+02  0.41800000000E+01 0.  1.
         -5    1    3    3    0  502  0.22659230369E+02 -0.31492606247E+02 -0.49066566134E+02  0.62691508846E+02  0.41800000000E+01 0.  1.
        -11    1    1    2    0    0  0.89442987160E+01 -0.52763066458E+02  0.62237002508E+02  0.82081582238E+02  0.00000000000E+00 0. -1.
         11    1    1    2    0    0 -0.48392960738E+02  0.35357301473E+00  0.59829164907E+01  0.48762679916E+02  0.00000000000E+00 0.  1.
</event>
<event>
 6    1  0.1538147E-010  0.1129185E+03  0.7561462E-02  0.1255259E+00
         -1   -1    0    0    0  501 -0.00000000000E+00  0.00000000000E+00  0.17780657082E+03  0.17780657082E+03  0.00000000000E+00 0.  1.
          1   -1    0    0  501    0  0.00000000000E+00 -0.00000000000E+00 -0.75307334089E+02  0.75307334089E+02  0.00000000000E+00 0. -1.
          5    1    1    2  502    0 -0.43685845809E+02  0.36522754344E+02  0.28564614520E+02  0.63841791262E+02  0.41800000000E+01 0.  1.
         -5    1    1    2    0  502  0.73884900514E+02 -0.90417372799E+01  0.40203175325E+02  0.84702415805E+02  0.41800000000E+01 0.  1.
        -11    1    1    2    0    0 -0.27217214129E+02  0.27754457036E+02  0.30046413082E+02  0.49131187340E+02  0.00000000000E+00 0.  1.
         11    1    1    2    0    0 -0.29818405756E+01 -0.55235474101E+02  0.36850338027E+01  0.55438510500E+02  0.00000000000E+00 0. -1.
</event>
<event>
 7    1  0.1538147E-010  0.2055582E+03  0.7561462E-02  0.1145132E+00
          3   -1    0    0  501    0  0.00000000000E+00  0.00000000000E+00  0.80673255110E+03  0.80673255110E+03  0.00000000000E+00 0. -1.
         -3   -1    0    0    0  501 -0.00000000000E+00 -0.00000000000E+00 -0.63183114430E+02  0.63183114430E+02  0.00000000000E+00 0.  1.
         25    2    1    2    0    0 -0.17059450097E+03 -0.89750578549E+02  0.29491769518E+03  0.37388687038E+03  0.12512911252E+03 0.  0.
          5    1    3    3  502    0 -0.68950160123E+02  0.88190829229E+01  0.17480917969E+03  0.18816913272E+03  0.41800000000E+01 0. -1.
         -5    1    3    3    0  502 -0.10164434084E+03 -0.98569661472E+02  0.12010851549E+03  0.18571773766E+03  0.41800000000E+01 0. -1.
        -11    1    1    2    0    0  0.80194314053E+02  0.13000163195E+02  0.10664125710E+03  0.13406151560E+03  0.00000000000E+00 0.  1.
         11    1    1    2    0    0  0.90400186913E+02  0.76750415354E+02  0.34199048440E+03  0.36196727956E+03  0.00000000000E+00 0. -1.
</event>
<event>
 7    1  0.1570129E-010  0.2139209E+03  0.7561462E-02  0.1138498E+00
         -2   -1    0    0    0  501 -0.00000000000E+00  0.00000000000E+00  0.61001214928E+02  0.61001214928E+02  0.00000000000E+00 0.  1.
          2   -1    0    0  501    0  0.00000000000E+00 -0.00000000000E+00 -0.94191192760E+03  0.94191192760E+03  0.00000000000E+00 0. -1.
         25    2    1    2    0    0  0.13774030061E+03 -0.14684049413E+03 -0.30683521642E+03  0.38771480934E+03  0.12506159370E+03 0.  0.
          5    1    3    3  502    0  0.56513035596E+02 -0.23189990123E+02 -0.18857898505E+03  0.19827003011E+03  0.41800000000E+01 0.  1.
         -5    1    3    3    0  502  0.81227265016E+02 -0.12365050400E+03 -0.11825623136E+03  0.18944477923E+03  0.41800000000E+01 0.  1.
        -11    1    1    2    0    0 -0.46024853462E+01  0.58835886171E+02 -0.11661067195E+03  0.13069389116E+03  0.00000000000E+00 0.  1.
         11    1    1    2    0    0 -0.13313781527E+03  0.88004607955E+02 -0.45746482429E+03  0.48450444202E+03  0.00000000000E+00 0. -1.
</event>
<event>
 7    1  0.1538147E-010  0.1474966E+03  0.7561462E-02  0.1203583E+00
         -2   -1    0    0    0  501 -0.00000000000E+00  0.00000000000E+00  0.43475182934E+02  0.43475182934E+02  0.00000000000E+00 0.  1.
          2   -1    0    0  501    0  0.00000000000E+00 -0.00000000000E+00 -0.82092724513E+03  0.82092724513E+03  0.00000000000E+00 0. -1.
         25    2    1    2    0    0 -0.10581876379E+03  0.57611842210E+02 -0.63656750864E+03  0.65983968431E+03  0.12511387136E+03 0.  0.
          5    1    3    3  502    0  0.25408813662E+02  0.21016245963E+02 -0.19172046891E+03  0.19458032019E+03  0.41800000000E+01 0.  1.
         -5    1    3    3    0  502 -0.13122757745E+03  0.36595596247E+02 -0.44484703972E+03  0.46525936412E+03  0.41800000000E+01 0.  1.
        -11    1    1    2    0    0  0.42501108833E+02 -0.43031032251E+02 -0.12316699004E+03  0.13721560197E+03  0.00000000000E+00 0. -1.
         11    1    1    2    0    0  0.63317654960E+02 -0.14580809959E+02 -0.17717563515E+02  0.67347141777E+02  0.00000000000E+00 0.  1.
</event>
<event>
 7    1  0.1538147E-010  0.8867639E+02  0.7561462E-02  0.1306089E+00
          2   -1    0    0  501    0  0.00000000000E+00  0.00000000000E+00  0.36087328438E+02  0.36087328438E+02  0.00000000000E+00 0. -1.
         -2   -1    0    0    0  501 -0.00000000000E+00 -0.00000000000E+00 -0.41606162988E+03  0.41606162988E+03  0.00000000000E+00 0.  1.
         25    2    1    2    0    0 -0.36733451500E+01 -0.55259013267E+02 -0.22629853507E+03  0.26441040564E+03  0.12503912838E+03 0.  0.
          5    1    3    3  502    0  0.20191770862E+02 -0.73142164242E+02 -0.64032055418E+02  0.99373338082E+02  0.41800000000E+01 0. -1.
         -5    1    3    3    0  502 -0.23865116012E+02  0.17883150975E+02 -0.16226647965E+03  0.16503706756E+03  0.41800000000E+01 0. -1.
        -11    1    1    2    0    0 -0.16686326929E+02  0.56419496355E+01  0.65363442952E+01  0.18787998797E+02  0.00000000000E+00 0.  1.
         11    1    1    2    0    0  0.20359672079E+02  0.49617063631E+02 -0.16021211067E+03  0.16895055388E+03  0.00000000000E+00 0. -1.
</event>
<event>
 6    1  0.1538147E-010  0.2284086E+03  0.7561462E-02  0.1127765E+00
          1   -1    0    0  501    0  0.00000000000E+00  0.00000000000E+00  0.14910174898E+04  0.14910174898E+04  0.00000000000E+00 0. -1.
         -1   -1    0    0    0  501 -0.00000000000E+00 -0.00000000000E+00 -0.50684929124E+02  0.50684929124E+02  0.00000000000E+00 0.  1.
          5    1    1    2  502    0 -0.15705393723E+03  0.15200553904E+03  0.10514041462E+04  0.10738900195E+04  0.41800000000E+01 0.  1.
         -5    1    1    2    0  502  0.40507589450E+01  0.12354267553E+02  0.71014888788E+01  0.15392859354E+02  0.41800000000E+01 0.  1.
        -11    1    1    2    0    0  0.11743378479E+03 -0.12623351528E+03  0.20396299269E+03  0.26707020908E+03  0.00000000000E+00 0.  1.
         11    1    1    2    0    0  0.35569393495E+02 -0.38126291312E+02  0.17786393294E+03  0.18534933095E+03  0.00000000000E+00 0. -1.
</event>
<event>
 7    1  0.1538147E-010  0.1268895E+03  0.7561462E-02  0.1232146E+00
         -2   -1    0    0    0  501 -0.00000000000E+00  0.00000000000E+00  0.97275213078E+02  0.97275213078E+02  0.00000000000E+00 0.  1.
          2   -1    0    0  501    0  0.00000000000E+00 -0.00000000000E+00 -0.23580712250E+03  0.23580712250E+03  0.00000000000E+00 0. -1.
         25    2    1    2    0    0 -0.43715487609E+02  0.98281588212E+02 -0.63889289930E+02  0.17689734051E+03  0.12506203770E+03 0.  0.
          5    1    3    3  502    0 -0.46821536789E+02  0.95434173673E+00 -0.64020384638E+02  0.79430781972E+02  0.41800000000E+01 0. -1.
         -5    1    3    3    0  502  0.31060491803E+01  0.97327246476E+02  0.13109470840E+00  0.97466558541E+02  0.41800000000E+01 0. -1.
        -11    1    1    2    0    0  0.31959975651E+02 -0.88188267357E+02 -0.15532868573E+02  0.95078286423E+02  0.00000000000E+00 0.  1.
         11    1    1    2    0    0  0.11755511958E+02 -0.10093320855E+02 -0.59109750924E+02  0.61106708646E+02  0.00000000000E+00 0. -1.
</event>
<event>
 6    1  0.1538147E-010  0.1058640E+03  0.7561462E-02  0.1268427E+00
          2   -1    0    0  501    0  0.00000000000E+00  0.00000000000E+00  0.59092160554E+02  0.59092160554E+02  0.00000000000E+00 0. -1.
         -2   -1    0    0    0  501 -0.00000000000E+00 -0.00000000000E+00 -0.50061125109E+03  0.50061125109E+03  0.00000000000E+00 0.  1.
          5    1    1    2  502    0 -0.15725903064E+02 -0.53663074622E+02 -0.99019644450E+02  0.11379539530E+03  0.41800000000E+01 0. -1.
         -5    1    1    2    0  502 -0.37032979696E+02 -0.14722270422E+02  0.33405195072E+02  0.52168633194E+02  0.41800000000E+01 0. -1.
        -11    1    1    2    0    0 -0.11810704386E+02  0.45607480236E+02 -0.18581797541E+03  0.19169730040E+03  0.00000000000E+00 0. -1.
         11    1    1    2    0    0  0.64569587147E+02  0.22777864808E+02 -0.19008666575E+03  0.20204208275E+03  0.00000000000E+00 0.  1.
</event>
<event>
 7    1  0.1538147E-010  0.9452984E+02  0.7561462E-02  0.1292239E+00
         -1   -1    0    0    0  501 -0.00000000000E+00  0.00000000000E+00  0.30634932418E+02  0.30634932418E+02  0.00000000000E+00 0.  1.
          1   -1    0    0  501    0  0.00000000000E+00 -0.00000000000E+00 -0.45993387955E+03  0.45993387955E+03  0.00000000000E+00 0. -1.
         25    2    1    2    0    0 -0.24600381173E+02 -0.38466449252E+02 -0.27593420747E+03  0.30639926281E+03  0.12512383835E+03 0.  0.
          5    1    3    3  502    0  0.18210245853E+02 -0.53869411605E+02 -0.24420653165E+03  0.25077445855E+03  0.41800000000E+01 0.  1.
         -5    1    3    3    0  502 -0.42810627026E+02  0.15402962352E+02 -0.31727675821E+02  0.55624804256E+02  0.41800000000E+01 0.  1.
        -11    1    1    2    0    0  0.13292178200E+01 -0.21753103435E+02 -0.49896152628E+01  0.22357562245E+02  0.00000000000E+00 0.  1.
         11    1    1    2    0    0  0.23271163353E+02  0.60219552688E+02 -0.14837512439E+03  0.16181198691E+03  0.00000000000E+00 0. -1.
</event>
<event>
 7    1  0.1538147E-010  0.1493193E+03  0.7561462E-02  0.1201312E+00
          2   -1    0    0  501    0  0.00000000000E+00  0.00000000000E+00  0.20185100055E+04  0.20185100055E+04  0.00000000000E+00 0.  1.
         -2   -1    0    0    0  501 -0.00000000000E+00 -0.00000000000E+00 -0.18524322847E+02  0.18524322847E+02  0.00000000000E+00 0. -1.
         25    2    1    2    0    0 -0.12350909815E+03 -0.17402045014E+02  0.15647974504E+04  0.15747394956E+04  0.12512429735E+03 0.  0.
          5    1    3    3  502    0 -0.13230592555E+03  0.19578737739E+02  0.10441242249E+04  0.10526637898E+04  0.41800000000E+01 0. -1.
         -5    1    3    3    0  502  0.87968274077E+01 -0.36980782753E+02  0.52067322554E+03  0.52207570587E+03  0.41800000000E+01 0. -1.
        -11    1    1    2    0    0  0.68109111217E+02 -0.12755338306E+01  0.36331522511E+03  0.36964635912E+03  0.00000000000E+00 0.  1.
         11    1    1    2    0    0  0.55399986929E+02  0.18677578844E+02  0.71873007094E+02  0.92648473555E+02  0.00000000000E+00 0. -1.
</event>
<event>
 6    1  0.1538147E-010  0.9598593E+02  0.7561462E-02  0.1288971E+00
         -1   -1    0    0    0  501 -0.00000000000E+00  0.00000000000E+00  0.49196791635E+02  0.49196791635E+02  0.00000000000E+00 0.  1.
          1   -1    0    0  501    0  0.00000000000E+00 -0.00000000000E+00 -0.35009416319E+03  0.35009416319E+03  0.00000000000E+00 0. -1.
          5    1    1    2  502    0 -0.26670433357E+02  0.59212202789E+02 -0.22726714143E+03  0.23640055616E+03  0.41800000000E+01 0. -1.
         -5    1    1    2    0  502  0.39166378433E+02 -0.55842423626E+01 -0.16563962572E+02  0.43093227060E+02  0.41800000000E+01 0. -1.
        -11    1    1    2    0    0 -0.50341651326E+01  0.16160822188E+02  0.12449154920E+02  0.21011816928E+02  0.00000000000E+00 0.  1.
         11    1    1    2    0    0 -0.74617799427E+01 -0.69788782615E+02 -0.69515422468E+02  0.98785354682E+02  0.00000000000E+00 0. -1.
</event>
<event>
 7    1  0.1538147E-010  0.9315118E+02  0.7561462E-02  0.1295395E+00
          3   -1    0    0  501    0  0.00000000000E+00  0.00000000000E+00  0.60784736450E+03  0.60784736450E+03  0.00000000000E+00 0. -1.
         -3   -1    0    0    0  501 -0.00000000000E+00 -0.00000000000E+00 -0.19896463506E+02  0.19896463506E+02  0.00000000000E+00 0.  1.
         25    2    1    2    0    0  0.63576402841E+01 -0.13238127916E+02  0.38281827087E+03  0.40302167591E+03  0.12514381777E+03 0.  0.
          5    1    3    3  502    0  0.46409812367E+02 -0.25478854234E+02  0.33556521728E+03  0.33974185810E+03  0.41800000000E+01 0. -1.
         -5    1    3    3    0  502 -0.40052172082E+02  0.12240726318E+02  0.47253053592E+02  0.63279817818E+02  0.41800000000E+01 0. -1.
        -11    1    1    2    0    0  0.29070266749E+02  0.38026928791E+02  0.12112765496E+03  0.13024222249E+03  0.00000000000E+00 0.  1.
         11    1    1    2    0    0 -0.35427907033E+02 -0.24788800876E+02  0.84004975160E+02  0.94479929600E+02  0.00000000000E+00 0. -1.
</event>
<event>
 7    1  0.1538147E-010  0.2816485E+03  0.7561462E-02  0.1094792E+00
          2   -1    0    0  501    0  0.00000000000E+00  0.00000000000E+00  0.68478993491E+03  0.68478993491E+03  0.00000000000E+00 0. -1.
         -2   -1    0    0    0  501 -0.00000000000E+00 -0.00000000000E+00 -0.12900707431E+03  0.12900707431E+03  0.00000000000E+00 0.  1.
         25    2    1    2    0    0 -0.10678695548E+03 -0.24522192738E+03  0.39249097691E+03  0.49116143574E+03  0.12511251526E+03 0.  0.
          5    1    3    3  502    0  0.28258722251E+02 -0.43568479814E+02  0.80087301541E+02  0.95541698146E+02  0.41800000000E+01 0. -1.
         -5    1    3    3    0  502 -0.13504567774E+03 -0.20165344756E+03  0.31240367536E+03  0.39561973759E+03  0.41800000000E+01 0. -1.
        -11    1    1    2    0    0  0.45347420094E+02  0.76809792258E+02  0.96288473892E+02  0.13125396337E+03  0.00000000000E+00 0. -1.
         11    1    1    2    0    0  0.61439535390E+02  0.16841213512E+03  0.67003409798E+02  0.19138161011E+03  0.00000000000E+00 0.  1.
</event>
<event>
 6    1  0.1538147E-010  0.9702236E+02  0.7561462E-02  0.1286685E+00
         -1   -1    0    0    0  501 -0.00000000000E+00  0.00000000000E+00  0.66779726851E+02  0.66779726851E+02  0.00000000000E+00 0.  1.
          1   -1    0    0  501    0  0.00000000000E+00 -0.00000000000E+00 -0.21252354405E+03  0.21252354405E+03  0.00000000000E+00 0. -1.
          5    1    1    2  502    0  0.77063832994E+02  0.40708882619E+02 -0.49402016157E+02  0.10027003082E+03  0.41800000000E+01 0. -1.
         -5    1    1    2    0  502 -0.46005765571E+02 -0.48647465816E+01 -0.18687681515E+02  0.50068933137E+02  0.41800000000E+01 0. -1.
        -11    1    1    2    0    0  0.63380624106E+01 -0.17645624882E+02  0.17168344588E+02  0.25422257344E+02  0.00000000000E+00 0.  1.
         11    1    1    2    0    0 -0.37396129834E+02 -0.18198511156E+02 -0.94822464116E+02  0.10354204960E+03  0.00000000000E+00 0. -1.
</event>
<event>
 6    1  0.1538147E-010  0.1067905E+03  0.7561462E-02  0.1266631E+00
          3   -1    0    0  501    0  0.00000000000E+00  0.00000000000E+00  0.11992818526E+03  0.11992818526E+03  0.00000000000E+00 0. -1.
         -3   -1    0    0    0  501 -0.00000000000E+00 -0.00000000000E+00 -0.15581221781E+03  0.15581221781E+03  0.00000000000E+00 0.  1.
          5    1    1    2  502    0  0.18471228353E+02  0.41900303859E+02  0.46953341748E+02  0.65718417826E+02  0.41800000000E+01 0. -1.
         -5    1    1    2    0  502 -0.39988894680E+02  0.38975152488E+02 -0.64977467560E+02  0.85777140893E+02  0.41800000000E+01 0. -1.
        -11    1    1    2    0    0 -0.23144674954E+02 -0.55737763216E+02 -0.35529554724E+02  0.70033731058E+02  0.00000000000E+00 0.  1.
         11    1    1    2    0    0  0.44662341281E+02 -0.25137693131E+02  0.17669647979E+02  0.54211113292E+02  0.00000000000E+00 0. -1.
</event>
<event>
 6    1  0.1538147E-010  0.1254097E+03  0.7561462E-02  0.1234430E+00
         -2   -1    0    0    0  501 -0.00000000000E+00  0.00000000000E+00  0.20626000524E+03  0.20626000524E+03  0.00000000000E+00 0. -1.
          2   -1    0    0  501    0  0.00000000000E+00 -0.00000000000E+00 -0.10922702916E+03  0.10922702916E+03  0.00000000000E+00 0.  1.
          5    1    1    2  502    0 -0.60531753253E+02  0.76075183051E+02  0.11635132795E+03  0.15167936756E+03  0.41800000000E+01 0.  1.
         -5    1    1    2    0  502  0.48613317369E+02  0.20101666646E+02  0.17766060481E+02  0.55681567260E+02  0.41800000000E+01 0.  1.
        -11    1    1    2    0    0  0.20939940158E+02 -0.65876977335E+02 -0.18930705460E+02  0.71670278679E+02  0.00000000000E+00 0.  1.
         11    1    1    2    0    0 -0.90215042732E+01 -0.30299872361E+02 -0.18153706884E+02  0.36455820908E+02  0.00000000000E+00 0. -1.
</event>
<event>
 7    1  0.1538147E-010  0.1714655E+03  0.7561462E-02  0.1176328E+00
         -2   -1    0    0    0  501 -0.00000000000E+00  0.00000000000E+00  0.89970213753E+02  0.89970213753E+02  0.00000000000E+00 0.  1.
          2   -1    0    0  501    0  0.00000000000E+00 -0.00000000000E+00 -0.42821992365E+03  0.42821992365E+03  0.00000000000E+00 0. -1.
         25    2    1    2    0    0 -0.46842225448E+02 -0.15466362918E+03 -0.18744060675E+03  0.27729084418E+03  0.12506477894E+03 0.  0.
          5    1    3    3  502    0 -0.29784057833E+02 -0.46609293847E+02  0.52041842036E+01  0.55714202023E+02  0.41800000000E+01 0. -1.
         -5    1    3    3    0  502 -0.17058167615E+02 -0.10805433533E+03 -0.19264479096E+03  0.22157664216E+03  0.41800000000E+01 0. -1.
        -11    1    1    2    0    0  0.36619000544E+02  0.17751684224E+02 -0.56283415306E+01  0.41082255561E+02  0.00000000000E+00 0.  1.
         11    1    1    2    0    0  0.10223224904E+02  0.13691194495E+03 -0.14518076161E+03  0.19981703766E+03  0.00000000000E+00 0. -1.
</event>
<event>
 6    1  0.1538147E-010  0.1099070E+03  0.7561462E-02  0.1260742E+00
         -1   -1    0    0    0  501 -0.00000000000E+00  0.00000000000E+00  0.10947405545E+03  0.10947405545E+03  0.00000000000E+00 0.  1.
          1   -1    0    0  501    0  0.00000000000E+00 -0.00000000000E+00 -0.15157756519E+03  0.15157756519E+03  0.00000000000E+00 0. -1.
          5    1    1    2  502    0  0.44804544308E+02 -0.34259949092E+02  0.12807505691E+02  0.57988756707E+02  0.41800000000E+01 0.  1.
         -5    1    1    2    0  502 -0.56094985152E+02  0.38656739743E+02  0.30682173021E+02  0.74832205821E+02  0.41800000000E+01 0.  1.
        -11    1    1    2    0    0  0.15881464833E+02  0.43799452436E+02 -0.35574949024E+02  0.58619023849E+02  0.00000000000E+00 0.  1.
         11    1    1    2    0    0 -0.45910239890E+01 -0.48196243087E+02 -0.50018239429E+02  0.69611634261E+02  0.00000000000E+00 0. -1.
</event>
<event>
 6    1  0.1538147E-010  0.6938792E+02  0.7561462E-02  0.1362187E+00
          1   -1    0    0  501    0  0.00000000000E+00  0.00000000000E+00  0.93922922377E+02  0.93922922377E+02  0.00000000000E+00 0. -1.
         -1   -1    0    0    0  501 -0.00000000000E+00 -0.00000000000E+00 -0.16024104396E+03  0.16024104396E+03  0.00000000000E+00 0.  1.
          5    1    1    2  502    0 -0.60257164320E+01  0.17407234632E+02  0.46405270371E+02  0.50102321246E+02  0.41800000000E+01 0.  1.
         -5    1    1    2    0  502  0.31514307726E+02  0.26733549845E+02 -0.85570657532E+02  0.95119104859E+02  0.41800000000E+01 0.  1.
        -11    1    1    2    0    0  0.14394843797E+02 -0.34405802720E+02  0.23239612263E+02  0.43943718173E+02  0.00000000000E+00 0. -1.
         11    1    1    2    0    0 -0.39883435091E+02 -0.97349817575E+01 -0.50392346683E+02  0.64998822056E+02  0.00000000000E+00 0.  1.
</event>
<event>
 6    1  0.1538147E-010  0.9123962E+02  0.7561462E-02  0.1299877E+00
         -2   -1    0    0    0  501 -0.00000000000E+00  0.00000000000E+00  0.15607651323E+03  0.15607651323E+03  0.00000000000E+00 0.  1.
          2   -1    0    0  501    0  0.00000000000E+00 -0.00000000000E+00 -0.83586071885E+02  0.83586071885E+02  0.00000000000E+00 0. -1.
          5    1    1    2  502    0  0.19553912639E+02 -0.43617041681E+02 -0.22462838773E+02  0.52979744717E+02  0.41800000000E+01 0. -1.
         -5    1    1    2    0  502  0.20549823862E+02  0.50098081879E+02  0.67444366772E+02  0.86592886994E+02  0.41800000000E+01 0. -1.
        -11    1    1    2    0    0  0.12269614769E+02 -0.22320890923E+02 -0.16090246796E+02  0.30127423722E+02  0.00000000000E+00 0. -1.
         11    1    1    2    0    0 -0.52373351271E+02  0.15839850724E+02  0.43599160144E+02  0.69962529682E+02  0.00000000000E+00 0.  1.
</event>
<event>
 7    1  0.1538147E-010  0.2035213E+03  0.7561462E-02  0.1146802E+00
         -2   -1    0    0    0  501 -0.00000000000E+00  0.00000000000E+00  0.98432222045E+02  0.98432222045E+02  0.00000000000E+00 0. -1.
          2   -1    0    0  501    0  0.00000000000E+00 -0.00000000000E+00 -0.64604765808E+03  0.64604765808E+03  0.00000000000E+00 0.  1.
         25    2    1    2    0    0 -0.14764802683E+03 -0.91168828185E+02 -0.49929284970E+03  0.54317779496E+03  0.12504827915E+03 0.  0.
          5    1    3    3  502    0 -0.85263070416E+02  0.17913866881E+02 -0.17996818660E+03  0.19999179581E+03  0.41800000000E+01 0. -1.
         -5    1    3    3    0  502 -0.62384956412E+02 -0.10908269507E+03 -0.31932466310E+03  0.34318599915E+03  0.41800000000E+01 0. -1.
        -11    1    1    2    0    0 -0.42942867955E+01 -0.10447759787E+02  0.25175692637E+01  0.11573017699E+02  0.00000000000E+00 0. -1.
         11    1    1    2    0    0  0.15194231362E+03  0.10161658797E+03 -0.50840155599E+02  0.18972906747E+03  0.00000000000E+00 0.  1.
</event>
<event>
 6    1  0.1538147E-010  0.1063633E+03  0.7561462E-02  0.1267457E+00
          2   -1    0    0  501    0  0.00000000000E+00  0.00000000000E+00  0.19902247507E+03  0.19902247507E+03  0.00000000000E+00 0. -1.
         -2   -1    0    0    0  501 -0.00000000000E+00 -0.00000000000E+00 -0.75764981980E+02  0.75764981980E+02  0.00000000000E+00 0.  1.
          5    1    1    2  502    0 -0.88564425888E+02 -0.22820228166E+02  0.84354489245E+02  0.12448924693E+03  0.41800000000E+01 0. -1.
         -5    1    1    2    0  502  0.36984051503E+02  0.16512835787E+02  0.14811344060E+02  0.43328306269E+02  0.41800000000E+01 0. -1.
        -11    1    1    2    0    0 -0.33728183365E+00 -0.21539038786E+02  0.40448690585E+02  0.45827290132E+02  0.00000000000E+00 0. -1.
         11    1    1    2    0    0  0.51917656219E+02  0.27846431165E+02 -0.16357030795E+02  0.61142613718E+02  0.00000000000E+00 0.  1.
</event>
<event>
 6    1  0.1538147E-010  0.8617860E+02  0.7561462E-02  0.1312379E+00
          1   -1    0    0  501    0  0.00000000000E+00  0.00000000000E+00  0.10070815884E+04  0.10070815884E+04  0.00000000000E+00 0. -1.
         -1   -1    0    0    0  501 -0.00000000000E+00 -0.00000000000E+00 -0.14201037950E+02  0.14201037950E+02  0.00000000000E+00 0.  1.
          5    1    1    2  502    0 -0.59472832436E+02  0.41057394433E+02  0.18918193970E+03  0.20255864865E+03  0.41800000000E+01 0.  1.
         -5    1    1    2    0  502  0.19750387008E+02 -0.12690624225E+02  0.44558895584E+03  0.44622653405E+03  0.41800000000E+01 0.  1.
        -11    1    1    2    0    0  0.48143783281E+01  0.17688969529E+02  0.12736038018E+02  0.22322288102E+02  0.00000000000E+00 0.  1.
         11    1    1    2    0    0  0.34908067099E+02 -0.46055739737E+02  0.34537361692E+03  0.35017515556E+03  0.00000000000E+00 0. -1.
</event>
<event>
 7    1  0.1538147E-010  0.1154307E+03  0.7561462E-02  0.1250831E+00
         -1   -1    0    0    0  501 -0.00000000000E+00  0.00000000000E+00  0.15359699037E+03  0.15359699037E+03  0.00000000000E+00 0.  1.
          1   -1    0    0  501    0  0.00000000000E+00 -0.00000000000E+00 -0.10699984982E+03  0.10699984982E+03  0.00000000000E+00 0. -1.
         25    2    1    2    0    0 -0.20974178083E+02 -0.35757597578E+02 -0.29276071750E+02  0.13496117522E+03  0.12505562167E+03 0.  0.
          5    1    3    3  502    0  0.33132950135E+02  0.30444906453E+02 -0.17898374281E+02  0.48605646950E+02  0.41800000000E+01 0. -1.
         -5    1    3    3    0  502 -0.54107128217E+02 -0.66202504031E+02 -0.11377697468E+02  0.86355528275E+02  0.41800000000E+01 0. -1.
        -11    1    1    2    0    0 -0.35887075978E+02  0.19909482307E+02  0.33427045283E+02  0.52930492765E+02  0.00000000000E+00 0. -1.
         11    1    1    2    0    0  0.56861254061E+02  0.15848115271E+02  0.42446167012E+02  0.72705172202E+02  0.00000000000E+00 0.  1.
</event>
<event>
 7    1  0.1538147E-010  0.1234280E+03  0.7561462E-02  0.1237547E+00
          1   -1    0    0  501    0  0.00000000000E+00  0.00000000000E+00  0.50407557032E+02  0.50407557032E+02  0.00000000000E+00 0. -1.
         -1   -1    0    0    0  501 -0.00000000000E+00 -0.00000000000E+00 -0.39070019583E+03  0.39070019583E+03  0.00000000000E+00 0.  1.
         25    2    1    2    0    0 -0.55357684336E+02 -0.32455606367E+02 -0.27945377331E+03  0.31283934341E+03  0.12512475281E+03 0.  0.
          5    1    3    3  502    0 -0.85037707000E+02 -0.50466815480E+02 -0.15789358795E+03  0.18634958704E+03  0.41800000000E+01 0.  1.
         -5    1    3    3    0  502  0.29680022663E+02  0.18011209112E+02 -0.12156018536E+03  0.12648975636E+03  0.41800000000E+01 0.  1.
        -11    1    1    2    0    0 -0.12210215663E+02  0.42846140163E+02 -0.23258930881E+02  0.50257924342E+02  0.00000000000E+00 0.  1.
         11    1    1    2    0    0  0.67567899999E+02 -0.10390533796E+02 -0.37579934605E+02  0.78010485114E+02  0.00000000000E+00 0. -1.
</event>
<event>
 6    1  0.1538147E-010  0.1134072E+03  0.7561462E-02  0.1254387E+00
          2   -1    0    0  501    0  0.00000000000E+00  0.00000000000E+00  0.71166732413E+03  0.71166732413E+03  0.00000000000E+00 0.  1.
         -2   -1    0    0    0  501 -0.00000000000E+00 -0.00000000000E+00 -0.20432915076E+02  0.20432915076E+02  0.00000000000E+00 0. -1.
          5    1    1    2  502    0 -0.51146065508E+02  0.32324915755E+00  0.16968333139E+03  0.17727360170E+03  0.41800000000E+01 0.  1.
         -5    1    1    2    0  502  0.65870385216E+02 -0.51618793533E+02  0.20642641778E+03  0.22278407899E+03  0.41800000000E+01 0.  1.
        -11    1    1    2    0    0 -0.23335627055E+02 -0.13083946030E+02  0.32722546443E+02  0.42267081511E+02  0.00000000000E+00 0. -1.
         11    1    1    2    0    0  0.86113073471E+01  0.64379490405E+02  0.28240211345E+03  0.28977547702E+03  0.00000000000E+00 0.  1.
</event>
<event>
 7    1  0.1538147E-010  0.9759693E+02  0.7561462E-02  0.1285432E+00
         -2   -1    0    0    0  501 -0.00000000000E+00  0.00000000000E+00  0.46538893576E+03  0.46538893576E+03  0.00000000000E+00 0. -1.
          2   -1    0    0  501    0  0.00000000000E+00 -0.00000000000E+00 -0.32714759725E+02  0.32714759725E+02  0.00000000000E+00 0.  1.
         25    2    1    2    0    0  0.44945622204E+02  0.37308995318E+02  0.23545877013E+03  0.27296068781E+03  0.12511848213E+03 0.  0.
          5    1    3    3  502    0  0.89220240305E+01 -0.44895825700E+02  0.10429185444E+03  0.11397149197E+03  0.41800000000E+01 0.  1.
         -5    1    3    3    0  502  0.36023598174E+02  0.82204821018E+02  0.13116691569E+03  0.15898919584E+03  0.41800000000E+01 0.  1.
        -11    1    1    2    0    0 -0.16604624964E+02 -0.20681042613E+02  0.13669940418E+01  0.26557254498E+02  0.00000000000E+00 0.  1.
         11    1    1    2    0    0 -0.28340997241E+02 -0.16627952705E+02  0.19584841186E+03  0.19858575317E+03  0.00000000000E+00 0. -1.
</event>
<event>
 7    1  0.1538147E-010  0.9763094E+02  0.7561462E-02  0.1285358E+00
         -3   -1    0    0    0  501 -0.00000000000E+00  0.00000000000E+00  0.37821043195E+02  0.37821043195E+02  0.00000000000E+00 0.  1.
          3   -1    0    0  501    0  0.00000000000E+00 -0.00000000000E+00 -0.31551191922E+03  0.31551191922E+03  0.00000000000E+00 0. -1.
         25    2    1    2    0    0 -0.17303411764E+02 -0.43546279606E+01 -0.17558683485E+03  0.21630969625E+03  0.12506309317E+03 0.  0.
          5    1    3    3  502    0  0.28954893123E+02  0.40330047653E+02 -0.12439419884E+03  0.13400107345E+03  0.41800000000E+01 0. -1.
         -5    1    3    3    0  502 -0.46258304886E+02 -0.44684675614E+02 -0.51192636012E+02  0.82308622802E+02  0.41800000000E+01 0. -1.
        -11    1    1    2    0    0 -0.21814689373E+02  0.27833408919E+02 -0.14440444031E+02  0.38198242739E+02  0.00000000000E+00 0.  1.
         11    1    1    2    0    0  0.39118101137E+02 -0.23478780959E+02 -0.87663597145E+02  0.98825023431E+02  0.00000000000E+00 0. -1.
</event>
<event>
 7    1  0.1538147E-010  0.7148361E+02  0.7561462E-02  0.1355119E+00
         -3   -1    0    0    0  501 -0.00000000000E+00  0.00000000000E+00  0.11782322638E+03  0.11782322638E+03  0.00000000000E+00 0.  1.
          3   -1    0    0  501    0  0.00000000000E+00 -0.00000000000E+00 -0.12103072015E+03  0.12103072015E+03  0.00000000000E+00 0. -1.
         25    2    1    2    0    0  0.18186345568E+02 -0.17021338187E+02 -0.45419559944E+02  0.13541192524E+03  0.12511188574E+03 0.  0.
          5    1    3    3  502    0  0.58196613707E+02  0.21304154740E+02  0.23199279405E+01  0.62157600676E+02  0.41800000000E+01 0. -1.
         -5    1    3    3    0  502 -0.40010268139E+02 -0.38325492926E+02 -0.47739487884E+02  0.73254324569E+02  0.41800000000E+01 0. -1.
        -11    1    1    2    0    0 -0.62585770249E+01  0.88229784690E+01 -0.28907222816E+02  0.30864903472E+02  0.00000000000E+00 0. -1.
         11    1    1    2    0    0 -0.11927768543E+02  0.81983597175E+01  0.71119288991E+02  0.72577117820E+02  0.00000000000E+00 0.  1.
</event>
<event>
 7    1  0.1538147E-010  0.1200786E+03  0.7561462E-02  0.1242967E+00
         -1   -1    0    0    0  501 -0.00000000000E+00  0.00000000000E+00  0.69587687646E+02  0.69587687646E+02  0.00000000000E+00 0.  1.
          1   -1    0    0  501    0  0.00000000000E+00 -0.00000000000E+00 -0.24725066074E+03  0.24725066074E+03  0.00000000000E+00 0. -1.
         25    2    1    2    0    0  0.13222332401E+02 -0.70017845402E+02 -0.11215269926E+03  0.18250859383E+03  0.12511526734E+03 0.  0.
          5    1    3    3  502    0 -0.15548140813E+02  0.21499875262E+02  0.86245052797E+01  0.28210703826E+02  0.41800000000E+01 0. -1.
         -5    1    3    3    0  502  0.28770473215E+02 -0.91517720664E+02 -0.12077720454E+03  0.15429789001E+03  0.41800000000E+01 0. -1.
        -11    1    1    2    0    0 -0.38378790700E+02 -0.44824751645E+01 -0.21645933778E+02  0.44289621904E+02  0.00000000000E+00 0.  1.
         11    1    1    2    0    0  0.25156458299E+02  0.74500320567E+02 -0.43864340054E+02  0.90040132647E+02  0.00000000000E+00 0. -1.
</event>
<event>
 6    1  0.1538147E-010  0.1359978E+03  0.7561462E-02  0.1218818E+00
          2   -1    0    0  501    0  0.00000000000E+00  0.00000000000E+00  0.61494182202E+03  0.61494182202E+03  0.00000000000E+00 0. -1.
         -2   -1    0    0    0  501 -0.00000000000E+00 -0.00000000000E+00 -0.47572377306E+02  0.47572377306E+02  0.00000000000E+00 0.  1.
          5    1    1    2  502    0 -0.76407031282E+02 -0.54061152138E+02  0.89581381619E+02  0.12962615065E+03  0.41800000000E+01 0.  1.
         -5    1    1    2    0  502 -0.15606958098E+02 -0.36776136987E+02  0.26407180617E+03  0.26710943938E+03  0.41800000000E+01 0.  1.
        -11    1    1    2    0    0  0.73106699222E+02  0.38790309750E+02  0.59520012978E+02  0.10194071584E+03  0.00000000000E+00 0.  1.
         11    1    1    2    0    0  0.18907290158E+02  0.52046979375E+02  0.15419624395E+03  0.16383789345E+03  0.00000000000E+00 0. -1.
</event>
<event>
 6    1  0.1538147E-010  0.1438205E+03  0.7561462E-02  0.1208279E+00
         -2   -1    0    0    0  501 -0.00000000000E+00  0.00000000000E+00  0.92695598121E+02  0.92695598121E+02  0.00000000000E+00 0. -1.
          2   -1    0    0  501    0  0.00000000000E+00 -0.00000000000E+00 -0.24281078072E+03  0.24281078072E+03  0.00000000000E+00 0.  1.
          5    1    1    2  502    0  0.59074357343E+02 -0.36556834820E+02 -0.10790128317E+02  0.70427843476E+02  0.41800000000E+01 0.  1.
         -5    1    1    2    0  502  0.35514694125E+02  0.80273293283E+02 -0.63108921835E+02  0.10819105106E+03  0.41800000000E+01 0.  1.
        -11    1    1    2    0    0 -0.48888675839E+02 -0.63691527017E+02 -0.70196918216E+02  0.10665045976E+03  0.00000000000E+00 0. -1.
         11    1    1    2    0    0 -0.45700375629E+02  0.19975068555E+02 -0.60192142344E+01  0.50237024557E+02  0.00000000000E+00 0.  1.
</event>
<event>
 7    1  0.1538147E-010  0.9290688E+02  0.7561462E-02  0.1295961E+00
         -1   -1    0    0    0  501 -0.00000000000E+00  0.00000000000E+00  0.11691714315E+02  0.11691714315E+02  0.00000000000E+00 0.  1.
          1   -1    0    0  501    0  0.00000000000E+00 -0.00000000000E+00 -0.10757291289E+04  0.10757291289E+04  0.00000000000E+00 0. -1.
         25    2    1    2    0    0 -0.11668619855E+02  0.46909904361E+00 -0.70378814833E+03  0.71490514538E+03  0.12504092301E+03 0.  0.
          5    1    3    3  502    0 -0.51363937628E+02  0.14524176564E+02 -0.60590842583E+03  0.60826942936E+03  0.41800000000E+01 0. -1.
         -5    1    3    3    0  502  0.39695317774E+02 -0.14055077520E+02 -0.97879722495E+02  0.10663571603E+03  0.41800000000E+01 0. -1.
        -11    1    1    2    0    0 -0.12383977572E+02  0.40553005654E+02 -0.22957232483E+03  0.23345526659E+03  0.00000000000E+00 0.  1.
         11    1    1    2    0    0  0.24052597427E+02 -0.41022104698E+02 -0.13067694139E+03  0.13906043121E+03  0.00000000000E+00 0. -1.
</event>
<event>
 6    1  0.1538147E-010  0.1520229E+03  0.7561462E-02  0.1198009E+00
         -2   -1    0    0    0  501 -0.00000000000E+00  0.00000000000E+00  0.33919134790E+02  0.33919134790E+02  0.00000000000E+00 0. -1.
          2   -1    0    0  501    0  0.00000000000E+00 -0.00000000000E+00 -0.87452793783E+03  0.87452793783E+03  0.00000000000E+00 0.  1.
          5    1    1    2  502    0 -0.20767580915E+02  0.65411136202E+02 -0.86828512443E+02  0.11075455805E+03  0.41800000000E+01 0.  1.
         -5    1    1    2    0  502  0.94294457080E+02  0.12593897084E+02 -0.15029226816E+03  0.17791933326E+03  0.41800000000E+01 0.  1.
        -11    1    1    2    0    0  0.11365611285E+02 -0.49083845928E+02 -0.18169028050E+03  0.18854643746E+03  0.00000000000E+00 0.  1.
         11    1    1    2    0    0 -0.84892487450E+02 -0.28921187357E+02 -0.42179774194E+03  0.43122674384E+03  0.00000000000E+00 0. -1.
</event>
<event>
 7    1  0.1538147E-010  0.8973160E+02  0.7561462E-02  0.1303503E+00
          4   -1    0    0  501    0  0.00000000000E+00  0.00000000000E+00  0.46251820202E+02  0.46251820202E+02  0.00000000000E+00 0. -1.
         -4   -1    0    0    0  501 -0.00000000000E+00 -0.00000000000E+00 -0.30998787173E+03  0.30998787173E+03  0.00000000000E+00 0.  1.
         25    2    1    2    0    0  0.20409828235E+02 -0.41576784202E+02 -0.18147043472E+03  0.22524736335E+03  0.12513858696E+03 0.  0.
          5    1    3    3  502    0  0.30469815107E+02 -0.73701569050E+02 -0.17260726798E+03  0.19018694033E+03  0.41800000000E+01 0.  1.
         -5    1    3    3    0  502 -0.10059986872E+02  0.32124784848E+02 -0.88631667369E+01  0.35060423015E+02  0.41800000000E+01 0.  1.
        -11    1    1    2    0    0 -0.32997462822E+02  0.14945909134E+02  0.70856612700E+01  0.36910965148E+02  0.00000000000E+00 0. -1.
         11    1    1    2    0    0  0.12587634587E+02  0.26630875068E+02 -0.89351278082E+02  0.94081363438E+02  0.00000000000E+00 0.  1.
</event>
<event>
 6    1  0.1538147E-010  0.1092991E+03  0.7561462E-02  0.1261873E+00
          1   -1    0    0  501    0  0.00000000000E+00  0.00000000000E+00  0.54413916982E+03  0.54413916982E+03  0.00000000000E+00 0. -1.
         -1   -1    0    0    0  501 -0.00000000000E+00 -0.00000000000E+00 -0.32144149767E+02  0.32144149767E+02  0.00000000000E+00 0.  1.
          5    1    1    2  502    0  0.36188110095E+02 -0.34040393717E+02  0.18188196904E+03  0.18859175692E+03  0.41800000000E+01 0. -1.
         -5    1    1    2    0  502  0.24308469702E+02  0.79855898999E+02  0.11389298572E+03  0.14126907270E+03  0.41800000000E+01 0. -1.
        -11    1    1    2    0    0 -0.19346139389E+02 -0.38885451846E+02  0.23792363856E+02  0.49521995641E+02  0.00000000000E+00 0.  1.
         11    1    1    2    0    0 -0.41150440409E+02 -0.69300534362E+01  0.19242770144E+03  0.19690049433E+03  0.00000000000E+00 0. -1.
</event>
<event>
 7    1  0.1538147E-010  0.9407236E+02  0.7561462E-02  0.1293279E+00
         -1   -1    0    0    0  501 -0.00000000000E+00  0.00000000000E+00  0.90660102472E+02  0.90660102472E+02  0.00000000000E+00 0.  1.
          1   -1    0    0  501    0  0.00000000000E+00 -0.00000000000E+00 -0.19022312821E+03  0.19022312821E+03  0.00000000000E+00 0. -1.
         25    2    1    2    0    0  0.91818233403E+01  0.69988915346E+02 -0.44539030392E+02  0.15033155552E+03  0.12503238463E+03 0.  0.
          5    1    3    3  502    0  0.35134347014E+02  0.36551259217E+02  0.33879782004E+02  0.61120609610E+02  0.41800000000E+01 0.  1.
         -5    1    3    3    0  502 -0.25952523674E+02  0.33437656129E+02 -0.78418812396E+02  0.89210945910E+02  0.41800000000E+01 0.  1.
        -11    1    1    2    0    0  0.27335311837E+02 -0.30200923449E+02  0.13853775025E+02  0.43026063413E+02  0.00000000000E+00 0.  1.
         11    1    1    2    0    0 -0.36517135178E+02 -0.39787991897E+02 -0.68877770368E+02  0.87525611747E+02  0.00000000000E+00 0. -1.
</event>
<event>
 7    1  0.1538147E-010  0.1265394E+03  0.7561462E-02  0.1232683E+00
          1   -1    0    0  501    0  0.00000000000E+00  0.00000000000E+00  0.35369948355E+03  0.35369948355E+03  0.00000000000E+00 0. -1.
         -1   -1    0    0    0  501 -0.00000000000E+00 -0.00000000000E+00 -0.74677919380E+02  0.74677919380E+02  0.00000000000E+00 0.  1.
         25    2    1    2    0    0 -0.39289624062E+02  0.70013969075E+02  0.30794174251E+02  0.15175818056E+03  0.12504652644E+03 0.  0.
          5    1    3    3  502    0  0.36585742783E+02  0.61797742696E+02  0.10708347686E+02  0.72729764797E+02  0.41800000000E+01 0. -1.
         -5    1    3    3    0  502 -0.75875366845E+02  0.82162263793E+01  0.20085826565E+02  0.79028415767E+02  0.41800000000E+01 0. -1.
        -11    1    1    2    0    0  0.51254330331E+02 -0.22968796334E+02  0.59803535479E+02  0.82042884143E+02  0.00000000000E+00 0.  1.
         11    1    1    2    0    0 -0.11964706269E+02 -0.47045172741E+02  0.18842385444E+03  0.19457633822E+03  0.00000000000E+00 0. -1.
</event>
<event>
 7    1  0.1538147E-010  0.1223116E+03  0.7561462E-02  0.1239332E+00
         -1   -1    0    0    0  501 -0.00000000000E+00  0.00000000000E+00  0.36741392109E+02  0.36741392109E+02  0.00000000000E+00 0.  1.
          1   -1    0    0  501    0  0.00000000000E+00 -0.00000000000E+00 -0.56916394844E+03  0.56916394844E+03  0.00000000000E+00 0. -1.
         25    2    1    2    0    0 -0.75608086364E+02  0.53047411409E+02 -0.23807212279E+03  0.28433791874E+03  0.12505641049E+03 0.  0.
          5    1    3    3  502    0 -0.87866251576E+01  0.76380966115E+02 -0.16725532379E+03  0.18412786998E+03  0.41800000000E+01 0.  1.
         -5    1    3    3    0  502 -0.66821461206E+02 -0.23333554706E+02 -0.70816798998E+02  0.10021004876E+03  0.41800000000E+01 0.  1.
        -11    1    1    2    0    0  0.44352182570E+02 -0.13592554849E+02 -0.36989571741E+02  0.59330448031E+02  0.00000000000E+00 0.  1.
         11    1    1    2    0    0  0.31255903794E+02 -0.39454856560E+02 -0.25736086180E+03  0.26223697377E+03  0.00000000000E+00 0. -1.
</event>
<event>
 6    1  0.1538147E-010  0.1394351E+03  0.7561462E-02  0.1214091E+00
         -1   -1    0    0    0  501 -0.00000000000E+00  0.00000000000E+00  0.13211889191E+03  0.13211889191E+03  0.00000000000E+00 0.  1.
          1   -1    0    0  501    0  0.00000000000E+00 -0.00000000000E+00 -0.17774879053E+03  0.17774879053E+03  0.00000000000E+00 0. -1.
          5    1    1    2  502    0 -0.59448803109E+00 -0.43347203706E+02 -0.96644067015E+01  0.44611732112E+02  0.41800000000E+01 0.  1.
         -5    1    1    2    0  502 -0.90485736601E+02  0.64831902532E+02 -0.66800465457E+02  0.12988694584E+03  0.41800000000E+01 0.  1.
        -11    1    1    2    0    0  0.34348814468E+01 -0.35066097284E+02  0.30616106812E+02  0.46677356241E+02  0.00000000000E+00 0.  1.
         11    1    1    2    0    0  0.87645343185E+02  0.13581398458E+02  0.21886673437E+00  0.88691648247E+02  0.00000000000E+00 0. -1.
</event>
<event>
 6    1  0.1538147E-010  0.2589124E+03  0.7561462E-02  0.1107798E+00
         -2   -1    0    0    0  501 -0.00000000000E+00  0.00000000000E+00  0.12092411193E+03  0.12092411193E+03  0.00000000000E+00 0. -1.
          2   -1    0    0  501    0  0.00000000000E+00 -0.00000000000E+00 -0.57662619463E+03  0.57662619463E+03  0.00000000000E+00 0.  1.
          5    1    1    2  502    0  0.29057752267E+02  0.49747682998E+00 -0.62008066024E+01  0.30008712944E+02  0.41800000000E+01 0. -1.
         -5    1    1    2    0  502 -0.16123240799E+01 -0.23573563237E+03 -0.16988132974E+03  0.29060458797E+03  0.41800000000E+01 0. -1.
        -11    1    1    2    0    0  0.29057085698E+02  0.40028782592E+02 -0.50857196727E+02  0.70944147919E+02  0.00000000000E+00 0. -1.
         11    1    1    2    0    0 -0.56502513885E+02  0.19520937295E+03 -0.22876274964E+03  0.30599285773E+03  0.00000000000E+00 0.  1.
</event>
<event>
 7    1  0.1538147E-010  0.1189861E+03  0.7561462E-02  0.1244779E+00
          2   -1    0    0  501    0  0.00000000000E+00  0.00000000000E+00  0.70709005462E+03  0.70709005462E+03  0.00000000000E+00 0. -1.
         -2   -1    0    0    0  501 -0.00000000000E+00 -0.00000000000E+00 -0.26230262852E+02  0.26230262852E+02  0.00000000000E+00 0.  1.
         25    2    1    2    0    0  0.81029063873E+02 -0.86140200618E+01  0.39097386627E+03  0.41848970240E+03  0.12503262123E+03 0.  0.
          5    1    3    3  502    0  0.85441278184E+02  0.19274992253E+02  0.13532019253E+03  0.16124752479E+03  0.41800000000E+01 0. -1.
         -5    1    3    3    0  502 -0.44122143111E+01 -0.27889012315E+02  0.25565367374E+03  0.25724217761E+03  0.41800000000E+01 0. -1.
        -11    1    1    2    0    0 -0.43437261485E+02 -0.40839724706E+02  0.12121109737E+03  0.13508074964E+03  0.00000000000E+00 0.  1.
         11    1    1    2    0    0 -0.37591802387E+02  0.49453744768E+02  0.16867482813E+03  0.17974986543E+03  0.00000000000E+00 0. -1.
</event>
<event>
 7    1  0.1538147E-010  0.1079624E+03  0.7561462E-02  0.1264390E+00
         -2   -1    0    0    0  501 -0.00000000000E+00  0.00000000000E+00  0.21132960331E+02  0.21132960331E+02  0.00000000000E+00 0.  1.
          2   -1    0    0  501    0  0.00000000000E+00 -0.00000000000E+00 -0.71033145207E+03  0.71033145207E+03  0.00000000000E+00 0. -1.
         25    2    1    2    0    0 -0.12975599387E+02  0.19628416202E+02 -0.53097155905E+03  0.54602076431E+03  0.12511689587E+03 0.  0.
          5    1    3    3  502    0  0.12544368464E+02 -0.50544069460E+02 -0.20079223446E+03  0.20747784931E+03  0.41800000000E+01 0. -1.
         -5    1    3    3    0  502 -0.25519967851E+02  0.70172485662E+02 -0.33017932460E+03  0.33854291500E+03  0.41800000000E+01 0. -1.
        -11    1    1    2    0    0 -0.15335403558E+02 -0.47046311729E+02 -0.50359093815E+02  0.70601475760E+02  0.00000000000E+00 0.  1.
         11    1    1    2    0    0  0.28311002946E+02  0.27417895527E+02 -0.10786783887E+03  0.11484217233E+03  0.00000000000E+00 0. -1.
</event>
<event>
 7    1  0.1538147E-010  0.1523704E+03  0.7561462E-02  0.1197590E+00
          2   -1    0    0  501    0  0.00000000000E+00  0.00000000000E+00  0.64885803477E+03  0.64885803477E+03  0.00000000000E+00 0. -1.
         -2   -1    0    0    0  501 -0.00000000000E+00 -0.00000000000E+00 -0.44961080384E+02  0.44961080384E+02  0.00000000000E+00 0.  1.
         25    2    1    2    0    0 -0.47014246705E+02 -0.11180910114E+03  0.21794974641E+03  0.27902573211E+03  0.12506659317E+03 0.  0.
          5    1    3    3  502    0 -0.88275258789E+02 -0.60787979884E+02  0.11882239788E+03  0.16007477768E+03  0.41800000000E+01 0.  1.
         -5    1    3    3    0  502  0.41261012083E+02 -0.51021121253E+02  0.99127348531E+02  0.11895095443E+03  0.41800000000E+01 0.  1.
        -11    1    1    2    0    0 -0.10398244443E+02  0.30257697262E+02  0.25827235883E+02  0.41118096313E+02  0.00000000000E+00 0.  1.
         11    1    1    2    0    0  0.57412491148E+02  0.81551403875E+02  0.36011997210E+03  0.37367528673E+03  0.00000000000E+00 0. -1.
</event>
<event>
 7    1  0.1538147E-010  0.1524328E+03  0.7561462E-02  0.1197515E+00
         -2   -1    0    0    0  501 -0.00000000000E+00  0.00000000000E+00  0.44771374497E+03  0.44771374497E+03  0.00000000000E+00 0.  1.
          2   -1    0    0  501    0  0.00000000000E+00 -0.00000000000E+00 -0.71539391316E+02  0.71539391316E+02  0.00000000000E+00 0. -1.
         25    2    1    2    0    0  0.11613643984E+03  0.79042220610E+02  0.16821371142E+03  0.25236463704E+03  0.12512678378E+03 0.  0.
          5    1    3    3  502    0  0.58086965093E+02  0.85974907450E+02  0.16333602828E+03  0.19355079633E+03  0.41800000000E+01 0.  1.
         -5    1    3    3    0  502  0.58049474752E+02 -0.69326868399E+01  0.48776831335E+01  0.58813840705E+02  0.41800000000E+01 0.  1.
        -11    1    1    2    0    0 -0.81021291989E+02 -0.41589834195E+02  0.57005765031E+02  0.10744217659E+03  0.00000000000E+00 0. -1.
         11    1    1    2    0    0 -0.35115147856E+02 -0.37452386415E+02  0.15095487721E+03  0.15944632266E+03  0.00000000000E+00 0.  1.
</event>
<event>
 6    1  0.1538147E-010  0.4292692E+03  0.7561462E-02  0.1034091E+00
          1   -1    0    0  501    0  0.00000000000E+00  0.00000000000E+00  0.15090264233E+04  0.15090264233E+04  0.00000000000E+00 0. -1.
         -1   -1    0    0    0  501 -0.00000000000E+00 -0.00000000000E+00 -0.17246955039E+03  0.17246955039E+03  0.00000000000E+00 0.  1.
          5    1    1    2  502    0 -0.33032791567E+03 -0.16468684201E+03  0.16475199414E+03  0.40422639669E+03  0.41800000000E+01 0. -1.
         -5    1    1    2    0  502 -0.24031768108E+02 -0.56838177950E+02  0.61259591412E+02  0.87053513950E+02  0.41800000000E+01 0. -1.
        -11    1    1    2    0    0  0.25427728124E+03  0.20390782064E+03  0.81941088384E+03  0.88185573176E+03  0.00000000000E+00 0. -1.
         11    1    1    2    0    0  0.10008240254E+03  0.17617199315E+02  0.29113440356E+03  0.30836033134E+03  0.00000000000E+00 0.  1.
</event>
<event>
 6    1  0.1538147E-010  0.1377909E+03  0.7561462E-02  0.1216333E+00
         -1   -1    0    0    0  501 -0.00000000000E+00  0.00000000000E+00  0.49997658922E+02  0.49997658922E+02  0.00000000000E+00 0.  1.
          1   -1    0    0  501    0  0.00000000000E+00 -0.00000000000E+00 -0.42267148889E+03  0.42267148889E+03  0.00000000000E+00 0. -1.
          5    1    1    2  502    0 -0.99367528268E+02  0.28142709254E+01 -0.19515991233E+03  0.21905864415E+03  0.41800000000E+01 0. -1.
         -5    1    1    2    0  502  0.20293242748E+02 -0.47777311993E+02 -0.61000639639E+02  0.80206219702E+02  0.41800000000E+01 0. -1.
        -11    1    1    2    0    0  0.10257458917E+01  0.45943894355E+02 -0.66026185086E+02  0.80444705856E+02  0.00000000000E+00 0. -1.
         11    1    1    2    0    0  0.78048539629E+02 -0.98085328748E+00 -0.50487092918E+02  0.92959578112E+02  0.00000000000E+00 0.  1.
</event>
<event>
 7    1  0.1538147E-010  0.1333996E+03  0.7561462E-02  0.1222497E+00
          3   -1    0    0  501    0  0.00000000000E+00  0.00000000000E+00  0.97212018202E+02  0.97212018202E+02  0.00000000000E+00 0. -1.
         -3   -1    0    0    0  501 -0.00000000000E+00 -0.00000000000E+00 -0.28988548501E+03  0.28988548501E+03  0.00000000000E+00 0.  1.
         25    2    1    2    0    0  0.12026559796E+03 -0.10888904557E+02 -0.15083857976E+03  0.23016190621E+03  0.12505936043E+03 0.  0.
          5    1    3    3  502    0  0.50162447070E+02 -0.28580454698E+02 -0.14660261309E+03  0.15761634449E+03  0.41800000000E+01 0.  1.
         -5    1    3    3    0  502  0.70103150887E+02  0.17691550141E+02 -0.42359666688E+01  0.72545561713E+02  0.41800000000E+01 0.  1.
        -11    1    1    2    0    0 -0.40199985870E+02 -0.26478680137E+02 -0.48493847823E+02  0.68328710236E+02  0.00000000000E+00 0.  1.
         11    1    1    2    0    0 -0.80065612087E+02  0.37367584694E+02  0.66589607723E+01  0.88606886771E+02  0.00000000000E+00 0. -1.
</event>
<event>
 7    1  0.1538147E-010  0.1074856E+03  0.7561462E-02  0.1265298E+00
          1   -1    0    0  501    0  0.00000000000E+00  0.00000000000E+00  0.62296697244E+02  0.62296697244E+02  0.00000000000E+00 0. -1.
         -1   -1    0    0    0  501 -0.00000000000E+00 -0.00000000000E+00 -0.29676217802E+03  0.29676217802E+03  0.00000000000E+00 0.  1.
         25    2    1    2    0    0  0.26517252579E+02  0.59283055737E+02 -0.63114452244E+02  0.15445465828E+03  0.12512058984E+03 0.  0.
          5    1    3    3  502    0  0.51741354259E+02 -0.12047230645E+02 -0.57615183420E+02  0.78481114080E+02  0.41800000000E+01 0. -1.
         -5    1    3    3    0  502 -0.25224101681E+02  0.71330286382E+02 -0.54992688242E+01  0.75973544201E+02  0.41800000000E+01 0. -1.
        -11    1    1    2    0    0  0.82455899767E+01 -0.48952492506E+02 -0.15855978760E+03  0.16614915745E+03  0.00000000000E+00 0.  1.
         11    1    1    2    0    0 -0.34762842555E+02 -0.10330563230E+02 -0.12791240930E+02  0.38455059533E+02  0.00000000000E+00 0. -1.
</event>
<event>
 6    1  0.1538147E-010  0.8015949E+02  0.7561462E-02  0.1328599E+00
          1   -1    0    0  501    0  0.00000000000E+00  0.00000000000E+00  0.49058065145E+02  0.49058065145E+02  0.00000000000E+00 0. -1.
         -1   -1    0    0    0  501 -0.00000000000E+00 -0.00000000000E+00 -0.29467679783E+03  0.29467679783E+03  0.00000000000E+00 0.  1.
          5    1    1    2  502    0 -0.29394930547E+02 -0.39994498454E+01 -0.18999233429E+00  0.29959406503E+02  0.41800000000E+01 0.  1.
         -5    1    1    2    0  502  0.54723840915E+02  0.22727754372E+02 -0.19458388668E+03  0.20344928345E+03  0.41800000000E+01 0.  1.
        -11    1    1    2    0    0 -0.37098835268E+02  0.11236900997E+02 -0.64583460336E+02  0.75323401883E+02  0.00000000000E+00 0.  1.
         11    1    1    2    0    0  0.11769924901E+02 -0.29965205524E+02  0.13738606662E+02  0.35002771137E+02  0.00000000000E+00 0. -1.
</event>
<event>
 7    1  0.1538147E-010  0.8727944E+02  0.7561462E-02  0.1309577E+00
         -1   -1    0    0    0  501 -0.00000000000E+00  0.00000000000E+00  0.44275939785E+02  0.44275939785E+02  0.00000000000E+00 0.  1.
          1   -1    0    0  501    0  0.00000000000E+00 -0.00000000000E+00 -0.26727652972E+03  0.26727652972E+03  0.00000000000E+00 0. -1.
         25    2    1    2    0    0 -0.45611575833E+01  0.12602701717E+02 -0.13647644341E+03  0.18559868846E+03  0.12506566797E+03 0.  0.
          5    1    3    3  502    0 -0.62602707583E+02  0.89562735713E+01 -0.94374883295E+02  0.11368115424E+03  0.41800000000E+01 0. -1.
         -5    1    3    3    0  502  0.58041550000E+02  0.36464281460E+01 -0.42101560112E+02  0.71917534221E+02  0.41800000000E+01 0. -1.
        -11    1    1    2    0    0  0.66932132285E+01  0.19543531891E+02 -0.91100666317E+02  0.93413490169E+02  0.00000000000E+00 0. -1.
         11    1    1    2    0    0 -0.21320556452E+01 -0.32146233609E+02  0.45765197919E+01  0.32540290870E+02  0.00000000000E+00 0.  1.
</event>
<event>
 7    1  0.1538147E-010  0.1761316E+03  0.7561462E-02  0.1171600E+00
         -3   -1    0    0    0  501 -0.00000000000E+00  0.00000000000E+00  0.16132217879E+03  0.16132217879E+03  0.00000000000E+00 0.  1.
          3   -1    0    0  501    0  0.00000000000E+00 -0.00000000000E+00 -0.25474531352E+03  0.25474531352E+03  0.00000000000E+00 0. -1.
         25    2    1    2    0    0  0.15865937948E+03  0.55538888279E+00  0.13665539374E+02  0.20247686247E+03  0.12504809360E+03 0.  0.
          5    1    3    3  502    0 -0.80506476687E+01 -0.23856972349E+01  0.33245357098E+02  0.34543170783E+02  0.41800000000E+01 0. -1.
         -5    1    3    3    0  502  0.16671002715E+03  0.29410861177E+01 -0.19579817724E+02  0.16793369169E+03  0.41800000000E+01 0. -1.
        -11    1    1    2    0    0 -0.11105260502E+03 -0.36000760959E+02 -0.38590304561E+02  0.12295506284E+03  0.00000000000E+00 0.  1.
         11    1    1    2    0    0 -0.47606774465E+02  0.35445372077E+02 -0.68498369545E+02  0.90635567009E+02  0.00000000000E+00 0. -1.
</event>
<event>
 7    1  0.1538147E-010  0.1687250E+03  0.7561462E-02  0.1179184E+00
          2   -1    0    0  501    0  0.00000000000E+00  0.00000000000E+00  0.48790503777E+03  0.48790503777E+03  0.00000000000E+00 0. -1.
         -2   -1    0    0    0  501 -0.00000000000E+00 -0.00000000000E+00 -0.67020251916E+02  0.67020251916E+02  0.00000000000E+00 0.  1.
         25    2    1    2    0    0  0.13199228920E+03  0.52415143246E+02  0.25171375199E+03  0.31493517447E+03  0.12512010043E+03 0.  0.
          5    1    3    3  502    0  0.13145945353E+01  0.51330130455E+02  0.36570162876E+02  0.63177208423E+02  0.41800000000E+01 0.  1.
         -5    1    3    3    0  502  0.13067769466E+03  0.10850127912E+01  0.21514358911E+03  0.25175796605E+03  0.41800000000E+01 0.  1.
        -11    1    1    2    0    0 -0.28500700267E+02  0.14466696525E+02  0.84874271815E+02  0.90692983412E+02  0.00000000000E+00 0. -1.
         11    1    1    2    0    0 -0.10349158893E+03 -0.66881839771E+02  0.84296762050E+02  0.14929713180E+03  0.00000000000E+00 0.  1.
</event>
<event>
 6    1  0.1538147E-010  0.1036246E+03  0.7561462E-02  0.1272853E+00
          1   -1    0    0  501    0  0.00000000000E+00  0.00000000000E+00  0.57256804045E+02  0.57256804045E+02  0.00000000000E+00 0. -1.
         -1   -1    0    0    0  501 -0.00000000000E+00 -0.00000000000E+00 -0.21068885086E+03  0.21068885086E+03  0.00000000000E+00 0.  1.
          5    1    1    2  502    0 -0.19962225468E+02  0.59078222449E+02 -0.24934688397E+02  0.67289953922E+02  0.41800000000E+01 0. -1.
         -5    1    1    2    0  502  0.37951265981E+02 -0.49452916588E+02 -0.48865246175E+02  0.79316922736E+02  0.41800000000E+01 0. -1.
        -11    1    1    2    0    0 -0.49837430837E+02 -0.68011396030E+01 -0.73054215073E+02  0.88695791063E+02  0.00000000000E+00 0.  1.
         11    1    1    2    0    0  0.31848390325E+02 -0.28241662580E+01 -0.65778971740E+01  0.32642987188E+02  0.00000000000E+00 0. -1.
</event>
<event>
 6    1  0.1538147E-010  0.8715920E+02  0.7561462E-02  0.1309881E+00
         -1   -1    0    0    0  501 -0.00000000000E+00  0.00000000000E+00  0.64867659785E+03  0.64867659785E+03  0.00000000000E+00 0.  1.
          1   -1    0    0  501    0  0.00000000000E+00 -0.00000000000E+00 -0.38099768203E+02  0.38099768203E+02  0.00000000000E+00 0. -1.
          5    1    1    2  502    0 -0.24917503920E+02 -0.61694792446E+02  0.10331862044E+03  0.12296072196E+03  0.41800000000E+01 0.  1.
         -5    1    1    2    0  502 -0.58413603305E+01 -0.55801798881E+01  0.42125986351E+03  0.42135804834E+03  0.41800000000E+01 0.  1.
        -11    1    1    2    0    0 -0.38580190332E+01  0.63629679480E+02  0.18277973333E+02  0.66315192307E+02  0.00000000000E+00 0.  1.
         11    1    1    2    0    0  0.34616883284E+02  0.36452928542E+01  0.67720372372E+02  0.76142403446E+02  0.00000000000E+00 0. -1.
</event>
<event>
 7    1  0.1538147E-010  0.2141849E+03  0.7561462E-02  0.1138294E+00
          3   -1    0    0  501    0  0.00000000000E+00  0.00000000000E+00  0.44045601560E+03  0.44045601560E+03  0.00000000000E+00 0. -1.
         -3   -1    0    0    0  501 -0.00000000000E+00 -0.00000000000E+00 -0.10727938903E+03  0.10727938903E+03  0.00000000000E+00 0.  1.
         25    2    1    2    0    0 -0.13153754658E+03 -0.13231490027E+03  0.14343488291E+03  0.26653754978E+03  0.12513728786E+03 0.  0.
          5    1    3    3  502    0 -0.15275626840E+03 -0.12678362394E+03  0.14211169722E+03  0.24417569847E+03  0.41800000000E+01 0. -1.
         -5    1    3    3    0  502  0.21218721822E+02 -0.55312763301E+01  0.13231856886E+01  0.22361851309E+02  0.41800000000E+01 0. -1.
        -11    1    1    2    0    0  0.93568752217E+02  0.29851397369E+02  0.92791735563E+02  0.13511670328E+03  0.00000000000E+00 0.  1.
         11    1    1    2    0    0  0.37968794365E+02  0.10246350290E+03  0.96950008096E+02  0.14608115156E+03  0.00000000000E+00 0. -1.
</event>
<event>
 7    1  0.1538147E-010  0.1061432E+03  0.7561462E-02  0.1267884E+00
         -1   -1    0    0    0  501 -0.00000000000E+00  0.00000000000E+00  0.58898108154E+02  0.58898108154E+02  0.00000000000E+00 0.  1.
          1   -1    0    0  501    0  0.00000000000E+00 -0.00000000000E+00 -0.30169223807E+03  0.30169223807E+03  0.00000000000E+00 0. -1.
         25    2    1    2    0    0  0.40641713716E+02 -0.64650068167E+02 -0.11979311079E+03  0.18924834870E+03  0.12503266727E+03 0.  0.
          5    1    3    3  502    0 -0.36416881610E+02 -0.24877410949E+01 -0.68345465913E+02  0.77594801583E+02  0.41800000000E+01 0.  1.
         -5    1    3    3    0  502  0.77058595326E+02 -0.62162327072E+02 -0.51447644877E+02  0.11165354712E+03  0.41800000000E+01 0.  1.
        -11    1    1    2    0    0 -0.10845377282E+02  0.20422612460E+02  0.12098987193E+02  0.26097716359E+02  0.00000000000E+00 0.  1.
         11    1    1    2    0    0 -0.29796336435E+02  0.44227455708E+02 -0.13510000632E+03  0.14524428116E+03  0.00000000000E+00 0. -1.
</event>
<event>
 6    1  0.1538147E-010  0.1004471E+03  0.7561462E-02  0.1279358E+00
          1   -1    0    0  501    0  0.00000000000E+00  0.00000000000E+00  0.36743742048E+02  0.36743742048E+02  0.00000000000E+00 0.  1.
         -1   -1    0    0    0  501 -0.00000000000E+00 -0.00000000000E+00 -0.50526113898E+03  0.50526113898E+03  0.00000000000E+00 0. -1.
          5    1    1    2  502    0  0.40058744747E+02 -0.49729455309E+02 -0.97123765112E+02  0.11631087613E+03  0.41800000000E+01 0. -1.
         -5    1    1    2    0  502  0.56988304635E+01  0.39885958852E+02 -0.29389035643E+03  0.29666880589E+03  0.41800000000E+01 0. -1.
        -11    1    1    2    0    0  0.24720086113E+02  0.76680739276E+01 -0.23750561490E+01  0.25990823514E+02  0.00000000000E+00 0. -1.
         11    1    1    2    0    0 -0.70477661324E+02  0.21754225293E+01 -0.75128219238E+02  0.10303437550E+03  0.00000000000E+00 0.  1.
</event>
<event>
 6    1  0.1538147E-010  0.1145764E+03  0.7561462E-02  0.1252322E+00
         -3   -1    0    0    0  501 -0.00000000000E+00  0.00000000000E+00  0.31883292999E+03  0.31883292999E+03  0.00000000000E+00 0.  1.
          3   -1    0    0  501    0  0.00000000000E+00 -0.00000000000E+00 -0.81238999095E+02  0.81238999095E+02  0.00000000000E+00 0. -1.
          5    1    1    2  502    0  0.51758966211E+02 -0.96071961390E+02 -0.20593809868E+01  0.10922694630E+03  0.41800000000E+01 0.  1.
         -5    1    1    2    0  502  0.73866976456E+01  0.25685211218E+02  0.43695619601E+02  0.51391370382E+02  0.41800000000E+01 0.  1.
        -11    1    1    2    0    0 -0.23803609327E+02  0.38659734493E+02  0.18529728675E+03  0.19077806835E+03  0.00000000000E+00 0.  1.
         11    1    1    2    0    0 -0.35342054530E+02  0.31727015679E+02  0.10660405534E+02  0.48675544049E+02  0.00000000000E+00 0. -1.
</event>
<event>
 7    1  0.1538147E-010  0.1172321E+03  0.7561462E-02  0.1247734E+00
          2   -1    0    0  501    0  0.00000000000E+00  0.00000000000E+00  0.14502212804E+04  0.14502212804E+04  0.00000000000E+00 0. -1.
         -2   -1    0    0    0  501 -0.00000000000E+00 -0.00000000000E+00 -0.15783275414E+02  0.15783275414E+02  0.00000000000E+00 0.  1.
         25    2    1    2    0    0  0.37914141450E+02 -0.91669226454E+02  0.94436353281E+03  0.95776828902E+03  0.12512747164E+03 0.  0.
          5    1    3    3  502    0  0.40642658655E+02 -0.88952237192E+02  0.94660964004E+03  0.95165729610E+03  0.41800000000E+01 0. -1.
         -5    1    3    3    0  502 -0.27285172048E+01 -0.27169892620E+01 -0.22461072332E+01  0.61109929218E+01  0.41800000000E+01 0. -1.
        -11    1    1    2    0    0  0.25886456451E+02  0.11210425815E+02  0.63625361069E+02  0.69598626752E+02  0.00000000000E+00 0.  1.
         11    1    1    2    0    0 -0.63800597902E+02  0.80458800640E+02  0.42644911111E+03  0.43863764004E+03  0.00000000000E+00 0. -1.
</event>
<event>
 7    1  0.1538147E-010  0.1081676E+03  0.7561462E-02  0.1264001E+00
          1   -1    0    0  501    0  0.00000000000E+00  0.00000000000E+00  0.61389873730E+02  0.61389873730E+02  0.00000000000E+00 0. -1.
         -1   -1    0    0    0  501 -0.00000000000E+00 -0.00000000000E+00 -0.24099003772E+03  0.24099003772E+03  0.00000000000E+00 0.  1.
         25    2    1    2    0    0  0.50025591946E+02 -0.18701152127E+02 -0.85902984817E+02  0.16084809732E+03  0.12506196333E+03 0.  0.
          5    1    3    3  502    0 -0.30952352999E+02  0.24186664693E+02 -0.46498548736E+02  0.61013361976E+02  0.41800000000E+01 0. -1.
         -5    1    3    3    0  502  0.80977944945E+02 -0.42887816819E+02 -0.39404436081E+02  0.99834735347E+02  0.41800000000E+01 0. -1.
        -11    1    1    2    0    0 -0.16695893032E+02  0.41492285365E+02 -0.61811873428E+01  0.45150522322E+02  0.00000000000E+00 0. -1.
         11    1    1    2    0    0 -0.33329698914E+02 -0.22791133238E+02 -0.87515991830E+02  0.96381291804E+02  0.00000000000E+00 0.  1.
</event>
<event>
 6    1  0.1538147E-010  0.1328668E+03  0.7561462E-02  0.1223263E+00
         -2   -1    0    0    0  501 -0.00000000000E+00  0.00000000000E+00  0.33794604394E+02  0.33794604394E+02  0.00000000000E+00 0. -1.
          2   -1    0    0  501    0  0.00000000000E+00 -0.00000000000E+00 -0.15891167321E+04  0.15891167321E+04  0.00000000000E+00 0.  1.
          5    1    1    2  502    0  0.70034582787E+01 -0.28073664317E+02 -0.14836466816E+03  0.15121747986E+03  0.41800000000E+01 0. -1.
         -5    1    1    2    0  502 -0.18162402740E+02  0.11326916004E+03 -0.13076466531E+04  0.13126755187E+04  0.41800000000E+01 0. -1.
        -11    1    1    2    0    0  0.24042218995E+02  0.97114317146E+01 -0.35379660958E+02  0.43864115284E+02  0.00000000000E+00 0.  1.
         11    1    1    2    0    0 -0.12883274534E+02 -0.94906927436E+02 -0.63931145433E+02  0.11515422265E+03  0.00000000000E+00 0. -1.
</event>
<event>
 6    1  0.1538147E-010  0.1253287E+03  0.7561462E-02  0.1234556E+00
         -2   -1    0    0    0  501 -0.00000000000E+00  0.00000000000E+00  0.10013648236E+02  0.10013648236E+02  0.00000000000E+00 0.  1.
          2   -1    0    0  501    0  0.00000000000E+00 -0.00000000000E+00 -0.19623782325E+04  0.19623782325E+04  0.00000000000E+00 0. -1.
          5    1    1    2  502    0 -0.91374599911E+01 -0.10257057995E+03 -0.92178328009E+03  0.92752687556E+03  0.41800000000E+01 0.  1.
         -5    1    1    2    0  502  0.45052294101E+01  0.34673225527E+02 -0.54689900049E+03  0.54803149435E+03  0.41800000000E+01 0.  1.
        -11    1    1    2    0    0  0.46896412145E+02  0.40943208955E+02 -0.23197840508E+03  0.24018659466E+03  0.00000000000E+00 0. -1.
         11    1    1    2    0    0 -0.42264181564E+02  0.26954145468E+02 -0.25170389861E+03  0.25664691617E+03  0.00000000000E+00 0.  1.
</event>
<event>
 6    1  0.1538147E-010  0.9675606E+02  0.7561462E-02  0.1287269E+00
          2   -1    0    0  501    0  0.00000000000E+00  0.00000000000E+00  0.49502971629E+03  0.49502971629E+03  0.00000000000E+00 0. -1.
         -2   -1    0    0    0  501 -0.00000000000E+00 -0.00000000000E+00 -0.28100798196E+02  0.28100798196E+02  0.00000000000E+00 0.  1.
          5    1    1    2  502    0 -0.23206864529E+02 -0.31913164494E+02  0.10138838713E+02  0.40954573368E+02  0.41800000000E+01 0.  1.
         -5    1    1    2    0  502  0.53751522407E+02  0.18110021730E+02  0.18199866218E+03  0.19067822236E+03  0.41800000000E+01 0.  1.
        -11    1    1    2    0    0  0.72258330532E+01  0.46465419822E+02  0.12172443827E+03  0.13049171152E+03  0.00000000000E+00 0. -1.
         11    1    1    2    0    0 -0.37770490932E+02 -0.32662277057E+02  0.15306697893E+03  0.16100600724E+03  0.00000000000E+00 0.  1.
</event>
<event>
 7    1  0.1538147E-010  0.9640777E+02  0.7561462E-02  0.1288037E+00
          3   -1    0    0  501    0  0.00000000000E+00  0.00000000000E+00  0.13800667081E+03  0.13800667081E+03  0.00000000000E+00 0. -1.
         -3   -1    0    0    0  501 -0.00000000000E+00 -0.00000000000E+00 -0.10164323135E+03  0.10164323135E+03  0.00000000000E+00 0.  1.
         25    2    1    2    0    0 -0.29143536051E+02 -0.34180710907E+02  0.85691949339E+01  0.13314457628E+03  0.12504551332E+03 0.  0.
          5    1    3    3  502    0 -0.51538639878E+02 -0.42307558052E+02  0.51170879141E+02  0.84155167048E+02  0.41800000000E+01 0. -1.
         -5    1    3    3    0  502  0.22395103827E+02  0.81268471443E+01 -0.42601684208E+02  0.48989409236E+02  0.41800000000E+01 0. -1.
        -11    1    1    2    0    0  0.56995067063E+02 -0.92814488551E+00  0.22876651564E+02  0.61421822744E+02  0.00000000000E+00 0.  1.
         11    1    1    2    0    0 -0.27851531011E+02  0.35108855793E+02  0.49175929620E+01  0.45083503139E+02  0.00000000000E+00 0. -1.
</event>
<event>
 6    1  0.1538147E-010  0.1357964E+03  0.7561462E-02  0.1219100E+00
         -1   -1    0    0    0  501 -0.00000000000E+00  0.00000000000E+00  0.10865943115E+03  0.10865943115E+03  0.00000000000E+00 0.  1.
          1   -1    0    0  501    0  0.00000000000E+00 -0.00000000000E+00 -0.25157150918E+03  0.25157150918E+03  0.00000000000E+00 0. -1.
          5    1    1    2  502    0 -0.93038883772E+02 -0.54015709457E+02 -0.10852172020E+02  0.10820893124E+03  0.41800000000E+01 0. -1.
         -5    1    1    2    0  502 -0.17066065396E+01  0.44411750268E+02  0.21421253368E+02  0.49514225871E+02  0.41800000000E+01 0. -1.
        -11    1    1    2    0    0  0.36310716868E+02 -0.31317300097E+02 -0.21647961619E+02  0.52610604321E+02  0.00000000000E+00 0.  1.
         11    1    1    2    0    0  0.58434773444E+02  0.40921259286E+02 -0.13183319777E+03  0.14989717890E+03  0.00000000000E+00 0. -1.
</event>
<event>
 6    1  0.1538147E-010  0.1533972E+03  0.7561462E-02  0.1196360E+00
          1   -1    0    0  501    0  0.00000000000E+00  0.00000000000E+00  0.11738455060E+03  0.11738455060E+03  0.00000000000E+00 0. -1.
         -1   -1    0    0    0  501 -0.00000000000E+00 -0.00000000000E+00 -0.26213698182E+03  0.26213698182E+03  0.00000000000E+00 0.  1.
          5    1    1    2  502    0 -0.31550266378E+02  0.21410982167E+02 -0.34736323092E+02  0.51748758515E+02  0.41800000000E+01 0. -1.
         -5    1    1    2    0  502  0.12198580789E+03  0.65385246307E+02 -0.10421279845E+03  0.17330189705E+03  0.41800000000E+01 0. -1.
        -11    1    1    2    0    0 -0.24222648412E+02 -0.50014838931E+01 -0.37181696951E+02  0.44656803797E+02  0.00000000000E+00 0.  1.
         11    1    1    2    0    0 -0.66212893104E+02 -0.81794744581E+02  0.31378387264E+02  0.10981407306E+03  0.00000000000E+00 0. -1.
</event>
<event>
 6    1  0.1538147E-010  0.9889011E+02  0.7561462E-02  0.1282647E+00
          2   -1    0    0  501    0  0.00000000000E+00  0.00000000000E+00  0.73034831577E+03  0.73034831577E+03  0.00000000000E+00 0. -1.
         -2   -1    0    0    0  501 -0.00000000000E+00 -0.00000000000E+00 -0.22345188489E+02  0.22345188489E+02  0.00000000000E+00 0.  1.
          5    1    1    2  502    0  0.20332349288E+02  0.32190954055E+02  0.41846084010E+03  0.42021019627E+03  0.41800000000E+01 0. -1.
         -5    1    1    2    0  502  0.38289922130E+02 -0.40753207933E+02  0.82259634453E+02  0.99554316601E+02  0.41800000000E+01 0. -1.
        -11    1    1    2    0    0 -0.74287436546E+02  0.27150193193E+02  0.13268141151E+03  0.15446719127E+03  0.00000000000E+00 0. -1.
         11    1    1    2    0    0  0.15665165128E+02 -0.18587939316E+02  0.74601241215E+02  0.78461800115E+02  0.00000000000E+00 0.  1.
</event>
<event>
 6    1  0.1538147E-010  0.9060092E+02  0.7561462E-02  0.1301403E+00
          1   -1    0    0  501    0  0.00000000000E+00  0.00000000000E+00  0.49371387835E+03  0.49371387835E+03  0.00000000000E+00 0. -1.
         -1   -1    0    0    0  501 -0.00000000000E+00 -0.00000000000E+00 -0.37955169915E+02  0.37955169915E+02  0.00000000000E+00 0.  1.
          5    1    1    2  502    0 -0.97645216200E+01  0.94486728695E+01 -0.20919953689E+02  0.25293085297E+02  0.41800000000E+01 0. -1.
         -5    1    1    2    0  502  0.12198753205E+02  0.55589304646E+02  0.17915375463E+03  0.18802265973E+03  0.41800000000E+01 0. -1.
        -11    1    1    2    0    0  0.24132545742E+02  0.13051345151E+02  0.11211927643E+03  0.11542724774E+03  0.00000000000E+00 0.  1.
         11    1    1    2    0    0 -0.26566777327E+02 -0.78089322666E+02  0.18540563106E+03  0.20292605550E+03  0.00000000000E+00 0. -1.
</event>
<event>
 7    1  0.1538147E-010  0.7039825E+02  0.7561462E-02  0.1358744E+00
         -2   -1    0    0    0  501 -0.00000000000E+00  0.00000000000E+00  0.44124560998E+02  0.44124560998E+02  0.00000000000E+00 0.  1.
          2   -1    0    0  501    0  0.00000000000E+00 -0.00000000000E+00 -0.32988959585E+03  0.32988959585E+03  0.00000000000E+00 0. -1.
         25    2    1    2    0    0  0.73677435673E+01 -0.16057841931E+02 -0.23748458922E+03  0.26896735133E+03  0.12502946865E+03 0.  0.
          5    1    3    3  502    0  0.34254782504E+02 -0.32660436436E+02 -0.24214353490E+02  0.53328243432E+02  0.41800000000E+01 0.  1.
         -5    1    3    3    0  502 -0.26887038936E+02  0.16602594505E+02 -0.21327023573E+03  0.21563910790E+03  0.41800000000E+01 0.  1.
        -11    1    1    2    0    0 -0.11731243569E+02  0.37620756441E+02 -0.65951913111E+02  0.76828368679E+02  0.00000000000E+00 0. -1.
         11    1    1    2    0    0  0.43635000014E+01 -0.21562914511E+02  0.17671467483E+02  0.28218436836E+02  0.00000000000E+00 0.  1.
</event>
<event>
 7    1  0.1538147E-010  0.1221404E+03  0.7561462E-02  0.1239607E+00
         -4   -1    0    0    0  501 -0.00000000000E+00  0.00000000000E+00  0.10640251084E+03  0.10640251084E+03  0.00000000000E+00 0.  1.
          4   -1    0    0  501    0  0.00000000000E+00 -0.00000000000E+00 -0.29909351688E+03  0.29909351688E+03  0.00000000000E+00 0. -1.
         25    2    1    2    0    0  0.33648435516E+02  0.84677722075E+02 -0.22174541068E+03  0.27038748077E+03  0.12504330759E+03 0.  0.
          5    1    3    3  502    0  0.52798834350E+02  0.10708393915E+03 -0.14380199999E+03  0.18695233225E+03  0.41800000000E+01 0.  1.
         -5    1    3    3    0  502 -0.19150398834E+02 -0.22406217076E+02 -0.77943410684E+02  0.83435148518E+02  0.41800000000E+01 0.  1.
        -11    1    1    2    0    0 -0.38014522087E+02 -0.69096870153E+02  0.60731554847E+02  0.99537948083E+02  0.00000000000E+00 0.  1.
         11    1    1    2    0    0  0.43660865705E+01 -0.15580851922E+02 -0.31677150207E+02  0.35570598868E+02  0.00000000000E+00 0. -1.
</event>
<event>
 7    1  0.1538147E-010  0.8948226E+02  0.7561462E-02  0.1304110E+00
         -2   -1    0    0    0  501 -0.00000000000E+00  0.00000000000E+00  0.87415808128E+03  0.87415808128E+03  0.00000000000E+00 0.  1.
          2   -1    0    0  501    0  0.00000000000E+00 -0.00000000000E+00 -0.17845768418E+02  0.17845768418E+02  0.00000000000E+00 0. -1.
         25    2    1    2    0    0 -0.41644468630E+02  0.29639305519E+02  0.33004678847E+03  0.35665197466E+03  0.12512792754E+03 0.  0.
          5    1    3    3  502    0  0.14714885791E+02 -0.36270152680E+01  0.26082803046E+03  0.26130139108E+03  0.41800000000E+01 0.  1.
         -5    1    3    3    0  502 -0.56359354421E+02  0.33266320787E+02  0.69218758005E+02  0.95350583581E+02  0.41800000000E+01 0.  1.
        -11    1    1    2    0    0  0.55973194320E+01  0.28616461952E+02  0.13238501942E+03  0.13555819874E+03  0.00000000000E+00 0.  1.
         11    1    1    2    0    0  0.36047149198E+02 -0.58255767471E+02  0.39388050498E+03  0.39979367630E+03  0.00000000000E+00 0. -1.
</event>
<event>
 6    1  0.1538147E-010  0.2838341E+03  0.7561462E-02  0.1093613E+00
         -1   -1    0    0    0  501 -0.00000000000E+00  0.00000000000E+00  0.13395806236E+03  0.13395806236E+03  0.00000000000E+00 0.  1.
          1   -1    0    0  501    0  0.00000000000E+00 -0.00000000000E+00 -0.63966340319E+03  0.63966340319E+03  0.00000000000E+00 0. -1.
          5    1    1    2  502    0 -0.23795510515E+03  0.85942499596E+02 -0.31436552606E+03  0.40354913168E+03  0.41800000000E+01 0. -1.
         -5    1    1    2    0  502 -0.44569543262E-01  0.33753257021E+02 -0.12170033859E+02  0.36122935514E+02  0.41800000000E+01 0. -1.
        -11    1    1    2    0    0  0.83586602126E+02 -0.91006464646E+02 -0.94224938216E+02  0.15539380826E+03  0.00000000000E+00 0. -1.
         11    1    1    2    0    0  0.15441307257E+03 -0.28689291971E+02 -0.84944842702E+02  0.17855559010E+03  0.00000000000E+00 0.  1.
</event>
<event>
 6    1  0.1538147E-010  0.9419321E+02  0.7561462E-02  0.1293004E+00
         -2   -1    0    0    0  501 -0.00000000000E+00  0.00000000000E+00  0.27274945358E+02  0.27274945358E+02  0.00000000000E+00 0.  1.
          2   -1    0    0  501    0  0.00000000000E+00 -0.00000000000E+00 -0.67692497478E+03  0.67692497478E+03  0.00000000000E+00 0. -1.
          5    1    1    2  502    0 -0.42502801445E+02 -0.24008526327E+02 -0.94557877986E+02  0.10649677064E+03  0.41800000000E+01 0.  1.
         -5    1    1    2    0  502  0.20214291626E+02  0.49887557143E+02 -0.45218206581E+03  0.45539376257E+03  0.41800000000E+01 0.  1.
        -11    1    1    2    0    0  0.29870573198E+00  0.27588725119E+02 -0.71226813087E+02  0.76383806407E+02  0.00000000000E+00 0. -1.
         11    1    1    2    0    0  0.21989804087E+02 -0.53467755935E+02 -0.31683272531E+02  0.65925580519E+02  0.00000000000E+00 0.  1.
</event>
<event>
 7    1  0.1538147E-010  0.6777947E+02  0.7561462E-02  0.1367811E+00
         -1   -1    0    0    0  501 -0.00000000000E+00  0.00000000000E+00  0.25129686811E+02  0.25129686811E+02  0.00000000000E+00 0.  1.
          1   -1    0    0  501    0  0.00000000000E+00 -0.00000000000E+00 -0.52717379054E+03  0.52717379054E+03  0.00000000000E+00 0. -1.
         25    2    1    2    0    0  0.29739359360E+02  0.14809179740E+02 -0.33889399406E+03  0.36275249902E+03  0.12504597169E+03 0.  0.
          5    1    3    3  502    0  0.21079677159E+02  0.19413797847E+02 -0.58596211963E+01  0.29547519296E+02  0.41800000000E+01 0. -1.
         -5    1    3    3    0  502  0.86596822012E+01 -0.46046181066E+01 -0.33303437286E+03  0.33320497972E+03  0.41800000000E+01 0. -1.
        -11    1    1    2    0    0 -0.76989273320E+01 -0.52075047266E+02 -0.79283141741E+02  0.95167749759E+02  0.00000000000E+00 0. -1.
         11    1    1    2    0    0 -0.22040432028E+02  0.37265867526E+02 -0.83866967926E+02  0.94383228571E+02  0.00000000000E+00 0.  1.
</event>
<event>
 6    1  0.1538147E-010  0.2205105E+03  0.7561462E-02  0.1133503E+00
          2   -1    0    0  501    0  0.00000000000E+00  0.00000000000E+00  0.19470885639E+04  0.19470885639E+04  0.00000000000E+00 0. -1.
         -2   -1    0    0    0  501 -0.00000000000E+00 -0.00000000000E+00 -0.27776940270E+02  0.27776940270E+02  0.00000000000E+00 0.  1.
          5    1    1    2  502    0  0.37372316646E+02 -0.53540638034E+02  0.42743057489E+03  0.43240913348E+03  0.41800000000E+01 0.  1.
         -5    1    1    2    0  502 -0.40533909708E+02 -0.14956142267E+03  0.41037377716E+03  0.43867496665E+03  0.41800000000E+01 0.  1.
        -11    1    1    2    0    0 -0.41412934103E+02  0.93507259371E+02  0.49034292606E+03  0.50089402452E+03  0.00000000000E+00 0.  1.
         11    1    1    2    0    0  0.44574527165E+02  0.10959480133E+03  0.59116434549E+03  0.60288737947E+03  0.00000000000E+00 0. -1.
</event>
<event>
 6    1  0.1538147E-010  0.7670452E+02  0.7561462E-02  0.1338672E+00
         -1   -1    0    0    0  501 -0.00000000000E+00  0.00000000000E+00  0.11692461772E+03  0.11692461772E+03  0.00000000000E+00 0.  1.
          1   -1    0    0  501    0  0.00000000000E+00 -0.00000000000E+00 -0.10847009869E+03  0.10847009869E+03  0.00000000000E+00 0. -1.
          5    1    1    2  502    0  0.20828916064E+02 -0.83854686747E+01 -0.47475725358E+02  0.52683742535E+02  0.41800000000E+01 0. -1.
         -5    1    1    2    0  502 -0.32786105288E+02  0.30609140564E+02  0.60869979642E+02  0.75726316480E+02  0.41800000000E+01 0. -1.
        -11    1    1    2    0    0  0.28155764946E+01  0.31197394957E+02  0.20166477400E+02  0.37254418984E+02  0.00000000000E+00 0.  1.
         11    1    1    2    0    0  0.91416127292E+01 -0.53421066846E+02 -0.25106212661E+02  0.59730238409E+02  0.00000000000E+00 0. -1.
</event>
<event>
 7    1  0.1538147E-010  0.1154731E+03  0.7561462E-02  0.1250758E+00
          1   -1    0    0  501    0  0.00000000000E+00  0.00000000000E+00  0.42340538493E+03  0.42340538493E+03  0.00000000000E+00 0. -1.
         -1   -1    0    0    0  501 -0.00000000000E+00 -0.00000000000E+00 -0.54358110907E+02  0.54358110907E+02  0.00000000000E+00 0.  1.
         25    2    1    2    0    0  0.61775205631E+02  0.56842005896E+02  0.30039518008E+03  0.33604439799E+03  0.12506551700E+03 0.  0.
          5    1    3    3  502    0 -0.30419592636E+02 -0.10666826335E+02  0.10202679006E+03  0.10707974174E+03  0.41800000000E+01 0. -1.
         -5    1    3    3    0  502  0.92194798267E+02  0.67508832232E+02  0.19836839002E+03  0.22896465626E+03  0.41800000000E+01 0. -1.
        -11    1    1    2    0    0 -0.27926581262E+02 -0.29083347244E+02 -0.18369293198E+02  0.44307628694E+02  0.00000000000E+00 0.  1.
         11    1    1    2    0    0 -0.33848624369E+02 -0.27758658652E+02  0.87021387144E+02  0.97411469152E+02  0.00000000000E+00 0. -1.
</event>
<event>
 7    1  0.1538147E-010  0.8399523E+02  0.7561462E-02  0.1318081E+00
          2   -1    0    0  501    0  0.00000000000E+00  0.00000000000E+00  0.26670622859E+03  0.26670622859E+03  0.00000000000E+00 0. -1.
         -2   -1    0    0    0  501 -0.00000000000E+00 -0.00000000000E+00 -0.62191451539E+02  0.62191451539E+02  0.00000000000E+00 0.  1.
         25    2    1    2    0    0 -0.23843011739E+02 -0.44690745152E+02  0.55668221718E+02  0.14594322504E+03  0.12503888241E+03 0.  0.
          5    1    3    3  502    0  0.37666854260E+02 -0.61317866375E+01  0.62029473444E+02  0.72948740174E+02  0.41800000000E+01 0. -1.
         -5    1    3    3    0  502 -0.61509866000E+02 -0.38558958515E+02 -0.63612517257E+01  0.72994484864E+02  0.41800000000E+01 0. -1.
        -11    1    1    2    0    0  0.26367596312E+02  0.22833105659E+02  0.15597357716E+03  0.15982602298E+03  0.00000000000E+00 0. -1.
         11    1    1    2    0    0 -0.25245845729E+01  0.21857639493E+02 -0.71270218327E+01  0.23128432106E+02  0.00000000000E+00 0.  1.
</event>
<event>
 7    1  0.1538147E-010  0.1884848E+03  0.7561462E-02  0.1159835E+00
         -3   -1    0    0    0  501 -0.00000000000E+00  0.00000000000E+00  0.15259172175E+03  0.15259172175E+03  0.00000000000E+00 0. -1.
          3   -1    0    0  501    0  0.00000000000E+00 -0.00000000000E+00 -0.26898188831E+03  0.26898188831E+03  0.00000000000E+00 0.  1.
         25    2    1    2    0    0 -0.75526903747E+02 -0.15373280263E+03 -0.17201884475E+02  0.21282495120E+03  0.12514178850E+03 0.  0.
          5    1    3    3  502    0  0.20140644687E+02 -0.63439059837E+02  0.29830527177E+02  0.73058145563E+02  0.41800000000E+01 0. -1.
         -5    1    3    3    0  502 -0.95667548434E+02 -0.90293742792E+02 -0.47032411653E+02  0.13976680563E+03  0.41800000000E+01 0. -1.
        -11    1    1    2    0    0  0.60409589108E+02  0.15185503098E+03 -0.74204611090E+02  0.17948702793E+03  0.00000000000E+00 0. -1.
         11    1    1    2    0    0  0.15117314639E+02  0.18777716516E+01 -0.24983670996E+02  0.29261630931E+02  0.00000000000E+00 0.  1.
</event>
<event>
 7    1  0.1538147E-010  0.9036876E+02  0.7561462E-02  0.1301961E+00
         -3   -1    0    0    0  501 -0.00000000000E+00  0.00000000000E+00  0.17426110559E+03  0.17426110559E+03  0.00000000000E+00 0.  1.
          3   -1    0    0  501    0  0.00000000000E+00 -0.00000000000E+00 -0.96931050783E+02  0.96931050783E+02  0.00000000000E+00 0. -1.
         25    2    1    2    0    0  0.10734560318E+02 -0.35649045883E+02 -0.21958712075E+02  0.13232137489E+03  0.12506268812E+03 0.  0.
          5    1    3    3  502    0 -0.49679280694E+02  0.12079385050E+02  0.27006295314E+01  0.51368358679E+02  0.41800000000E+01 0.  1.
         -5    1    3    3    0  502  0.60413841012E+02 -0.47728430933E+02 -0.24659341606E+02  0.80953016211E+02  0.41800000000E+01 0.  1.
        -11    1    1    2    0    0 -0.23505862597E+02  0.30635539105E+02  0.11303531098E+03  0.11944891528E+03  0.00000000000E+00 0.  1.
         11    1    1    2    0    0  0.12771302279E+02  0.50135067778E+01 -0.13746544100E+02  0.19421866203E+02  0.00000000000E+00 0. -1.
</event>
<event>
 7    1  0.1538147E-010  0.1200784E+03  0.7561462E-02  0.1242968E+00
         -2   -1    0    0    0  501 -0.00000000000E+00  0.00000000000E+00  0.35715942128E+03  0.35715942128E+03  0.00000000000E+00 0.  1.
          2   -1    0    0  501    0  0.00000000000E+00 -0.00000000000E+00 -0.65208365683E+02  0.65208365683E+02  0.00000000000E+00 0. -1.
         25    2    1    2    0    0 -0.75527748700E+02 -0.74857281889E+02  0.16741943185E+03  0.23447143353E+03  0.12505812051E+03 0.  0.
          5    1    3    3  502    0 -0.58347190190E+02 -0.51434727836E+02  0.18467286947E+03  0.20042820896E+03  0.41800000000E+01 0.  1.
         -5    1    3    3    0  502 -0.17180558509E+02 -0.23422554053E+02 -0.17253437623E+02  0.34043224566E+02  0.41800000000E+01 0.  1.
        -11    1    1    2    0    0 -0.14120577415E+02  0.28920691130E+02  0.60522139292E+02  0.68547256885E+02  0.00000000000E+00 0.  1.
         11    1    1    2    0    0  0.89648326115E+02  0.45936590758E+02  0.64009484455E+02  0.11934909654E+03  0.00000000000E+00 0. -1.
</event>
<event>
 7    1  0.1538147E-010  0.1762686E+03  0.7561462E-02  0.1171464E+00
         -1   -1    0    0    0  501 -0.00000000000E+00  0.00000000000E+00  0.46392928207E+02  0.46392928207E+02  0.00000000000E+00 0.  1.
          1   -1    0    0  501    0  0.00000000000E+00 -0.00000000000E+00 -0.74953513129E+03  0.74953513129E+03  0.00000000000E+00 0. -1.
         25    2    1    2    0    0  0.12702919293E+03  0.60582119718E+02 -0.48208132320E+03  0.51755884838E+03  0.12513253082E+03 0.  0.
          5    1    3    3  502    0 -0.22829604293E+02  0.60383291334E+01 -0.31639704187E+02  0.39701329095E+02  0.41800000000E+01 0. -1.
         -5    1    3    3    0  502  0.14985879722E+03  0.54543790584E+02 -0.45044161901E+03  0.47785751928E+03  0.41800000000E+01 0. -1.
        -11    1    1    2    0    0 -0.81830813602E+02  0.12813694267E+02 -0.11427612800E+03  0.14113648092E+03  0.00000000000E+00 0.  1.
         11    1    1    2    0    0 -0.45198379324E+02 -0.73395813984E+02 -0.10678475189E+03  0.13723273021E+03  0.00000000000E+00 0. -1.
</event>
<event>
 6    1  0.1538147E-010  0.9361418E+02  0.7561462E-02  0.1294328E+00
         -1   -1    0    0    0  501 -0.00000000000E+00  0.00000000000E+00  0.19512696949E+02  0.19512696949E+02  0.00000000000E+00 0.  1.
          1   -1    0    0  501    0  0.00000000000E+00 -0.00000000000E+00 -0.85005572136E+03  0.85005572136E+03  0.00000000000E+00 0. -1.
          5    1    1    2  502    0  0.98773231795E+01  0.47937336599E+02 -0.41977361683E+02  0.64615176602E+02  0.41800000000E+01 0. -1.
         -5    1    1    2    0  502  0.23261117134E+02 -0.10184343539E+02 -0.33361240478E+03  0.33460351081E+03  0.41800000000E+01 0. -1.
        -11    1    1    2    0    0 -0.47780672686E+02  0.20729451982E+02 -0.29185161738E+03  0.29646259364E+03  0.00000000000E+00 0. -1.
         11    1    1    2    0    0  0.14642232373E+02 -0.58482445042E+02 -0.16310164058E+03  0.17388713726E+03  0.00000000000E+00 0.  1.
</event>
<event>
 7    1  0.1538147E-010  0.1271868E+03  0.7561462E-02  0.1231691E+00
         -1   -1    0    0    0  501 -0.00000000000E+00  0.00000000000E+00  0.22860538090E+02  0.22860538090E+02  0.00000000000E+00 0.  1.
          1   -1    0    0  501    0  0.00000000000E+00 -0.00000000000E+00 -0.13744668896E+04  0.13744668896E+04  0.00000000000E+00 0. -1.
         25    2    1    2    0    0 -0.48695313261E+02  0.88106994825E+02 -0.10993633068E+04  0.11110301549E+04  0.12511694008E+03 0.  0.
          5    1    3    3  502    0 -0.25487966962E+02 -0.22525910381E+01 -0.40702139388E+02  0.48258130682E+02  0.41800000000E+01 0. -1.
         -5    1    3    3    0  502 -0.23207346299E+02  0.90359585863E+02 -0.10586611674E+04  0.10627720242E+04  0.41800000000E+01 0. -1.
        -11    1    1    2    0    0  0.20449867945E+02 -0.10168560811E+03 -0.18450681468E+03  0.21166228918E+03  0.00000000000E+00 0.  1.
         11    1    1    2    0    0  0.28245445316E+02  0.13578613289E+02 -0.67736230060E+02  0.74634983638E+02  0.00000000000E+00 0. -1.
</event>
<event>
 6    1  0.1538147E-010  0.1629718E+03  0.7561462E-02  0.1185382E+00
         -2   -1    0    0    0  501 -0.00000000000E+00  0.00000000000E+00  0.63965449054E+02  0.63965449054E+02  0.00000000000E+00 0. -1.
          2   -1    0    0  501    0  0.00000000000E+00 -0.00000000000E+00 -0.50004415468E+03  0.50004415468E+03  0.00000000000E+00 0.  1.
          5    1    1    2  502    0 -0.14014389345E+02  0.84528064860E+02 -0.10826270818E+03  0.13812922660E+03  0.41800000000E+01 0. -1.
         -5    1    1    2    0  502  0.96426328920E+02  0.28160903026E+02 -0.16449037582E+03  0.19278389327E+03  0.41800000000E+01 0. -1.
        -11    1    1    2    0    0 -0.48937278922E+02 -0.65521421606E+02 -0.28865988229E+02  0.86724617232E+02  0.00000000000E+00 0. -1.
         11    1    1    2    0    0 -0.33474660654E+02 -0.47167546280E+02 -0.13445963340E+03  0.14637186663E+03  0.00000000000E+00 0.  1.
</event>
<event>
 6    1  0.1538147E-010  0.1215880E+03  0.7561462E-02  0.1240500E+00
         -4   -1    0    0    0  501 -0.00000000000E+00  0.00000000000E+00  0.53252977142E+02  0.53252977142E+02  0.00000000000E+00 0.  1.
          4   -1    0    0  501    0  0.00000000000E+00 -0.00000000000E+00 -0.34014620428E+03  0.34014620428E+03  0.00000000000E+00 0. -1.
          5    1    1    2  502    0  0.74130683080E+02 -0.16824799937E+02 -0.78529674042E+02  0.10937465050E+03  0.41800000000E+01 0.  1.
         -5    1    1    2    0  502 -0.32684754280E+02  0.31693925030E+02 -0.12981971394E+03  0.13763512841E+03  0.41800000000E+01 0.  1.
        -11    1    1    2    0    0  0.37746425329E+02  0.86300189095E+01 -0.12690278953E+02  0.40746938921E+02  0.00000000000E+00 0.  1.
         11    1    1    2    0    0 -0.79192354129E+02 -0.23499144003E+02 -0.65853560205E+02  0.10564246359E+03  0.00000000000E+00 0. -1.
</event>
<event>
 6    1  0.1538147E-010  0.6559393E+02  0.7561462E-02  0.1375751E+00
         -2   -1    0    0    0  501 -0.00000000000E+00  0.00000000000E+00  0.18275345465E+03  0.18275345465E+03  0.00000000000E+00 0.  1.
          2   -1    0    0  501    0  0.00000000000E+00 -0.00000000000E+00 -0.11770102359E+03  0.11770102359E+03  0.00000000000E+00 0. -1.
          5    1    1    2  502    0  0.30156748550E+02 -0.40051423847E+02  0.15896318004E+03  0.16673425276E+03  0.41800000000E+01 0. -1.
         -5    1    1    2    0  502 -0.60964634387E+01 -0.11656607614E+01 -0.22863675166E+02  0.24057133528E+02  0.41800000000E+01 0. -1.
        -11    1    1    2    0    0  0.11460396887E+02  0.35642909827E+02 -0.98977020544E+01  0.38726247220E+02  0.00000000000E+00 0.  1.
         11    1    1    2    0    0 -0.35520681999E+02  0.55741747807E+01 -0.61149371757E+02  0.70936844731E+02  0.00000000000E+00 0. -1.
</event>
<event>
 7    1  0.1538147E-010  0.2028385E+03  0.7561462E-02  0.1147366E+00
         -2   -1    0    0    0  501 -0.00000000000E+00  0.00000000000E+00  0.58514905937E+03  0.58514905937E+03  0.00000000000E+00 0. -1.
          2   -1    0    0  501    0  0.00000000000E+00 -0.00000000000E+00 -0.76453626345E+02  0.76453626345E+02  0.00000000000E+00 0.  1.
         25    2    1    2    0    0  0.16673519269E+03  0.70815614239E+02  0.27089805786E+03  0.34908899076E+03  0.12514747308E+03 0.  0.
          5    1    3    3  502    0  0.10085333556E+03  0.10507368957E+03  0.17436561565E+03  0.22722833417E+03  0.41800000000E+01 0.  1.
         -5    1    3    3    0  502  0.65881857137E+02 -0.34258075327E+02  0.96532442209E+02  0.12186065659E+03  0.41800000000E+01 0.  1.
        -11    1    1    2    0    0 -0.13729191686E+02  0.52877808409E+01 -0.50605139751E+01  0.15558281791E+02  0.00000000000E+00 0.  1.
         11    1    1    2    0    0 -0.15300600101E+03 -0.76103395080E+02  0.24285788915E+03  0.29695541316E+03  0.00000000000E+00 0. -1.
</event>
<event>
 6    1  0.1538147E-010  0.1266128E+03  0.7561462E-02  0.1232570E+00
         -1   -1    0    0    0  501 -0.00000000000E+00  0.00000000000E+00  0.56865173089E+02  0.56865173089E+02  0.00000000000E+00 0.  1.
          1   -1    0    0  501    0  0.00000000000E+00 -0.00000000000E+00 -0.42612656046E+03  0.42612656046E+03  0.00000000000E+00 0. -1.
          5    1    1    2  502    0 -0.37727320783E+01 -0.36488881482E+02 -0.53720785580E+02  0.65184869275E+02  0.41800000000E+01 0. -1.
         -5    1    1    2    0  502 -0.71395397424E+02  0.74900613987E+02 -0.32449634841E+02  0.10852583080E+03  0.41800000000E+01 0. -1.
        -11    1    1    2    0    0  0.78641135438E+02 -0.46227463065E+01 -0.24896891608E+03  0.26113467625E+03  0.00000000000E+00 0. -1.
         11    1    1    2    0    0 -0.34730059356E+01 -0.33788986199E+02 -0.34122050870E+02  0.48146357226E+02  0.00000000000E+00 0.  1.
</event>
<event>
 7    1  0.1538147E-010  0.1160887E+03  0.7561462E-02  0.1249693E+00
         -1   -1    0    0    0  501 -0.00000000000E+00  0.00000000000E+00  0.37668023515E+03  0.37668023515E+03  0.00000000000E+00 0.  1.
          1   -1    0    0  501    0  0.00000000000E+00 -0.00000000000E+00 -0.42605470670E+02  0.42605470670E+02  0.00000000000E+00 0. -1.
         25    2    1    2    0    0  0.36339736451E+02  0.42649631849E+02  0.24285396726E+03  0.27888244550E+03  0.12513113701E+03 0.  0.
          5    1    3    3  502    0  0.70969155174E+02 -0.11447562021E+02  0.11382878008E+03  0.13469272897E+03  0.41800000000E+01 0.  1.
         -5    1    3    3    0  502 -0.34629418722E+02  0.54097193870E+02  0.12902518718E+03  0.14418971653E+03  0.41800000000E+01 0.  1.
        -11    1    1    2    0    0 -0.26928833737E+02 -0.65645915516E+02  0.35385022616E+02  0.79288385883E+02  0.00000000000E+00 0.  1.
         11    1    1    2    0    0 -0.94109027145E+01  0.22996283667E+02  0.55835774603E+02  0.61114874441E+02  0.00000000000E+00 0. -1.
</event>
<event>
 7    1  0.1538147E-010  0.1656537E+03  0.7561462E-02  0.1182458E+00
         -1   -1    0    0    0  501 -0.00000000000E+00  0.00000000000E+00  0.23015146233E+03  0.23015146233E+03  0.00000000000E+00 0. -1.
          1   -1    0    0  501    0  0.00000000000E+00 -0.00000000000E+00 -0.14840147235E+03  0.14840147235E+03  0.00000000000E+00 0.  1.
         25    2    1    2    0    0 -0.12808823163E+03  0.28538744934E+02 -0.29871097907E+02  0.18376553462E+03  0.12512567355E+03 0.  0.
          5    1    3    3  502    0 -0.34602094863E+01  0.47325679772E+02 -0.32442361002E+02  0.57633950089E+02  0.41800000000E+01 0.  1.
         -5    1    3    3    0  502 -0.12462802214E+03 -0.18786934838E+02  0.25712630952E+01  0.12613158454E+03  0.41800000000E+01 0.  1.
        -11    1    1    2    0    0  0.60869908179E+02 -0.58088675943E+02  0.75095409263E+02  0.11277748218E+03  0.00000000000E+00 0.  1.
         11    1    1    2    0    0  0.67218323448E+02  0.29549931010E+02  0.36525678625E+02  0.82009917869E+02  0.00000000000E+00 0. -1.
</event>
<event>
 6    1  0.1538147E-010  0.1013697E+03  0.7561462E-02  0.1277442E+00
         -2   -1    0    0    0  501 -0.00000000000E+00  0.00000000000E+00  0.10498980106E+03  0.10498980106E+03  0.00000000000E+00 0.  1.
          2   -1    0    0  501    0  0.00000000000E+00 -0.00000000000E+00 -0.36171366195E+03  0.36171366195E+03  0.00000000000E+00 0. -1.
          5    1    1    2  502    0 -0.11497203782E+02  0.62051112584E+02 -0.11383545885E+03  0.13022484540E+03  0.41800000000E+01 0.  1.
         -5    1    1    2    0  502 -0.41914364183E+01 -0.55153683145E+02 -0.21361394226E+03  0.22069863079E+03  0.41800000000E+01 0.  1.
        -11    1    1    2    0    0  0.69986709363E+01 -0.44695096236E+02  0.60731189552E+02  0.75729191246E+02  0.00000000000E+00 0.  1.
         11    1    1    2    0    0  0.86899692641E+01  0.37797666797E+02  0.99943506755E+01  0.40050795579E+02  0.00000000000E+00 0. -1.
</event>
<event>
 6    1  0.1538147E-010  0.1680480E+03  0.7561462E-02  0.1179899E+00
          2   -1    0    0  501    0  0.00000000000E+00  0.00000000000E+00  0.85109511524E+03  0.85109511524E+03  0.00000000000E+00 0. -1.
         -2   -1    0    0    0  501 -0.00000000000E+00 -0.00000000000E+00 -0.41685273996E+02  0.41685273996E+02  0.00000000000E+00 0.  1.
          5    1    1    2  502    0  0.50696704692E+01  0.56153043925E+02  0.28696985736E+02  0.63402328751E+02  0.41800000000E+01 0. -1.
         -5    1    1    2    0  502 -0.68876300119E+02  0.78989590120E+02  0.30999701260E+03  0.32725971381E+03  0.41800000000E+01 0. -1.
        -11    1    1    2    0    0 -0.91520509262E+01 -0.86511580841E+02  0.22558217071E+03  0.24177536971E+03  0.00000000000E+00 0.  1.
         11    1    1    2    0    0  0.72958680576E+02 -0.48631053204E+02  0.24513367219E+03  0.26034297696E+03  0.00000000000E+00 0. -1.
</event>
<event>
 7    1  0.1538147E-010  0.9329447E+02  0.7561462E-02  0.1295064E+00
         -2   -1    0    0    0  501 -0.00000000000E+00  0.00000000000E+00  0.41340851811E+02  0.41340851811E+02  0.00000000000E+00 0.  1.
          2   -1    0    0  501    0  0.00000000000E+00 -0.00000000000E+00 -0.40590793912E+03  0.40590793912E+03  0.00000000000E+00 0. -1.
         25    2    1    2    0    0 -0.36681473729E+02  0.57545513029E+02 -0.22764977126E+03  0.26857806923E+03  0.12511092812E+03 0.  0.
          5    1    3    3  502    0 -0.37742976070E+02 -0.18449526711E+02 -0.16402582892E+03  0.16937196413E+03  0.41800000000E+01 0.  1.
         -5    1    3    3    0  502  0.10615023407E+01  0.75995039740E+02 -0.63623942332E+02  0.99206105106E+02  0.41800000000E+01 0.  1.
        -11    1    1    2    0    0  0.13768403118E+02 -0.22707558670E+02  0.81113037607E+01  0.27766803811E+02  0.00000000000E+00 0.  1.
         11    1    1    2    0    0  0.22913070612E+02 -0.34837954359E+02 -0.14502861982E+03  0.15090391789E+03  0.00000000000E+00 0. -1.
</event>
<event>
 7    1  0.1538147E-010  0.1371115E+03  0.7561462E-02  0.1217269E+00
         -2   -1    0    0    0  501 -0.00000000000E+00  0.00000000000E+00  0.36249157736E+02  0.36249157736E+02  0.00000000000E+00 0.  1.
          2   -1    0    0  501    0  0.00000000000E+00 -0.00000000000E+00 -0.79445610805E+03  0.79445610805E+03  0.00000000000E+00 0. -1.
         25    2    1    2    0    0  0.11773995170E+03  0.37673452866E+02 -0.50466633483E+03  0.53443686817E+03  0.12511063611E+03 0.  0.
          5    1    3    3  502    0  0.23338439795E+02  0.35661527363E+02 -0.34863679470E+02  0.55221154028E+02  0.41800000000E+01 0.  1.
         -5    1    3    3    0  502  0.94401511904E+02  0.20119255026E+01 -0.46980265536E+03  0.47921571414E+03  0.41800000000E+01 0.  1.
        -11    1    1    2    0    0 -0.29788711588E+02  0.16034824182E+02 -0.13509869955E+03  0.13927003103E+03  0.00000000000E+00 0. -1.
         11    1    1    2    0    0 -0.87951240111E+02 -0.53708277048E+02 -0.11844191594E+03  0.15699836659E+03  0.00000000000E+00 0.  1.
</event>
<event>
 7    1  0.1538147E-010  0.1809519E+03  0.7561462E-02  0.1166885E+00
          1   -1    0    0  501    0  0.00000000000E+00  0.00000000000E+00  0.19245444146E+03  0.19245444146E+03  0.00000000000E+00 0. -1.
         -1   -1    0    0    0  501 -0.00000000000E+00 -0.00000000000E+00 -0.17998005189E+03  0.17998005189E+03  0.00000000000E+00 0.  1.
         25    2    1    2    0    0 -0.47249558045E+02  0.13664000373E+03 -0.36457868726E+02  0.19459375950E+03  0.12503816892E+03 0.  0.
          5    1    3    3  502    0 -0.74598819577E+02  0.29514766922E+02 -0.19434172588E+02  0.82651465885E+02  0.41800000000E+01 0. -1.
         -5    1    3    3    0  502  0.27349261532E+02  0.10712523681E+03 -0.17023696138E+02  0.11194229361E+03  0.41800000000E+01 0. -1.
        -11    1    1    2    0    0  0.18794732931E+02 -0.14090834675E+03  0.42247600920E+02  0.14830126080E+03  0.00000000000E+00 0.  1.
         11    1    1    2    0    0  0.28454825114E+02  0.42683430164E+01  0.66846573837E+01  0.29539473061E+02  0.00000000000E+00 0. -1.
</event>
<event>
 7    1  0.1538147E-010  0.1162552E+03  0.7561462E-02  0.1249406E+00
         -3   -1    0    0    0  501 -0.00000000000E+00  0.00000000000E+00  0.67853420593E+03  0.67853420593E+03  0.00000000000E+00 0.  1.
          3   -1    0    0  501    0  0.00000000000E+00 -0.00000000000E+00 -0.31884478260E+02  0.31884478260E+02  0.00000000000E+00 0. -1.
         25    2    1    2    0    0  0.20739098042E+02 -0.96000321901E+02  0.38345995784E+03  0.41514551821E+03  0.12513229012E+03 0.  0.
          5    1    3    3  502    0  0.16253468638E+02 -0.10377354637E+02  0.28006945565E+03  0.28076366773E+03  0.41800000000E+01 0. -1.
         -5    1    3    3    0  502  0.44856294038E+01 -0.85622967264E+02  0.10339050219E+03  0.13438185048E+03  0.41800000000E+01 0. -1.
        -11    1    1    2    0    0 -0.65296440530E+01 -0.14302320371E+02  0.75401816075E+02  0.77023545017E+02  0.00000000000E+00 0.  1.
         11    1    1    2    0    0 -0.14209453989E+02  0.11030264227E+03  0.18778795376E+03  0.21824962096E+03  0.00000000000E+00 0. -1.
</event>
<event>
 7    1  0.1538147E-010  0.1999117E+03  0.7561462E-02  0.1149814E+00
         -1   -1    0    0    0  501 -0.00000000000E+00  0.00000000000E+00  0.12821035121E+03  0.12821035121E+03  0.00000000000E+00 0.  1.
          1   -1    0    0  501    0  0.00000000000E+00 -0.00000000000E+00 -0.35469472257E+03  0.35469472257E+03  0.00000000000E+00 0. -1.
         25    2    1    2    0    0  0.10726275463E+03 -0.14886320503E+03 -0.10400315977E+03  0.24523895798E+03  0.12513966967E+03 0.  0.
          5    1    3    3  502    0  0.53558353388E+02 -0.18465814197E+01  0.57048505003E+01  0.54054831419E+02  0.41800000000E+01 0. -1.
         -5    1    3    3    0  502  0.53704401239E+02 -0.14701662361E+03 -0.10970801027E+03  0.19118412656E+03  0.41800000000E+01 0. -1.
        -11    1    1    2    0    0 -0.21867672432E+02  0.69709117870E+02 -0.91668566550E+02  0.11722065648E+03  0.00000000000E+00 0. -1.
         11    1    1    2    0    0 -0.85395082195E+02  0.79154087162E+02 -0.30812645044E+02  0.12044545933E+03  0.00000000000E+00 0.  1.
</event>
<event>
 7    1  0.1538147E-010  0.7773615E+02  0.7561462E-02  0.1335601E+00
          1   -1    0    0  501    0  0.00000000000E+00  0.00000000000E+00  0.71429441575E+03  0.71429441575E+03  0.00000000000E+00 0. -1.
         -1   -1    0    0    0  501 -0.00000000000E+00 -0.00000000000E+00 -0.37335559413E+02  0.37335559413E+02  0.00000000000E+00 0.  1.
         25    2    1    2    0    0 -0.43653216859E+02  0.42866987140E+02  0.61351719990E+03  0.62911724939E+03  0.12506788947E+03 0.  0.
          5    1    3    3  502    0 -0.30578678516E+02  0.43834527053E+02  0.61300757972E+03  0.61534728937E+03  0.41800000000E+01 0.  1.
         -5    1    3    3    0  502 -0.13074538344E+02 -0.96753991363E+00  0.50962018750E+00  0.13769960026E+02  0.41800000000E+01 0.  1.
        -11    1    1    2    0    0  0.22639402186E+02  0.14582942783E+02  0.54366670936E+02  0.60670747978E+02  0.00000000000E+00 0. -1.
         11    1    1    2    0    0  0.21013814673E+02 -0.57449929922E+02  0.90749854944E+01  0.61841977790E+02  0.00000000000E+00 0.  1.
</event>
<event>
 7    1  0.1538147E-010  0.8833327E+02  0.7561462E-02  0.1306939E+00
          4   -1    0    0  501    0  0.00000000000E+00  0.00000000000E+00  0.15394020908E+02  0.15394020908E+02  0.00000000000E+00 0. -1.
         -4   -1    0    0    0  501 -0.00000000000E+00 -0.00000000000E+00 -0.11635417117E+04  0.11635417117E+04  0.00000000000E+00 0.  1.
         25    2    1    2    0    0  0.42304829766E+02 -0.19066510594E+02 -0.94672530514E+03  0.95607453667E+03  0.12504593492E+03 0.  0.
          5    1    3    3  502    0 -0.18773243768E+02  0.90809405399E+01 -0.29447952515E+02  0.36325644798E+02  0.41800000000E+01 0. -1.
         -5    1    3    3    0  502  0.61078073534E+02 -0.28147451134E+02 -0.91727735262E+03  0.91974889188E+03  0.41800000000E+01 0. -1.
        -11    1    1    2    0    0  0.20648874767E+01 -0.25232962242E+02 -0.10376682419E+03  0.10681067337E+03  0.00000000000E+00 0.  1.
         11    1    1    2    0    0 -0.44369717243E+02  0.44299472836E+02 -0.97655561459E+02  0.11605052256E+03  0.00000000000E+00 0. -1.
</event>
<event>
 7    1  0.1538147E-010  0.2243874E+03  0.7561462E-02  0.1130654E+00
         -1   -1    0    0    0  501 -0.00000000000E+00  0.00000000000E+00  0.24835263372E+03  0.24835263372E+03  0.00000000000E+00 0.  1.
          1   -1    0    0  501    0  0.00000000000E+00 -0.00000000000E+00 -0.27090764103E+03  0.27090764103E+03  0.00000000000E+00 0. -1.
         25    2    1    2    0    0 -0.15857346200E+03  0.11748783691E+03 -0.14019898039E+03  0.27250301741E+03  0.12511277202E+03 0.  0.
          5    1    3    3  502    0 -0.15850356324E+03  0.50554143988E+02 -0.94989765165E+02  0.19162366482E+03  0.41800000000E+01 0.  1.
         -5    1    3    3    0  502 -0.69898762099E-01  0.66933692921E+02 -0.45209215226E+02  0.80879352589E+02  0.41800000000E+01 0.  1.
        -11    1    1    2    0    0  0.14020341276E+03 -0.55760312570E+02  0.95902827302E+02  0.17878356102E+03  0.00000000000E+00 0. -1.
         11    1    1    2    0    0  0.18370049248E+02 -0.61727524338E+02  0.21741145781E+02  0.67973696311E+02  0.00000000000E+00 0.  1.
</event>
<event>
 7    1  0.1538147E-010  0.1346537E+03  0.7561462E-02  0.1220709E+00
         -1   -1    0    0    0  501 -0.00000000000E+00  0.00000000000E+00  0.33659318781E+03  0.33659318781E+03  0.00000000000E+00 0.  1.
          1   -1    0    0  501    0  0.00000000000E+00 -0.00000000000E+00 -0.79107461066E+02  0.79107461066E+02  0.00000000000E+00 0. -1.
         25    2    1    2    0    0  0.12400647330E+01 -0.84634103415E+02  0.33965031462E+02  0.15482916251E+03  0.12511585423E+03 0.  0.
          5    1    3    3  502    0 -0.40469814015E+02  0.50870175272E+01 -0.15870195248E+02  0.43966112984E+02  0.41800000000E+01 0. -1.
         -5    1    3    3    0  502  0.41709878748E+02 -0.89721120943E+02  0.49835226710E+02  0.11086304952E+03  0.41800000000E+01 0. -1.
        -11    1    1    2    0    0 -0.39364037946E+02  0.33646806879E+01  0.10504512979E+03  0.11222890827E+03  0.00000000000E+00 0.  1.
         11    1    1    2    0    0  0.38123973213E+02  0.81269422727E+02  0.11847556549E+03  0.14864257809E+03  0.00000000000E+00 0. -1.
</event>
<event>
 7    1  0.1538147E-010  0.1049634E+03  0.7561462E-02  0.1270192E+00
         -2   -1    0    0    0  501 -0.00000000000E+00  0.00000000000E+00  0.13877173475E+02  0.13877173475E+02  0.00000000000E+00 0.  1.
          2   -1    0    0  501    0  0.00000000000E+00 -0.00000000000E+00 -0.21250660184E+04  0.21250660184E+04  0.00000000000E+00 0. -1.
         25    2    1    2    0    0 -0.16905100077E+02  0.75496271497E+02 -0.18303466368E+04  0.18362480857E+04  0.12511095846E+03 0.  0.
          5    1    3    3  502    0 -0.28674100741E+02  0.95600230858E+02 -0.17396007920E+04  0.17424666413E+04  0.41800000000E+01 0.  1.
         -5    1    3    3    0  502  0.11769000665E+02 -0.20103959361E+02 -0.90745844785E+02  0.93781444350E+02  0.41800000000E+01 0.  1.
        -11    1    1    2    0    0  0.17844356726E+02 -0.92282343565E+01 -0.75169627188E+01  0.21449617824E+02  0.00000000000E+00 0.  1.
         11    1    1    2    0    0 -0.93925664900E+00 -0.66268037141E+02 -0.27332524544E+03  0.28124548840E+03  0.00000000000E+00 0. -1.
</event>
<event>
 7    1  0.1538147E-010  0.2156913E+03  0.7561462E-02  0.1137137E+00
          2   -1    0    0  501    0  0.00000000000E+00  0.00000000000E+00  0.27135295786E+03  0.27135295786E+03  0.00000000000E+00 0. -1.
         -2   -1    0    0    0  501 -0.00000000000E+00 -0.00000000000E+00 -0.18976653141E+03  0.18976653141E+03  0.00000000000E+00 0.  1.
         25    2    1    2    0    0 -0.18189776105E+03  0.76978679251E+02  0.20114099549E+02  0.23462718323E+03  0.12503129839E+03 0.  0.
          5    1    3    3  502    0 -0.26328213816E+02  0.64980430491E+02 -0.20828338428E+02  0.73259287952E+02  0.41800000000E+01 0. -1.
         -5    1    3    3    0  502 -0.15556954723E+03  0.11998248760E+02  0.40942437977E+02  0.16136789528E+03  0.41800000000E+01 0. -1.
        -11    1    1    2    0    0  0.64830475589E+02  0.21721828678E+00 -0.15316913298E+02  0.66615655681E+02  0.00000000000E+00 0.  1.
         11    1    1    2    0    0  0.11706728546E+03 -0.77195897538E+02  0.76789240201E+02  0.15987665036E+03  0.00000000000E+00 0. -1.
</event>
<event>
 6    1  0.1538147E-010  0.1600431E+03  0.7561462E-02  0.1188648E+00
          1   -1    0    0  501    0  0.00000000000E+00  0.00000000000E+00  0.40733312872E+03  0.40733312872E+03  0.00000000000E+00 0. -1.
         -1   -1    0    0    0  501 -0.00000000000E+00 -0.00000000000E+00 -0.11765399941E+03  0.11765399941E+03  0.00000000000E+00 0.  1.
          5    1    1    2  502    0  0.82380325920E+02  0.45657393962E+02 -0.53798258290E+02  0.10854879418E+03  0.41800000000E+01 0. -1.
         -5    1    1    2    0  502  0.57809536158E+02 -0.15803719854E+02  0.54944611285E+02  0.81413037908E+02  0.41800000000E+01 0. -1.
        -11    1    1    2    0    0 -0.51241009306E+02  0.29187003408E+02  0.67988058300E+02  0.89999434854E+02  0.00000000000E+00 0.  1.
         11    1    1    2    0    0 -0.88948852773E+02 -0.59040677516E+02  0.22054471801E+03  0.24502586119E+03  0.00000000000E+00 0. -1.
</event>
<event>
 7    1  0.1538147E-010  0.1386756E+03  0.7561462E-02  0.1215122E+00
          2   -1    0    0  501    0  0.00000000000E+00  0.00000000000E+00  0.16111175022E+04  0.16111175022E+04  0.00000000000E+00 0. -1.
         -2   -1    0    0    0  501 -0.00000000000E+00 -0.00000000000E+00 -0.17035547456E+02  0.17035547456E+02  0.00000000000E+00 0.  1.
         25    2    1    2    0    0 -0.12041080916E+03  0.26158942698E+02  0.91917120974E+03  0.93578685145E+03  0.12505304991E+03 0.  0.
          5    1    3    3  502    0 -0.98762399371E+02  0.19165640127E+02  0.30522158873E+03  0.32140165513E+03  0.41800000000E+01 0.  1.
         -5    1    3    3    0  502 -0.21648409792E+02  0.69933025712E+01  0.61394962101E+03  0.61438519632E+03  0.41800000000E+01 0.  1.
        -11    1    1    2    0    0  0.58713362937E+02 -0.59337785964E+02  0.32823021478E+03  0.33867876479E+03  0.00000000000E+00 0. -1.
         11    1    1    2    0    0  0.61697446226E+02  0.33178843266E+02  0.34668053021E+03  0.35368743339E+03  0.00000000000E+00 0.  1.
</event>
<event>
 7    1  0.1538147E-010  0.1453278E+03  0.7561462E-02  0.1206335E+00
          1   -1    0    0  501    0  0.00000000000E+00  0.00000000000E+00  0.50334793516E+03  0.50334793516E+03  0.00000000000E+00 0. -1.
         -1   -1    0    0    0  501 -0.00000000000E+00 -0.00000000000E+00 -0.44773516630E+02  0.44773516630E+02  0.00000000000E+00 0.  1.
         25    2    1    2    0    0  0.36602680994E+02 -0.97864847161E+02  0.25476875757E+03  0.30242893851E+03  0.12505542152E+03 0.  0.
          5    1    3    3  502    0 -0.28527989251E+02  0.72654386834E+01  0.99703407286E+02  0.10404265757E+03  0.41800000000E+01 0.  1.
         -5    1    3    3    0  502  0.65130670245E+02 -0.10513028584E+03  0.15506535028E+03  0.19838628094E+03  0.41800000000E+01 0.  1.
        -11    1    1    2    0    0  0.19465204894E+02  0.73524192287E+02  0.11573776008E+03  0.13849162488E+03  0.00000000000E+00 0.  1.
         11    1    1    2    0    0 -0.56067885888E+02  0.24340654874E+02  0.88067900882E+02  0.10720088840E+03  0.00000000000E+00 0. -1.
</event>
<event>
 7    1  0.1538147E-010  0.6683291E+02  0.7561462E-02  0.1371206E+00
          1   -1    0    0  501    0  0.00000000000E+00  0.00000000000E+00  0.11705781761E+03  0.11705781761E+03  0.00000000000E+00 0. -1.
         -1   -1    0    0    0  501 -0.00000000000E+00 -0.00000000000E+00 -0.10513092773E+03  0.10513092773E+03  0.00000000000E+00 0.  1.
         25    2    1    2    0    0 -0.13875593272E+01  0.54603085636E+01 -0.17019478173E+02  0.12633662503E+03  0.12505814607E+03 0.  0.
          5    1    3    3  502    0  0.12656268951E+02 -0.26925757753E+02 -0.62065298956E+02  0.68954704762E+02  0.41800000000E+01 0.  1.
         -5    1    3    3    0  502 -0.14043828278E+02  0.32386066316E+02  0.45045820784E+02  0.57381920273E+02  0.41800000000E+01 0.  1.
        -11    1    1    2    0    0 -0.25494308354E+02  0.18948624502E+02  0.45867427639E+02  0.55792750848E+02  0.00000000000E+00 0. -1.
         11    1    1    2    0    0  0.26881867681E+02 -0.24408933066E+02 -0.16921059585E+02  0.40059369452E+02  0.00000000000E+00 0.  1.
</event>
<event>
 7    1  0.1538147E-010  0.1085992E+03  0.7561462E-02  0.1263186E+00
         -3   -1    0    0    0  501 -0.00000000000E+00  0.00000000000E+00  0.13793863349E+03  0.13793863349E+03  0.00000000000E+00 0.  1.
          3   -1    0    0  501    0  0.00000000000E+00 -0.00000000000E+00 -0.11566240057E+03  0.11566240057E+03  0.00000000000E+00 0. -1.
         25    2    1    2    0    0  0.59646613296E+02 -0.42340239673E+02  0.20075367366E+02  0.14627167303E+03  0.12506785191E+03 0.  0.
          5    1    3    3  502    0 -0.26490810614E+02 -0.44117170195E+02  0.29563673376E+02  0.59494293310E+02  0.41800000000E+01 0. -1.
         -5    1    3    3    0  502  0.86137423910E+02  0.17769305220E+01 -0.94883060095E+01  0.86777379719E+02  0.41800000000E+01 0. -1.
        -11    1    1    2    0    0 -0.42325837907E+02  0.11368044100E+02  0.37201592125E+02  0.57486236943E+02  0.00000000000E+00 0.  1.
         11    1    1    2    0    0 -0.17320775389E+02  0.30972195573E+02 -0.35000726566E+02  0.49843124088E+02  0.00000000000E+00 0. -1.
</event>
<event>
 6    1  0.1538147E-010  0.1442847E+03  0.7561462E-02  0.1207677E+00
         -1   -1    0    0    0  501 -0.00000000000E+00  0.00000000000E+00  0.28274868710E+02  0.28274868710E+02  0.00000000000E+00 0.  1.
          1   -1    0    0  501    0  0.00000000000E+00 -0.00000000000E+00 -0.90249488038E+03  0.90249488038E+03  0.00000000000E+00 0. -1.
          5    1    1    2  502    0 -0.46774041158E+02  0.11124565741E+03 -0.52591025082E+03  0.53959472898E+03  0.41800000000E+01 0. -1.
         -5    1    1    2    0  502 -0.17497747792E+02 -0.33774513353E+02 -0.11970828195E+03  0.12567590898E+03  0.41800000000E+01 0. -1.
        -11    1    1    2    0    0  0.73141415062E+02 -0.26468935715E+02 -0.17213766124E+03  0.18889585906E+03  0.00000000000E+00 0. -1.
         11    1    1    2    0    0 -0.88696261128E+01 -0.51002208344E+02 -0.56463817669E+02  0.76603252079E+02  0.00000000000E+00 0.  1.
</event>
<event>
 7    1  0.1538147E-010  0.3649468E+03  0.7561462E-02  0.1056642E+00
          2   -1    0    0  501    0  0.00000000000E+00  0.00000000000E+00  0.23150871705E+04  0.23150871705E+04  0.00000000000E+00 0.  1.
         -2   -1    0    0    0  501 -0.00000000000E+00 -0.00000000000E+00 -0.72135733858E+02  0.72135733858E+02  0.00000000000E+00 0. -1.
         25    2    1    2    0    0 -0.53088992368E+02 -0.35730522604E+03  0.15922132470E+04  0.16374570833E+04  0.12504882983E+03 0.  0.
          5    1    3    3  502    0 -0.26980372239E+02 -0.22823665920E+03  0.73286341442E+03  0.76806651384E+03  0.41800000000E+01 0.  1.
         -5    1    3    3    0  502 -0.26108620129E+02 -0.12906856684E+03  0.85934983261E+03  0.86939056942E+03  0.41800000000E+01 0.  1.
        -11    1    1    2    0    0  0.32549148861E+01  0.24942602312E+03  0.38608916428E+03  0.45966159102E+03  0.00000000000E+00 0. -1.
         11    1    1    2    0    0  0.49834077482E+02  0.10787920292E+03  0.26464902533E+03  0.29010423008E+03  0.00000000000E+00 0.  1.
</event>
<event>
 7    1  0.1538147E-010  0.2527740E+03  0.7561462E-02  0.1111564E+00
          1   -1    0    0  501    0  0.00000000000E+00  0.00000000000E+00  0.73232205903E+03  0.73232205903E+03  0.00000000000E+00 0. -1.
         -1   -1    0    0    0  501 -0.00000000000E+00 -0.00000000000E+00 -0.98036744181E+02  0.98036744181E+02  0.00000000000E+00 0.  1.
         25    2    1    2    0    0  0.18118569569E+03 -0.14013976865E+03  0.45220844115E+03  0.52212577770E+03  0.12512171040E+03 0.  0.
          5    1    3    3  502    0 -0.10579565033E+01 -0.62756320528E+02  0.11397105997E+03  0.13017814697E+03  0.41800000000E+01 0. -1.
         -5    1    3    3    0  502  0.18224365219E+03 -0.77383448123E+02  0.33823738118E+03  0.39194763073E+03  0.41800000000E+01 0. -1.
        -11    1    1    2    0    0 -0.92265003357E+02  0.18778679455E+02  0.43624799753E+02  0.10377183047E+03  0.00000000000E+00 0.  1.
         11    1    1    2    0    0 -0.88920692332E+02  0.12136108920E+03  0.13845207395E+03  0.20446119504E+03  0.00000000000E+00 0. -1.
</event>
<event>
 6    1  0.1538147E-010  0.1274513E+03  0.7561462E-02  0.1231287E+00
          1   -1    0    0  501    0  0.00000000000E+00  0.00000000000E+00  0.26845736835E+03  0.26845736835E+03  0.00000000000E+00 0. -1.
         -1   -1    0    0    0  501 -0.00000000000E+00 -0.00000000000E+00 -0.62429847852E+02  0.62429847852E+02  0.00000000000E+00 0.  1.
          5    1    1    2  502    0 -0.59860409037E+01  0.84508471068E+02  0.65272435325E+02  0.10703026479E+03  0.41800000000E+01 0. -1.
         -5    1    1    2    0  502  0.77088180104E+01 -0.44233004788E+02  0.17677931854E+02  0.48435175878E+02  0.41800000000E+01 0. -1.
        -11    1    1    2    0    0 -0.56305499039E+02 -0.42206806107E+02  0.70589490561E+02  0.99672463005E+02  0.00000000000E+00 0.  1.
         11    1    1    2    0    0  0.54582721932E+02  0.19313398263E+01  0.52487662761E+02  0.75749312532E+02  0.00000000000E+00 0. -1.
</event>
<event>
 6    1  0.1538147E-010  0.1045331E+03  0.7561462E-02  0.1271042E+00
         -2   -1    0    0    0  501 -0.00000000000E+00  0.00000000000E+00  0.65248129779E+02  0.65248129779E+02  0.00000000000E+00 0.  1.
          2   -1    0    0  501    0  0.00000000000E+00 -0.00000000000E+00 -0.24763772894E+03  0.24763772894E+03  0.00000000000E+00 0. -1.
          5    1    1    2  502    0 -0.33692378312E+02  0.35821232964E+02 -0.13515408075E+03  0.14388340777E+03  0.41800000000E+01 0.  1.
         -5    1    1    2    0  502  0.45161066945E+02  0.21608060983E+02 -0.13722499611E+01  0.50257195873E+02  0.41800000000E+01 0.  1.
        -11    1    1    2    0    0 -0.25617649823E+02 -0.79350380426E+02 -0.33289125684E+02  0.89782585979E+02  0.00000000000E+00 0.  1.
         11    1    1    2    0    0  0.14148961191E+02  0.21921086479E+02 -0.12574142769E+02  0.28962669103E+02  0.00000000000E+00 0. -1.
</event>
<event>
 7    1  0.1538147E-010  0.1083853E+03  0.7561462E-02  0.1263590E+00
         -1   -1    0    0    0  501 -0.00000000000E+00  0.00000000000E+00  0.18958609667E+03  0.18958609667E+03  0.00000000000E+00 0.  1.
          1   -1    0    0  501    0  0.00000000000E+00 -0.00000000000E+00 -0.13264789308E+03  0.13264789308E+03  0.00000000000E+00 0. -1.
         25    2    1    2    0    0  0.29808199122E+02  0.58307410589E+02 -0.74576766043E+02  0.15971710984E+03  0.12513823668E+03 0.  0.
          5    1    3    3  502    0 -0.33621290130E+02  0.49989198340E+02  0.12751481875E+01  0.60402065392E+02  0.41800000000E+01 0. -1.
         -5    1    3    3    0  502  0.63429489252E+02  0.83182122496E+01 -0.75851914230E+02  0.99315044451E+02  0.41800000000E+01 0. -1.
        -11    1    1    2    0    0 -0.49897094085E+02 -0.49673559354E+02  0.80097795695E+02  0.10664351538E+03  0.00000000000E+00 0. -1.
         11    1    1    2    0    0  0.20088894963E+02 -0.86338512354E+01  0.51417173935E+02  0.55873364526E+02  0.00000000000E+00 0.  1.
</event>
<event>
 7    1  0.1538147E-010  0.9106317E+02  0.7561462E-02  0.1300297E+00
         -1   -1    0    0    0  501 -0.00000000000E+00  0.00000000000E+00  0.14802273434E+03  0.14802273434E+03  0.00000000000E+00 0.  1.
          1   -1    0    0  501    0  0.00000000000E+00 -0.00000000000E+00 -0.86099609146E+02  0.86099609146E+02  0.00000000000E+00 0. -1.
         25    2    1    2    0    0  0.18266275841E+02  0.16206768970E+02  0.55725644346E+02  0.13907304038E+03  0.12505857400E+03 0.  0.
          5    1    3    3  502    0 -0.32564542961E+01 -0.51908045253E+02  0.40159467687E+02  0.65843032293E+02  0.41800000000E+01 0.  1.
         -5    1    3    3    0  502  0.21522730137E+02  0.68114814223E+02  0.15566176659E+02  0.73230008091E+02  0.41800000000E+01 0.  1.
        -11    1    1    2    0    0 -0.23651848671E+02 -0.33088237883E+02 -0.32777016150E+02  0.52235756139E+02  0.00000000000E+00 0. -1.
         11    1    1    2    0    0  0.53855728300E+01  0.16881468913E+02  0.38974496997E+02  0.42813546962E+02  0.00000000000E+00 0.  1.
</event>
<event>
 6    1  0.1538147E-010  0.1710915E+03  0.7561462E-02  0.1176714E+00
         -2   -1    0    0    0  501 -0.00000000000E+00  0.00000000000E+00  0.29364251979E+02  0.29364251979E+02  0.00000000000E+00 0.  1.
          2   -1    0    0  501    0  0.00000000000E+00 -0.00000000000E+00 -0.10806408401E+04  0.10806408401E+04  0.00000000000E+00 0. -1.
          5    1    1    2  502    0  0.14185901508E+01 -0.66535592947E+02 -0.13445367062E+03  0.15008084311E+03  0.41800000000E+01 0.  1.
         -5    1    1    2    0  502 -0.10668963880E+03 -0.24324526712E+02 -0.47213726313E+03  0.48467043366E+03  0.41800000000E+01 0.  1.
        -11    1    1    2    0    0  0.84648508260E+02  0.10935752784E+03 -0.39284821282E+03  0.41647827934E+03  0.00000000000E+00 0. -1.
         11    1    1    2    0    0  0.20622540386E+02 -0.18497408177E+02 -0.51837441512E+02  0.58775535929E+02  0.00000000000E+00 0.  1.
</event>
<event>
 7    1  0.1538147E-010  0.1128267E+03  0.7561462E-02  0.1255423E+00
         -2   -1    0    0    0  501 -0.00000000000E+00  0.00000000000E+00  0.44679328471E+02  0.44679328471E+02  0.00000000000E+00 0.  1.
          2   -1    0    0  501    0  0.00000000000E+00 -0.00000000000E+00 -0.40978587384E+03  0.40978587384E+03  0.00000000000E+00 0. -1.
         25    2    1    2    0    0  0.49780908052E+02  0.41259258385E+01 -0.30809841793E+03  0.33623907367E+03  0.12504766076E+03 0.  0.
          5    1    3    3  502    0  0.85715384892E+02  0.14764731585E+02 -0.26516533201E+03  0.27909720566E+03  0.41800000000E+01 0.  1.
         -5    1    3    3    0  502 -0.35934476839E+02 -0.10638805746E+02 -0.42933085915E+02  0.57141868010E+02  0.41800000000E+01 0.  1.
        -11    1    1    2    0    0  0.22716941128E+02  0.13272768066E+02 -0.36925270817E+01  0.26568036107E+02  0.00000000000E+00 0.  1.
         11    1    1    2    0    0 -0.72497849180E+02 -0.17398693905E+02 -0.53315600360E+02  0.91658092535E+02  0.00000000000E+00 0. -1.
</event>
<event>
 6    1  0.1538147E-010  0.7990769E+02  0.7561462E-02  0.1329314E+00
         -2   -1    0    0    0  501 -0.00000000000E+00  0.00000000000E+00  0.20253822917E+03  0.20253822917E+03  0.00000000000E+00 0.  1.
          2   -1    0    0  501    0  0.00000000000E+00 -0.00000000000E+00 -0.74400150342E+02  0.74400150342E+02  0.00000000000E+00 0. -1.
          5    1    1    2  502    0  0.22500020148E+02  0.10789259951E+02  0.13908479521E+03  0.14136729358E+03  0.41800000000E+01 0.  1.
         -5    1    1    2    0  502 -0.31293369089E+02 -0.26831087421E+02  0.25719301183E+01  0.41512280420E+02  0.41800000000E+01 0.  1.
        -11    1    1    2    0    0 -0.39527928228E+02 -0.59827127692E+01 -0.59054612904E+01  0.40411934316E+02  0.00000000000E+00 0.  1.
         11    1    1    2    0    0  0.48321277169E+02  0.22024540239E+02 -0.76131852065E+01  0.53646871195E+02  0.00000000000E+00 0. -1.
</event>
<event>
 7    1  0.1538147E-010  0.1877492E+03  0.7561462E-02  0.1160507E+00
         -1   -1    0    0    0  501 -0.00000000000E+00  0.00000000000E+00  0.25250483743E+02  0.25250483743E+02  0.00000000000E+00 0.  1.
          1   -1    0    0  501    0  0.00000000000E+00 -0.00000000000E+00 -0.15152368934E+04  0.15152368934E+04  0.00000000000E+00 0. -1.
         25    2    1    2    0    0 -0.94475809730E+02 -0.12805790602E+03 -0.66637747266E+03  0.69643782731E+03  0.12506880230E+03 0.  0.
          5    1    3    3  502    0  0.25229536454E+02 -0.13027352999E+02 -0.18515492664E+03  0.18736611405E+03  0.41800000000E+01 0. -1.
         -5    1    3    3    0  502 -0.11970534618E+03 -0.11503055303E+03 -0.48122254603E+03  0.50907171326E+03  0.41800000000E+01 0. -1.
        -11    1    1    2    0    0  0.28316857264E+02  0.10792016702E+03 -0.42043917309E+03  0.43499161501E+03  0.00000000000E+00 0.  1.
         11    1    1    2    0    0  0.66158952466E+02  0.20137739000E+02 -0.40316976395E+03  0.40905793487E+03  0.00000000000E+00 0. -1.
</event>
<event>
 7    1  0.1538147E-010  0.1275582E+03  0.7561462E-02  0.1231125E+00
          1   -1    0    0  501    0  0.00000000000E+00  0.00000000000E+00  0.16711629161E+03  0.16711629161E+03  0.00000000000E+00 0. -1.
         -1   -1    0    0    0  501 -0.00000000000E+00 -0.00000000000E+00 -0.11955903204E+03  0.11955903204E+03  0.00000000000E+00 0.  1.
         25    2    1    2    0    0  0.64372382727E+02  0.37709746358E+02  0.78188476202E+02  0.16527606941E+03  0.12504764164E+03 0.  0.
          5    1    3    3  502    0 -0.83222537472E+01  0.60702802355E+02  0.86889227335E+01  0.62024671699E+02  0.41800000000E+01 0. -1.
         -5    1    3    3    0  502  0.72694636474E+02 -0.22993055996E+02  0.69499553469E+02  0.10325139771E+03  0.41800000000E+01 0. -1.
        -11    1    1    2    0    0 -0.57127214339E+02 -0.66493142326E+02 -0.25318621169E+02  0.91246310459E+02  0.00000000000E+00 0. -1.
         11    1    1    2    0    0 -0.72451683879E+01  0.28783395968E+02 -0.53125954580E+01  0.30152943785E+02  0.00000000000E+00 0.  1.
</event>
<event>
 7    1  0.1538147E-010  0.8943775E+02  0.7561462E-02  0.1304219E+00
         -1   -1    0    0    0  501 -0.00000000000E+00  0.00000000000E+00  0.11632660583E+03  0.11632660583E+03  0.00000000000E+00 0.  1.
          1   -1    0    0  501    0  0.00000000000E+00 -0.00000000000E+00 -0.12672248536E+03  0.12672248536E+03  0.00000000000E+00 0. -1.
         25    2    1    2    0    0  0.33867262564E+02 -0.40551331040E+02 -0.19154177555E+02  0.13716578451E+03  0.12512460989E+03 0.  0.
          5    1    3    3  502    0 -0.10800289645E+02  0.12366553832E+02 -0.56074235428E+02  0.58577898468E+02  0.41800000000E+01 0.  1.
         -5    1    3    3    0  502  0.44667552209E+02 -0.52917884873E+02  0.36920057873E+02  0.78587886045E+02  0.41800000000E+01 0.  1.
        -11    1    1    2    0    0 -0.50194707229E+02  0.14853482379E+01  0.30018272016E+02  0.58504799359E+02  0.00000000000E+00 0.  1.
         11    1    1    2    0    0  0.16327444666E+02  0.39065982802E+02 -0.21259973993E+02  0.47378507319E+02  0.00000000000E+00 0. -1.
</event>
<event>
 7    1  0.1538147E-010  0.1072775E+03  0.7561462E-02  0.1265696E+00
         -1   -1    0    0    0  501 -0.00000000000E+00  0.00000000000E+00  0.13494942355E+03  0.13494942355E+03  0.00000000000E+00 0.  1.
          1   -1    0    0  501    0  0.00000000000E+00 -0.00000000000E+00 -0.15179174541E+03  0.15179174541E+03  0.00000000000E+00 0. -1.
         25    2    1    2    0    0 -0.40149217964E+02  0.81356767519E+02  0.15793910113E+02  0.15531477184E+03  0.12506937047E+03 0.  0.
          5    1    3    3  502    0 -0.50832460490E+00  0.15108545509E+02  0.62868630496E+02  0.64795552639E+02  0.41800000000E+01 0. -1.
         -5    1    3    3    0  502 -0.39640893359E+02  0.66248222010E+02 -0.47074720383E+02  0.90519219201E+02  0.41800000000E+01 0. -1.
        -11    1    1    2    0    0  0.68351811884E+01 -0.87425993121E+02 -0.52045854002E+01  0.87847092634E+02  0.00000000000E+00 0.  1.
         11    1    1    2    0    0  0.33314036775E+02  0.60692256015E+01 -0.27431646572E+02  0.43579304484E+02  0.00000000000E+00 0. -1.
</event>
<event>
 7    1  0.1538147E-010  0.1160843E+03  0.7561462E-02  0.1249700E+00
          3   -1    0    0  501    0  0.00000000000E+00  0.00000000000E+00  0.20971196692E+03  0.20971196692E+03  0.00000000000E+00 0. -1.
         -3   -1    0    0    0  501 -0.00000000000E+00 -0.00000000000E+00 -0.15496712865E+03  0.15496712865E+03  0.00000000000E+00 0.  1.
         25    2    1    2    0    0 -0.43868873385E+02 -0.90998203307E+02 -0.74949770916E+02  0.17738149581E+03  0.12506628577E+03 0.  0.
          5    1    3    3  502    0 -0.57495884557E+02 -0.37617394545E+02 -0.96109338288E+02  0.11821726786E+03  0.41800000000E+01 0.  1.
         -5    1    3    3    0  502  0.13627011172E+02 -0.53380808762E+02  0.21159567372E+02  0.59164227950E+02  0.41800000000E+01 0.  1.
        -11    1    1    2    0    0  0.50840573445E+02  0.74744382503E+02  0.45379092021E+02  0.10114716317E+03  0.00000000000E+00 0.  1.
         11    1    1    2    0    0 -0.69717000603E+01  0.16253820804E+02  0.84315517157E+02  0.86150436597E+02  0.00000000000E+00 0. -1.
</event>
<event>
 6    1  0.1538147E-010  0.1124344E+03  0.7561462E-02  0.1256127E+00
         -1   -1    0    0    0  501 -0.00000000000E+00  0.00000000000E+00  0.41465326749E+03  0.41465326749E+03  0.00000000000E+00 0.  1.
          1   -1    0    0  501    0  0.00000000000E+00 -0.00000000000E+00 -0.12772618618E+03  0.12772618618E+03  0.00000000000E+00 0. -1.
          5    1    1    2  502    0 -0.36708766942E+02 -0.67425758050E+02 -0.54890343505E+02  0.94467923811E+02  0.41800000000E+01 0.  1.
         -5    1    1    2    0  502  0.31827273088E+02  0.41478354932E+02 -0.31475787810E+02  0.61168838949E+02  0.41800000000E+01 0.  1.
        -11    1    1    2    0    0  0.23872216329E+02 -0.28904962035E+02  0.21275496947E+03  0.21603253592E+03  0.00000000000E+00 0.  1.
         11    1    1    2    0    0 -0.18990722474E+02  0.54852365152E+02  0.16053824314E+03  0.17071015498E+03  0.00000000000E+00 0. -1.
</event>
<event>
 7    1  0.1538147E-010  0.1064080E+03  0.7561462E-02  0.1267370E+00
          2   -1    0    0  501    0  0.00000000000E+00  0.00000000000E+00  0.75006716569E+03  0.75006716569E+03  0.00000000000E+00 0. -1.
         -2   -1    0    0    0  501 -0.00000000000E+00 -0.00000000000E+00 -0.17466341338E+02  0.17466341338E+02  0.00000000000E+00 0.  1.
         25    2    1    2    0    0 -0.19813431372E+02 -0.16233893188E+02  0.51370738845E+03  0.52932756552E+03  0.12504510912E+03 0.  0.
          5    1    3    3  502    0 -0.57688907683E+02  0.28038076004E+02  0.34112128599E+03  0.34712439835E+03  0.41800000000E+01 0. -1.
         -5    1    3    3    0  502  0.37875476311E+02 -0.44271969191E+02  0.17258610246E+03  0.18220316716E+03  0.41800000000E+01 0. -1.
        -11    1    1    2    0    0  0.30914027309E+02  0.47653605037E+02  0.16827522264E+03  0.17760375478E+03  0.00000000000E+00 0. -1.
         11    1    1    2    0    0 -0.11100595937E+02 -0.31419711850E+02  0.50618213259E+02  0.60602186730E+02  0.00000000000E+00 0.  1.
</event>
<event>
 7    1  0.1538147E-010  0.9542062E+02  0.7561462E-02  0.1290232E+00
         -1   -1    0    0    0  501 -0.00000000000E+00  0.00000000000E+00  0.27083046336E+02  0.27083046336E+02  0.00000000000E+00 0.  1.
          1   -1    0    0  501    0  0.00000000000E+00 -0.00000000000E+00 -0.65624769287E+03  0.65624769287E+03  0.00000000000E+00 0. -1.
         25    2    1    2    0    0  0.52464146230E+01 -0.66105686184E+02 -0.41144180058E+03  0.43512870643E+03  0.12512053903E+03 0.  0.
          5    1    3    3  502    0 -0.26612580244E+02 -0.33934736457E+02 -0.37322656250E+03  0.37573306365E+03  0.41800000000E+01 0. -1.
         -5    1    3    3    0  502  0.31858994867E+02 -0.32170949727E+02 -0.38215238082E+02  0.59395642786E+02  0.41800000000E+01 0. -1.
        -11    1    1    2    0    0 -0.40529626450E+02  0.23970126392E+02 -0.16665876804E+03  0.17318303192E+03  0.00000000000E+00 0. -1.
         11    1    1    2    0    0  0.35283211827E+02  0.42135559792E+02 -0.51064077913E+02  0.75019000853E+02  0.00000000000E+00 0.  1.
</event>
<event>
 7    1  0.1538147E-010  0.2525863E+03  0.7561462E-02  0.1111681E+00
          1   -1    0    0  501    0  0.00000000000E+00  0.00000000000E+00  0.65282802975E+03  0.65282802975E+03  0.00000000000E+00 0. -1.
         -1   -1    0    0    0  501 -0.00000000000E+00 -0.00000000000E+00 -0.10613060698E+03  0.10613060698E+03  0.00000000000E+00 0.  1.
         25    2    1    2    0    0  0.23824710900E+03 -0.16584056449E+02  0.24909253769E+03  0.36704032100E+03  0.12503915001E+03 0.  0.
          5    1    3    3  502    0  0.72314545415E+01 -0.27098722378E+02  0.66722083969E+02  0.72497886717E+02  0.41800000000E+01 0.  1.
         -5    1    3    3    0  502  0.23101565446E+03  0.10514665929E+02  0.18237045372E+03  0.29454243429E+03  0.41800000000E+01 0.  1.
        -11    1    1    2    0    0 -0.92844958336E+02  0.34444262940E+02  0.70102766115E+02  0.12133009254E+03  0.00000000000E+00 0.  1.
         11    1    1    2    0    0 -0.14540215066E+03 -0.17860206492E+02  0.22750211897E+03  0.27058822319E+03  0.00000000000E+00 0. -1.
</event>
<event>
 6    1  0.1538147E-010  0.8479472E+02  0.7561462E-02  0.1315970E+00
          2   -1    0    0  501    0  0.00000000000E+00  0.00000000000E+00  0.17372292911E+03  0.17372292911E+03  0.00000000000E+00 0.  1.
         -2   -1    0    0    0  501 -0.00000000000E+00 -0.00000000000E+00 -0.82014119179E+02  0.82014119179E+02  0.00000000000E+00 0. -1.
          5    1    1    2  502    0  0.63981007811E+02 -0.19084547548E+02  0.24306197565E+02  0.71176210602E+02  0.41800000000E+01 0.  1.
         -5    1    1    2    0  502 -0.57718313446E+02 -0.15843598550E+02 -0.10314592694E+02  0.60879278449E+02  0.41800000000E+01 0.  1.
        -11    1    1    2    0    0 -0.15106294548E+02  0.26346415177E+02  0.96528517111E+02  0.10119332163E+03  0.00000000000E+00 0.  1.
         11    1    1    2    0    0  0.88436001828E+01  0.85817309204E+01 -0.18811312047E+02  0.22488237608E+02  0.00000000000E+00 0. -1.
</event>
<event>
 6    1  0.1538147E-010  0.6917316E+02  0.7561462E-02  0.1362928E+00
         -3   -1    0    0    0  501 -0.00000000000E+00  0.00000000000E+00  0.20845198404E+03  0.20845198404E+03  0.00000000000E+00 0.  1.
          3   -1    0    0  501    0  0.00000000000E+00 -0.00000000000E+00 -0.72005608471E+02  0.72005608471E+02  0.00000000000E+00 0. -1.
          5    1    1    2  502    0  0.61140881231E+01  0.11519718476E+02  0.67022174806E+02  0.68407092491E+02  0.41800000000E+01 0.  1.
         -5    1    1    2    0  502 -0.18819690511E+02 -0.31285386362E+02 -0.47918598804E+02  0.60387255792E+02  0.41800000000E+01 0.  1.
        -11    1    1    2    0    0 -0.35517797395E+02 -0.67998420125E+00  0.79403278979E+02  0.86987683168E+02  0.00000000000E+00 0.  1.
         11    1    1    2    0    0  0.48223399783E+02  0.20445652087E+02  0.37939520586E+02  0.64675561058E+02  0.00000000000E+00 0. -1.
</event>
<event>
 7    1  0.1538147E-010  0.1050595E+03  0.7561462E-02  0.1270002E+00
         -1   -1    0    0    0  501 -0.00000000000E+00  0.00000000000E+00  0.54320912444E+02  0.54320912444E+02  0.00000000000E+00 0.  1.
          1   -1    0    0  501    0  0.00000000000E+00 -0.00000000000E+00 -0.22075612607E+03  0.22075612607E+03  0.00000000000E+00 0. -1.
         25    2    1    2    0    0 -0.16625270842E+02  0.17206099339E+00 -0.86603185845E+02  0.15301761241E+03  0.12505138413E+03 0.  0.
          5    1    3    3  502    0  0.30608381592E+02 -0.43744172534E+02 -0.13082085487E+02  0.55127479673E+02  0.41800000000E+01 0. -1.
         -5    1    3    3    0  502 -0.47233652434E+02  0.43916233528E+02 -0.73521100358E+02  0.97890132738E+02  0.41800000000E+01 0. -1.
        -11    1    1    2    0    0 -0.66726118776E+00  0.44255860289E+02 -0.32795027685E+02  0.55086661255E+02  0.00000000000E+00 0.  1.
         11    1    1    2    0    0  0.17292532030E+02 -0.44427921282E+02 -0.47037000096E+02  0.66972764849E+02  0.00000000000E+00 0. -1.
</event>
<event>
 6    1  0.1538147E-010  0.1038673E+03  0.7561462E-02  0.1272367E+00
          1   -1    0    0  501    0  0.00000000000E+00  0.00000000000E+00  0.14760449822E+03  0.14760449822E+03  0.00000000000E+00 0. -1.
         -1   -1    0    0    0  501 -0.00000000000E+00 -0.00000000000E+00 -0.95568117164E+02  0.95568117164E+02  0.00000000000E+00 0.  1.
          5    1    1    2  502    0  0.29539784087E+02 -0.53518487143E+02  0.11239163117E+02  0.62294610501E+02  0.41800000000E+01 0.  1.
         -5    1    1    2    0  502  0.29133084130E+01  0.65367798950E+02  0.43574204767E+02  0.78724965713E+02  0.41800000000E+01 0.  1.
        -11    1    1    2    0    0 -0.30992260236E+02  0.27551642095E+02  0.29753010267E+02  0.51037778131E+02  0.00000000000E+00 0. -1.
         11    1    1    2    0    0 -0.14608322639E+01 -0.39400953902E+02 -0.32529997099E+02  0.51115261034E+02  0.00000000000E+00 0.  1.
</event>
<event>
 7    1  0.1538147E-010  0.9212025E+02  0.7561462E-02  0.1297797E+00
          1   -1    0    0  501    0  0.00000000000E+00  0.00000000000E+00  0.71134181634E+02  0.71134181634E+02  0.00000000000E+00 0. -1.
         -1   -1    0    0    0  501 -0.00000000000E+00 -0.00000000000E+00 -0.19622559578E+03  0.19622559578E+03  0.00000000000E+00 0.  1.
         25    2    1    2    0    0 -0.23867579929E+02 -0.44626350251E+02 -0.65474552652E+02  0.15002275620E+03  0.12513487853E+03 0.  0.
          5    1    3    3  502    0  0.38352430019E+02  0.45183853527E+01  0.10388384418E+02  0.40208402423E+02  0.41800000000E+01 0. -1.
         -5    1    3    3    0  502 -0.62220009948E+02 -0.49144735604E+02 -0.75862937070E+02  0.10981435378E+03  0.41800000000E+01 0. -1.
        -11    1    1    2    0    0  0.36227931908E+02  0.34378899270E+02  0.55225052385E+01  0.50248082844E+02  0.00000000000E+00 0. -1.
         11    1    1    2    0    0 -0.12360351979E+02  0.10247450981E+02 -0.65139366730E+02  0.67088938363E+02  0.00000000000E+00 0.  1.
</event>
<event>
 6    1  0.1538147E-010  0.2476646E+03  0.7561462E-02  0.1114790E+00
          2   -1    0    0  501    0  0.00000000000E+00  0.00000000000E+00  0.14158855363E+04  0.14158855363E+04  0.00000000000E+00 0. -1.
         -2   -1    0    0    0  501 -0.00000000000E+00 -0.00000000000E+00 -0.45715406332E+02  0.45715406332E+02  0.00000000000E+00 0.  1.
          5    1    1    2  502    0 -0.69955145466E+02  0.11632043614E+03  0.35040869697E+03  0.37580299833E+03  0.41800000000E+01 0. -1.
         -5    1    1    2    0  502 -0.11854202266E+03  0.62276210304E+01  0.22122848852E+03  0.25109860798E+03  0.41800000000E+01 0. -1.
        -11    1    1    2    0    0  0.81574968677E+02 -0.10408941790E+03  0.49477735771E+03  0.51214618630E+03  0.00000000000E+00 0.  1.
         11    1    1    2    0    0  0.10692219944E+03 -0.18458639267E+02  0.30375558675E+03  0.32255315001E+03  0.00000000000E+00 0. -1.
</event>
<event>
 7    1  0.1538147E-010  0.1356122E+03  0.7561462E-02  0.1219358E+00
         -1   -1    0    0    0  501 -0.00000000000E+00  0.00000000000E+00  0.28542714406E+03  0.28542714406E+03  0.00000000000E+00 0.  1.
          1   -1    0    0  501    0  0.00000000000E+00 -0.00000000000E+00 -0.98639145021E+02  0.98639145021E+02  0.00000000000E+00 0. -1.
         25    2    1    2    0    0  0.60234051018E+02  0.10468959351E+03  0.14672331626E+03  0.22750261027E+03  0.12506659929E+03 0.  0.
          5    1    3    3  502    0  0.39462057556E+02  0.10075588038E+03  0.16625924456E+03  0.19841524694E+03  0.41800000000E+01 0.  1.
         -5    1    3    3    0  502  0.20771993462E+02  0.39337131324E+01 -0.19535928299E+02  0.29087363337E+02  0.41800000000E+01 0.  1.
        -11    1    1    2    0    0 -0.49195883904E+01 -0.81102573690E+02  0.50306118182E+02  0.95564299483E+02  0.00000000000E+00 0.  1.
         11    1    1    2    0    0 -0.55314462627E+02 -0.23587019819E+02 -0.10241435395E+02  0.60999379330E+02  0.00000000000E+00 0. -1.
</event>
<event>
 7    1  0.1538147E-010  0.1795494E+03  0.7561462E-02  0.1168240E+00
         -2   -1    0    0    0  501 -0.00000000000E+00  0.00000000000E+00  0.25051022757E+02  0.25051022757E+02  0.00000000000E+00 0.  1.
          2   -1    0    0  501    0  0.00000000000E+00 -0.00000000000E+00 -0.20145649818E+04  0.20145649818E+04  0.00000000000E+00 0. -1.
         25    2    1    2    0    0 -0.31705735679E+02  0.17098611975E+03 -0.14407632955E+04  0.14566036239E+04  0.12511489412E+03 0.  0.
          5    1    3    3  502    0 -0.21418818559E+02  0.14114365033E+03 -0.66391298270E+03  0.67910103579E+03  0.41800000000E+01 0.  1.
         -5    1    3    3    0  502 -0.10286917120E+02  0.29842469419E+02 -0.77685031278E+03  0.77750258811E+03  0.41800000000E+01 0.  1.
        -11    1    1    2    0    0 -0.13217594287E+02 -0.96879789451E+02 -0.18692203814E+03  0.21095081593E+03  0.00000000000E+00 0.  1.
         11    1    1    2    0    0  0.44923329965E+02 -0.74106330300E+02 -0.36182862541E+03  0.37206156471E+03  0.00000000000E+00 0. -1.
</event>
<event>
 7    1  0.1538147E-010  0.8730749E+02  0.7561462E-02  0.1309506E+00
          4   -1    0    0  501    0  0.00000000000E+00  0.00000000000E+00  0.33118789948E+03  0.33118789948E+03  0.00000000000E+00 0. -1.
         -4   -1    0    0    0  501 -0.00000000000E+00 -0.00000000000E+00 -0.62440182511E+02  0.62440182511E+02  0.00000000000E+00 0.  1.
         25    2    1    2    0    0  0.82438895510E+02 -0.15038014090E+01  0.65596309602E+02  0.16357617152E+03  0.12512335970E+03 0.  0.
          5    1    3    3  502    0  0.24889955363E+02 -0.17844797782E+02 -0.34854378600E+02  0.46585907670E+02  0.41800000000E+01 0. -1.
         -5    1    3    3    0  502  0.57548940147E+02  0.16340996373E+02  0.10045068820E+03  0.11699026385E+03  0.41800000000E+01 0. -1.
        -11    1    1    2    0    0 -0.56792459961E+02 -0.57499109854E+01  0.54133950196E+02  0.78669749895E+02  0.00000000000E+00 0.  1.
         11    1    1    2    0    0 -0.25646435548E+02  0.72537123944E+01  0.14901745717E+03  0.15138216058E+03  0.00000000000E+00 0. -1.
</event>
<event>
 7    1  0.1538147E-010  0.1581952E+03  0.7561462E-02  0.1190750E+00
          2   -1    0    0  501    0  0.00000000000E+00  0.00000000000E+00  0.76928844810E+03  0.76928844810E+03  0.00000000000E+00 0. -1.
         -2   -1    0    0    0  501 -0.00000000000E+00 -0.00000000000E+00 -0.38037700316E+02  0.38037700316E+02  0.00000000000E+00 0.  1.
         25    2    1    2    0    0 -0.10906973797E+03  0.62486972760E+02  0.48737825393E+03  0.51862883912E+03  0.12504991344E+03 0.  0.
          5    1    3    3  502    0 -0.76213141448E+01  0.60856599097E+02  0.93710058987E+02  0.11207433979E+03  0.41800000000E+01 0. -1.
         -5    1    3    3    0  502 -0.10144842382E+03  0.16303736637E+01  0.39366819495E+03  0.40655449933E+03  0.41800000000E+01 0. -1.
        -11    1    1    2    0    0  0.28326343556E+02  0.22474779491E+02  0.43553440534E+02  0.56607416782E+02  0.00000000000E+00 0.  1.
         11    1    1    2    0    0  0.80743394412E+02 -0.84961752251E+02  0.20031905332E+03  0.23208989252E+03  0.00000000000E+00 0. -1.
</event>
<event>
 7    1  0.1538147E-010  0.1174063E+03  0.7561462E-02  0.1247438E+00
          3   -1    0    0  501    0  0.00000000000E+00  0.00000000000E+00  0.44789408961E+03  0.44789408961E+03  0.00000000000E+00 0. -1.
         -3   -1    0    0    0  501 -0.00000000000E+00 -0.00000000000E+00 -0.38243780814E+02  0.38243780814E+02  0.00000000000E+00 0.  1.
         25    2    1    2    0    0 -0.16165666734E+02  0.68343415324E+02  0.18899946086E+03  0.23730406047E+03  0.12514099932E+03 0.  0.
          5    1    3    3  502    0  0.43828436965E+02  0.42719473234E+02  0.36498617017E+02  0.71382818131E+02  0.41800000000E+01 0.  1.
         -5    1    3    3    0  502 -0.59994103700E+02  0.25623942090E+02  0.15250084384E+03  0.16592124234E+03  0.41800000000E+01 0.  1.
        -11    1    1    2    0    0  0.64274627126E+01 -0.86900844363E+02  0.13518138206E+03  0.16083244413E+03  0.00000000000E+00 0.  1.
         11    1    1    2    0    0  0.97382040219E+01  0.18557429039E+02  0.85469465873E+02  0.88001365823E+02  0.00000000000E+00 0. -1.
</event>
<event>
 6    1  0.1538147E-010  0.1839095E+03  0.7561462E-02  0.1164072E+00
          1   -1    0    0  501    0  0.00000000000E+00  0.00000000000E+00  0.11637558335E+04  0.11637558335E+04  0.00000000000E+00 0. -1.
         -1   -1    0    0    0  501 -0.00000000000E+00 -0.00000000000E+00 -0.35698431325E+02  0.35698431325E+02  0.00000000000E+00 0.  1.
          5    1    1    2  502    0  0.10609993553E+03 -0.65269407425E+02  0.24612475354E+03  0.27588432100E+03  0.41800000000E+01 0.  1.
         -5    1    1    2    0  502 -0.27839641989E+02 -0.69450228024E+02  0.12953039470E+03  0.14964616730E+03  0.41800000000E+01 0.  1.
        -11    1    1    2    0    0 -0.89427789973E+02  0.11640250717E+03  0.72165272817E+03  0.73643026375E+03  0.00000000000E+00 0. -1.
         11    1    1    2    0    0  0.11167496436E+02  0.18317128278E+02  0.30749525739E+02  0.37493512748E+02  0.00000000000E+00 0.  1.
</event>
<event>
 7    1  0.1538147E-010  0.7639049E+02  0.7561462E-02  0.1339618E+00
          4   -1    0    0  501    0  0.00000000000E+00  0.00000000000E+00  0.27857128667E+02  0.27857128667E+02  0.00000000000E+00 0. -1.
         -4   -1    0    0    0  501 -0.00000000000E+00 -0.00000000000E+00 -0.29893144643E+03  0.29893144643E+03  0.00000000000E+00 0.  1.
         25    2    1    2    0    0 -0.69065504063E+01 -0.20240988425E+02 -0.20667521976E+03  0.24251255762E+03  0.12506116940E+03 0.  0.
          5    1    3    3  502    0 -0.17919332917E+01 -0.59664896978E+02 -0.42129787547E+02  0.73181297850E+02  0.41800000000E+01 0.  1.
         -5    1    3    3    0  502 -0.51146171146E+01  0.39423908553E+02 -0.16454543221E+03  0.16933125977E+03  0.41800000000E+01 0.  1.
        -11    1    1    2    0    0 -0.18539947969E+02  0.20341543474E+02 -0.42866296757E+02  0.50941412027E+02  0.00000000000E+00 0.  1.
         11    1    1    2    0    0  0.25446498376E+02 -0.10055504905E+00 -0.21532801249E+02  0.33334605450E+02  0.00000000000E+00 0. -1.
</event>
<event>
 6    1  0.1538147E-010  0.1450244E+03  0.7561462E-02  0.1206724E+00
          1   -1    0    0  501    0  0.00000000000E+00  0.00000000000E+00  0.37347945275E+03  0.37347945275E+03  0.00000000000E+00 0. -1.
         -1   -1    0    0    0  501 -0.00000000000E+00 -0.00000000000E+00 -0.60886076914E+02  0.60886076914E+02  0.00000000000E+00 0.  1.
          5    1    1    2  502    0 -0.55108308300E+02 -0.49487435256E+02  0.77267173200E+02  0.10711498656E+03  0.41800000000E+01 0.  1.
         -5    1    1    2    0  502 -0.43477349512E+02  0.73376712773E+02  0.57630131376E+02  0.10302002883E+03  0.41800000000E+01 0.  1.
        -11    1    1    2    0    0  0.25139858530E+02 -0.47147115394E+02  0.10731901235E+03  0.11988424996E+03  0.00000000000E+00 0. -1.
         11    1    1    2    0    0  0.73445799282E+02  0.23257837876E+02  0.70377058912E+02  0.10434626431E+03  0.00000000000E+00 0.  1.
</event>
<event>
 6    1  0.1538147E-010  0.2173466E+03  0.7561462E-02  0.1135877E+00
          1   -1    0    0  501    0  0.00000000000E+00  0.00000000000E+00  0.54740218860E+03  0.54740218860E+03  0.00000000000E+00 0. -1.
         -1   -1    0    0    0  501 -0.00000000000E+00 -0.00000000000E+00 -0.10548779553E+03  0.10548779553E+03  0.00000000000E+00 0.  1.
          5    1    1    2  502    0 -0.78955905767E+02 -0.11042469716E+03  0.10470583821E+03  0.17148887356E+03  0.41800000000E+01 0.  1.
         -5    1    1    2    0  502 -0.88208564424E+02  0.52217998420E+01  0.10403315297E+02  0.89071428643E+02  0.41800000000E+01 0.  1.
        -11    1    1    2    0    0  0.76027557122E+02  0.68554797482E+01  0.16772970230E+03  0.18428358602E+03  0.00000000000E+00 0. -1.
         11    1    1    2    0    0  0.91136913068E+02  0.98347417569E+02  0.15907553727E+03  0.20804609591E+03  0.00000000000E+00 0.  1.
</event>
<event>
 7    1  0.1538147E-010  0.1120636E+03  0.7561462E-02  0.1256795E+00
         -3   -1    0    0    0  501 -0.00000000000E+00  0.00000000000E+00  0.27154210341E+02  0.27154210341E+02  0.00000000000E+00 0.  1.
          3   -1    0    0  501    0  0.00000000000E+00 -0.00000000000E+00 -0.59980255656E+03  0.59980255656E+03  0.00000000000E+00 0. -1.
         25    2    1    2    0    0 -0.39287492548E+02 -0.25386423564E+02 -0.42430622233E+03  0.44483813206E+03  0.12512879707E+03 0.  0.
          5    1    3    3  502    0  0.37995731895E+02 -0.52349115537E+01 -0.25125268194E+03  0.25419768395E+03  0.41800000000E+01 0.  1.
         -5    1    3    3    0  502 -0.77283224443E+02 -0.20151512010E+02 -0.17305354039E+03  0.19064044811E+03  0.41800000000E+01 0.  1.
        -11    1    1    2    0    0  0.61003599043E+02  0.45394954388E+02 -0.10360645365E+03  0.12851629554E+03  0.00000000000E+00 0.  1.
         11    1    1    2    0    0 -0.21716106495E+02 -0.20008530824E+02 -0.44735670236E+02  0.53602339301E+02  0.00000000000E+00 0. -1.
</event>
<event>
 7    1  0.1538147E-010  0.1187941E+03  0.7561462E-02  0.1245100E+00
         -1   -1    0    0    0  501 -0.00000000000E+00  0.00000000000E+00  0.30595516742E+03  0.30595516742E+03  0.00000000000E+00 0.  1.
          1   -1    0    0  501    0  0.00000000000E+00 -0.00000000000E+00 -0.96069322970E+02  0.96069322970E+02  0.00000000000E+00 0. -1.
         25    2    1    2    0    0 -0.82232442380E+02  0.34728104276E+01 -0.10379099941E+02  0.15007974419E+03  0.12506785722E+03 0.  0.
          5    1    3    3  502    0 -0.99578164714E+02  0.29075310521E+02 -0.35810894336E+02  0.10982293532E+03  0.41800000000E+01 0.  1.
         -5    1    3    3    0  502  0.17345722334E+02 -0.25602500093E+02  0.25431794395E+02  0.40256808871E+02  0.41800000000E+01 0.  1.
        -11    1    1    2    0    0  0.32117433367E+01 -0.21311762883E+02  0.12521738264E+03  0.12705864570E+03  0.00000000000E+00 0.  1.
         11    1    1    2    0    0  0.79020699043E+02  0.17838952455E+02  0.95047561751E+02  0.12488610050E+03  0.00000000000E+00 0. -1.
</event>
<event>
 6    1  0.1538147E-010  0.1108636E+03  0.7561462E-02  0.1258979E+00
         -1   -1    0    0    0  501 -0.00000000000E+00  0.00000000000E+00  0.26583278838E+02  0.26583278838E+02  0.00000000000E+00 0.  1.
          1   -1    0    0  501    0  0.00000000000E+00 -0.00000000000E+00 -0.51995316461E+03  0.51995316461E+03  0.00000000000E+00 0. -1.
          5    1    1    2  502    0 -0.12123154523E+02 -0.51038713759E+02 -0.84705337191E+02  0.99721550963E+02  0.41800000000E+01 0.  1.
         -5    1    1    2    0  502  0.39653205599E+01  0.74448182984E+02 -0.10670811994E+03  0.13023959067E+03  0.41800000000E+01 0.  1.
        -11    1    1    2    0    0  0.59225213934E+00  0.35265584268E+02 -0.13132067139E+03  0.13597474372E+03  0.00000000000E+00 0.  1.
         11    1    1    2    0    0  0.75655818241E+01 -0.58675053493E+02 -0.17063575724E+03  0.18060055809E+03  0.00000000000E+00 0. -1.
</event>
<event>
 7    1  0.1538147E-010  0.1013088E+03  0.7561462E-02  0.1277568E+00
         -1   -1    0    0    0  501 -0.00000000000E+00  0.00000000000E+00  0.24682788846E+03  0.24682788846E+03  0.00000000000E+00 0.  1.
          1   -1    0    0  501    0  0.00000000000E+00 -0.00000000000E+00 -0.66188784324E+02  0.66188784324E+02  0.00000000000E+00 0. -1.
         25    2    1    2    0    0  0.19149306138E+02  0.27109320862E+01  0.18950604034E+02  0.12801947234E+03  0.12512319859E+03 0.  0.
          5    1    3    3  502    0  0.71671070148E+02 -0.85560480543E+01  0.56397108406E+01  0.72520528079E+02  0.41800000000E+01 0.  1.
         -5    1    3    3    0  502 -0.52521764010E+02  0.11266980140E+02  0.13310893194E+02  0.55498944258E+02  0.41800000000E+01 0.  1.
        -11    1    1    2    0    0 -0.44405227683E+02  0.13517746325E+02  0.45520337742E+02  0.65012728442E+02  0.00000000000E+00 0. -1.
         11    1    1    2    0    0  0.25255921545E+02 -0.16228678411E+02  0.11616816236E+03  0.11998447200E+03  0.00000000000E+00 0.  1.
</event>
<event>
 6    1  0.1538147E-010  0.1239867E+03  0.7561462E-02  0.1236662E+00
          2   -1    0    0  501    0  0.00000000000E+00  0.00000000000E+00  0.37828648911E+03  0.37828648911E+03  0.00000000000E+00 0. -1.
         -2   -1    0    0    0  501 -0.00000000000E+00 -0.00000000000E+00 -0.56334197920E+02  0.56334197920E+02  0.00000000000E+00 0.  1.
          5    1    1    2  502    0 -0.24846341687E+02 -0.23380131998E+02  0.91672448011E+02  0.97904450317E+02  0.41800000000E+01 0. -1.
         -5    1    1    2    0  502 -0.45243414038E+02  0.77318409533E+02  0.19995259893E+02  0.91882456349E+02  0.41800000000E+01 0. -1.
        -11    1    1    2    0    0  0.20578527364E+02 -0.69132711518E+02  0.14046682075E+03  0.15790419666E+03  0.00000000000E+00 0.  1.
         11    1    1    2    0    0  0.49511228362E+02  0.15194433983E+02  0.69817762536E+02  0.86929583707E+02  0.00000000000E+00 0. -1.
</event>
<event>
 7    1  0.1538147E-010  0.7463501E+02  0.7561462E-02  0.1345005E+00
         -1   -1    0    0    0  501 -0.00000000000E+00  0.00000000000E+00  0.23709834033E+03  0.23709834033E+03  0.00000000000E+00 0.  1.
          1   -1    0    0  501    0  0.00000000000E+00 -0.00000000000E+00 -0.53294512492E+02  0.53294512492E+02  0.00000000000E+00 0. -1.
         25    2    1    2    0    0  0.19463169561E+02 -0.21121736115E+02  0.10126924571E+03  0.16350403133E+03  0.12511261099E+03 0.  0.
          5    1    3    3  502    0  0.29343085862E+02 -0.30354104529E+02 -0.16031324825E+02  0.45352663927E+02  0.41800000000E+01 0. -1.
         -5    1    3    3    0  502 -0.98799163011E+01  0.92323684141E+01  0.11730057053E+03  0.11815136740E+03  0.41800000000E+01 0. -1.
        -11    1    1    2    0    0 -0.54193570215E+02  0.20542996698E+02  0.33961924359E+02  0.67174177123E+02  0.00000000000E+00 0.  1.
         11    1    1    2    0    0  0.34730400654E+02  0.57873941617E+00  0.48572657775E+02  0.59714644370E+02  0.00000000000E+00 0. -1.
</event>
<event>
 7    1  0.1538147E-010  0.1108980E+03  0.7561462E-02  0.1258916E+00
         -2   -1    0    0    0  501 -0.00000000000E+00  0.00000000000E+00  0.16289671245E+02  0.16289671245E+02  0.00000000000E+00 0.  1.
          2   -1    0    0  501    0  0.00000000000E+00 -0.00000000000E+00 -0.78603574009E+03  0.78603574009E+03  0.00000000000E+00 0. -1.
         25    2    1    2    0    0 -0.21523256208E+02 -0.16646550319E+02 -0.51891141134E+03  0.53447993806E+03  0.12513749705E+03 0.  0.
          5    1    3    3  502    0 -0.71208908855E+02 -0.28205429016E+02 -0.32468690556E+03  0.33362451044E+03  0.41800000000E+01 0. -1.
         -5    1    3    3    0  502  0.49685652646E+02  0.11558878697E+02 -0.19422450579E+03  0.20085542762E+03  0.41800000000E+01 0. -1.
        -11    1    1    2    0    0  0.53422378190E+02  0.27662510992E+02 -0.15773351230E+03  0.16881654512E+03  0.00000000000E+00 0.  1.
         11    1    1    2    0    0 -0.31899121981E+02 -0.11015960673E+02 -0.93101145212E+02  0.99028928160E+02  0.00000000000E+00 0. -1.
</event>
<event>
 7    1  0.1538147E-010  0.7527683E+02  0.7561462E-02  0.1343016E+00
         -2   -1    0    0    0  501 -0.00000000000E+00  0.00000000000E+00  0.10795161490E+03  0.10795161490E+03  0.00000000000E+00 0.  1.
          2   -1    0    0  501    0  0.00000000000E+00 -0.00000000000E+00 -0.12770813255E+03  0.12770813255E+03  0.00000000000E+00 0. -1.
         25    2    1    2    0    0 -0.38888382240E+02  0.62284513946E+01 -0.30198091228E+02  0.13461624894E+03  0.12513396775E+03 0.  0.
          5    1    3    3  502    0 -0.59425085879E+02  0.69728770021E+01 -0.68439483340E+02  0.91002181980E+02  0.41800000000E+01 0.  1.
         -5    1    3    3    0  502  0.20536703639E+02 -0.74442560749E+00  0.38241392111E+02  0.43614066956E+02  0.41800000000E+01 0.  1.
        -11    1    1    2    0    0  0.34861981955E+02 -0.29694947245E+02 -0.29549980212E+02  0.54500908325E+02  0.00000000000E+00 0. -1.
         11    1    1    2    0    0  0.40264002847E+01  0.23466495850E+02  0.39991553791E+02  0.46542590187E+02  0.00000000000E+00 0.  1.
</event>
<event>
 7    1  0.1538147E-010  0.9822568E+02  0.7561462E-02  0.1284072E+00
          1   -1    0    0  501    0  0.00000000000E+00  0.00000000000E+00  0.17239887517E+03  0.17239887517E+03  0.00000000000E+00 0. -1.
         -1   -1    0    0    0  501 -0.00000000000E+00 -0.00000000000E+00 -0.99180049090E+02  0.99180049090E+02  0.00000000000E+00 0.  1.
         25    2    1    2    0    0  0.54225130985E+01 -0.53885365318E+02  0.89535732947E+02  0.16312229907E+03  0.12513672817E+03 0.  0.
          5    1    3    3  502    0 -0.53188695513E+02 -0.40428562061E+02  0.76118865725E+02  0.10136597102E+03  0.41800000000E+01 0. -1.
         -5    1    3    3    0  502  0.58611208611E+02 -0.13456803256E+02  0.13416867223E+02  0.61756328055E+02  0.41800000000E+01 0. -1.
        -11    1    1    2    0    0 -0.22820242530E+02  0.17028854356E+02 -0.48692127129E+02  0.56406281514E+02  0.00000000000E+00 0.  1.
         11    1    1    2    0    0  0.17397729432E+02  0.36856510961E+02  0.32375220260E+02  0.52050343673E+02  0.00000000000E+00 0. -1.
</event>
<event>
 6    1  0.1538147E-010  0.9466294E+02  0.7561462E-02  0.1291937E+00
         -1   -1    0    0    0  501 -0.00000000000E+00  0.00000000000E+00  0.38360375353E+03  0.38360375353E+03  0.00000000000E+00 0.  1.
          1   -1    0    0  501    0  0.00000000000E+00 -0.00000000000E+00 -0.59616402008E+02  0.59616402008E+02  0.00000000000E+00 0. -1.
          5    1    1    2  502    0 -0.61707150237E+02  0.53903051353E+02  0.14857774772E+03  0.16972368972E+03  0.41800000000E+01 0. -1.
         -5    1    1    2    0  502  0.37370271396E+02 -0.19765336655E+02  0.16810633835E+03  0.17339094299E+03  0.41800000000E+01 0. -1.
        -11    1    1    2    0    0 -0.14792530309E+02 -0.37515652645E+01  0.38599074967E+02  0.41506406532E+02  0.00000000000E+00 0.  1.
         11    1    1    2    0    0  0.39129409151E+02 -0.30386149434E+02 -0.31295809511E+02  0.58599116298E+02  0.00000000000E+00 0. -1.
</event>
<event>
 7    1  0.1538147E-010  0.1363537E+03  0.7561462E-02  0.1218321E+00
          2   -1    0    0  501    0  0.00000000000E+00  0.00000000000E+00  0.36243098659E+03  0.36243098659E+03  0.00000000000E+00 0. -1.
         -2   -1    0    0    0  501 -0.00000000000E+00 -0.00000000000E+00 -0.63185724810E+02  0.63185724810E+02  0.00000000000E+00 0.  1.
         25    2    1    2    0    0 -0.92083035968E+02  0.12186794999E+02  0.22872779553E+03  0.27673984690E+03  0.12506292387E+03 0.  0.
          5    1    3    3  502    0  0.24392040121E+02  0.13313537900E+02  0.11792456613E+02  0.30475504026E+02  0.41800000000E+01 0. -1.
         -5    1    3    3    0  502 -0.11647507609E+03 -0.11267429010E+01  0.21693533892E+03  0.24626434287E+03  0.41800000000E+01 0. -1.
        -11    1    1    2    0    0  0.64395959603E+02  0.35035633495E+02  0.55978473368E+02  0.92238412325E+02  0.00000000000E+00 0. -1.
         11    1    1    2    0    0  0.27687076365E+02 -0.47222428494E+02  0.14538992877E+02  0.56638452171E+02  0.00000000000E+00 0.  1.
</event>
<event>
 7    1  0.1538147E-010  0.1323130E+03  0.7561462E-02  0.1224064E+00
          1   -1    0    0  501    0  0.00000000000E+00  0.00000000000E+00  0.22501171254E+03  0.22501171254E+03  0.00000000000E+00 0. -1.
         -1   -1    0    0    0  501 -0.00000000000E+00 -0.00000000000E+00 -0.12325085271E+03  0.12325085271E+03  0.00000000000E+00 0.  1.
         25    2    1    2    0    0 -0.80504847577E+02 -0.74911256696E+02  0.11804567463E+03  0.20412128860E+03  0.12505195840E+03 0.  0.
          5    1    3    3  502    0 -0.60936977771E+02 -0.88222596974E+02  0.13663879468E+03  0.17373593321E+03  0.41800000000E+01 0.  1.
         -5    1    3    3    0  502 -0.19567869806E+02  0.13311340277E+02 -0.18593120056E+02  0.30385355389E+02  0.41800000000E+01 0.  1.
        -11    1    1    2    0    0  0.61449244783E+02  0.59410862904E+01  0.18681688803E+02  0.64500478193E+02  0.00000000000E+00 0. -1.
         11    1    1    2    0    0  0.19055602795E+02  0.68970170406E+02 -0.34966503599E+02  0.79640798449E+02  0.00000000000E+00 0.  1.
</event>
<event>
 7    1  0.1538147E-010  0.2691821E+03  0.7561462E-02  0.1101749E+00
          2   -1    0    0  501    0  0.00000000000E+00  0.00000000000E+00  0.27653300264E+04  0.27653300264E+04  0.00000000000E+00 0. -1.
         -2   -1    0    0    0  501 -0.00000000000E+00 -0.00000000000E+00 -0.29863818027E+02  0.29863818027E+02  0.00000000000E+00 0.  1.
         25    2    1    2    0    0 -0.17808020954E+03 -0.17640695034E+03  0.18347457479E+04  0.18560112443E+04  0.12511517349E+03 0.  0.
          5    1    3    3  502    0 -0.25803564906E+02  0.15680588790E+02  0.11915525236E+03  0.12299248510E+03  0.41800000000E+01 0.  1.
         -5    1    3    3    0  502 -0.15227664464E+03 -0.19208753913E+03  0.17155904955E+04  0.17330187592E+04  0.41800000000E+01 0.  1.
        -11    1    1    2    0    0  0.27140763815E+02  0.77874683081E+02  0.35541804985E+03  0.36486035341E+03  0.00000000000E+00 0.  1.
         11    1    1    2    0    0  0.15093944573E+03  0.98532267263E+02  0.54530241062E+03  0.57432224665E+03  0.00000000000E+00 0. -1.
</event>
<event>
 7    1  0.1538147E-010  0.1854677E+03  0.7561462E-02  0.1162614E+00
          2   -1    0    0  501    0  0.00000000000E+00  0.00000000000E+00  0.20747121844E+03  0.20747121844E+03  0.00000000000E+00 0. -1.
         -2   -1    0    0    0  501 -0.00000000000E+00 -0.00000000000E+00 -0.23979501645E+03  0.23979501645E+03  0.00000000000E+00 0.  1.
         25    2    1    2    0    0 -0.35170002528E+02 -0.17551708810E+03  0.24375779204E+02  0.21975920874E+03  0.12512695122E+03 0.  0.
          5    1    3    3  502    0  0.83259297813E+01 -0.91503042050E+02 -0.44974307873E+02  0.10238304830E+03  0.41800000000E+01 0.  1.
         -5    1    3    3    0  502 -0.43495932309E+02 -0.84014046045E+02  0.69350087076E+02  0.11737616043E+03  0.41800000000E+01 0.  1.
        -11    1    1    2    0    0  0.28800280346E+02  0.43985068859E+02 -0.78045225778E+02  0.94102070632E+02  0.00000000000E+00 0.  1.
         11    1    1    2    0    0  0.63697221826E+01  0.13153201924E+03  0.21345648567E+02  0.13340495552E+03  0.00000000000E+00 0. -1.
</event>
<event>
 7    1  0.1538147E-010  0.8801468E+02  0.7561462E-02  0.1307732E+00
          2   -1    0    0  501    0  0.00000000000E+00  0.00000000000E+00  0.13338497794E+03  0.13338497794E+03  0.00000000000E+00 0. -1.
         -2   -1    0    0    0  501 -0.00000000000E+00 -0.00000000000E+00 -0.12743387706E+03  0.12743387706E+03  0.00000000000E+00 0.  1.
         25    2    1    2    0    0  0.12545586114E+02 -0.61673250534E+02  0.39831458021E+02  0.14556639603E+03  0.12506817758E+03 0.  0.
          5    1    3    3  502    0  0.51815626016E+02 -0.43720664996E+02 -0.20777741006E+02  0.71031982716E+02  0.41800000000E+01 0.  1.
         -5    1    3    3    0  502 -0.39270039902E+02 -0.17952585538E+02  0.60609199026E+02  0.74534413314E+02  0.41800000000E+01 0.  1.
        -11    1    1    2    0    0 -0.15693739139E+02  0.42742768453E+02  0.25957862860E+02  0.52412291950E+02  0.00000000000E+00 0. -1.
         11    1    1    2    0    0  0.31481530250E+01  0.18930482081E+02 -0.59838219994E+02  0.62840167022E+02  0.00000000000E+00 0.  1.
</event>
<event>
 6    1  0.1538147E-010  0.1210535E+03  0.7561462E-02  0.1241369E+00
          1   -1    0    0  501    0  0.00000000000E+00  0.00000000000E+00  0.27230675947E+03  0.27230675947E+03  0.00000000000E+00 0. -1.
         -1   -1    0    0    0  501 -0.00000000000E+00 -0.00000000000E+00 -0.12815125005E+03  0.12815125005E+03  0.00000000000E+00 0.  1.
          5    1    1    2  502    0 -0.20047055025E+02 -0.83329012414E+01  0.10634787698E+03  0.10862165989E+03  0.41800000000E+01 0. -1.
         -5    1    1    2    0  502  0.10583083759E+03  0.29622219432E+02  0.10185389943E+03  0.14989773613E+03  0.41800000000E+01 0. -1.
        -11    1    1    2    0    0 -0.52177119338E+02 -0.44991614372E+02 -0.72434822691E+02  0.99967498141E+02  0.00000000000E+00 0.  1.
         11    1    1    2    0    0 -0.33606663225E+02  0.23702296182E+02  0.83885557035E+01  0.41971115355E+02  0.00000000000E+00 0. -1.
</event>
<event>
 6    1  0.1538147E-010  0.9842991E+02  0.7561462E-02  0.1283633E+00
          4   -1    0    0  501    0  0.00000000000E+00  0.00000000000E+00  0.55247016649E+02  0.55247016649E+02  0.00000000000E+00 0.  1.
         -4   -1    0    0    0  501 -0.00000000000E+00 -0.00000000000E+00 -0.31830870971E+03  0.31830870971E+03  0.00000000000E+00 0. -1.
          5    1    1    2  502    0  0.39241214744E+01  0.47646395299E+02 -0.14872257608E+03  0.15627365341E+03  0.41800000000E+01 0. -1.
         -5    1    1    2    0  502 -0.17594893415E+02  0.23746896958E+02  0.21018386627E+02  0.36506716722E+02  0.41800000000E+01 0. -1.
        -11    1    1    2    0    0 -0.39800842416E+02 -0.42559860367E+02 -0.55833029385E+02  0.80701771615E+02  0.00000000000E+00 0. -1.
         11    1    1    2    0    0  0.53471614356E+02 -0.28833431891E+02 -0.79524474225E+02  0.10007358461E+03  0.00000000000E+00 0.  1.
</event>
<event>
 6    1  0.1538147E-010  0.1233811E+03  0.7561462E-02  0.1237621E+00
         -1   -1    0    0    0  501 -0.00000000000E+00  0.00000000000E+00  0.10872145587E+03  0.10872145587E+03  0.00000000000E+00 0.  1.
          1   -1    0    0  501    0  0.00000000000E+00 -0.00000000000E+00 -0.24032116384E+03  0.24032116384E+03  0.00000000000E+00 0. -1.
          5    1    1    2  502    0  0.28308720646E+02 -0.85056197365E+02 -0.67514321715E+02  0.11230136425E+03  0.41800000000E+01 0.  1.
         -5    1    1    2    0  502  0.34686033145E+02 -0.69101644556E+01  0.44006070841E+02  0.56611641373E+02  0.41800000000E+01 0.  1.
        -11    1    1    2    0    0 -0.68240792140E+02  0.66067205783E+02 -0.11837799226E+03  0.15177295689E+03  0.00000000000E+00 0. -1.
         11    1    1    2    0    0  0.52460383493E+01  0.25899156038E+02  0.10286535163E+02  0.28356657199E+02  0.00000000000E+00 0.  1.
</event>
<event>
 6    1  0.1538147E-010  0.1598583E+03  0.7561462E-02  0.1188857E+00
          1   -1    0    0  501    0  0.00000000000E+00  0.00000000000E+00  0.73422650300E+03  0.73422650300E+03  0.00000000000E+00 0. -1.
         -1   -1    0    0    0  501 -0.00000000000E+00 -0.00000000000E+00 -0.35037656847E+02  0.35037656847E+02  0.00000000000E+00 0.  1.
          5    1    1    2  502    0  0.22650759311E+02 -0.17873026286E+02  0.67844169470E+02  0.73843115434E+02  0.41800000000E+01 0. -1.
         -5    1    1    2    0  502 -0.55326472044E+02  0.13086234128E+03  0.29039054851E+03  0.32331117199E+03  0.41800000000E+01 0. -1.
        -11    1    1    2    0    0  0.64394547507E+02 -0.79285337823E+02  0.21829112957E+03  0.24100589161E+03  0.00000000000E+00 0.  1.
         11    1    1    2    0    0 -0.31718834774E+02 -0.33703977170E+02  0.12266299861E+03  0.13110398081E+03  0.00000000000E+00 0. -1.
</event>
<event>
 6    1  0.1538147E-010  0.9756654E+02  0.7561462E-02  0.1285498E+00
         -2   -1    0    0    0  501 -0.00000000000E+00  0.00000000000E+00  0.17684404975E+03  0.17684404975E+03  0.00000000000E+00 0.  1.
          2   -1    0    0  501    0  0.00000000000E+00 -0.00000000000E+00 -0.81626327680E+02  0.81626327680E+02  0.00000000000E+00 0. -1.
          5    1    1    2  502    0  0.10807521838E+02 -0.48833186197E+02  0.29918773712E+02  0.58430197868E+02  0.41800000000E+01 0. -1.
         -5    1    1    2    0  502  0.11409875748E+02  0.64038038148E+02 -0.24687222489E+02  0.69699260747E+02  0.41800000000E+01 0. -1.
        -11    1    1    2    0    0 -0.39252116934E+02 -0.35737659937E+02  0.89018030447E+02  0.10364419311E+03  0.00000000000E+00 0.  1.
         11    1    1    2    0    0  0.17034719349E+02  0.20532807986E+02  0.96814039586E+00  0.26696725697E+02  0.00000000000E+00 0. -1.
</event>
<event>
 6    1  0.1538147E-010  0.1013835E+03  0.7561462E-02  0.1277413E+00
          1   -1    0    0  501    0  0.00000000000E+00  0.00000000000E+00  0.11023424247E+03  0.11023424247E+03  0.00000000000E+00 0. -1.
         -1   -1    0    0    0  501 -0.00000000000E+00 -0.00000000000E+00 -0.16494984098E+03  0.16494984098E+03  0.00000000000E+00 0.  1.
          5    1    1    2  502    0  0.31346285251E+01 -0.34791715875E+02  0.32933273339E+02  0.48190894185E+02  0.41800000000E+01 0. -1.
         -5    1    1    2    0  502 -0.75907207063E+02  0.52261023018E+02 -0.31966290264E+02  0.97634188296E+02  0.41800000000E+01 0. -1.
        -11    1    1    2    0    0  0.25437773281E+02 -0.10360507844E+02  0.23953884464E+02  0.36444601976E+02  0.00000000000E+00 0. -1.
         11    1    1    2    0    0  0.47334805257E+02 -0.71087992990E+01 -0.79636466049E+02  0.92914398997E+02  0.00000000000E+00 0.  1.
</event>
<event>
 7    1  0.2490000E-010  0.1316050E+03  0.7561462E-02  0.1225093E+00
          1   -1    0    0  501    0  0.00000000000E+00  0.00000000000E+00  0.68277300738E+02  0.68277300738E+02  0.00000000000E+00 0. -1.
         -1   -1    0    0    0  501 -0.00000000000E+00 -0.00000000000E+00 -0.38303101450E+03  0.38303101450E+03  0.00000000000E+00 0.  1.
         25    2    1    2    0    0  0.56105647587E+02  0.80654553406E+02 -0.72518306805E+02  0.17482903311E+03  0.12511309013E+03 0.  0.
          5    1    3    3  502    0  0.38680002847E+02 -0.27021089239E+02 -0.80241236326E+01  0.48043114429E+02  0.41800000000E+01 0.  1.
         -5    1    3    3    0  502  0.17425644740E+02  0.10767564265E+03 -0.64494183172E+02  0.12678591868E+03  0.41800000000E+01 0.  1.
        -11    1    1    2    0    0 -0.13104064050E+02 -0.55157536656E+02 -0.43240620441E+02  0.71300922860E+02  0.00000000000E+00 0. -1.
         11    1    1    2    0    0 -0.43001583537E+02 -0.25497016750E+02 -0.19899478652E+03  0.20517835927E+03  0.00000000000E+00 0.  1.
</event>
<event>
 7    1  0.1538147E-010  0.9394433E+02  0.7561462E-02  0.1293572E+00
          1   -1    0    0  501    0  0.00000000000E+00  0.00000000000E+00  0.15176505210E+03  0.15176505210E+03  0.00000000000E+00 0. -1.
         -1   -1    0    0    0  501 -0.00000000000E+00 -0.00000000000E+00 -0.12153625332E+03  0.12153625332E+03  0.00000000000E+00 0.  1.
         25    2    1    2    0    0  0.32848604191E+02  0.31932574791E+01  0.91066371255E+02  0.15818805605E+03  0.12506458097E+03 0.  0.
          5    1    3    3  502    0  0.13736926890E+02 -0.52345680144E+02  0.58320231051E+01  0.54591741900E+02  0.41800000000E+01 0. -1.
         -5    1    3    3    0  502  0.19111677301E+02  0.55538937623E+02  0.85234348150E+02  0.10359631415E+03  0.41800000000E+01 0. -1.
        -11    1    1    2    0    0  0.36210840969E+01  0.27084385812E+02 -0.61940698889E+02  0.67700268712E+02  0.00000000000E+00 0.  1.
         11    1    1    2    0    0 -0.36469688288E+02 -0.30277643291E+02  0.11031264169E+01  0.47412980659E+02  0.00000000000E+00 0. -1.
</event>
<event>
 7    1  0.1538147E-010  0.1247427E+03  0.7561462E-02  0.1235472E+00
          2   -1    0    0  501    0  0.00000000000E+00  0.00000000000E+00  0.20545060850E+03  0.20545060850E+03  0.00000000000E+00 0. -1.
         -2   -1    0    0    0  501 -0.00000000000E+00 -0.00000000000E+00 -0.90021336811E+02  0.90021336811E+02  0.00000000000E+00 0.  1.
         25    2    1    2    0    0 -0.53363244118E+02  0.47856588816E+02  0.79621792151E+02  0.16471488621E+03  0.12511384831E+03 0.  0.
          5    1    3    3  502    0 -0.84322881648E+02  0.17731801586E+02  0.16060693318E+02  0.87750689039E+02  0.41800000000E+01 0.  1.
         -5    1    3    3    0  502  0.30959637530E+02  0.30124787230E+02  0.63561098833E+02  0.76964197174E+02  0.41800000000E+01 0.  1.
        -11    1    1    2    0    0  0.28114663902E+02  0.28115176376E+02  0.31247552233E+02  0.50569822914E+02  0.00000000000E+00 0. -1.
         11    1    1    2    0    0  0.25248580216E+02 -0.75971765192E+02  0.45599273019E+01  0.80187236181E+02  0.00000000000E+00 0.  1.
</event>
<event>
 7    1  0.1538147E-010  0.7567272E+02  0.7561462E-02  0.1341800E+00
          2   -1    0    0  501    0  0.00000000000E+00  0.00000000000E+00  0.49101516019E+03  0.49101516019E+03  0.00000000000E+00 0. -1.
         -2   -1    0    0    0  501 -0.00000000000E+00 -0.00000000000E+00 -0.28082025029E+02  0.28082025029E+02  0.00000000000E+00 0.  1.
         25    2    1    2    0    0  0.11832505927E+02  0.55372524271E+01  0.19471647856E+03  0.23181482938E+03  0.12511170504E+03 0.  0.
          5    1    3    3  502    0  0.29245666086E+01  0.30444702220E+02  0.20177252074E+03  0.20412019868E+03  0.41800000000E+01 0.  1.
         -5    1    3    3    0  502  0.89079393185E+01 -0.24907449793E+02 -0.70560421849E+01  0.27694630697E+02  0.41800000000E+01 0.  1.
        -11    1    1    2    0    0  0.23308640923E+02 -0.38829506203E+02  0.71019004596E+02  0.84230174566E+02  0.00000000000E+00 0. -1.
         11    1    1    2    0    0 -0.35141146850E+02  0.33292253776E+02  0.19719765201E+03  0.20305218128E+03  0.00000000000E+00 0.  1.
</event>
<event>
 7    1  0.1538147E-010  0.1151934E+03  0.7561462E-02  0.1251244E+00
         -2   -1    0    0    0  501 -0.00000000000E+00  0.00000000000E+00  0.24703794716E+02  0.24703794716E+02  0.00000000000E+00 0.  1.
          2   -1    0    0  501    0  0.00000000000E+00 -0.00000000000E+00 -0.60367950630E+03  0.60367950630E+03  0.00000000000E+00 0. -1.
         25    2    1    2    0    0  0.15107002467E+02 -0.37348122848E+02 -0.24575063272E+03  0.27866667943E+03  0.12505455184E+03 0.  0.
          5    1    3    3  502    0  0.67162119999E+02 -0.30319492461E+02 -0.17903256557E+03  0.19364956473E+03  0.41800000000E+01 0. -1.
         -5    1    3    3    0  502 -0.52055117533E+02 -0.70286303869E+01 -0.66718067150E+02  0.85017114693E+02  0.41800000000E+01 0. -1.
        -11    1    1    2    0    0  0.37870391378E+02 -0.19560027549E+01 -0.89047501487E+02  0.96785587827E+02  0.00000000000E+00 0.  1.
         11    1    1    2    0    0 -0.52977393844E+02  0.39304125602E+02 -0.24417757737E+03  0.25293103376E+03  0.00000000000E+00 0. -1.
</event>
<event>
 7    1  0.1538147E-010  0.1942358E+03  0.7561462E-02  0.1154695E+00
          1   -1    0    0  501    0  0.00000000000E+00  0.00000000000E+00  0.18375428370E+04  0.18375428370E+04  0.00000000000E+00 0. -1.
         -1   -1    0    0    0  501 -0.00000000000E+00 -0.00000000000E+00 -0.31790083392E+02  0.31790083392E+02  0.00000000000E+00 0.  1.
         25    2    1    2    0    0  0.16611497317E+03 -0.71168964693E+02  0.13872017454E+04  0.14045078790E+04  0.12511791987E+03 0.  0.
          5    1    3    3  502    0  0.10911666136E+03 -0.71377050695E+02  0.12359986420E+04  0.12428641296E+04  0.41800000000E+01 0. -1.
         -5    1    3    3    0  502  0.56998311812E+02  0.20808600188E+00  0.15120310337E+03  0.16164374940E+03  0.41800000000E+01 0. -1.
        -11    1    1    2    0    0 -0.16978384238E+03  0.82635091953E+02  0.37822206199E+03  0.42273755420E+03  0.00000000000E+00 0.  1.
         11    1    1    2    0    0  0.36688692083E+01 -0.11466127260E+02  0.40328946208E+02  0.42087487189E+02  0.00000000000E+00 0. -1.
</event>
<event>
 7    1  0.1538147E-010  0.7770629E+02  0.7561462E-02  0.1335690E+00
         -3   -1    0    0    0  501 -0.00000000000E+00  0.00000000000E+00  0.17502123732E+03  0.17502123732E+03  0.00000000000E+00 0.  1.
          3   -1    0    0  501    0  0.00000000000E+00 -0.00000000000E+00 -0.77048344971E+02  0.77048344971E+02  0.00000000000E+00 0. -1.
         25    2    1    2    0    0 -0.11408041678E+02  0.41885694210E+02  0.58167930552E+02  0.14458097373E+03  0.12504237292E+03 0.  0.
          5    1    3    3  502    0  0.41936112065E+02  0.38399763392E+02 -0.99647089884E+01  0.57878727949E+02  0.41800000000E+01 0.  1.
         -5    1    3    3    0  502 -0.53344153743E+02  0.34859308176E+01  0.68132639541E+02  0.86702245778E+02  0.41800000000E+01 0.  1.
        -11    1    1    2    0    0  0.10565662458E+01 -0.24643454215E+02 -0.27677196063E+02  0.37073485806E+02  0.00000000000E+00 0. -1.
         11    1    1    2    0    0  0.10351475432E+02 -0.17242239994E+02  0.67482157856E+02  0.70415122755E+02  0.00000000000E+00 0.  1.
</event>
<event>
 6    1  0.1538147E-010  0.1737177E+03  0.7561462E-02  0.1174025E+00
         -3   -1    0    0    0  501 -0.00000000000E+00  0.00000000000E+00  0.99233709115E+02  0.99233709115E+02  0.00000000000E+00 0.  1.
          3   -1    0    0  501    0  0.00000000000E+00 -0.00000000000E+00 -0.47149138055E+03  0.47149138055E+03  0.00000000000E+00 0. -1.
          5    1    1    2  502    0  0.69619244543E+01 -0.38216683920E+02 -0.13110788000E+03  0.13680545281E+03  0.41800000000E+01 0. -1.
         -5    1    1    2    0  502  0.14697094029E+03  0.21152285575E+02 -0.19368918886E+03  0.24409188998E+03  0.41800000000E+01 0. -1.
        -11    1    1    2    0    0 -0.10443549548E+03  0.30005016547E+02  0.14335335793E+02  0.10960189590E+03  0.00000000000E+00 0. -1.
         11    1    1    2    0    0 -0.49497369267E+02 -0.12940618201E+02 -0.61795938376E+02  0.80225850968E+02  0.00000000000E+00 0.  1.
</event>
<event>
 6    1  0.1538147E-010  0.1278694E+03  0.7561462E-02  0.1230652E+00
         -2   -1    0    0    0  501 -0.00000000000E+00  0.00000000000E+00  0.11277143098E+03  0.11277143098E+03  0.00000000000E+00 0.  1.
          2   -1    0    0  501    0  0.00000000000E+00 -0.00000000000E+00 -0.19161505470E+03  0.19161505470E+03  0.00000000000E+00 0. -1.
          5    1    1    2  502    0  0.83867764951E+01 -0.35668029292E+02 -0.14461089387E+02  0.39612395027E+02  0.41800000000E+01 0. -1.
         -5    1    1    2    0  502  0.32698890480E+02  0.10693602081E+03 -0.86610981859E+02  0.14150429168E+03  0.41800000000E+01 0. -1.
        -11    1    1    2    0    0 -0.51374164622E+02 -0.20754685759E+02 -0.17588483687E+02  0.58132749204E+02  0.00000000000E+00 0. -1.
         11    1    1    2    0    0  0.10288497647E+02 -0.50513305758E+02  0.39816931214E+02  0.65137049778E+02  0.00000000000E+00 0.  1.
</event>
<event>
 7    1  0.1538147E-010  0.1697289E+03  0.7561462E-02  0.1178131E+00
         -1   -1    0    0    0  501 -0.00000000000E+00  0.00000000000E+00  0.15057702036E+03  0.15057702036E+03  0.00000000000E+00 0.  1.
          1   -1    0    0  501    0  0.00000000000E+00 -0.00000000000E+00 -0.24638778614E+03  0.24638778614E+03  0.00000000000E+00 0. -1.
         25    2    1    2    0    0 -0.14850726260E+03  0.32243398237E+02 -0.13006528587E+01  0.19684798155E+03  0.12511351793E+03 0.  0.
          5    1    3    3  502    0 -0.11824562417E+03  0.62278152251E+02  0.37691114893E+02  0.13891971935E+03  0.41800000000E+01 0. -1.
         -5    1    3    3    0  502 -0.30261638423E+02 -0.30034754014E+02 -0.38991767752E+02  0.57928262197E+02  0.41800000000E+01 0. -1.
        -11    1    1    2    0    0  0.10410275286E+03  0.60416766900E+01 -0.21486115099E+02  0.10646848432E+03  0.00000000000E+00 0.  1.
         11    1    1    2    0    0  0.44404509735E+02 -0.38285074927E+02 -0.73023997823E+02  0.93648340642E+02  0.00000000000E+00 0. -1.
</event>
<event>
 6    1  0.1538147E-010  0.9316201E+02  0.7561462E-02  0.1295370E+00
          1   -1    0    0  501    0  0.00000000000E+00  0.00000000000E+00  0.14626848602E+03  0.14626848602E+03  0.00000000000E+00 0. -1.
         -1   -1    0    0    0  501 -0.00000000000E+00 -0.00000000000E+00 -0.93158583077E+02  0.93158583077E+02  0.00000000000E+00 0.  1.
          5    1    1    2  502    0 -0.28800110606E+02 -0.24382447736E+02 -0.25592245881E+02  0.45786303386E+02  0.41800000000E+01 0. -1.
         -5    1    1    2    0  502  0.26662366339E+02  0.43483926276E+02  0.76924828815E+02  0.92393913822E+02  0.41800000000E+01 0. -1.
        -11    1    1    2    0    0 -0.33233431038E+01  0.38839792271E+02 -0.13193857696E+02  0.41154002891E+02  0.00000000000E+00 0.  1.
         11    1    1    2    0    0  0.54610873711E+01 -0.57941270811E+02  0.14971177702E+02  0.60092848994E+02  0.00000000000E+00 0. -1.
</event>
<event>
 7    1  0.2169091E-010  0.8672110E+02  0.7561462E-02  0.1310992E+00
         -2   -1    0    0    0  501 -0.00000000000E+00  0.00000000000E+00  0.23167031498E+03  0.23167031498E+03  0.00000000000E+00 0.  1.
          2   -1    0    0  501    0  0.00000000000E+00 -0.00000000000E+00 -0.85148392733E+02  0.85148392733E+02  0.00000000000E+00 0. -1.
         25    2    1    2    0    0 -0.46889424160E+01 -0.56458433222E+02  0.15868930772E+03  0.20984252422E+03  0.12506817230E+03 0.  0.
          5    1    3    3  502    0  0.19438798784E+02 -0.17784664588E+02  0.16177945753E+03  0.16396410117E+03  0.41800000000E+01 0.  1.
         -5    1    3    3    0  502 -0.24127741200E+02 -0.38673768634E+02 -0.30901498132E+01  0.45878423051E+02  0.41800000000E+01 0.  1.
        -11    1    1    2    0    0  0.29823880712E+02 -0.87710688321E+01  0.11541790722E+02  0.33160344423E+02  0.00000000000E+00 0.  1.
         11    1    1    2    0    0 -0.25134938296E+02  0.65229502054E+02 -0.23709176196E+02  0.73815839068E+02  0.00000000000E+00 0. -1.
</event>
<event>
 6    1  0.1538147E-010  0.1333195E+03  0.7561462E-02  0.1222612E+00
          1   -1    0    0  501    0  0.00000000000E+00  0.00000000000E+00  0.99728603917E+02  0.99728603917E+02  0.00000000000E+00 0. -1.
         -1   -1    0    0    0  501 -0.00000000000E+00 -0.00000000000E+00 -0.36921304610E+03  0.36921304610E+03  0.00000000000E+00 0.  1.
          5    1    1    2  502    0 -0.37656005018E+02 -0.24060522844E+02 -0.15033892672E+02  0.47332587108E+02  0.41800000000E+01 0. -1.
         -5    1    1    2    0  502  0.87838921698E+02 -0.39675080468E+02  0.37679872615E+02  0.10357139265E+03  0.41800000000E+01 0. -1.
        -11    1    1    2    0    0 -0.43032759152E+02 -0.15489880600E+02 -0.94037571873E+02  0.10456968817E+03  0.00000000000E+00 0. -1.
         11    1    1    2    0    0 -0.71501575286E+01  0.79225483912E+02 -0.19809285025E+03  0.21346798208E+03  0.00000000000E+00 0.  1.
</event>
<event>
 7    1  0.1538147E-010  0.1636330E+03  0.7561462E-02  0.1184655E+00
          2   -1    0    0  501    0  0.00000000000E+00  0.00000000000E+00  0.13840589861E+03  0.13840589861E+03  0.00000000000E+00 0. -1.
         -2   -1    0    0    0  501 -0.00000000000E+00 -0.00000000000E+00 -0.31786653273E+03  0.31786653273E+03  0.00000000000E+00 0.  1.
         25    2    1    2    0    0  0.13608697801E+03 -0.16296629512E+02  0.31197240929E+02  0.18818499727E+03  0.12512026071E+03 0.  0.
          5    1    3    3  502    0  0.20791347179E+02 -0.56690783282E+02  0.25887398344E+02  0.65831260201E+02  0.41800000000E+01 0. -1.
         -5    1    3    3    0  502  0.11529563083E+03  0.40394153770E+02  0.53098425846E+01  0.12235373707E+03  0.41800000000E+01 0. -1.
        -11    1    1    2    0    0 -0.89471748261E+02 -0.11528863656E+02 -0.18939742078E+03  0.20978439273E+03  0.00000000000E+00 0.  1.
         11    1    1    2    0    0 -0.46615229744E+02  0.27825493168E+02 -0.21260454267E+02  0.58303041343E+02  0.00000000000E+00 0. -1.
</event>
<event>
 7    1  0.1538147E-010  0.1156965E+03  0.7561462E-02  0.1250370E+00
          1   -1    0    0  501    0  0.00000000000E+00  0.00000000000E+00  0.39743767551E+03  0.39743767551E+03  0.00000000000E+00 0. -1.
         -1   -1    0    0    0  501 -0.00000000000E+00 -0.00000000000E+00 -0.48979317573E+02  0.48979317573E+02  0.00000000000E+00 0.  1.
         25    2    1    2    0    0  0.22969591372E+02 -0.81812449795E+02  0.15727925185E+03  0.21817323360E+03  0.12506765261E+03 0.  0.
          5    1    3    3  502    0  0.43844546796E+02 -0.73261693687E+02  0.32737541260E+02  0.91535998675E+02  0.41800000000E+01 0. -1.
         -5    1    3    3    0  502 -0.20874955424E+02 -0.85507561076E+01  0.12454171059E+03  0.12663723493E+03  0.41800000000E+01 0. -1.
        -11    1    1    2    0    0 -0.56193125781E+02  0.37384990015E+02  0.12344304950E+03  0.14068934336E+03  0.00000000000E+00 0. -1.
         11    1    1    2    0    0  0.33223534409E+02  0.44427459780E+02  0.67736056589E+02  0.87554416127E+02  0.00000000000E+00 0.  1.
</event>
<event>
 6    1  0.1538147E-010  0.1175145E+03  0.7561462E-02  0.1247254E+00
         -3   -1    0    0    0  501 -0.00000000000E+00  0.00000000000E+00  0.44193193970E+02  0.44193193970E+02  0.00000000000E+00 0.  1.
          3   -1    0    0  501    0  0.00000000000E+00 -0.00000000000E+00 -0.35251697363E+03  0.35251697363E+03  0.00000000000E+00 0. -1.
          5    1    1    2  502    0  0.67258838076E+02  0.61540330463E+01 -0.15515254357E+03  0.16926726677E+03  0.41800000000E+01 0.  1.
         -5    1    1    2    0  502 -0.27826192020E+02 -0.51604952143E+02 -0.43884761695E+02  0.73353341826E+02  0.41800000000E+01 0.  1.
        -11    1    1    2    0    0  0.79661003580E+01 -0.23555046117E+02 -0.26933968961E+02  0.36657027110E+02  0.00000000000E+00 0. -1.
         11    1    1    2    0    0 -0.47398746415E+02  0.69005965214E+02 -0.82352505432E+02  0.11743253190E+03  0.00000000000E+00 0.  1.
</event>
<event>
 6    1  0.1538147E-010  0.1025797E+03  0.7561462E-02  0.1274963E+00
          1   -1    0    0  501    0  0.00000000000E+00  0.00000000000E+00  0.11719402761E+03  0.11719402761E+03  0.00000000000E+00 0. -1.
         -1   -1    0    0    0  501 -0.00000000000E+00 -0.00000000000E+00 -0.10863990957E+03  0.10863990957E+03  0.00000000000E+00 0.  1.
          5    1    1    2  502    0 -0.43718804973E+02 -0.22781155902E+02  0.52807180462E+00  0.49477936823E+02  0.41800000000E+01 0. -1.
         -5    1    1    2    0  502  0.74695983339E+02  0.26051685097E+02 -0.59994950740E+01  0.79445871916E+02  0.41800000000E+01 0. -1.
        -11    1    1    2    0    0 -0.16514043196E+02  0.33282812111E+02 -0.22344063788E+02  0.43355696180E+02  0.00000000000E+00 0.  1.
         11    1    1    2    0    0 -0.14463135170E+02 -0.36553341307E+02  0.36369605100E+02  0.53554432260E+02  0.00000000000E+00 0. -1.
</event>
<event>
 7    1  0.1538147E-010  0.1073094E+03  0.7561462E-02  0.1265635E+00
         -1   -1    0    0    0  501 -0.00000000000E+00  0.00000000000E+00  0.12709929921E+02  0.12709929921E+02  0.00000000000E+00 0.  1.
          1   -1    0    0  501    0  0.00000000000E+00 -0.00000000000E+00 -0.11392894388E+04  0.11392894388E+04  0.00000000000E+00 0. -1.
         25    2    1    2    0    0  0.18547656017E+02 -0.47478647527E+02 -0.69690803398E+03  0.70988347176E+03  0.12512193307E+03 0.  0.
          5    1    3    3  502    0  0.17966678062E+02 -0.77751843141E+02 -0.26230994214E+03  0.27421183195E+03  0.41800000000E+01 0. -1.
         -5    1    3    3    0  502  0.58097795501E+00  0.30273195613E+02 -0.43459809184E+03  0.43567163981E+03  0.41800000000E+01 0. -1.
        -11    1    1    2    0    0 -0.52539264769E+02  0.98864089122E+01 -0.22434935863E+03  0.23063119941E+03  0.00000000000E+00 0.  1.
         11    1    1    2    0    0  0.33991608752E+02  0.37592238615E+02 -0.20532211626E+03  0.21148469754E+03  0.00000000000E+00 0. -1.
</event>
<event>
 7    1  0.1538147E-010  0.1055579E+03  0.7561462E-02  0.1269024E+00
          2   -1    0    0  501    0  0.00000000000E+00  0.00000000000E+00  0.79058824144E+03  0.79058824144E+03  0.00000000000E+00 0. -1.
         -2   -1    0    0    0  501 -0.00000000000E+00 -0.00000000000E+00 -0.21211315072E+02  0.21211315072E+02  0.00000000000E+00 0.  1.
         25    2    1    2    0    0 -0.51867937517E+02  0.14333310327E+02  0.60302644833E+03  0.61820382128E+03  0.12505734899E+03 0.  0.
          5    1    3    3  502    0 -0.59140184664E+02 -0.46111001257E+02  0.32867299309E+03  0.33714565794E+03  0.41800000000E+01 0.  1.
         -5    1    3    3    0  502  0.72722471473E+01  0.60444311583E+02  0.27435345524E+03  0.28105816334E+03  0.41800000000E+01 0.  1.
        -11    1    1    2    0    0 -0.10822856802E+02 -0.34198657762E+01 -0.37728781100E+01  0.11960949817E+02  0.00000000000E+00 0.  1.
         11    1    1    2    0    0  0.62690794319E+02 -0.10913444551E+02  0.17012335615E+03  0.18163478542E+03  0.00000000000E+00 0. -1.
</event>
<event>
 7    1  0.1538147E-010  0.2323858E+03  0.7561462E-02  0.1124972E+00
         -2   -1    0    0    0  501 -0.00000000000E+00  0.00000000000E+00  0.46092292486E+02  0.46092292486E+02  0.00000000000E+00 0.  1.
          2   -1    0    0  501    0  0.00000000000E+00 -0.00000000000E+00 -0.20219968707E+04  0.20219968707E+04  0.00000000000E+00 0. -1.
         25    2    1    2    0    0  0.75700850960E+02 -0.20243328088E+03 -0.16399843594E+04  0.16588895540E+04  0.12512394365E+03 0.  0.
          5    1    3    3  502    0 -0.10681761334E+02  0.12488674889E+02 -0.78303759905E+02  0.80118775833E+02  0.41800000000E+01 0.  1.
         -5    1    3    3    0  502  0.86382612294E+02 -0.21492195577E+03 -0.15616805995E+04  0.15787707782E+04  0.41800000000E+01 0.  1.
        -11    1    1    2    0    0 -0.35975617252E+02  0.91990288632E+02 -0.78101071881E+02  0.12592154569E+03  0.00000000000E+00 0.  1.
         11    1    1    2    0    0 -0.39725233707E+02  0.11044299225E+03 -0.25781914693E+03  0.28327806349E+03  0.00000000000E+00 0. -1.
</event>
<event>
 7    1  0.1538147E-010  0.8411065E+02  0.7561462E-02  0.1317775E+00
          3   -1    0    0  501    0  0.00000000000E+00  0.00000000000E+00  0.50636442734E+03  0.50636442734E+03  0.00000000000E+00 0. -1.
         -3   -1    0    0    0  501 -0.00000000000E+00 -0.00000000000E+00 -0.25126167068E+02  0.25126167068E+02  0.00000000000E+00 0.  1.
         25    2    1    2    0    0  0.27368289374E+02  0.19482242723E+02  0.30974512265E+03  0.33574375030E+03  0.12511292425E+03 0.  0.
          5    1    3    3  502    0 -0.11923755345E+01 -0.23542833607E+02  0.23983100032E+01  0.24060570744E+02  0.41800000000E+01 0.  1.
         -5    1    3    3    0  502  0.28560664908E+02  0.43025076330E+02  0.30734681265E+03  0.31168317956E+03  0.41800000000E+01 0.  1.
        -11    1    1    2    0    0 -0.39082936777E+02  0.25050581869E+02  0.66506045375E+02  0.81105250574E+02  0.00000000000E+00 0.  1.
         11    1    1    2    0    0  0.11714647403E+02 -0.44532824593E+02  0.10498709224E+03  0.11464159353E+03  0.00000000000E+00 0. -1.
</event>
<event>
 6    1  0.1538147E-010  0.7163841E+02  0.7561462E-02  0.1354609E+00
         -2   -1    0    0    0  501 -0.00000000000E+00  0.00000000000E+00  0.49975010130E+02  0.49975010130E+02  0.00000000000E+00 0.  1.
          2   -1    0    0  501    0  0.00000000000E+00 -0.00000000000E+00 -0.33079049840E+03  0.33079049840E+03  0.00000000000E+00 0. -1.
          5    1    1    2  502    0 -0.85732245911E+01 -0.24642805182E+02 -0.18360795375E+03  0.18549965258E+03  0.41800000000E+01 0. -1.
         -5    1    1    2    0  502 -0.48527403827E+02  0.32762311573E+02 -0.23209673801E+02  0.63122415509E+02  0.41800000000E+01 0. -1.
        -11    1    1    2    0    0  0.33469538012E+02 -0.84458240598E+01  0.16750461914E+02  0.38368214620E+02  0.00000000000E+00 0.  1.
         11    1    1    2    0    0  0.23631090406E+02  0.32631766868E+00 -0.90748322635E+02  0.93775225822E+02  0.00000000000E+00 0. -1.
</event>
<event>
 7    1  0.4968666E-010  0.8899403E+02  0.7561462E-02  0.1305306E+00
          1   -1    0    0  501    0  0.00000000000E+00  0.00000000000E+00  0.71432131996E+03  0.71432131996E+03  0.00000000000E+00 0. -1.
         -1   -1    0    0    0  501 -0.00000000000E+00 -0.00000000000E+00 -0.28533552443E+02  0.28533552443E+02  0.00000000000E+00 0.  1.
         25    2    1    2    0    0 -0.65629455005E+02  0.14320328491E+02  0.20574733178E+03  0.24997322350E+03  0.12506938378E+03 0.  0.
          5    1    3    3  502    0 -0.34092225991E+02  0.85378542266E+01  0.21375242537E+03  0.21666274848E+03  0.41800000000E+01 0.  1.
         -5    1    3    3    0  502 -0.31537229013E+02  0.57824742647E+01 -0.80050935892E+01  0.33310475017E+02  0.41800000000E+01 0.  1.
        -11    1    1    2    0    0  0.48742507526E+02 -0.50591199196E+02  0.26517453041E+03  0.27432249827E+03  0.00000000000E+00 0.  1.
         11    1    1    2    0    0  0.16886947479E+02  0.36270870704E+02  0.21486590532E+03  0.21855915063E+03  0.00000000000E+00 0. -1.
</event>
<event>
 6    1  0.1538147E-010  0.1405744E+03  0.7561462E-02  0.1212558E+00
          2   -1    0    0  501    0  0.00000000000E+00  0.00000000000E+00  0.75355302451E+03  0.75355302451E+03  0.00000000000E+00 0. -1.
         -2   -1    0    0    0  501 -0.00000000000E+00 -0.00000000000E+00 -0.31426961526E+02  0.31426961526E+02  0.00000000000E+00 0.  1.
          5    1    1    2  502    0  0.13171065385E+02  0.13393020403E+02  0.14209613377E+03  0.14339328293E+03  0.41800000000E+01 0.  1.
         -5    1    1    2    0  502 -0.11071365477E+03 -0.50916755329E+02  0.17804050804E+03  0.21579139054E+03  0.41800000000E+01 0.  1.
        -11    1    1    2    0    0 -0.18653246953E+02  0.51399462045E+01  0.45202590248E+02  0.49169470548E+02  0.00000000000E+00 0.  1.
         11    1    1    2    0    0  0.11619583633E+03  0.32383788721E+02  0.35678683093E+03  0.37662584202E+03  0.00000000000E+00 0. -1.
</event>
<event>
 7    1  0.1538147E-010  0.1026304E+03  0.7561462E-02  0.1274860E+00
          1   -1    0    0  501    0  0.00000000000E+00  0.00000000000E+00  0.34275543154E+03  0.34275543154E+03  0.00000000000E+00 0. -1.
         -1   -1    0    0    0  501 -0.00000000000E+00 -0.00000000000E+00 -0.47205053754E+02  0.47205053754E+02  0.00000000000E+00 0.  1.
         25    2    1    2    0    0  0.67823771031E+01  0.51178476564E+02  0.94303498679E+02  0.16490253641E+03  0.12503783246E+03 0.  0.
          5    1    3    3  502    0  0.50939022808E+02  0.32611905683E+02  0.18075743479E+01  0.60655256672E+02  0.41800000000E+01 0.  1.
         -5    1    3    3    0  502 -0.44156645704E+02  0.18566570880E+02  0.92495924331E+02  0.10424727973E+03  0.41800000000E+01 0.  1.
        -11    1    1    2    0    0  0.24655646309E+02  0.10905106423E+02  0.30685216275E+02  0.40846110449E+02  0.00000000000E+00 0.  1.
         11    1    1    2    0    0 -0.31438023412E+02 -0.62083582986E+02  0.17056166283E+03  0.18421183844E+03  0.00000000000E+00 0. -1.
</event>
<event>
 7    1  0.1538147E-010  0.1405476E+03  0.7561462E-02  0.1212594E+00
         -1   -1    0    0    0  501 -0.00000000000E+00  0.00000000000E+00  0.54405156867E+03  0.54405156867E+03  0.00000000000E+00 0.  1.
          1   -1    0    0  501    0  0.00000000000E+00 -0.00000000000E+00 -0.92048157555E+02  0.92048157555E+02  0.00000000000E+00 0. -1.
         25    2    1    2    0    0  0.10637588396E+03 -0.80870113910E+02  0.31617789956E+02  0.18572793709E+03  0.12505749863E+03 0.  0.
          5    1    3    3  502    0  0.61308378795E+02 -0.81579769085E+02 -0.32554129344E+02  0.10719710711E+03  0.41800000000E+01 0.  1.
         -5    1    3    3    0  502  0.45067505161E+02  0.70965517512E+00  0.64171919300E+02  0.78530829988E+02  0.41800000000E+01 0.  1.
        -11    1    1    2    0    0 -0.85383722919E+02  0.62729391433E+02  0.40503660104E+03  0.41866454934E+03  0.00000000000E+00 0.  1.
         11    1    1    2    0    0 -0.20992161036E+02  0.18140722476E+02  0.15349020122E+02  0.31707239799E+02  0.00000000000E+00 0. -1.
</event>
<event>
 7    1  0.1538147E-010  0.1521834E+03  0.7561462E-02  0.1197816E+00
          2   -1    0    0  501    0  0.00000000000E+00  0.00000000000E+00  0.14660646905E+04  0.14660646905E+04  0.00000000000E+00 0.  1.
         -2   -1    0    0    0  501 -0.00000000000E+00 -0.00000000000E+00 -0.20062645825E+02  0.20062645825E+02  0.00000000000E+00 0. -1.
         25    2    1    2    0    0  0.35289876422E+02  0.12065470647E+03  0.95886058948E+03  0.97511945215E+03  0.12506551220E+03 0.  0.
          5    1    3    3  502    0 -0.38333776303E+02  0.39609496267E+02  0.51396051426E+03  0.51692482357E+03  0.41800000000E+01 0.  1.
         -5    1    3    3    0  502  0.73623652725E+02  0.81045210200E+02  0.44490007521E+03  0.45819462858E+03  0.41800000000E+01 0.  1.
        -11    1    1    2    0    0  0.10851253323E+02 -0.56614783017E+00  0.49327533378E+01  0.11933242541E+02  0.00000000000E+00 0. -1.
         11    1    1    2    0    0 -0.46141129745E+02 -0.12008855864E+03  0.48220870184E+03  0.49907464161E+03  0.00000000000E+00 0.  1.
</event>
<event>
 7    1  0.1538147E-010  0.4115558E+02  0.7561462E-02  0.1499876E+00
         -2   -1    0    0    0  501 -0.00000000000E+00  0.00000000000E+00  0.24546620329E+02  0.24546620329E+02  0.00000000000E+00 0.  1.
          2   -1    0    0  501    0  0.00000000000E+00 -0.00000000000E+00 -0.53594062591E+03  0.53594062591E+03  0.00000000000E+00 0. -1.
         25    2    1    2    0    0  0.26291282457E+02  0.51616133572E+01 -0.35581293770E+03  0.37810203179E+03  0.12506168886E+03 0.  0.
          5    1    3    3  502    0  0.10683590447E+02 -0.92968827105E+01  0.57817410467E+01  0.15857870680E+02  0.41800000000E+01 0.  1.
         -5    1    3    3    0  502  0.15607692010E+02  0.14458496068E+02 -0.36159467875E+03  0.36224416111E+03  0.41800000000E+01 0.  1.
        -11    1    1    2    0    0  0.60104210949E+01 -0.11471197899E+02  0.82011827704E+01  0.15328827151E+02  0.00000000000E+00 0.  1.
         11    1    1    2    0    0 -0.32301703552E+02  0.63095845419E+01 -0.16378225066E+03  0.16705638730E+03  0.00000000000E+00 0. -1.
</event>
<event>
 7    1  0.1538147E-010  0.9994437E+02  0.7561462E-02  0.1280413E+00
         -1   -1    0    0    0  501 -0.00000000000E+00  0.00000000000E+00  0.32884228741E+02  0.32884228741E+02  0.00000000000E+00 0.  1.
          1   -1    0    0  501    0  0.00000000000E+00 -0.00000000000E+00 -0.51820511772E+03  0.51820511772E+03  0.00000000000E+00 0. -1.
         25    2    1    2    0    0 -0.42635207536E+02 -0.11159536972E+02 -0.39131338841E+03  0.41318928517E+03  0.12512761983E+03 0.  0.
          5    1    3    3  502    0 -0.27397129481E+02  0.56542191910E+02 -0.17550607536E+03  0.18646039006E+03  0.41800000000E+01 0.  1.
         -5    1    3    3    0  502 -0.15238078056E+02 -0.67701728882E+02 -0.21580731305E+03  0.22672889512E+03  0.41800000000E+01 0.  1.
        -11    1    1    2    0    0 -0.10955866152E+02  0.82752378137E+01 -0.81690378098E+02  0.82836154170E+02  0.00000000000E+00 0. -1.
         11    1    1    2    0    0  0.53591073688E+02  0.28842991581E+01 -0.12317122464E+02  0.55063907112E+02  0.00000000000E+00 0.  1.
</event>
<event>
 7    1  0.1538147E-010  0.1011076E+03  0.7561462E-02  0.1277984E+00
         -1   -1    0    0    0  501 -0.00000000000E+00  0.00000000000E+00  0.17617527059E+02  0.17617527059E+02  0.00000000000E+00 0.  1.
          1   -1    0    0  501    0  0.00000000000E+00 -0.00000000000E+00 -0.92735998354E+03  0.92735998354E+03  0.00000000000E+00 0. -1.
         25    2    1    2    0    0 -0.60310997541E+02  0.16831152962E+02 -0.58942338696E+03  0.60579074120E+03  0.12506713752E+03 0.  0.
          5    1    3    3  502    0 -0.62223605750E+01 -0.34742380401E+02 -0.50845518695E+02  0.62036198613E+02  0.41800000000E+01 0. -1.
         -5    1    3    3    0  502 -0.54088636966E+02  0.51573533363E+02 -0.53857786827E+03  0.54375454258E+03  0.41800000000E+01 0. -1.
        -11    1    1    2    0    0  0.45944491916E+02 -0.42382637673E+02 -0.29132907229E+03  0.29795941447E+03  0.00000000000E+00 0. -1.
         11    1    1    2    0    0  0.14366505624E+02  0.25551484712E+02 -0.28989997229E+02  0.41227354926E+02  0.00000000000E+00 0.  1.
</event>
<event>
 7    1  0.1538147E-010  0.1583558E+03  0.7561462E-02  0.1190566E+00
          1   -1    0    0  501    0  0.00000000000E+00  0.00000000000E+00  0.20570537956E+03  0.20570537956E+03  0.00000000000E+00 0. -1.
         -1   -1    0    0    0  501 -0.00000000000E+00 -0.00000000000E+00 -0.15133363347E+03  0.15133363347E+03  0.00000000000E+00 0.  1.
         25    2    1    2    0    0  0.62027814343E+02 -0.12374550092E+03  0.45407883401E+02  0.19203744489E+03  0.12512436060E+03 0.  0.
          5    1    3    3  502    0  0.92636692799E+02 -0.99489846310E+02  0.56080652607E+01  0.13612020117E+03  0.41800000000E+01 0.  1.
         -5    1    3    3    0  502 -0.30608878456E+02 -0.24255654608E+02  0.39799818141E+02  0.55917243716E+02  0.41800000000E+01 0.  1.
        -11    1    1    2    0    0 -0.17640855780E+02  0.12400165256E+02 -0.31775469170E+02  0.38401098057E+02  0.00000000000E+00 0.  1.
         11    1    1    2    0    0 -0.44386958563E+02  0.11134533566E+03  0.40739331855E+02  0.12660047008E+03  0.00000000000E+00 0. -1.
</event>
<event>
 7    1  0.1538147E-010  0.2289218E+03  0.7561462E-02  0.1127401E+00
          1   -1    0    0  501    0  0.00000000000E+00  0.00000000000E+00  0.44497439057E+03  0.44497439057E+03  0.00000000000E+00 0. -1.
         -1   -1    0    0    0  501 -0.00000000000E+00 -0.00000000000E+00 -0.12081837069E+03  0.12081837069E+03  0.00000000000E+00 0.  1.
         25    2    1    2    0    0  0.16063163425E+03 -0.12661917871E+03  0.17298774154E+03  0.29563516261E+03  0.12506179397E+03 0.  0.
          5    1    3    3  502    0  0.35761276772E+01 -0.71096250282E+02  0.68940602403E+02  0.99185404939E+02  0.41800000000E+01 0. -1.
         -5    1    3    3    0  502  0.15705550658E+03 -0.55522928423E+02  0.10404713913E+03  0.19644975767E+03  0.41800000000E+01 0. -1.
        -11    1    1    2    0    0 -0.10076165182E+03  0.28081596341E+02  0.46637727424E+02  0.11452756939E+03  0.00000000000E+00 0.  1.
         11    1    1    2    0    0 -0.59869982430E+02  0.98537582364E+02  0.10453055092E+03  0.15563002927E+03  0.00000000000E+00 0. -1.
</event>
<event>
 7    1  0.1538147E-010  0.1204590E+03  0.7561462E-02  0.1242342E+00
          1   -1    0    0  501    0  0.00000000000E+00  0.00000000000E+00  0.23388704049E+03  0.23388704049E+03  0.00000000000E+00 0. -1.
         -1   -1    0    0    0  501 -0.00000000000E+00 -0.00000000000E+00 -0.97621413825E+02  0.97621413825E+02  0.00000000000E+00 0.  1.
         25    2    1    2    0    0  0.90572137143E+02 -0.18816008671E+02  0.21380354584E+02  0.15701155239E+03  0.12505260418E+03 0.  0.
          5    1    3    3  502    0  0.95827126261E+02 -0.52271843659E+02 -0.11229225764E+02  0.10981234757E+03  0.41800000000E+01 0. -1.
         -5    1    3    3    0  502 -0.52549891176E+01  0.33455834988E+02  0.32609580349E+02  0.47199204822E+02  0.41800000000E+01 0. -1.
        -11    1    1    2    0    0 -0.77671498130E+02  0.38039037043E+01  0.23857489083E+02  0.81341939309E+02  0.00000000000E+00 0.  1.
         11    1    1    2    0    0 -0.12900639013E+02  0.15012104967E+02  0.91027782994E+02  0.93154962612E+02  0.00000000000E+00 0. -1.
</event>
<event>
 6    1  0.1538147E-010  0.1869929E+03  0.7561462E-02  0.1161202E+00
         -2   -1    0    0    0  501 -0.00000000000E+00  0.00000000000E+00  0.38914419744E+03  0.38914419744E+03  0.00000000000E+00 0.  1.
          2   -1    0    0  501    0  0.00000000000E+00 -0.00000000000E+00 -0.93744682598E+02  0.93744682598E+02  0.00000000000E+00 0. -1.
          5    1    1    2  502    0  0.18937966725E+02 -0.44918198419E+02  0.35068962475E+02  0.60196309372E+02  0.41800000000E+01 0.  1.
         -5    1    1    2    0  502 -0.14177360468E+03 -0.51461694729E+02  0.10226954110E+03  0.18227614338E+03  0.41800000000E+01 0.  1.
        -11    1    1    2    0    0  0.50230403810E+02 -0.38897794622E+01  0.78440406461E+02  0.93226183108E+02  0.00000000000E+00 0.  1.
         11    1    1    2    0    0  0.72605234149E+02  0.10026967261E+03  0.79620604811E+02  0.14719024418E+03  0.00000000000E+00 0. -1.
</event>
<event>
 7    1  0.1538147E-010  0.2951991E+03  0.7561462E-02  0.1087665E+00
         -2   -1    0    0    0  501 -0.00000000000E+00  0.00000000000E+00  0.99768105483E+02  0.99768105483E+02  0.00000000000E+00 0.  1.
          2   -1    0    0  501    0  0.00000000000E+00 -0.00000000000E+00 -0.98719587031E+03  0.98719587031E+03  0.00000000000E+00 0. -1.
         25    2    1    2    0    0 -0.17594818323E+03  0.23412871625E+03 -0.40109800378E+03  0.51216203314E+03  0.12512521967E+03 0.  0.
          5    1    3    3  502    0 -0.10499936099E+03  0.11558023080E+03 -0.30849135781E+03  0.34578612726E+03  0.41800000000E+01 0.  1.
         -5    1    3    3    0  502 -0.70948822241E+02  0.11854848545E+03 -0.92606645968E+02  0.16637590588E+03  0.41800000000E+01 0.  1.
        -11    1    1    2    0    0  0.15781092154E+03 -0.18261575330E+03 -0.44526876885E+03  0.50647514927E+03  0.00000000000E+00 0. -1.
         11    1    1    2    0    0  0.18137261691E+02 -0.51512962955E+02 -0.41060992199E+02  0.68326793386E+02  0.00000000000E+00 0.  1.
</event>
<event>
 6    1  0.1538147E-010  0.1115675E+03  0.7561462E-02  0.1257694E+00
         -2   -1    0    0    0  501 -0.00000000000E+00  0.00000000000E+00  0.17256779262E+02  0.17256779262E+02  0.00000000000E+00 0.  1.
          2   -1    0    0  501    0  0.00000000000E+00 -0.00000000000E+00 -0.74152489291E+03  0.74152489291E+03  0.00000000000E+00 0. -1.
          5    1    1    2  502    0 -0.19717847815E+02 -0.58925089595E+02 -0.18626518437E+03  0.19640048629E+03  0.41800000000E+01 0. -1.
         -5    1    1    2    0  502 -0.86966686948E+01  0.65199861156E+02 -0.18176059870E+03  0.19334177402E+03  0.41800000000E+01 0. -1.
        -11    1    1    2    0    0  0.14911343121E+02  0.42132120952E+02 -0.13677934040E+03  0.14389597538E+03  0.00000000000E+00 0.  1.
         11    1    1    2    0    0  0.13503173389E+02 -0.48406892513E+02 -0.21946299017E+03  0.22514343648E+03  0.00000000000E+00 0. -1.
</event>
<event>
 7    1  0.1538147E-010  0.1299298E+03  0.7561462E-02  0.1227560E+00
         -2   -1    0    0    0  501 -0.00000000000E+00  0.00000000000E+00  0.56835498197E+02  0.56835498197E+02  0.00000000000E+00 0. -1.
          2   -1    0    0  501    0  0.00000000000E+00 -0.00000000000E+00 -0.52354278719E+03  0.52354278719E+03  0.00000000000E+00 0.  1.
         25    2    1    2    0    0  0.33650800574E+02 -0.11194503628E+03 -0.35139761027E+03  0.39087685335E+03  0.12506145071E+03 0.  0.
          5    1    3    3  502    0  0.34939143442E+02 -0.12450643981E+03 -0.19564368157E+03  0.23455600576E+03  0.41800000000E+01 0.  1.
         -5    1    3    3    0  502 -0.12883428688E+01  0.12561403527E+02 -0.15575392871E+03  0.15632084760E+03  0.41800000000E+01 0.  1.
        -11    1    1    2    0    0 -0.95492816803E+01  0.45566626476E+02  0.81570567516E+01  0.47265672574E+02  0.00000000000E+00 0. -1.
         11    1    1    2    0    0 -0.24101518893E+02  0.66378409809E+02 -0.12346673547E+03  0.14223575946E+03  0.00000000000E+00 0.  1.
</event>
<event>
 7    1  0.1538147E-010  0.9873284E+02  0.7561462E-02  0.1282983E+00
         -1   -1    0    0    0  501 -0.00000000000E+00  0.00000000000E+00  0.55594677315E+02  0.55594677315E+02  0.00000000000E+00 0.  1.
          1   -1    0    0  501    0  0.00000000000E+00 -0.00000000000E+00 -0.23593447392E+03  0.23593447392E+03  0.00000000000E+00 0. -1.
         25    2    1    2    0    0 -0.12801125436E+02  0.37204330693E+02 -0.99987366268E+02  0.16492116513E+03  0.12511389316E+03 0.  0.
          5    1    3    3  502    0  0.21076198449E+02 -0.24348815973E+02 -0.87639006530E+02  0.93461964701E+02  0.41800000000E+01 0.  1.
         -5    1    3    3    0  502 -0.33877323885E+02  0.61553146666E+02 -0.12348359739E+02  0.71459200432E+02  0.41800000000E+01 0.  1.
        -11    1    1    2    0    0 -0.12464231559E+01 -0.64180798317E+02 -0.68737238435E+02  0.94050711804E+02  0.00000000000E+00 0. -1.
         11    1    1    2    0    0  0.14047548592E+02  0.26976467623E+02 -0.11615191905E+02  0.32557274300E+02  0.00000000000E+00 0.  1.
</event>
<event>
 7    1  0.1538147E-010  0.2046706E+03  0.7561462E-02  0.1145857E+00
         -2   -1    0    0    0  501 -0.00000000000E+00  0.00000000000E+00  0.69873641465E+02  0.69873641465E+02  0.00000000000E+00 0.  1.
          2   -1    0    0  501    0  0.00000000000E+00 -0.00000000000E+00 -0.62462750504E+03  0.62462750504E+03  0.00000000000E+00 0. -1.
         25    2    1    2    0    0 -0.64238736372E+02 -0.16271673018E+03 -0.33823195014E+03  0.40079929057E+03  0.12504347124E+03 0.  0.
          5    1    3    3  502    0  0.34686269261E+02 -0.36763349977E+02 -0.51107069930E+02  0.72000598425E+02  0.41800000000E+01 0.  1.
         -5    1    3    3    0  502 -0.98925005632E+02 -0.12595338020E+03 -0.28712488021E+03  0.32879869215E+03  0.41800000000E+01 0.  1.
        -11    1    1    2    0    0  0.99669662782E+01  0.13871160694E+03 -0.15403385416E+03  0.20752512750E+03  0.00000000000E+00 0. -1.
         11    1    1    2    0    0  0.54271770093E+02  0.24005123243E+02 -0.62488059280E+02  0.86176728434E+02  0.00000000000E+00 0.  1.
</event>
<event>
 7    1  0.1538147E-010  0.9337532E+02  0.7561462E-02  0.1294878E+00
         -3   -1    0    0    0  501 -0.00000000000E+00  0.00000000000E+00  0.21188427103E+02  0.21188427103E+02  0.00000000000E+00 0.  1.
          3   -1    0    0  501    0  0.00000000000E+00 -0.00000000000E+00 -0.66254573707E+03  0.66254573707E+03  0.00000000000E+00 0. -1.
         25    2    1    2    0    0 -0.29845876130E+01  0.46515741212E+02 -0.33999541745E+03  0.36527066875E+03  0.12511257178E+03 0.  0.
          5    1    3    3  502    0 -0.54242550020E+01  0.69984913323E+02 -0.90407996600E+02  0.11453553547E+03  0.41800000000E+01 0. -1.
         -5    1    3    3    0  502  0.24396673890E+01 -0.23469172111E+02 -0.24958742085E+03  0.25073513329E+03  0.41800000000E+01 0. -1.
        -11    1    1    2    0    0 -0.34246384750E+02 -0.18160308296E+01 -0.18740120919E+03  0.19051332248E+03  0.00000000000E+00 0.  1.
         11    1    1    2    0    0  0.37230972363E+02 -0.44699710383E+02 -0.11396068332E+03  0.12795017293E+03  0.00000000000E+00 0. -1.
</event>
<event>
 7    1  0.1538147E-010  0.1170895E+03  0.7561462E-02  0.1247977E+00
         -3   -1    0    0    0  501 -0.00000000000E+00  0.00000000000E+00  0.14614858588E+03  0.14614858588E+03  0.00000000000E+00 0.  1.
          3   -1    0    0  501    0  0.00000000000E+00 -0.00000000000E+00 -0.13787140699E+03  0.13787140699E+03  0.00000000000E+00 0. -1.
         25    2    1    2    0    0 -0.57115749822E+02  0.58920618700E+00  0.75912232977E+02  0.15704056605E+03  0.12504605642E+03 0.  0.
          5    1    3    3  502    0  0.23437515537E+02  0.32936065240E+02 -0.14845627361E+01  0.40666667610E+02  0.41800000000E+01 0.  1.
         -5    1    3    3    0  502 -0.80553265359E+02 -0.32346859053E+02  0.77396795713E+02  0.11637389844E+03  0.41800000000E+01 0.  1.
        -11    1    1    2    0    0  0.70318058906E+02 -0.28409143424E+02 -0.55049391331E+02  0.93713095799E+02  0.00000000000E+00 0.  1.
         11    1    1    2    0    0 -0.13202309083E+02  0.27819937237E+02 -0.12585662760E+02  0.33266331029E+02  0.00000000000E+00 0. -1.
</event>
<event>
 7    1  0.1538147E-010  0.1813639E+03  0.7561462E-02  0.1166490E+00
         -2   -1    0    0    0  501 -0.00000000000E+00  0.00000000000E+00  0.59553810003E+02  0.59553810003E+02  0.00000000000E+00 0.  1.
          2   -1    0    0  501    0  0.00000000000E+00 -0.00000000000E+00 -0.74363506012E+03  0.74363506012E+03  0.00000000000E+00 0. -1.
         25    2    1    2    0    0  0.16667341067E+03  0.30240478199E+02 -0.47081721831E+03  0.51576834427E+03  0.12511442580E+03 0.  0.
          5    1    3    3  502    0 -0.33935169636E+01  0.40291627494E+01  0.58890395814E+01  0.89388644153E+01  0.41800000000E+01 0.  1.
         -5    1    3    3    0  502  0.17006692764E+03  0.26211315450E+02 -0.47670625789E+03  0.50682947985E+03  0.41800000000E+01 0.  1.
        -11    1    1    2    0    0 -0.84120930583E+02 -0.51496957944E+02 -0.70843463079E+02  0.12143748968E+03  0.00000000000E+00 0.  1.
         11    1    1    2    0    0 -0.82552480090E+02  0.21256479745E+02 -0.14242056873E+03  0.16598303617E+03  0.00000000000E+00 0. -1.
</event>
<event>
 7    1  0.1538147E-010  0.1902449E+03  0.7561462E-02  0.1158241E+00
         -1   -1    0    0    0  501 -0.00000000000E+00  0.00000000000E+00  0.43100926649E+03  0.43100926649E+03  0.00000000000E+00 0.  1.
          1   -1    0    0  501    0  0.00000000000E+00 -0.00000000000E+00 -0.16199118152E+03  0.16199118152E+03  0.00000000000E+00 0. -1.
         25    2    1    2    0    0 -0.13187632305E+03 -0.13521548593E+03 -0.29778933004E+02  0.22847334619E+03  0.12505475941E+03 0.  0.
          5    1    3    3  502    0 -0.11074272305E+03 -0.11594740371E+03  0.28982610936E+02  0.16298839000E+03  0.41800000000E+01 0.  1.
         -5    1    3    3    0  502 -0.21133599999E+02 -0.19268082216E+02 -0.58761543939E+02  0.65484956191E+02  0.41800000000E+01 0.  1.
        -11    1    1    2    0    0  0.32054517296E+02  0.16374617258E+02  0.13145009059E+03  0.13628920165E+03  0.00000000000E+00 0.  1.
         11    1    1    2    0    0  0.99821805755E+02  0.11884086867E+03  0.16734692738E+03  0.22823790017E+03  0.00000000000E+00 0. -1.
</event>
<event>
 6    1  0.1538147E-010  0.1022496E+03  0.7561462E-02  0.1275635E+00
          2   -1    0    0  501    0  0.00000000000E+00  0.00000000000E+00  0.79162873626E+02  0.79162873626E+02  0.00000000000E+00 0.  1.
         -2   -1    0    0    0  501 -0.00000000000E+00 -0.00000000000E+00 -0.16267643035E+03  0.16267643035E+03  0.00000000000E+00 0. -1.
          5    1    1    2  502    0 -0.20294729638E+01 -0.60886001904E+02 -0.21921407334E+01  0.61102388409E+02  0.41800000000E+01 0.  1.
         -5    1    1    2    0  502 -0.19492745307E+02  0.45021939253E+02 -0.70360719872E+02  0.85878084717E+02  0.41800000000E+01 0.  1.
        -11    1    1    2    0    0 -0.28815302397E+02 -0.17587768955E+02 -0.49890301219E+01  0.34125381911E+02  0.00000000000E+00 0. -1.
         11    1    1    2    0    0  0.50337520668E+02  0.33451831605E+02 -0.59716659934E+01  0.60733448934E+02  0.00000000000E+00 0.  1.
</event>
<event>
 7    1  0.1571445E-010  0.1323234E+03  0.7561462E-02  0.1224048E+00
         -2   -1    0    0    0  501 -0.00000000000E+00  0.00000000000E+00  0.39187738273E+02  0.39187738273E+02  0.00000000000E+00 0. -1.
          2   -1    0    0  501    0  0.00000000000E+00 -0.00000000000E+00 -0.64873263559E+03  0.64873263559E+03  0.00000000000E+00 0.  1.
         25    2    1    2    0    0 -0.89407770250E+01 -0.11648681078E+03 -0.34006765570E+03  0.38072028099E+03  0.12511117987E+03 0.  0.
          5    1    3    3  502    0 -0.25029828618E+02 -0.98321905877E+02 -0.11141776884E+03  0.15074840334E+03  0.41800000000E+01 0. -1.
         -5    1    3    3    0  502  0.16089051593E+02 -0.18164904903E+02 -0.22864988686E+03  0.22997187765E+03  0.41800000000E+01 0. -1.
        -11    1    1    2    0    0 -0.32916857561E+02  0.47597621878E+02 -0.16747310423E+03  0.17718999340E+03  0.00000000000E+00 0.  1.
         11    1    1    2    0    0  0.41857634586E+02  0.68889188903E+02 -0.10200413740E+03  0.13001009948E+03  0.00000000000E+00 0. -1.
</event>
<event>
 7    1  0.1538147E-010  0.1116541E+03  0.7561462E-02  0.1257537E+00
          1   -1    0    0  501    0  0.00000000000E+00  0.00000000000E+00  0.73427739875E+02  0.73427739875E+02  0.00000000000E+00 0. -1.
         -1   -1    0    0    0  501 -0.00000000000E+00 -0.00000000000E+00 -0.19400191061E+03  0.19400191061E+03  0.00000000000E+00 0.  1.
         25    2    1    2    0    0 -0.26141113279E+01 -0.39198435590E+02 -0.34148545922E+02  0.13551620900E+03  0.12512061693E+03 0.  0.
          5    1    3    3  502    0  0.59238348302E+02 -0.14576606603E+02 -0.12992088595E+01  0.61162240911E+02  0.41800000000E+01 0.  1.
         -5    1    3    3    0  502 -0.61852459630E+02 -0.24621828987E+02 -0.32849337062E+02  0.74353968087E+02  0.41800000000E+01 0.  1.
        -11    1    1    2    0    0 -0.16364458172E+02 -0.24235761708E+02 -0.10259115976E+02  0.30990596920E+02  0.00000000000E+00 0. -1.
         11    1    1    2    0    0  0.18978569500E+02  0.63434197298E+02 -0.76166508840E+02  0.10092284457E+03  0.00000000000E+00 0.  1.
</event>
<event>
 7    1  0.1538147E-010  0.2223846E+03  0.7561462E-02  0.1132118E+00
         -1   -1    0    0    0  501 -0.00000000000E+00  0.00000000000E+00  0.15789061346E+03  0.15789061346E+03  0.00000000000E+00 0.  1.
          1   -1    0    0  501    0  0.00000000000E+00 -0.00000000000E+00 -0.34019456577E+03  0.34019456577E+03  0.00000000000E+00 0. -1.
         25    2    1    2    0    0  0.50194056595E+02 -0.19563187908E+03 -0.11240476460E+03  0.26279893556E+03  0.12504868650E+03 0.  0.
          5    1    3    3  502    0 -0.36027446311E+02 -0.10179908055E+03 -0.34770689862E+02  0.11352313844E+03  0.41800000000E+01 0.  1.
         -5    1    3    3    0  502  0.86221502906E+02 -0.93832798536E+02 -0.77634074733E+02  0.14927579711E+03  0.41800000000E+01 0.  1.
        -11    1    1    2    0    0 -0.12571073779E+02  0.14786295939E+03 -0.81437342863E+01  0.14861967253E+03  0.00000000000E+00 0.  1.
         11    1    1    2    0    0 -0.37622982816E+02  0.47768919698E+02 -0.61755453437E+02  0.86666571147E+02  0.00000000000E+00 0. -1.
</event>
<event>
 7    1  0.1538147E-010  0.8393555E+02  0.7561462E-02  0.1318240E+00
         -4   -1    0    0    0  501 -0.00000000000E+00  0.00000000000E+00  0.63172756198E+03  0.63172756198E+03  0.00000000000E+00 0.  1.
          4   -1    0    0  501    0  0.00000000000E+00 -0.00000000000E+00 -0.29928369397E+02  0.29928369397E+02  0.00000000000E+00 0. -1.
         25    2    1    2    0    0 -0.42928753453E+02  0.19098288477E+02  0.49848462010E+03  0.51609667072E+03  0.12514485432E+03 0.  0.
          5    1    3    3  502    0 -0.69444565938E+02  0.45061004084E+02  0.43164922609E+03  0.43953562838E+03  0.41800000000E+01 0. -1.
         -5    1    3    3    0  502  0.26515812485E+02 -0.25962715607E+02  0.66835394007E+02  0.76561042349E+02  0.41800000000E+01 0. -1.
        -11    1    1    2    0    0  0.23029027497E+02 -0.59450501173E+01  0.11608888873E+03  0.11850025238E+03  0.00000000000E+00 0.  1.
         11    1    1    2    0    0  0.19899725956E+02 -0.13153238360E+02 -0.12774316251E+02  0.27059008263E+02  0.00000000000E+00 0. -1.
</event>
<event>
 7    1  0.1538147E-010  0.9163621E+02  0.7561462E-02  0.1298937E+00
         -2   -1    0    0    0  501 -0.00000000000E+00  0.00000000000E+00  0.11210591952E+03  0.11210591952E+03  0.00000000000E+00 0.  1.
          2   -1    0    0  501    0  0.00000000000E+00 -0.00000000000E+00 -0.88158090420E+02  0.88158090420E+02  0.00000000000E+00 0. -1.
         25    2    1    2    0    0  0.80512995387E+00  0.16029141823E+02 -0.57998401927E+01  0.12627538189E+03  0.12511695450E+03 0.  0.
          5    1    3    3  502    0  0.62502457166E+02  0.44819740673E+01  0.23250541654E+01  0.62845234666E+02  0.41800000000E+01 0.  1.
         -5    1    3    3    0  502 -0.61697327213E+02  0.11547167755E+02 -0.81248943582E+01  0.63430147223E+02  0.41800000000E+01 0.  1.
        -11    1    1    2    0    0 -0.17175577692E+02  0.14789675615E+02  0.31777697848E+02  0.39032768982E+02  0.00000000000E+00 0.  1.
         11    1    1    2    0    0  0.16370447738E+02 -0.30818817438E+02 -0.20300285548E+01  0.34955859071E+02  0.00000000000E+00 0. -1.
</event>
<event>
 6    1  0.1538147E-010  0.2321199E+03  0.7561462E-02  0.1125157E+00
         -1   -1    0    0    0  501 -0.00000000000E+00  0.00000000000E+00  0.14843270884E+03  0.14843270884E+03  0.00000000000E+00 0.  1.
          1   -1    0    0  501    0  0.00000000000E+00 -0.00000000000E+00 -0.45851099351E+03  0.45851099351E+03  0.00000000000E+00 0. -1.
          5    1    1    2  502    0 -0.34188653362E+02 -0.12309608703E+03 -0.11978618403E+02  0.12838407362E+03  0.41800000000E+01 0. -1.
         -5    1    1    2    0  502  0.82953978103E+02 -0.76130139065E+02 -0.10042031996E+02  0.11311708697E+03  0.41800000000E+01 0. -1.
        -11    1    1    2    0    0 -0.66883613908E+02  0.85338619173E+02 -0.15795958051E+03  0.19159156246E+03  0.00000000000E+00 0.  1.
         11    1    1    2    0    0  0.18118289168E+02  0.11388760692E+03 -0.13009805376E+03  0.17385097931E+03  0.00000000000E+00 0. -1.
</event>
<event>
 7    1  0.1538147E-010  0.1910090E+03  0.7561462E-02  0.1157554E+00
         -1   -1    0    0    0  501 -0.00000000000E+00  0.00000000000E+00  0.26244413811E+03  0.26244413811E+03  0.00000000000E+00 0.  1.
          1   -1    0    0  501    0  0.00000000000E+00 -0.00000000000E+00 -0.17643793396E+03  0.17643793396E+03  0.00000000000E+00 0. -1.
         25    2    1    2    0    0  0.13185509305E+03  0.11690369349E+03  0.95767184081E+02  0.23635612903E+03  0.12506249265E+03 0.  0.
          5    1    3    3  502    0  0.10137209462E+03  0.13319346664E+03  0.10824047894E+03  0.19937470954E+03  0.41800000000E+01 0. -1.
         -5    1    3    3    0  502  0.30482998429E+02 -0.16289773151E+02 -0.12473294861E+02  0.36981419487E+02  0.41800000000E+01 0. -1.
        -11    1    1    2    0    0 -0.11448402670E+03 -0.82126071949E+02  0.33028809368E+02  0.14471415380E+03  0.00000000000E+00 0.  1.
         11    1    1    2    0    0 -0.17371066348E+02 -0.34777621542E+02 -0.42789789307E+02  0.57811789240E+02  0.00000000000E+00 0. -1.
</event>
<event>
 7    1  0.1538147E-010  0.1272434E+03  0.7561462E-02  0.1231604E+00
          1   -1    0    0  501    0  0.00000000000E+00  0.00000000000E+00  0.12318938598E+03  0.12318938598E+03  0.00000000000E+00 0. -1.
         -1   -1    0    0    0  501 -0.00000000000E+00 -0.00000000000E+00 -0.13497728209E+03  0.13497728209E+03  0.00000000000E+00 0.  1.
         25    2    1    2    0    0  0.61794743539E+02  0.33228569779E+02 -0.10378681341E+01  0.14340505183E+03  0.12506479737E+03 0.  0.
          5    1    3    3  502    0  0.40066499962E+02  0.81126936032E+02 -0.26753835360E+01  0.90617516222E+02  0.41800000000E+01 0. -1.
         -5    1    3    3    0  502  0.21728243578E+02 -0.47898366253E+02  0.16375154018E+01  0.52787535606E+02  0.41800000000E+01 0. -1.
        -11    1    1    2    0    0  0.14039177158E+02 -0.32397133699E+02 -0.15952837785E+02  0.38744880959E+02  0.00000000000E+00 0.  1.
         11    1    1    2    0    0 -0.75833920697E+02 -0.83143608050E+00  0.52028098072E+01  0.76016735290E+02  0.00000000000E+00 0. -1.
</event>
<event>
 6    1  0.1538147E-010  0.8808531E+02  0.7561462E-02  0.1307556E+00
         -1   -1    0    0    0  501 -0.00000000000E+00  0.00000000000E+00  0.57129006255E+02  0.57129006255E+02  0.00000000000E+00 0.  1.
          1   -1    0    0  501    0  0.00000000000E+00 -0.00000000000E+00 -0.20392277364E+03  0.20392277364E+03  0.00000000000E+00 0. -1.
          5    1    1    2  502    0 -0.57778566006E+01 -0.59958041720E+02 -0.99124097636E+02  0.11606640137E+03  0.41800000000E+01 0.  1.
         -5    1    1    2    0  502 -0.35525410244E+01  0.48131412029E+02 -0.78454867417E+01  0.49074203344E+02  0.41800000000E+01 0.  1.
        -11    1    1    2    0    0 -0.28171226635E+02  0.51291500485E+00 -0.48221862843E+02  0.55850059516E+02  0.00000000000E+00 0. -1.
         11    1    1    2    0    0  0.37501624259E+02  0.11313714686E+02  0.83976798355E+01  0.40061115670E+02  0.00000000000E+00 0.  1.
</event>
<event>
 7    1  0.1538147E-010  0.8301363E+02  0.7561462E-02  0.1320710E+00
         -2   -1    0    0    0  501 -0.00000000000E+00  0.00000000000E+00  0.12062797476E+03  0.12062797476E+03  0.00000000000E+00 0.  1.
          2   -1    0    0  501    0  0.00000000000E+00 -0.00000000000E+00 -0.10670954709E+03  0.10670954709E+03  0.00000000000E+00 0. -1.
         25    2    1    2    0    0 -0.51431417989E+02 -0.20590747138E+02  0.10841417425E+02  0.13726207382E+03  0.12511662940E+03 0.  0.
          5    1    3    3  502    0  0.21762092236E+02 -0.21784043711E+02 -0.38055680936E+02  0.49130850495E+02  0.41800000000E+01 0. -1.
         -5    1    3    3    0  502 -0.73193510225E+02  0.11932965736E+01  0.48897098360E+02  0.88131223320E+02  0.41800000000E+01 0. -1.
        -11    1    1    2    0    0  0.32573261809E+02 -0.14720459142E+01  0.34382834163E+02  0.47385267638E+02  0.00000000000E+00 0.  1.
         11    1    1    2    0    0  0.18858156180E+02  0.22062793052E+02 -0.31305823911E+02  0.42690180399E+02  0.00000000000E+00 0. -1.
</event>
<event>
 7    1  0.1538147E-010  0.1330730E+03  0.7561462E-02  0.1222966E+00
         -2   -1    0    0    0  501 -0.00000000000E+00  0.00000000000E+00  0.24666221549E+02  0.24666221549E+02  0.00000000000E+00 0.  1.
          2   -1    0    0  501    0  0.00000000000E+00 -0.00000000000E+00 -0.11030549461E+04  0.11030549461E+04  0.00000000000E+00 0. -1.
         25    2    1    2    0    0  0.49232902004E+02 -0.10997189162E+03 -0.66307859761E+03  0.68544004012E+03  0.12504849621E+03 0.  0.
          5    1    3    3  502    0  0.10952489710E+02 -0.51297005306E+02 -0.66752972694E+02  0.84998656152E+02  0.41800000000E+01 0. -1.
         -5    1    3    3    0  502  0.38280412294E+02 -0.58674886316E+02 -0.59632562491E+03  0.60044138397E+03  0.41800000000E+01 0. -1.
        -11    1    1    2    0    0 -0.69871830925E+02  0.73324923209E+02 -0.21581177583E+03  0.23839744065E+03  0.00000000000E+00 0. -1.
         11    1    1    2    0    0  0.20638928920E+02  0.36646968413E+02 -0.19949835112E+03  0.20388368689E+03  0.00000000000E+00 0.  1.
</event>
<event>
 7    1  0.1538147E-010  0.9599163E+02  0.7561462E-02  0.1288958E+00
         -1   -1    0    0    0  501 -0.00000000000E+00  0.00000000000E+00  0.19959302309E+03  0.19959302309E+03  0.00000000000E+00 0.  1.
          1   -1    0    0  501    0  0.00000000000E+00 -0.00000000000E+00 -0.14432751520E+03  0.14432751520E+03  0.00000000000E+00 0. -1.
         25    2    1    2    0    0  0.71825716286E+02 -0.35900740596E+02 -0.75039793843E+02  0.16652866562E+03  0.12511206624E+03 0.  0.
          5    1    3    3  502    0 -0.13071822515E+02 -0.19459940009E+02  0.24798913134E+02  0.34380522126E+02  0.41800000000E+01 0. -1.
         -5    1    3    3    0  502  0.84897538801E+02 -0.16440800588E+02 -0.99838706977E+02  0.13214814349E+03  0.41800000000E+01 0. -1.
        -11    1    1    2    0    0 -0.26430830308E+02  0.56035048271E+01  0.11851554470E+03  0.12155625197E+03  0.00000000000E+00 0.  1.
         11    1    1    2    0    0 -0.45394885978E+02  0.30297235769E+02  0.11789757043E+02  0.55835620703E+02  0.00000000000E+00 0. -1.
</event>
<event>
 7    1  0.1538147E-010  0.1707230E+03  0.7561462E-02  0.1177096E+00
         -2   -1    0    0    0  501 -0.00000000000E+00  0.00000000000E+00  0.35147082585E+03  0.35147082585E+03  0.00000000000E+00 0.  1.
          2   -1    0    0  501    0  0.00000000000E+00 -0.00000000000E+00 -0.11761575607E+03  0.11761575607E+03  0.00000000000E+00 0. -1.
         25    2    1    2    0    0  0.69579236124E+02  0.11562608947E+03  0.24431575389E+03  0.30586689528E+03  0.12511477677E+03 0.  0.
          5    1    3    3  502    0 -0.34300784049E+02  0.48666432414E+02  0.92118503143E+02  0.10976455007E+03  0.41800000000E+01 0. -1.
         -5    1    3    3    0  502  0.10388002017E+03  0.66959657055E+02  0.15219725074E+03  0.19610234521E+03  0.41800000000E+01 0. -1.
        -11    1    1    2    0    0 -0.55753407400E+02 -0.16685597451E+02 -0.22912896828E+02  0.62544803461E+02  0.00000000000E+00 0. -1.
         11    1    1    2    0    0 -0.13825828724E+02 -0.98940492018E+02  0.12452212723E+02  0.10067488318E+03  0.00000000000E+00 0.  1.
</event>
<event>
 6    1  0.1538147E-010  0.1476319E+03  0.7561462E-02  0.1203413E+00
          2   -1    0    0  501    0  0.00000000000E+00  0.00000000000E+00  0.16249925525E+04  0.16249925525E+04  0.00000000000E+00 0. -1.
         -2   -1    0    0    0  501 -0.00000000000E+00 -0.00000000000E+00 -0.19592865652E+02  0.19592865652E+02  0.00000000000E+00 0.  1.
          5    1    1    2  502    0  0.10893051113E+03  0.46791779963E+02  0.11477559477E+04  0.11538702331E+04  0.41800000000E+01 0. -1.
         -5    1    1    2    0  502 -0.21970521779E+02  0.22534720386E+02  0.96558417066E+02  0.10164407389E+03  0.41800000000E+01 0. -1.
        -11    1    1    2    0    0 -0.96732353261E+02 -0.25574544080E+02  0.24771162076E+03  0.26715585813E+03  0.00000000000E+00 0. -1.
         11    1    1    2    0    0  0.97723639087E+01 -0.43751956270E+02  0.11337370127E+03  0.12191525300E+03  0.00000000000E+00 0.  1.
</event>
<event>
 7    1  0.1538147E-010  0.1089796E+03  0.7561462E-02  0.1262471E+00
          2   -1    0    0  501    0  0.00000000000E+00  0.00000000000E+00  0.41842373476E+03  0.41842373476E+03  0.00000000000E+00 0.  1.
         -2   -1    0    0    0  501 -0.00000000000E+00 -0.00000000000E+00 -0.38131106833E+02  0.38131106833E+02  0.00000000000E+00 0. -1.
         25    2    1    2    0    0 -0.32228769980E+02  0.54663884271E+02  0.24013546410E+03  0.27808082909E+03  0.12504828080E+03 0.  0.
          5    1    3    3  502    0 -0.39507272932E+02  0.78812527060E+02  0.23628005321E+03  0.25222603946E+03  0.41800000000E+01 0.  1.
         -5    1    3    3    0  502  0.72785029521E+01 -0.24148642789E+02  0.38554108881E+01  0.25854789632E+02  0.41800000000E+01 0.  1.
        -11    1    1    2    0    0  0.11119322972E+02  0.21982142707E+02  0.11384310413E+02  0.27137731389E+02  0.00000000000E+00 0.  1.
         11    1    1    2    0    0  0.21109447008E+02 -0.76646026978E+02  0.12877285341E+03  0.15133628111E+03  0.00000000000E+00 0. -1.
</event>
<event>
 7    1  0.1538147E-010  0.1111982E+03  0.7561462E-02  0.1258367E+00
         -4   -1    0    0    0  501 -0.00000000000E+00  0.00000000000E+00  0.12957142891E+03  0.12957142891E+03  0.00000000000E+00 0. -1.
          4   -1    0    0  501    0  0.00000000000E+00 -0.00000000000E+00 -0.12224822881E+03  0.12224822881E+03  0.00000000000E+00 0.  1.
         25    2    1    2    0    0  0.37274417777E+02  0.39630623422E+02  0.37650093648E+02  0.14154188120E+03  0.12512636033E+03 0.  0.
          5    1    3    3  502    0  0.23432662414E+02  0.75028563734E+02  0.58423412465E+02  0.98026234080E+02  0.41800000000E+01 0. -1.
         -5    1    3    3    0  502  0.13841755363E+02 -0.35397940312E+02 -0.20773318818E+02  0.43515647123E+02  0.41800000000E+01 0. -1.
        -11    1    1    2    0    0  0.26763572434E+02  0.52141003660E+01 -0.28686321886E+01  0.27417233681E+02  0.00000000000E+00 0.  1.
         11    1    1    2    0    0 -0.64037990211E+02 -0.44844723788E+02 -0.27458261360E+02  0.82860542834E+02  0.00000000000E+00 0. -1.
</event>
<event>
 7    1  0.1538147E-010  0.1102379E+03  0.7561462E-02  0.1260130E+00
         -4   -1    0    0    0  501 -0.00000000000E+00  0.00000000000E+00  0.23453329030E+03  0.23453329030E+03  0.00000000000E+00 0.  1.
          4   -1    0    0  501    0  0.00000000000E+00 -0.00000000000E+00 -0.72624829514E+02  0.72624829514E+02  0.00000000000E+00 0. -1.
         25    2    1    2    0    0 -0.69293151570E+02  0.77292193055E+01  0.66846150187E+02  0.15799645023E+03  0.12503275093E+03 0.  0.
          5    1    3    3  502    0 -0.68279771425E+02 -0.29370507748E+02 -0.74733185054E+01  0.74820296717E+02  0.41800000000E+01 0.  1.
         -5    1    3    3    0  502 -0.10133801445E+01  0.37099727054E+02  0.74319468692E+02  0.83176153515E+02  0.41800000000E+01 0.  1.
        -11    1    1    2    0    0  0.76929220352E+02  0.20355843059E+02  0.45447481328E+02  0.91640268712E+02  0.00000000000E+00 0. -1.
         11    1    1    2    0    0 -0.76360687817E+01 -0.28085062365E+02  0.49614829270E+02  0.57521400869E+02  0.00000000000E+00 0.  1.
</event>
<event>
 6    1  0.1538147E-010  0.9878734E+02  0.7561462E-02  0.1282867E+00
          1   -1    0    0  501    0  0.00000000000E+00  0.00000000000E+00  0.97708936028E+03  0.97708936028E+03  0.00000000000E+00 0. -1.
         -1   -1    0    0    0  501 -0.00000000000E+00 -0.00000000000E+00 -0.19083964782E+02  0.19083964782E+02  0.00000000000E+00 0.  1.
          5    1    1    2  502    0 -0.79874533745E+02 -0.10933041579E+02  0.22404839274E+03  0.23814833031E+03  0.41800000000E+01 0.  1.
         -5    1    1    2    0  502  0.16091933965E+02 -0.15134697100E+02  0.46576188745E+03  0.46630421143E+03  0.41800000000E+01 0.  1.
        -11    1    1    2    0    0 -0.60627322287E+01  0.23716607328E+02  0.14227772914E+02  0.28313666441E+02  0.00000000000E+00 0.  1.
         11    1    1    2    0    0  0.69845332009E+02  0.23511313506E+01  0.25396734240E+03  0.26340711689E+03  0.00000000000E+00 0. -1.
</event>
<event>
 7    1  0.1538147E-010  0.1764675E+03  0.7561462E-02  0.1171266E+00
          2   -1    0    0  501    0  0.00000000000E+00  0.00000000000E+00  0.81338278836E+03  0.81338278836E+03  0.00000000000E+00 0. -1.
         -2   -1    0    0    0  501 -0.00000000000E+00 -0.00000000000E+00 -0.48227356001E+02  0.48227356001E+02  0.00000000000E+00 0.  1.
         25    2    1    2    0    0  0.11647930657E+03  0.10078318166E+03  0.27437798416E+03  0.33859869143E+03  0.12506445172E+03 0.  0.
          5    1    3    3  502    0  0.20060327456E+02 -0.29373546605E+02  0.59967844184E+02  0.69848670094E+02  0.41800000000E+01 0.  1.
         -5    1    3    3    0  502  0.96418979112E+02  0.13015672826E+03  0.21441013998E+03  0.26875002134E+03  0.41800000000E+01 0.  1.
        -11    1    1    2    0    0 -0.35587496855E+02 -0.42239589989E+02  0.32362600774E+03  0.32830541540E+03  0.00000000000E+00 0. -1.
         11    1    1    2    0    0 -0.80891809712E+02 -0.58543591666E+02  0.16715144046E+03  0.19470603754E+03  0.00000000000E+00 0.  1.
</event>
<event>
 7    1  0.1538147E-010  0.1516054E+03  0.7561462E-02  0.1198514E+00
          1   -1    0    0  501    0  0.00000000000E+00  0.00000000000E+00  0.42087145496E+03  0.42087145496E+03  0.00000000000E+00 0. -1.
         -1   -1    0    0    0  501 -0.00000000000E+00 -0.00000000000E+00 -0.93571182376E+02  0.93571182376E+02  0.00000000000E+00 0.  1.
         25    2    1    2    0    0  0.11444800187E+03 -0.55202912632E+02  0.30581768699E+03  0.35401718014E+03  0.12513192824E+03 0.  0.
          5    1    3    3  502    0  0.10001037093E+03 -0.12480126580E+02  0.28833426877E+03  0.30547004894E+03  0.41800000000E+01 0.  1.
         -5    1    3    3    0  502  0.14437630932E+02 -0.42722786052E+02  0.17483418220E+02  0.48547131199E+02  0.41800000000E+01 0.  1.
        -11    1    1    2    0    0 -0.45155187091E+02 -0.24550449503E+02  0.18839497318E+02  0.54741594343E+02  0.00000000000E+00 0.  1.
         11    1    1    2    0    0 -0.69292814774E+02  0.79753362135E+02  0.26430882736E+01  0.10568386285E+03  0.00000000000E+00 0. -1.
</event>
<event>
 7    1  0.1538147E-010  0.2952071E+03  0.7561462E-02  0.1087661E+00
          2   -1    0    0  501    0  0.00000000000E+00  0.00000000000E+00  0.28471573081E+04  0.28471573081E+04  0.00000000000E+00 0. -1.
         -2   -1    0    0    0  501 -0.00000000000E+00 -0.00000000000E+00 -0.30864760902E+02  0.30864760902E+02  0.00000000000E+00 0.  1.
         25    2    1    2    0    0  0.16492539678E+03 -0.22070142165E+03  0.14076700645E+04  0.14398214313E+04  0.12506494172E+03 0.  0.
          5    1    3    3  502    0  0.82454355559E+02 -0.20109439027E+03  0.98207075882E+03  0.10058419967E+04  0.41800000000E+01 0.  1.
         -5    1    3    3    0  502  0.82471041222E+02 -0.19607031385E+02  0.42559930568E+03  0.43397943467E+03  0.41800000000E+01 0.  1.
        -11    1    1    2    0    0 -0.95333325571E+02  0.18900861321E+03  0.95528996346E+03  0.97846390486E+03  0.00000000000E+00 0.  1.
         11    1    1    2    0    0 -0.69592071210E+02  0.31692808439E+02  0.45333251921E+03  0.45973673276E+03  0.00000000000E+00 0. -1.
</event>
<event>
 7    1  0.1870102E-010  0.8290499E+02  0.7561462E-02  0.1321004E+00
         -2   -1    0    0    0  501 -0.00000000000E+00  0.00000000000E+00  0.27306399421E+02  0.27306399421E+02  0.00000000000E+00 0.  1.
          2   -1    0    0  501    0  0.00000000000E+00 -0.00000000000E+00 -0.96211491932E+03  0.96211491932E+03  0.00000000000E+00 0. -1.
         25    2    1    2    0    0  0.60505581243E+02 -0.26363157452E+02 -0.80666137855E+03  0.81896327073E+03  0.12506925170E+03 0.  0.
          5    1    3    3  502    0  0.30998969565E+02 -0.10498279332E+02 -0.41316639364E+02  0.52874257171E+02  0.41800000000E+01 0. -1.
         -5    1    3    3    0  502  0.29506611678E+02 -0.15864878120E+02 -0.76534473919E+03  0.76608901356E+03  0.41800000000E+01 0. -1.
        -11    1    1    2    0    0 -0.52860602429E+02 -0.16608439657E+02 -0.29920133265E+02  0.62970611650E+02  0.00000000000E+00 0.  1.
         11    1    1    2    0    0 -0.76449788141E+01  0.42971597108E+02 -0.98227008078E+02  0.10748743636E+03  0.00000000000E+00 0. -1.
</event>
<event>
 7    1  0.1538147E-010  0.1114697E+03  0.7561462E-02  0.1257872E+00
          1   -1    0    0  501    0  0.00000000000E+00  0.00000000000E+00  0.43725109338E+03  0.43725109338E+03  0.00000000000E+00 0. -1.
         -1   -1    0    0    0  501 -0.00000000000E+00 -0.00000000000E+00 -0.33747935881E+02  0.33747935881E+02  0.00000000000E+00 0.  1.
         25    2    1    2    0    0  0.45318594511E+02 -0.21551953874E+02  0.26228104992E+03  0.29486776748E+03  0.12504954788E+03 0.  0.
          5    1    3    3  502    0 -0.21492379740E+02 -0.44021587588E+02  0.17925401495E+03  0.18587441146E+03  0.41800000000E+01 0.  1.
         -5    1    3    3    0  502  0.66810974251E+02  0.22469633714E+02  0.83027034974E+02  0.10899335602E+03  0.41800000000E+01 0.  1.
        -11    1    1    2    0    0 -0.55125295025E+02  0.49161148176E+02  0.84079221461E+02  0.11191484318E+03  0.00000000000E+00 0.  1.
         11    1    1    2    0    0  0.98067005142E+01 -0.27609194301E+02  0.57142886113E+02  0.64216418604E+02  0.00000000000E+00 0. -1.
</event>
<event>
 7    1  0.1538147E-010  0.9533615E+02  0.7561462E-02  0.1290421E+00
         -1   -1    0    0    0  501 -0.00000000000E+00  0.00000000000E+00  0.13076123235E+03  0.13076123235E+03  0.00000000000E+00 0.  1.
          1   -1    0    0  501    0  0.00000000000E+00 -0.00000000000E+00 -0.91355631711E+02  0.91355631711E+02  0.00000000000E+00 0. -1.
         25    2    1    2    0    0 -0.40626260739E+00 -0.17525697687E+02  0.22783321122E+02  0.12838401426E+03  0.12512417939E+03 0.  0.
          5    1    3    3  502    0 -0.61472518678E+02 -0.58792538594E+01  0.23132110219E+02  0.66075737618E+02  0.41800000000E+01 0.  1.
         -5    1    3    3    0  502  0.61066256071E+02 -0.11646443828E+02 -0.34878909647E+00  0.62308276642E+02  0.41800000000E+01 0.  1.
        -11    1    1    2    0    0 -0.14519076011E+01  0.41950333174E+02  0.41353496483E+02  0.58924105089E+02  0.00000000000E+00 0.  1.
         11    1    1    2    0    0  0.18581702085E+01 -0.24424635487E+02 -0.24731216971E+02  0.34808744707E+02  0.00000000000E+00 0. -1.
</event>
<event>
 7    1  0.1538147E-010  0.8808486E+02  0.7561462E-02  0.1307557E+00
          1   -1    0    0  501    0  0.00000000000E+00  0.00000000000E+00  0.54341166665E+03  0.54341166665E+03  0.00000000000E+00 0. -1.
         -1   -1    0    0    0  501 -0.00000000000E+00 -0.00000000000E+00 -0.33070413895E+02  0.33070413895E+02  0.00000000000E+00 0.  1.
         25    2    1    2    0    0 -0.18275406679E+01  0.38625602415E+02  0.49019688080E+03  0.50739455164E+03  0.12514380538E+03 0.  0.
          5    1    3    3  502    0  0.71693895038E+01 -0.41082522320E+02  0.26516669596E+03  0.26845860544E+03  0.41800000000E+01 0. -1.
         -5    1    3    3    0  502 -0.89969301717E+01  0.79708124735E+02  0.22503018484E+03  0.23893594621E+03  0.41800000000E+01 0. -1.
        -11    1    1    2    0    0  0.13234395540E+02  0.43561181944E+00 -0.11500540128E+02  0.17538569104E+02  0.00000000000E+00 0.  1.
         11    1    1    2    0    0 -0.11406854872E+02 -0.39061214234E+02  0.31644912085E+02  0.51548959800E+02  0.00000000000E+00 0. -1.
</event>
<event>
 7    1  0.1538147E-010  0.1417943E+03  0.7561462E-02  0.1210935E+00
          2   -1    0    0  501    0  0.00000000000E+00  0.00000000000E+00  0.53067192990E+03  0.53067192990E+03  0.00000000000E+00 0.  1.
         -2   -1    0    0    0  501 -0.00000000000E+00 -0.00000000000E+00 -0.41755101868E+02  0.41755101868E+02  0.00000000000E+00 0. -1.
         25    2    1    2    0    0  0.99135473150E+02  0.19183203298E+02  0.22516096737E+03  0.27664335779E+03  0.12505298418E+03 0.  0.
          5    1    3    3  502    0 -0.24561849817E+02  0.68459576255E+01  0.92047953759E+01  0.27429040453E+02  0.41800000000E+01 0. -1.
         -5    1    3    3    0  502  0.12369732297E+03  0.12337245672E+02  0.21595617200E+03  0.24921431733E+03  0.41800000000E+01 0. -1.
        -11    1    1    2    0    0 -0.83721064576E+02  0.24347485426E+02  0.18428229510E+03  0.20386755747E+03  0.00000000000E+00 0.  1.
         11    1    1    2    0    0 -0.15414408574E+02 -0.43530688723E+02  0.79473565555E+02  0.91916116511E+02  0.00000000000E+00 0. -1.
</event>
<event>
 7    1  0.1538147E-010  0.9031758E+02  0.7561462E-02  0.1302084E+00
          2   -1    0    0  501    0  0.00000000000E+00  0.00000000000E+00  0.74023162392E+02  0.74023162392E+02  0.00000000000E+00 0. -1.
         -2   -1    0    0    0  501 -0.00000000000E+00 -0.00000000000E+00 -0.18526900744E+03  0.18526900744E+03  0.00000000000E+00 0.  1.
         25    2    1    2    0    0 -0.41175191706E+02  0.14106025704E+02 -0.77762686937E+02  0.15356827016E+03  0.12506718893E+03 0.  0.
          5    1    3    3  502    0 -0.29692373515E+02  0.46484320233E+02  0.12662192535E+02  0.56747093249E+02  0.41800000000E+01 0. -1.
         -5    1    3    3    0  502 -0.11482818191E+02 -0.32378294529E+02 -0.90424879472E+02  0.96821176908E+02  0.41800000000E+01 0. -1.
        -11    1    1    2    0    0  0.20072867775E+02 -0.47296866766E+02  0.38126335429E+01  0.51521352866E+02  0.00000000000E+00 0. -1.
         11    1    1    2    0    0  0.21102323931E+02  0.33190841062E+02 -0.37295791657E+02  0.54202546813E+02  0.00000000000E+00 0.  1.
</event>
<event>
 7    1  0.1538147E-010  0.1205055E+03  0.7561462E-02  0.1242265E+00
          2   -1    0    0  501    0  0.00000000000E+00  0.00000000000E+00  0.11944809434E+04  0.11944809434E+04  0.00000000000E+00 0. -1.
         -2   -1    0    0    0  501 -0.00000000000E+00 -0.00000000000E+00 -0.13515780630E+02  0.13515780630E+02  0.00000000000E+00 0.  1.
         25    2    1    2    0    0  0.56253119092E+02 -0.78363006758E+01  0.80002647422E+03  0.81173966778E+03  0.12511238055E+03 0.  0.
          5    1    3    3  502    0  0.95510630169E+02 -0.80589525340E+01  0.49943826433E+03  0.50856983736E+03  0.41800000000E+01 0. -1.
         -5    1    3    3    0  502 -0.39257511077E+02  0.22265185821E+00  0.30058820989E+03  0.30316983042E+03  0.41800000000E+01 0. -1.
        -11    1    1    2    0    0 -0.78082179119E+02  0.19996832110E+02  0.24145885316E+03  0.25455662977E+03  0.00000000000E+00 0.  1.
         11    1    1    2    0    0  0.21829060027E+02 -0.12160531434E+02  0.13947983534E+03  0.14170042644E+03  0.00000000000E+00 0. -1.
</event>
<event>
 6    1  0.1538147E-010  0.1074483E+03  0.7561462E-02  0.1265369E+00
          1   -1    0    0  501    0  0.00000000000E+00  0.00000000000E+00  0.40525078272E+03  0.40525078272E+03  0.00000000000E+00 0. -1.
         -1   -1    0    0    0  501 -0.00000000000E+00 -0.00000000000E+00 -0.35923895507E+02  0.35923895507E+02  0.00000000000E+00 0.  1.
          5    1    1    2  502    0 -0.23110944984E+00  0.46870771975E+02  0.40099557138E+02  0.61825314878E+02  0.41800000000E+01 0. -1.
         -5    1    1    2    0  502 -0.35732490810E+02 -0.76524889233E+02  0.11367776395E+03  0.14167913039E+03  0.41800000000E+01 0. -1.
        -11    1    1    2    0    0  0.56890348916E+02  0.21303714648E+02  0.81009663546E+02  0.10125673136E+03  0.00000000000E+00 0.  1.
         11    1    1    2    0    0 -0.20926748656E+02  0.83504026102E+01  0.13453990258E+03  0.13641350160E+03  0.00000000000E+00 0. -1.
</event>
<event>
 7    1  0.1538147E-010  0.1724754E+03  0.7561462E-02  0.1175291E+00
          2   -1    0    0  501    0  0.00000000000E+00  0.00000000000E+00  0.13125311472E+03  0.13125311472E+03  0.00000000000E+00 0. -1.
         -2   -1    0    0    0  501 -0.00000000000E+00 -0.00000000000E+00 -0.25419890178E+03  0.25419890178E+03  0.00000000000E+00 0.  1.
         25    2    1    2    0    0 -0.14622927202E+03 -0.89360350120E+00 -0.52664528614E+02  0.19953253614E+03  0.12512346655E+03 0.  0.
          5    1    3    3  502    0 -0.24787499189E+02  0.39033386354E+02  0.22057213535E+02  0.51400568433E+02  0.41800000000E+01 0.  1.
         -5    1    3    3    0  502 -0.12144177283E+03 -0.39926989855E+02 -0.74721742150E+02  0.14813196770E+03  0.41800000000E+01 0.  1.
        -11    1    1    2    0    0  0.15153944726E+03  0.18094995874E+02 -0.70027992581E+02  0.16791531406E+03  0.00000000000E+00 0.  1.
         11    1    1    2    0    0 -0.53101752426E+01 -0.17201392373E+02 -0.25326586504E+00  0.18004166303E+02  0.00000000000E+00 0. -1.
</event>
<event>
 7    1  0.1538147E-010  0.1550410E+03  0.7561462E-02  0.1194412E+00
         -2   -1    0    0    0  501 -0.00000000000E+00  0.00000000000E+00  0.26403185770E+03  0.26403185770E+03  0.00000000000E+00 0. -1.
          2   -1    0    0  501    0  0.00000000000E+00 -0.00000000000E+00 -0.12040351703E+03  0.12040351703E+03  0.00000000000E+00 0.  1.
         25    2    1    2    0    0 -0.11631367529E+03  0.54191863942E+02  0.13356611546E+03  0.22347916364E+03  0.12504959098E+03 0.  0.
          5    1    3    3  502    0 -0.52817919681E+02 -0.26093733617E+02  0.52625873695E+01  0.59294036794E+02  0.41800000000E+01 0. -1.
         -5    1    3    3    0  502 -0.63495755611E+02  0.80285597560E+02  0.12830352809E+03  0.16418512685E+03  0.41800000000E+01 0. -1.
        -11    1    1    2    0    0  0.19423090718E+02 -0.47660719158E+02 -0.25628811772E+02  0.57494665809E+02  0.00000000000E+00 0.  1.
         11    1    1    2    0    0  0.96890584574E+02 -0.65311447842E+01  0.35691036984E+02  0.10346154528E+03  0.00000000000E+00 0. -1.
</event>
<event>
 7    1  0.1538147E-010  0.6690472E+02  0.7561462E-02  0.1370947E+00
         -2   -1    0    0    0  501 -0.00000000000E+00  0.00000000000E+00  0.14784714451E+02  0.14784714451E+02  0.00000000000E+00 0. -1.
          2   -1    0    0  501    0  0.00000000000E+00 -0.00000000000E+00 -0.72905594267E+03  0.72905594267E+03  0.00000000000E+00 0.  1.
         25    2    1    2    0    0 -0.96291378368E+01  0.10819605397E+02 -0.43278874597E+03  0.45074390167E+03  0.12511667393E+03 0.  0.
          5    1    3    3  502    0 -0.14220250802E+02 -0.18032876053E+02 -0.76239382457E+01  0.24555996945E+02  0.41800000000E+01 0. -1.
         -5    1    3    3    0  502  0.45911129648E+01  0.28852481450E+02 -0.42516480773E+03  0.42618790473E+03  0.41800000000E+01 0. -1.
        -11    1    1    2    0    0  0.33560870577E+02  0.22152118629E+02 -0.12020513458E+03  0.12675299907E+03  0.00000000000E+00 0.  1.
         11    1    1    2    0    0 -0.23931732740E+02 -0.32971724026E+02 -0.16127734766E+03  0.16634375637E+03  0.00000000000E+00 0. -1.
</event>
<event>
 7    1  0.1538147E-010  0.1924641E+03  0.7561462E-02  0.1156257E+00
          1   -1    0    0  501    0  0.00000000000E+00  0.00000000000E+00  0.12838043008E+03  0.12838043008E+03  0.00000000000E+00 0. -1.
         -1   -1    0    0    0  501 -0.00000000000E+00 -0.00000000000E+00 -0.29057864719E+03  0.29057864719E+03  0.00000000000E+00 0.  1.
         25    2    1    2    0    0  0.92318125803E+02  0.12948905761E+03 -0.94127216134E+02  0.22312031277E+03  0.12503075126E+03 0.  0.
          5    1    3    3  502    0 -0.30301817435E+02  0.14138091646E+02 -0.19403427293E+02  0.38885102108E+02  0.41800000000E+01 0. -1.
         -5    1    3    3    0  502  0.12261994324E+03  0.11535096596E+03 -0.74723788841E+02  0.18423521066E+03  0.41800000000E+01 0. -1.
        -11    1    1    2    0    0 -0.10586739804E+03 -0.83347963097E+02 -0.58069872554E+02  0.14672047921E+03  0.00000000000E+00 0.  1.
         11    1    1    2    0    0  0.13549272240E+02 -0.46141094509E+02 -0.10001128423E+02  0.49118285296E+02  0.00000000000E+00 0. -1.
</event>
<event>
 7    1  0.1538147E-010  0.1498025E+03  0.7561462E-02  0.1200716E+00
          2   -1    0    0  501    0  0.00000000000E+00  0.00000000000E+00  0.37258796086E+03  0.37258796086E+03  0.00000000000E+00 0. -1.
         -2   -1    0    0    0  501 -0.00000000000E+00 -0.00000000000E+00 -0.76707040538E+02  0.76707040538E+02  0.00000000000E+00 0.  1.
         25    2    1    2    0    0  0.98862121336E+02  0.75832381466E+02  0.10961152585E+03  0.20783029940E+03  0.12511785498E+03 0.  0.
          5    1    3    3  502    0  0.11713196827E+02  0.86189349406E+02  0.68658733442E+02  0.11089317837E+03  0.41800000000E+01 0.  1.
         -5    1    3    3    0  502  0.87148924509E+02 -0.10356967940E+02  0.40952792410E+02  0.96937121033E+02  0.41800000000E+01 0.  1.
        -11    1    1    2    0    0 -0.62512991903E+02 -0.50378849488E+02  0.17942014371E+03  0.19656421496E+03  0.00000000000E+00 0. -1.
         11    1    1    2    0    0 -0.36349129432E+02 -0.25453531978E+02  0.68492507606E+01  0.44900487042E+02  0.00000000000E+00 0.  1.
</event>
<event>
 7    1  0.1538147E-010  0.1501396E+03  0.7561462E-02  0.1200302E+00
          3   -1    0    0  501    0  0.00000000000E+00  0.00000000000E+00  0.36135826986E+03  0.36135826986E+03  0.00000000000E+00 0. -1.
         -3   -1    0    0    0  501 -0.00000000000E+00 -0.00000000000E+00 -0.90033616248E+02  0.90033616248E+02  0.00000000000E+00 0.  1.
         25    2    1    2    0    0  0.43671511352E+02  0.12836603985E+03  0.20340812042E+03  0.27457828226E+03  0.12503330973E+03 0.  0.
          5    1    3    3  502    0  0.28511413399E+02 -0.51138622987E+01 -0.17459381805E+01  0.29318475093E+02  0.41800000000E+01 0. -1.
         -5    1    3    3    0  502  0.15160097953E+02  0.13347990215E+03  0.20515405860E+03  0.24525980716E+03  0.41800000000E+01 0. -1.
        -11    1    1    2    0    0 -0.16168128678E+02 -0.26032997573E+02 -0.22094506530E+02  0.37779525757E+02  0.00000000000E+00 0.  1.
         11    1    1    2    0    0 -0.27503382674E+02 -0.10233304228E+03  0.90011039722E+02  0.13903407810E+03  0.00000000000E+00 0. -1.
</event>
<event>
 7    1  0.1538147E-010  0.1501565E+03  0.7561462E-02  0.1200281E+00
         -1   -1    0    0    0  501 -0.00000000000E+00  0.00000000000E+00  0.14012110445E+03  0.14012110445E+03  0.00000000000E+00 0.  1.
          1   -1    0    0  501    0  0.00000000000E+00 -0.00000000000E+00 -0.22528785853E+03  0.22528785853E+03  0.00000000000E+00 0. -1.
         25    2    1    2    0    0  0.12607901160E+03 -0.58160555354E+02 -0.24023968877E+02  0.18843849769E+03  0.12511334447E+03 0.  0.
          5    1    3    3  502    0  0.10259365568E+03 -0.32506179166E+02 -0.71619942261E+02  0.12934062934E+03  0.41800000000E+01 0. -1.
         -5    1    3    3    0  502  0.23485355923E+02 -0.25654376187E+02  0.47595973384E+02  0.59097868344E+02  0.41800000000E+01 0. -1.
        -11    1    1    2    0    0 -0.40162130549E+02 -0.16824001626E+02 -0.43550225513E+02  0.61584623918E+02  0.00000000000E+00 0.  1.
         11    1    1    2    0    0 -0.85916881051E+02  0.74984556980E+02 -0.17592559690E+02  0.11538584138E+03  0.00000000000E+00 0. -1.
</event>
<event>
 7    1  0.1538147E-010  0.1577775E+03  0.7561462E-02  0.1191229E+00
          2   -1    0    0  501    0  0.00000000000E+00  0.00000000000E+00  0.71092251626E+03  0.71092251626E+03  0.00000000000E+00 0. -1.
         -2   -1    0    0    0  501 -0.00000000000E+00 -0.00000000000E+00 -0.38944627156E+02  0.38944627156E+02  0.00000000000E+00 0.  1.
         25    2    1    2    0    0  0.10613094011E+03  0.64624253764E+02  0.39602148481E+03  0.43350863941E+03  0.12512654950E+03 0.  0.
          5    1    3    3  502    0  0.14486570543E+02  0.67888269293E+02  0.26193502149E+03  0.27100941998E+03  0.41800000000E+01 0. -1.
         -5    1    3    3    0  502  0.91644369567E+02 -0.32640155287E+01  0.13408646332E+03  0.16249921943E+03  0.41800000000E+01 0. -1.
        -11    1    1    2    0    0 -0.48163261400E+02  0.19576326010E+02  0.10509691432E+03  0.11725311803E+03  0.00000000000E+00 0.  1.
         11    1    1    2    0    0 -0.57967678710E+02 -0.84200579774E+02  0.17085948998E+03  0.19910538597E+03  0.00000000000E+00 0. -1.
</event>
<event>
 6    1  0.1538147E-010  0.1056626E+03  0.7561462E-02  0.1268820E+00
         -2   -1    0    0    0  501 -0.00000000000E+00  0.00000000000E+00  0.96887468559E+01  0.96887468559E+01  0.00000000000E+00 0.  1.
          2   -1    0    0  501    0  0.00000000000E+00 -0.00000000000E+00 -0.14708443989E+04  0.14708443989E+04  0.00000000000E+00 0. -1.
          5    1    1    2  502    0  0.29271292182E+02 -0.54306013468E+02 -0.70010878340E+03  0.70283407191E+03  0.41800000000E+01 0. -1.
         -5    1    1    2    0  502 -0.31875935495E+02  0.52655049229E+02 -0.42510219988E+03  0.42955556360E+03  0.41800000000E+01 0. -1.
        -11    1    1    2    0    0 -0.12037744236E+02  0.42621746919E+02 -0.21742926484E+03  0.22189413198E+03  0.00000000000E+00 0. -1.
         11    1    1    2    0    0  0.14642387549E+02 -0.40970782680E+02 -0.11851540389E+03  0.12624937823E+03  0.00000000000E+00 0.  1.
</event>
<event>
 7    1  0.1538147E-010  0.1606444E+03  0.7561462E-02  0.1187971E+00
          1   -1    0    0  501    0  0.00000000000E+00  0.00000000000E+00  0.37887580307E+03  0.37887580307E+03  0.00000000000E+00 0. -1.
         -1   -1    0    0    0  501 -0.00000000000E+00 -0.00000000000E+00 -0.99357878343E+02  0.99357878343E+02  0.00000000000E+00 0.  1.
         25    2    1    2    0    0 -0.62891371129E+02 -0.12595140386E+03  0.24031308695E+03  0.30529528957E+03  0.12504300610E+03 0.  0.
          5    1    3    3  502    0 -0.65290449013E+02 -0.43052297649E+02  0.38923751881E+02  0.87457840847E+02  0.41800000000E+01 0. -1.
         -5    1    3    3    0  502  0.23990778836E+01 -0.82899106212E+02  0.20138933507E+03  0.21783744872E+03  0.41800000000E+01 0. -1.
        -11    1    1    2    0    0  0.46562361002E+02  0.16700773268E+02 -0.12425970120E+02  0.51003666763E+02  0.00000000000E+00 0. -1.
         11    1    1    2    0    0  0.16329010127E+02  0.10925063059E+03  0.51630807896E+02  0.12193472508E+03  0.00000000000E+00 0.  1.
</event>
<event>
 7    1  0.1538147E-010  0.1270629E+03  0.7561462E-02  0.1231880E+00
         -1   -1    0    0    0  501 -0.00000000000E+00  0.00000000000E+00  0.15055589168E+03  0.15055589168E+03  0.00000000000E+00 0.  1.
          1   -1    0    0  501    0  0.00000000000E+00 -0.00000000000E+00 -0.15389538834E+03  0.15389538834E+03  0.00000000000E+00 0. -1.
         25    2    1    2    0    0 -0.19964266836E+01 -0.92018143555E+02 -0.53602413855E+02  0.16431768422E+03  0.12512297197E+03 0.  0.
          5    1    3    3  502    0 -0.41409877017E+02 -0.10438705227E+03 -0.29013966853E+02  0.11606341917E+03  0.41800000000E+01 0. -1.
         -5    1    3    3    0  502  0.39413450333E+02  0.12368908715E+02 -0.24588447002E+02  0.48254265055E+02  0.41800000000E+01 0. -1.
        -11    1    1    2    0    0  0.20777179940E+02  0.52929742944E+02  0.71901820729E+02  0.91668537234E+02  0.00000000000E+00 0.  1.
         11    1    1    2    0    0 -0.18780753257E+02  0.39088400612E+02 -0.21638903532E+02  0.48465058561E+02  0.00000000000E+00 0. -1.
</event>
<event>
 6    1  0.1538147E-010  0.2578169E+03  0.7561462E-02  0.1108462E+00
          2   -1    0    0  501    0  0.00000000000E+00  0.00000000000E+00  0.15433436491E+04  0.15433436491E+04  0.00000000000E+00 0.  1.
         -2   -1    0    0    0  501 -0.00000000000E+00 -0.00000000000E+00 -0.52034314200E+02  0.52034314200E+02  0.00000000000E+00 0. -1.
          5    1    1    2  502    0  0.17220607606E+02 -0.20580401117E+02  0.28563779578E+02  0.39414009441E+02  0.41800000000E+01 0.  1.
         -5    1    1    2    0  502  0.16602368247E+03  0.17389257597E+03  0.43535621011E+03  0.49734795989E+03  0.41800000000E+01 0.  1.
        -11    1    1    2    0    0 -0.47854017566E+02 -0.82132478455E+02  0.52206925393E+03  0.53065248224E+03  0.00000000000E+00 0.  1.
         11    1    1    2    0    0 -0.13539027251E+03 -0.71179696398E+02  0.50532009129E+03  0.52796351174E+03  0.00000000000E+00 0. -1.
</event>
<event>
 6    1  0.1538147E-010  0.1623954E+03  0.7561462E-02  0.1186019E+00
          1   -1    0    0  501    0  0.00000000000E+00  0.00000000000E+00  0.10084753744E+03  0.10084753744E+03  0.00000000000E+00 0. -1.
         -1   -1    0    0    0  501 -0.00000000000E+00 -0.00000000000E+00 -0.29254012930E+03  0.29254012930E+03  0.00000000000E+00 0.  1.
          5    1    1    2  502    0  0.19567142518E+02  0.12062473152E+02 -0.54706129940E+02  0.59486211662E+02  0.41800000000E+01 0. -1.
         -5    1    1    2    0  502 -0.45630718053E+02 -0.13798276398E+03 -0.86143764591E+02  0.16899593534E+03  0.41800000000E+01 0. -1.
        -11    1    1    2    0    0  0.49437931110E+02  0.31168577894E+02 -0.10875091476E+02  0.59446252153E+02  0.00000000000E+00 0. -1.
         11    1    1    2    0    0 -0.23374355574E+02  0.94751712932E+02 -0.39967605855E+02  0.10545926759E+03  0.00000000000E+00 0.  1.
</event>
<event>
 7    1  0.1538147E-010  0.1241265E+03  0.7561462E-02  0.1236441E+00
         -1   -1    0    0    0  501 -0.00000000000E+00  0.00000000000E+00  0.64938140599E+02  0.64938140599E+02  0.00000000000E+00 0.  1.
          1   -1    0    0  501    0  0.00000000000E+00 -0.00000000000E+00 -0.28774088643E+03  0.28774088643E+03  0.00000000000E+00 0. -1.
         25    2    1    2    0    0 -0.51468476495E+02  0.58253669329E+02 -0.16185102894E+03  0.21881292237E+03  0.12506336540E+03 0.  0.
          5    1    3    3  502    0 -0.67567192544E+02 -0.15206071277E+02 -0.57462417177E+02  0.90088578076E+02  0.41800000000E+01 0.  1.
         -5    1    3    3    0  502  0.16098716048E+02  0.73459740606E+02 -0.10438861176E+03  0.12872434429E+03  0.41800000000E+01 0.  1.
        -11    1    1    2    0    0  0.60257409182E+02 -0.18788353139E+02 -0.68049878573E+02  0.92815642802E+02  0.00000000000E+00 0. -1.
         11    1    1    2    0    0 -0.87889326863E+01 -0.39465316190E+02  0.70981616777E+01  0.41050461861E+02  0.00000000000E+00 0.  1.
</event>
<event>
 7    1  0.1538147E-010  0.1757876E+03  0.7561462E-02  0.1171943E+00
         -2   -1    0    0    0  501 -0.00000000000E+00  0.00000000000E+00  0.22172107193E+02  0.22172107193E+02  0.00000000000E+00 0.  1.
          2   -1    0    0  501    0  0.00000000000E+00 -0.00000000000E+00 -0.14929186469E+04  0.14929186469E+04  0.00000000000E+00 0. -1.
         25    2    1    2    0    0  0.22558604062E+02  0.14233304851E+03 -0.83839142062E+03  0.85982685080E+03  0.12503780173E+03 0.  0.
          5    1    3    3  502    0  0.65333024411E+02  0.10313130619E+03 -0.68436715709E+03  0.69518367969E+03  0.41800000000E+01 0.  1.
         -5    1    3    3    0  502 -0.42774420350E+02  0.39201742321E+02 -0.15402426353E+03  0.16464317111E+03  0.41800000000E+01 0.  1.
        -11    1    1    2    0    0 -0.53160924334E+02 -0.46433103983E+02 -0.28557843912E+03  0.29417199376E+03  0.00000000000E+00 0.  1.
         11    1    1    2    0    0  0.30602320272E+02 -0.95899944530E+02 -0.34677667998E+03  0.36109190955E+03  0.00000000000E+00 0. -1.
</event>
<event>
 7    1  0.1538147E-010  0.3156495E+03  0.7561462E-02  0.1077669E+00
          1   -1    0    0  501    0  0.00000000000E+00  0.00000000000E+00  0.16550094881E+03  0.16550094881E+03  0.00000000000E+00 0. -1.
         -1   -1    0    0    0  501 -0.00000000000E+00 -0.00000000000E+00 -0.82499790744E+03  0.82499790744E+03  0.00000000000E+00 0.  1.
         25    2    1    2    0    0  0.51478750205E+02  0.30972728863E+03 -0.55028817263E+03  0.64579634498E+03  0.12511910809E+03 0.  0.
          5    1    3    3  502    0  0.50453733093E+02  0.27298467891E+03 -0.54032823070E+03  0.60748521249E+03  0.41800000000E+01 0. -1.
         -5    1    3    3    0  502  0.10250171118E+01  0.36742609726E+02 -0.99599419261E+01  0.38311132491E+02  0.41800000000E+01 0. -1.
        -11    1    1    2    0    0 -0.44946333249E+02 -0.14494255684E+03 -0.95319046454E+02  0.17920445941E+03  0.00000000000E+00 0.  1.
         11    1    1    2    0    0 -0.65324169555E+01 -0.16478473180E+03 -0.13889739548E+02  0.16549805186E+03  0.00000000000E+00 0. -1.
</event>
<event>
 7    1  0.1538147E-010  0.2054854E+03  0.7561462E-02  0.1145192E+00
          2   -1    0    0  501    0  0.00000000000E+00  0.00000000000E+00  0.37313844568E+03  0.37313844568E+03  0.00000000000E+00 0. -1.
         -2   -1    0    0    0  501 -0.00000000000E+00 -0.00000000000E+00 -0.17093452188E+03  0.17093452188E+03  0.00000000000E+00 0.  1.
         25    2    1    2    0    0  0.12607906624E+03 -0.15250620097E+03  0.22528332516E+03  0.32490293051E+03  0.12512100295E+03 0.  0.
          5    1    3    3  502    0  0.12894625450E+03 -0.13929496990E+03  0.13365443900E+03  0.23218786930E+03  0.41800000000E+01 0.  1.
         -5    1    3    3    0  502 -0.28671882625E+01 -0.13211231076E+02  0.91628886162E+02  0.92715061205E+02  0.41800000000E+01 0.  1.
        -11    1    1    2    0    0  0.50647118180E+01  0.19594768926E+02 -0.25348415511E+02  0.32436837762E+02  0.00000000000E+00 0.  1.
         11    1    1    2    0    0 -0.13114377805E+03  0.13291143205E+03  0.22690141595E+01  0.18673319929E+03  0.00000000000E+00 0. -1.
</event>
<event>
 7    1  0.1538147E-010  0.1038653E+03  0.7561462E-02  0.1272372E+00
         -1   -1    0    0    0  501 -0.00000000000E+00  0.00000000000E+00  0.33183688934E+03  0.33183688934E+03  0.00000000000E+00 0.  1.
          1   -1    0    0  501    0  0.00000000000E+00 -0.00000000000E+00 -0.41794739373E+02  0.41794739373E+02  0.00000000000E+00 0. -1.
         25    2    1    2    0    0 -0.45849011174E+02  0.13911369588E+01  0.16562112626E+03  0.21259477543E+03  0.12514836791E+03 0.  0.
          5    1    3    3  502    0  0.28815267306E+02 -0.28623643230E+02  0.10218741545E+03  0.11004259565E+03  0.41800000000E+01 0. -1.
         -5    1    3    3    0  502 -0.74664278480E+02  0.30014780189E+02  0.63433710811E+02  0.10255217978E+03  0.41800000000E+01 0. -1.
        -11    1    1    2    0    0  0.38775278040E+02  0.33179664506E+02  0.11293023818E+03  0.12392599009E+03  0.00000000000E+00 0.  1.
         11    1    1    2    0    0  0.70737331344E+01 -0.34570801465E+02  0.11490785518E+02  0.37110863183E+02  0.00000000000E+00 0. -1.
</event>
<event>
 6    1  0.1538147E-010  0.1664796E+03  0.7561462E-02  0.1181570E+00
          1   -1    0    0  501    0  0.00000000000E+00  0.00000000000E+00  0.10311985123E+04  0.10311985123E+04  0.00000000000E+00 0. -1.
         -1   -1    0    0    0  501 -0.00000000000E+00 -0.00000000000E+00 -0.32900536712E+02  0.32900536712E+02  0.00000000000E+00 0.  1.
          5    1    1    2  502    0 -0.47295678369E+02  0.62042703239E+02  0.28538099972E+03  0.29588167503E+03  0.41800000000E+01 0.  1.
         -5    1    1    2    0  502  0.41133634134E+02  0.78193558227E+02  0.10257575993E+03  0.13544544042E+03  0.41800000000E+01 0.  1.
        -11    1    1    2    0    0 -0.38842912300E+02 -0.94708567278E+02  0.40114376502E+03  0.41399855648E+03  0.00000000000E+00 0.  1.
         11    1    1    2    0    0  0.45004956535E+02 -0.45527694187E+02  0.20919745097E+03  0.21877337713E+03  0.00000000000E+00 0. -1.
</event>
<event>
 6    1  0.1538147E-010  0.1049351E+03  0.7561462E-02  0.1270247E+00
         -2   -1    0    0    0  501 -0.00000000000E+00  0.00000000000E+00  0.11306545587E+02  0.11306545587E+02  0.00000000000E+00 0.  1.
          2   -1    0    0  501    0  0.00000000000E+00 -0.00000000000E+00 -0.14840532843E+04  0.14840532843E+04  0.00000000000E+00 0. -1.
          5    1    1    2  502    0  0.68087145887E+02 -0.47079974559E+02 -0.47467487825E+03  0.48185692470E+03  0.41800000000E+01 0. -1.
         -5    1    1    2    0  502 -0.31536131970E+02  0.12749882756E+02 -0.64106334675E+03  0.64197879566E+03  0.41800000000E+01 0. -1.
        -11    1    1    2    0    0  0.87759712820E+01  0.45247409369E+02 -0.97307537807E+02  0.10767127119E+03  0.00000000000E+00 0.  1.
         11    1    1    2    0    0 -0.45326985199E+02 -0.10917317566E+02 -0.25970097593E+03  0.26385283836E+03  0.00000000000E+00 0. -1.
</event>
<event>
 6    1  0.1538147E-010  0.1351338E+03  0.7561462E-02  0.1220031E+00
          2   -1    0    0  501    0  0.00000000000E+00  0.00000000000E+00  0.15898779982E+04  0.15898779982E+04  0.00000000000E+00 0. -1.
         -2   -1    0    0    0  501 -0.00000000000E+00 -0.00000000000E+00 -0.17386641448E+02  0.17386641448E+02  0.00000000000E+00 0.  1.
          5    1    1    2  502    0 -0.43797329235E+02  0.23726537777E+02  0.79852706111E+03  0.80009005391E+03  0.41800000000E+01 0. -1.
         -5    1    1    2    0  502  0.32381797333E+02  0.80854557546E+02  0.38997765483E+03  0.39960741227E+03  0.41800000000E+01 0. -1.
        -11    1    1    2    0    0 -0.35036062076E+02 -0.54366858097E+02  0.14083479071E+03  0.15497651170E+03  0.00000000000E+00 0.  1.
         11    1    1    2    0    0  0.46451593978E+02 -0.50214237226E+02  0.24315185013E+03  0.25259066179E+03  0.00000000000E+00 0. -1.
</event>
<event>
 7    1  0.1538147E-010  0.1498411E+03  0.7561462E-02  0.1200668E+00
          1   -1    0    0  501    0  0.00000000000E+00  0.00000000000E+00  0.16267279428E+03  0.16267279428E+03  0.00000000000E+00 0. -1.
         -1   -1    0    0    0  501 -0.00000000000E+00 -0.00000000000E+00 -0.16761787091E+03  0.16761787091E+03  0.00000000000E+00 0.  1.
         25    2    1    2    0    0  0.74410485753E+02 -0.87606066602E+02  0.45274296300E+02  0.17582768658E+03  0.12511542738E+03 0.  0.
          5    1    3    3  502    0  0.10873120416E+03 -0.77853290068E+02  0.38973990824E+02  0.13935585346E+03  0.41800000000E+01 0. -1.
         -5    1    3    3    0  502 -0.34320718408E+02 -0.97527765336E+01  0.63003054761E+01  0.36471833122E+02  0.41800000000E+01 0. -1.
        -11    1    1    2    0    0 -0.74793483399E+02  0.44858496774E+02 -0.65492760420E+02  0.10906718828E+03  0.00000000000E+00 0.  1.
         11    1    1    2    0    0  0.38299764539E+00  0.42747569828E+02  0.15273387492E+02  0.45395790321E+02  0.00000000000E+00 0. -1.
</event>
<event>
 7    1  0.1538147E-010  0.9129705E+02  0.7561462E-02  0.1299741E+00
         -3   -1    0    0    0  501 -0.00000000000E+00  0.00000000000E+00  0.39864108376E+02  0.39864108376E+02  0.00000000000E+00 0.  1.
          3   -1    0    0  501    0  0.00000000000E+00 -0.00000000000E+00 -0.36461805229E+03  0.36461805229E+03  0.00000000000E+00 0. -1.
         25    2    1    2    0    0 -0.80773434404E+01 -0.62854440036E+02 -0.20630708788E+03  0.24946364203E+03  0.12511422812E+03 0.  0.
          5    1    3    3  502    0 -0.30031432128E+02 -0.25511617667E+02 -0.10457915610E+01  0.39639571537E+02  0.41800000000E+01 0. -1.
         -5    1    3    3    0  502  0.21954088688E+02 -0.37342822369E+02 -0.20526129632E+03  0.20982407049E+03  0.41800000000E+01 0. -1.
        -11    1    1    2    0    0 -0.32635509447E+02  0.13115908836E+02 -0.34271718784E+02  0.49108596497E+02  0.00000000000E+00 0. -1.
         11    1    1    2    0    0  0.40712852888E+02  0.49738531200E+02 -0.84175137258E+02  0.10590992214E+03  0.00000000000E+00 0.  1.
</event>
<event>
 6    1  0.1538147E-010  0.1026763E+03  0.7561462E-02  0.1274767E+00
         -3   -1    0    0    0  501 -0.00000000000E+00  0.00000000000E+00  0.38983167217E+02  0.38983167217E+02  0.00000000000E+00 0.  1.
          3   -1    0    0  501    0  0.00000000000E+00 -0.00000000000E+00 -0.44359500821E+03  0.44359500821E+03  0.00000000000E+00 0. -1.
          5    1    1    2  502    0 -0.16609811994E+02  0.63837596186E+01  0.50837102771E+01  0.18972473522E+02  0.41800000000E+01 0.  1.
         -5    1    1    2    0  502  0.88493146661E+02 -0.22038643305E+02 -0.24298269774E+03  0.25956656681E+03  0.41800000000E+01 0.  1.
        -11    1    1    2    0    0 -0.42864886259E+02 -0.22049751986E+02 -0.14294614899E+03  0.15085486915E+03  0.00000000000E+00 0.  1.
         11    1    1    2    0    0 -0.29018448408E+02  0.37704635672E+02 -0.23766704547E+02  0.53184265946E+02  0.00000000000E+00 0. -1.
</event>
<event>
 6    1  0.1538147E-010  0.1521104E+03  0.7561462E-02  0.1197903E+00
          2   -1    0    0  501    0  0.00000000000E+00  0.00000000000E+00  0.14122236464E+03  0.14122236464E+03  0.00000000000E+00 0. -1.
         -2   -1    0    0    0  501 -0.00000000000E+00 -0.00000000000E+00 -0.19498136131E+03  0.19498136131E+03  0.00000000000E+00 0.  1.
          5    1    1    2  502    0  0.73741192956E+02  0.12321218336E+02 -0.24813260544E+01  0.74921327663E+02  0.41800000000E+01 0.  1.
         -5    1    1    2    0  502  0.14803320939E+02 -0.99324614728E+02  0.15393361561E+02  0.10168060475E+03  0.41800000000E+01 0.  1.
        -11    1    1    2    0    0 -0.94584255154E+01  0.29694630620E+02 -0.52302279689E+02  0.60883177986E+02  0.00000000000E+00 0.  1.
         11    1    1    2    0    0 -0.79086088379E+02  0.57308765771E+02 -0.14368752482E+02  0.98718615556E+02  0.00000000000E+00 0. -1.
</event>
<event>
 7    1  0.1538147E-010  0.6089974E+02  0.7561462E-02  0.1394094E+00
          1   -1    0    0  501    0  0.00000000000E+00  0.00000000000E+00  0.51053622258E+02  0.51053622258E+02  0.00000000000E+00 0. -1.
         -1   -1    0    0    0  501 -0.00000000000E+00 -0.00000000000E+00 -0.28483299909E+03  0.28483299909E+03  0.00000000000E+00 0.  1.
         25    2    1    2    0    0 -0.25870316252E+02  0.13776848521E+00 -0.19549386736E+03  0.23355622979E+03  0.12514538767E+03 0.  0.
          5    1    3    3  502    0  0.24101304996E+02  0.12729108305E+01 -0.17912785344E+03  0.18079478278E+03  0.41800000000E+01 0.  1.
         -5    1    3    3    0  502 -0.49971621248E+02 -0.11351423453E+01 -0.16366013921E+02  0.52761447004E+02  0.41800000000E+01 0.  1.
        -11    1    1    2    0    0  0.32284753738E+02 -0.11355969095E+02 -0.64548640703E+02  0.73060183237E+02  0.00000000000E+00 0.  1.
         11    1    1    2    0    0 -0.64144374868E+01  0.11218200610E+02  0.26263131230E+02  0.29270208322E+02  0.00000000000E+00 0. -1.
</event>
<event>
 7    1  0.1538147E-010  0.1893040E+03  0.7561462E-02  0.1159091E+00
          1   -1    0    0  501    0  0.00000000000E+00  0.00000000000E+00  0.96220384661E+02  0.96220384661E+02  0.00000000000E+00 0. -1.
         -1   -1    0    0    0  501 -0.00000000000E+00 -0.00000000000E+00 -0.47013340159E+03  0.47013340159E+03  0.00000000000E+00 0.  1.
         25    2    1    2    0    0  0.17003403918E+03  0.20826798026E+02 -0.28003468271E+03  0.35129131330E+03  0.12506331711E+03 0.  0.
          5    1    3    3  502    0  0.18245929245E+03  0.26078994206E+02 -0.28211834139E+03  0.33701593180E+03  0.41800000000E+01 0. -1.
         -5    1    3    3    0  502 -0.12425253264E+02 -0.52521961800E+01  0.20836586858E+01  0.14275381498E+02  0.41800000000E+01 0. -1.
        -11    1    1    2    0    0 -0.66978114667E+02  0.19030966205E+02 -0.76097485264E+02  0.10314588107E+03  0.00000000000E+00 0.  1.
         11    1    1    2    0    0 -0.10305592452E+03 -0.39857764232E+02 -0.17780848960E+02  0.11191659188E+03  0.00000000000E+00 0. -1.
</event>
<event>
 6    1  0.1538147E-010  0.8122871E+02  0.7561462E-02  0.1325600E+00
          1   -1    0    0  501    0  0.00000000000E+00  0.00000000000E+00  0.26369098106E+03  0.26369098106E+03  0.00000000000E+00 0. -1.
         -1   -1    0    0    0  501 -0.00000000000E+00 -0.00000000000E+00 -0.67704884328E+02  0.67704884328E+02  0.00000000000E+00 0.  1.
          5    1    1    2  502    0 -0.56075003747E+02 -0.30624316567E+02  0.26940577059E+01  0.64085764077E+02  0.41800000000E+01 0. -1.
         -5    1    1    2    0  502 -0.54196289879E+01 -0.10893400149E+02  0.13675459893E+03  0.13735840445E+03  0.41800000000E+01 0. -1.
        -11    1    1    2    0    0  0.27384521786E+02 -0.50429169766E+01  0.65842434194E+02  0.71488245088E+02  0.00000000000E+00 0. -1.
         11    1    1    2    0    0  0.34110110949E+02  0.46560633692E+02 -0.93049940917E+01  0.58463451778E+02  0.00000000000E+00 0.  1.
</event>
<event>
 6    1  0.1538147E-010  0.1162682E+03  0.7561462E-02  0.1249383E+00
         -2   -1    0    0    0  501 -0.00000000000E+00  0.00000000000E+00  0.63849239046E+02  0.63849239046E+02  0.00000000000E+00 0. -1.
          2   -1    0    0  501    0  0.00000000000E+00 -0.00000000000E+00 -0.32226716314E+03  0.32226716314E+03  0.00000000000E+00 0.  1.
          5    1    1    2  502    0  0.50052936440E+02  0.70885629322E+02 -0.64641411276E+01  0.87116740132E+02  0.41800000000E+01 0. -1.
         -5    1    1    2    0  502 -0.97749588285E+00 -0.45007750158E+02 -0.30305398508E+02  0.54429244449E+02  0.41800000000E+01 0. -1.
        -11    1    1    2    0    0 -0.45886134040E+02 -0.54729602630E+02 -0.18134274427E+03  0.19490012212E+03  0.00000000000E+00 0. -1.
         11    1    1    2    0    0 -0.31893065172E+01  0.28851723466E+02 -0.40305640182E+02  0.49670295484E+02  0.00000000000E+00 0.  1.
</event>
<event>
 7    1  0.1538147E-010  0.1260752E+03  0.7561462E-02  0.1233398E+00
          1   -1    0    0  501    0  0.00000000000E+00  0.00000000000E+00  0.40503000484E+03  0.40503000484E+03  0.00000000000E+00 0. -1.
         -1   -1    0    0    0  501 -0.00000000000E+00 -0.00000000000E+00 -0.47108380556E+02  0.47108380556E+02  0.00000000000E+00 0.  1.
         25    2    1    2    0    0  0.40813963987E+02  0.65404250374E+02  0.13103265728E+03  0.19685812175E+03  0.12506025429E+03 0.  0.
          5    1    3    3  502    0  0.15702772379E+02  0.95254640222E+02  0.12366481784E+03  0.15694101795E+03  0.41800000000E+01 0.  1.
         -5    1    3    3    0  502  0.25111191607E+02 -0.29850389847E+02  0.73678394418E+01  0.39917103803E+02  0.41800000000E+01 0.  1.
        -11    1    1    2    0    0  0.12224602492E+02 -0.61942270099E+02  0.10904626766E+03  0.12600545315E+03  0.00000000000E+00 0. -1.
         11    1    1    2    0    0 -0.53038566478E+02 -0.34619802753E+01  0.11784269935E+03  0.12927481050E+03  0.00000000000E+00 0.  1.
</event>
<event>
 7    1  0.1538147E-010  0.2030367E+03  0.7561462E-02  0.1147202E+00
         -1   -1    0    0    0  501 -0.00000000000E+00  0.00000000000E+00  0.97387766542E+02  0.97387766542E+02  0.00000000000E+00 0.  1.
          1   -1    0    0  501    0  0.00000000000E+00 -0.00000000000E+00 -0.49603549169E+03  0.49603549169E+03  0.00000000000E+00 0. -1.
         25    2    1    2    0    0  0.19011843120E+03  0.23719500354E+02 -0.22299415742E+03  0.31951001901E+03  0.12511045290E+03 0.  0.
          5    1    3    3  502    0  0.23264860676E+01  0.10855365221E+02  0.13009000866E+02  0.17605623961E+02  0.41800000000E+01 0. -1.
         -5    1    3    3    0  502  0.18779194513E+03  0.12864135133E+02 -0.23600315829E+03  0.30190439505E+03  0.41800000000E+01 0. -1.
        -11    1    1    2    0    0 -0.37628198295E+02  0.25776433994E+02 -0.17913482747E+02  0.49002027718E+02  0.00000000000E+00 0.  1.
         11    1    1    2    0    0 -0.15249023291E+03 -0.49495934348E+02 -0.15774008498E+03  0.22491121150E+03  0.00000000000E+00 0. -1.
</event>
<event>
 7    1  0.1538147E-010  0.8949918E+02  0.7561462E-02  0.1304069E+00
         -2   -1    0    0    0  501 -0.00000000000E+00  0.00000000000E+00  0.93904601119E+02  0.93904601119E+02  0.00000000000E+00 0.  1.
          2   -1    0    0  501    0  0.00000000000E+00 -0.00000000000E+00 -0.16893591972E+03  0.16893591972E+03  0.00000000000E+00 0. -1.
         25    2    1    2    0    0 -0.20164515570E+02 -0.58716871721E+02 -0.54638619165E+02  0.14998660507E+03  0.12512523440E+03 0.  0.
          5    1    3    3  502    0 -0.24470993935E+02 -0.78347105299E-01  0.34874853970E+02  0.42808451524E+02  0.41800000000E+01 0.  1.
         -5    1    3    3    0  502  0.43064783652E+01 -0.58638524616E+02 -0.89513473136E+02  0.10717815355E+03  0.41800000000E+01 0.  1.
        -11    1    1    2    0    0 -0.18242803297E+02 -0.66463938813E+01 -0.30720285559E+02  0.36341579061E+02  0.00000000000E+00 0. -1.
         11    1    1    2    0    0  0.38407318867E+02  0.65363265602E+02  0.10327586127E+02  0.76512336704E+02  0.00000000000E+00 0.  1.
</event>
<event>
 6    1  0.1538147E-010  0.2073456E+03  0.7561462E-02  0.1143685E+00
          2   -1    0    0  501    0  0.00000000000E+00  0.00000000000E+00  0.14169910473E+04  0.14169910473E+04  0.00000000000E+00 0. -1.
         -2   -1    0    0    0  501 -0.00000000000E+00 -0.00000000000E+00 -0.33403339256E+02  0.33403339256E+02  0.00000000000E+00 0.  1.
          5    1    1    2  502    0  0.32582449198E+02 -0.33229661422E+02  0.24969883695E+03  0.25403308439E+03  0.41800000000E+01 0. -1.
         -5    1    1    2    0  502  0.14339552754E+03  0.98202717505E+02  0.54537722597E+03  0.57241579473E+03  0.41800000000E+01 0. -1.
        -11    1    1    2    0    0 -0.67767240478E+02  0.25260449228E+00  0.32128865866E+03  0.32835783053E+03  0.00000000000E+00 0. -1.
         11    1    1    2    0    0 -0.10821073626E+03 -0.65225660576E+02  0.26722298649E+03  0.29558767692E+03  0.00000000000E+00 0.  1.
</event>
<event>
 7    1  0.1538147E-010  0.1223908E+03  0.7561462E-02  0.1239204E+00
         -2   -1    0    0    0  501 -0.00000000000E+00  0.00000000000E+00  0.18779752096E+03  0.18779752096E+03  0.00000000000E+00 0.  1.
          2   -1    0    0  501    0  0.00000000000E+00 -0.00000000000E+00 -0.11208416240E+03  0.11208416240E+03  0.00000000000E+00 0. -1.
         25    2    1    2    0    0  0.10405742649E+02  0.74979743050E+02 -0.20312958703E+02  0.14758021913E+03  0.12504824444E+03 0.  0.
          5    1    3    3  502    0  0.53984075458E+02  0.13278809843E+00 -0.27206453766E+02  0.60596712471E+02  0.41800000000E+01 0.  1.
         -5    1    3    3    0  502 -0.43578332809E+02  0.74846954951E+02  0.68934950633E+01  0.86983506656E+02  0.41800000000E+01 0.  1.
        -11    1    1    2    0    0  0.30601728280E+02 -0.27006783538E+02  0.75692888911E+02  0.85995613623E+02  0.00000000000E+00 0.  1.
         11    1    1    2    0    0 -0.41007470929E+02 -0.47972959512E+02  0.20333428359E+02  0.66305850610E+02  0.00000000000E+00 0. -1.
</event>
<event>
 7    1  0.1538147E-010  0.8829395E+02  0.7561462E-02  0.1307037E+00
         -2   -1    0    0    0  501 -0.00000000000E+00  0.00000000000E+00  0.89589128541E+02  0.89589128541E+02  0.00000000000E+00 0.  1.
          2   -1    0    0  501    0  0.00000000000E+00 -0.00000000000E+00 -0.14950400880E+03  0.14950400880E+03  0.00000000000E+00 0. -1.
         25    2    1    2    0    0 -0.19901117000E+02 -0.39705279766E+02 -0.26732399407E+02  0.13543175047E+03  0.12511824071E+03 0.  0.
          5    1    3    3  502    0  0.44687348589E+01  0.44234676749E+02 -0.29580329140E+01  0.44753754894E+02  0.41800000000E+01 0.  1.
         -5    1    3    3    0  502 -0.24369851859E+02 -0.83939956515E+02 -0.23774366493E+02  0.90677995575E+02  0.41800000000E+01 0.  1.
        -11    1    1    2    0    0  0.10083250631E+02  0.18938176440E+02 -0.62694015001E+02  0.66263609825E+02  0.00000000000E+00 0. -1.
         11    1    1    2    0    0  0.98178663695E+01  0.20767103326E+02  0.29511534146E+02  0.37397777050E+02  0.00000000000E+00 0.  1.
</event>
<event>
 6    1  0.1538147E-010  0.1020469E+03  0.7561462E-02  0.1276049E+00
          2   -1    0    0  501    0  0.00000000000E+00  0.00000000000E+00  0.52911426707E+02  0.52911426707E+02  0.00000000000E+00 0. -1.
         -2   -1    0    0    0  501 -0.00000000000E+00 -0.00000000000E+00 -0.44005221452E+03  0.44005221452E+03  0.00000000000E+00 0.  1.
          5    1    1    2  502    0 -0.22427625163E+02  0.16693296713E+02 -0.26173249149E+03  0.26325469421E+03  0.41800000000E+01 0.  1.
         -5    1    1    2    0  502 -0.44692237283E+02 -0.51158030067E+02 -0.62799575752E+02  0.92605611214E+02  0.41800000000E+01 0.  1.
        -11    1    1    2    0    0  0.82358483816E+01 -0.23644277918E+02 -0.46513045851E+02  0.52823711637E+02  0.00000000000E+00 0.  1.
         11    1    1    2    0    0  0.58884014064E+02  0.58109011273E+02 -0.16095674719E+02  0.84279624157E+02  0.00000000000E+00 0. -1.
</event>
<event>
 7    1  0.1538147E-010  0.1138523E+03  0.7561462E-02  0.1253598E+00
         -2   -1    0    0    0  501 -0.00000000000E+00  0.00000000000E+00  0.11685030442E+03  0.11685030442E+03  0.00000000000E+00 0.  1.
          2   -1    0    0  501    0  0.00000000000E+00 -0.00000000000E+00 -0.13117921169E+03  0.13117921169E+03  0.00000000000E+00 0. -1.
         25    2    1    2    0    0 -0.47065791865E+02  0.40831329644E+02 -0.10035502802E+02  0.14016032455E+03  0.12514718941E+03 0.  0.
          5    1    3    3  502    0 -0.12484104370E+02  0.72018323880E+02  0.29499147765E+02  0.78931387644E+02  0.41800000000E+01 0. -1.
         -5    1    3    3    0  502 -0.34581687495E+02 -0.31186994236E+02 -0.39534650568E+02  0.61228936909E+02  0.41800000000E+01 0. -1.
        -11    1    1    2    0    0  0.28320333553E+02  0.25928207586E+02 -0.30323320980E+01  0.38516337821E+02  0.00000000000E+00 0.  1.
         11    1    1    2    0    0  0.18745458311E+02 -0.66759537230E+02 -0.12610723716E+01  0.69352853740E+02  0.00000000000E+00 0. -1.
</event>
<event>
 7    1  0.1538147E-010  0.1635146E+03  0.7561462E-02  0.1184785E+00
         -2   -1    0    0    0  501 -0.00000000000E+00  0.00000000000E+00  0.10377740181E+03  0.10377740181E+03  0.00000000000E+00 0.  1.
          2   -1    0    0  501    0  0.00000000000E+00 -0.00000000000E+00 -0.32550155664E+03  0.32550155664E+03  0.00000000000E+00 0. -1.
         25    2    1    2    0    0  0.33704322290E+02  0.13235393214E+03 -0.50971831773E+02  0.19210581696E+03  0.12511184030E+03 0.  0.
          5    1    3    3  502    0  0.70103818898E+02  0.10712288681E+03 -0.67328420705E+02  0.14470814399E+03  0.41800000000E+01 0.  1.
         -5    1    3    3    0  502 -0.36399496608E+02  0.25231045336E+02  0.16356588932E+02  0.47397672976E+02  0.41800000000E+01 0.  1.
        -11    1    1    2    0    0  0.46078181515E+01 -0.10999789493E+03 -0.79777547107E+02  0.13596038357E+03  0.00000000000E+00 0.  1.
         11    1    1    2    0    0 -0.38312140441E+02 -0.22356037212E+02 -0.90974775955E+02  0.10121275792E+03  0.00000000000E+00 0. -1.
</event>
<event>
 6    1  0.1538147E-010  0.1286235E+03  0.7561462E-02  0.1229513E+00
          2   -1    0    0  501    0  0.00000000000E+00  0.00000000000E+00  0.49948448121E+03  0.49948448121E+03  0.00000000000E+00 0. -1.
         -2   -1    0    0    0  501 -0.00000000000E+00 -0.00000000000E+00 -0.48220916113E+02  0.48220916113E+02  0.00000000000E+00 0.  1.
          5    1    1    2  502    0 -0.36796734839E+02  0.33157211827E+02  0.11157262665E+03  0.12214468391E+03  0.41800000000E+01 0. -1.
         -5    1    1    2    0  502  0.93821962358E+02  0.15319242878E+02  0.27229942899E+03  0.28844703371E+03  0.41800000000E+01 0. -1.
        -11    1    1    2    0    0 -0.74860228383E+02 -0.17877068450E+02  0.23007854273E+02  0.80330596463E+02  0.00000000000E+00 0.  1.
         11    1    1    2    0    0  0.17835000864E+02 -0.30599386256E+02  0.44383655184E+02  0.56783083243E+02  0.00000000000E+00 0. -1.
</event>
<event>
 7    1  0.1538147E-010  0.1221642E+03  0.7561462E-02  0.1239569E+00
         -2   -1    0    0    0  501 -0.00000000000E+00  0.00000000000E+00  0.41073585300E+02  0.41073585300E+02  0.00000000000E+00 0.  1.
          2   -1    0    0  501    0  0.00000000000E+00 -0.00000000000E+00 -0.44843923456E+03  0.44843923456E+03  0.00000000000E+00 0. -1.
         25    2    1    2    0    0 -0.10782093265E+02 -0.79697700309E+02 -0.28139092655E+03  0.31828915854E+03  0.12513655713E+03 0.  0.
          5    1    3    3  502    0  0.37580407517E+02 -0.70442277539E+02 -0.88926391214E+02  0.11958167480E+03  0.41800000000E+01 0. -1.
         -5    1    3    3    0  502 -0.48362500782E+02 -0.92554227703E+01 -0.19246453534E+03  0.19870748374E+03  0.41800000000E+01 0. -1.
        -11    1    1    2    0    0 -0.35873605702E+02  0.39712046520E+02 -0.47507231671E+02  0.71560458956E+02  0.00000000000E+00 0.  1.
         11    1    1    2    0    0  0.46655698968E+02  0.39985653788E+02 -0.78467491035E+02  0.99663202359E+02  0.00000000000E+00 0. -1.
</event>
<event>
 7    1  0.1538147E-010  0.1290310E+03  0.7561462E-02  0.1228901E+00
          2   -1    0    0  501    0  0.00000000000E+00  0.00000000000E+00  0.83414264639E+03  0.83414264639E+03  0.00000000000E+00 0.  1.
         -2   -1    0    0    0  501 -0.00000000000E+00 -0.00000000000E+00 -0.49267122686E+02  0.49267122686E+02  0.00000000000E+00 0. -1.
         25    2    1    2    0    0  0.52909272636E+02 -0.19434747743E+02  0.66858561708E+02  0.15264557499E+03  0.12511396301E+03 0.  0.
          5    1    3    3  502    0 -0.16561797020E+02  0.31565386961E+02  0.54824574860E+02  0.65527652049E+02  0.41800000000E+01 0.  1.
         -5    1    3    3    0  502  0.69471069656E+02 -0.51000134703E+02  0.12033986848E+02  0.87117922946E+02  0.41800000000E+01 0.  1.
        -11    1    1    2    0    0 -0.47300569948E+02  0.70290922808E+02  0.44374515361E+03  0.45176090922E+03  0.00000000000E+00 0. -1.
         11    1    1    2    0    0 -0.56087026887E+01 -0.50856175066E+02  0.27427180838E+03  0.27900328486E+03  0.00000000000E+00 0.  1.
</event>
<event>
 7    1  0.1538147E-010  0.1430181E+03  0.7561462E-02  0.1209325E+00
          2   -1    0    0  501    0  0.00000000000E+00  0.00000000000E+00  0.67349539299E+02  0.67349539299E+02  0.00000000000E+00 0. -1.
         -2   -1    0    0    0  501 -0.00000000000E+00 -0.00000000000E+00 -0.49040335180E+03  0.49040335180E+03  0.00000000000E+00 0.  1.
         25    2    1    2    0    0  0.52052501093E+02 -0.10486782479E+03 -0.89340321540E+02  0.19323940537E+03  0.12511215445E+03 0.  0.
          5    1    3    3  502    0 -0.37098776318E+02 -0.40681001372E+02 -0.65176620399E+01  0.55598699584E+02  0.41800000000E+01 0. -1.
         -5    1    3    3    0  502  0.89151277411E+02 -0.64186823414E+02 -0.82822659501E+02  0.13764070579E+03  0.41800000000E+01 0. -1.
        -11    1    1    2    0    0 -0.39731406394E+02  0.46176783556E+02 -0.64572610531E+02  0.88772191729E+02  0.00000000000E+00 0. -1.
         11    1    1    2    0    0 -0.12321094699E+02  0.58691041230E+02 -0.26914088043E+03  0.27574129399E+03  0.00000000000E+00 0.  1.
</event>
<event>
 7    1  0.1538147E-010  0.1401221E+03  0.7561462E-02  0.1213165E+00
          2   -1    0    0  501    0  0.00000000000E+00  0.00000000000E+00  0.62852840171E+02  0.62852840171E+02  0.00000000000E+00 0. -1.
         -2   -1    0    0    0  501 -0.00000000000E+00 -0.00000000000E+00 -0.37553223966E+03  0.37553223966E+03  0.00000000000E+00 0.  1.
         25    2    1    2    0    0  0.86890572101E+02  0.47161854998E+02 -0.10375893558E+03  0.19019878811E+03  0.12504179381E+03 0.  0.
          5    1    3    3  502    0  0.10326485435E+03  0.73368749085E+02 -0.72355627887E+02  0.14594318337E+03  0.41800000000E+01 0. -1.
         -5    1    3    3    0  502 -0.16374282245E+02 -0.26206894087E+02 -0.31403307692E+02  0.44255604739E+02  0.41800000000E+01 0. -1.
        -11    1    1    2    0    0  0.32754498505E+01 -0.30437039992E+02 -0.15915098808E+02  0.34502642583E+02  0.00000000000E+00 0. -1.
         11    1    1    2    0    0 -0.90166021951E+02 -0.16724815006E+02 -0.19300536511E+03  0.21368364914E+03  0.00000000000E+00 0.  1.
</event>
<event>
 6    1  0.1538147E-010  0.1022235E+03  0.7561462E-02  0.1275689E+00
          2   -1    0    0  501    0  0.00000000000E+00  0.00000000000E+00  0.14716530393E+03  0.14716530393E+03  0.00000000000E+00 0. -1.
         -2   -1    0    0    0  501 -0.00000000000E+00 -0.00000000000E+00 -0.88178226204E+02  0.88178226204E+02  0.00000000000E+00 0.  1.
          5    1    1    2  502    0 -0.52298552567E+02 -0.44536513387E+02  0.57367383800E+01  0.69058107362E+02  0.41800000000E+01 0. -1.
         -5    1    1    2    0  502  0.44607462696E+02  0.34492476163E+02 -0.27841301915E+01  0.56610780077E+02  0.41800000000E+01 0. -1.
        -11    1    1    2    0    0 -0.13887062078E+02  0.39900122812E+02 -0.43748152659E+00  0.42249990339E+02  0.00000000000E+00 0.  1.
         11    1    1    2    0    0  0.21578151950E+02 -0.29856085589E+02  0.56471951063E+02  0.67424652354E+02  0.00000000000E+00 0. -1.
</event>
<event>
 6    1  0.1538147E-010  0.7669890E+02  0.7561462E-02  0.1338689E+00
          2   -1    0    0  501    0  0.00000000000E+00  0.00000000000E+00  0.30694641727E+03  0.30694641727E+03  0.00000000000E+00 0. -1.
         -2   -1    0    0    0  501 -0.00000000000E+00 -0.00000000000E+00 -0.54914899480E+02  0.54914899480E+02  0.00000000000E+00 0.  1.
          5    1    1    2  502    0  0.38467968305E+02  0.33659149341E+01 -0.22718520910E+02  0.44996861681E+02  0.41800000000E+01 0. -1.
         -5    1    1    2    0  502 -0.57985835529E+02 -0.12477458628E+02  0.67033803193E+02  0.89604951127E+02  0.41800000000E+01 0. -1.
        -11    1    1    2    0    0  0.36310285272E+02  0.11606793713E+02  0.20677192002E+03  0.21025646574E+03  0.00000000000E+00 0. -1.
         11    1    1    2    0    0 -0.16792418048E+02 -0.24952500192E+01  0.94431549295E+00  0.17003038208E+02  0.00000000000E+00 0.  1.
</event>
<event>
 7    1  0.1538147E-010  0.9405041E+02  0.7561462E-02  0.1293329E+00
         -2   -1    0    0    0  501 -0.00000000000E+00  0.00000000000E+00  0.18309049937E+03  0.18309049937E+03  0.00000000000E+00 0.  1.
          2   -1    0    0  501    0  0.00000000000E+00 -0.00000000000E+00 -0.88141253484E+02  0.88141253484E+02  0.00000000000E+00 0. -1.
         25    2    1    2    0    0 -0.18672185533E+02 -0.62622941271E+02  0.44836259944E+02  0.14810065319E+03  0.12511286898E+03 0.  0.
          5    1    3    3  502    0 -0.29823615264E+02 -0.26149581165E+02 -0.39073888107E+02  0.55834485350E+02  0.41800000000E+01 0. -1.
         -5    1    3    3    0  502  0.11151429730E+02 -0.36473360107E+02  0.83910148052E+02  0.92266167844E+02  0.41800000000E+01 0. -1.
        -11    1    1    2    0    0 -0.32848446088E+02  0.44335934513E+02  0.38386696732E+02  0.67217810032E+02  0.00000000000E+00 0.  1.
         11    1    1    2    0    0  0.51520631621E+02  0.18287006758E+02  0.11726289214E+02  0.55913289633E+02  0.00000000000E+00 0. -1.
</event>
<event>
 6    1  0.1538147E-010  0.1181322E+03  0.7561462E-02  0.1246211E+00
          1   -1    0    0  501    0  0.00000000000E+00  0.00000000000E+00  0.31392397368E+03  0.31392397368E+03  0.00000000000E+00 0. -1.
         -1   -1    0    0    0  501 -0.00000000000E+00 -0.00000000000E+00 -0.54925872996E+02  0.54925872996E+02  0.00000000000E+00 0.  1.
          5    1    1    2  502    0  0.91293506713E+02  0.33106926345E+02  0.74570668361E+02  0.12251052983E+03  0.41800000000E+01 0. -1.
         -5    1    1    2    0  502 -0.42207835187E+02  0.20691949779E+02  0.47110608292E+02  0.66682381110E+02  0.41800000000E+01 0. -1.
        -11    1    1    2    0    0  0.12174199833E+02 -0.15160707637E+02 -0.49070235858E+01  0.20053355782E+02  0.00000000000E+00 0.  1.
         11    1    1    2    0    0 -0.61259871359E+02 -0.38638168487E+02  0.14222384762E+03  0.15960357996E+03  0.00000000000E+00 0. -1.
</event>
<event>
 7    1  0.1538147E-010  0.1223296E+03  0.7561462E-02  0.1239303E+00
         -2   -1    0    0    0  501 -0.00000000000E+00  0.00000000000E+00  0.57086914953E+02  0.57086914953E+02  0.00000000000E+00 0.  1.
          2   -1    0    0  501    0  0.00000000000E+00 -0.00000000000E+00 -0.34035846642E+03  0.34035846642E+03  0.00000000000E+00 0. -1.
         25    2    1    2    0    0  0.82514458848E+02 -0.10499743233E+02 -0.19276576659E+03  0.24440578009E+03  0.12512659207E+03 0.  0.
          5    1    3    3  502    0  0.95049282473E+02  0.11827842219E+02 -0.19606697177E+03  0.21825213348E+03  0.41800000000E+01 0.  1.
         -5    1    3    3    0  502 -0.12534823625E+02 -0.22327585452E+02  0.33012051740E+01  0.26153646610E+02  0.41800000000E+01 0.  1.
        -11    1    1    2    0    0  0.75719792237E+01 -0.24917544826E+02 -0.25435123494E+02  0.36402807813E+02  0.00000000000E+00 0. -1.
         11    1    1    2    0    0 -0.90086438072E+02  0.35417288060E+02 -0.65070661375E+02  0.11663679346E+03  0.00000000000E+00 0.  1.
</event>
<event>
 7    1  0.1538147E-010  0.1538472E+03  0.7561462E-02  0.1195824E+00
          2   -1    0    0  501    0  0.00000000000E+00  0.00000000000E+00  0.16132167621E+03  0.16132167621E+03  0.00000000000E+00 0.  1.
         -2   -1    0    0    0  501 -0.00000000000E+00 -0.00000000000E+00 -0.15699536320E+03  0.15699536320E+03  0.00000000000E+00 0. -1.
         25    2    1    2    0    0  0.30353629000E+02 -0.10695166423E+03  0.38819189163E+02  0.17181643502E+03  0.12511577287E+03 0.  0.
          5    1    3    3  502    0 -0.20997542191E+02 -0.11342812162E+03  0.27881043723E+02  0.11875041285E+03  0.41800000000E+01 0.  1.
         -5    1    3    3    0  502  0.51351171191E+02  0.64764573951E+01  0.10938145440E+02  0.53066022168E+02  0.41800000000E+01 0.  1.
        -11    1    1    2    0    0  0.28274351026E+02  0.17079926187E+02  0.21752679977E+01  0.33104298744E+02  0.00000000000E+00 0.  1.
         11    1    1    2    0    0 -0.58627980026E+02  0.89871738042E+02 -0.36668144149E+02  0.11339630565E+03  0.00000000000E+00 0. -1.
</event>
<event>
 7    1  0.1538147E-010  0.1529916E+03  0.7561462E-02  0.1196844E+00
         -1   -1    0    0    0  501 -0.00000000000E+00  0.00000000000E+00  0.24825586968E+03  0.24825586968E+03  0.00000000000E+00 0. -1.
          1   -1    0    0  501    0  0.00000000000E+00 -0.00000000000E+00 -0.10569085557E+03  0.10569085557E+03  0.00000000000E+00 0.  1.
         25    2    1    2    0    0 -0.11770449559E+03  0.45774492516E+01  0.10232966781E+03  0.19999970132E+03  0.12511282224E+03 0.  0.
          5    1    3    3  502    0 -0.11472208041E+03  0.49690035402E+02  0.85764763287E+02  0.15166846202E+03  0.41800000000E+01 0.  1.
         -5    1    3    3    0  502 -0.29824151857E+01 -0.45112586150E+02  0.16564904523E+02  0.48331239291E+02  0.41800000000E+01 0.  1.
        -11    1    1    2    0    0  0.69292230228E+02 -0.35687209032E+02 -0.86751377907E+01  0.78423517353E+02  0.00000000000E+00 0.  1.
         11    1    1    2    0    0  0.48412265366E+02  0.31109759780E+02  0.48910484100E+02  0.75523506581E+02  0.00000000000E+00 0. -1.
</event>
<event>
 7    1  0.1538147E-010  0.9851297E+02  0.7561462E-02  0.1283454E+00
          2   -1    0    0  501    0  0.00000000000E+00  0.00000000000E+00  0.40048491040E+03  0.40048491040E+03  0.00000000000E+00 0. -1.
         -2   -1    0    0    0  501 -0.00000000000E+00 -0.00000000000E+00 -0.12921094518E+03  0.12921094518E+03  0.00000000000E+00 0.  1.
         25    2    1    2    0    0 -0.64315516335E+02  0.25647267322E+02 -0.77042642149E+02  0.16243556114E+03  0.12512184003E+03 0.  0.
          5    1    3    3  502    0 -0.60427667841E+02  0.43567303669E+02  0.82742650557E+01  0.75070292739E+02  0.41800000000E+01 0. -1.
         -5    1    3    3    0  502 -0.38878484936E+01 -0.17920036347E+02 -0.85316907205E+02  0.87365268405E+02  0.41800000000E+01 0. -1.
        -11    1    1    2    0    0 -0.17637458282E+02  0.31006926894E+00  0.15376792959E+02  0.23401321316E+02  0.00000000000E+00 0.  1.
         11    1    1    2    0    0  0.81952974617E+02 -0.25957336591E+02  0.33293981441E+03  0.34385897311E+03  0.00000000000E+00 0. -1.
</event>
<event>
 6    1  0.1538147E-010  0.1109592E+03  0.7561462E-02  0.1258804E+00
          1   -1    0    0  501    0  0.00000000000E+00  0.00000000000E+00  0.19532826905E+03  0.19532826905E+03  0.00000000000E+00 0. -1.
         -1   -1    0    0    0  501 -0.00000000000E+00 -0.00000000000E+00 -0.10653866273E+03  0.10653866273E+03  0.00000000000E+00 0.  1.
          5    1    1    2  502    0 -0.21394591927E+02  0.28887496882E+02 -0.22940094430E+02  0.42847828093E+02  0.41800000000E+01 0. -1.
         -5    1    1    2    0  502 -0.66966172747E+02 -0.38208653605E+02  0.10764605594E+03  0.13247458345E+03  0.41800000000E+01 0. -1.
        -11    1    1    2    0    0  0.89446813336E+02  0.24940468042E+02 -0.22633732676E+02  0.95577430480E+02  0.00000000000E+00 0.  1.
         11    1    1    2    0    0 -0.10860486627E+01 -0.15619311319E+02  0.26717377491E+02  0.30967089753E+02  0.00000000000E+00 0. -1.
</event>
<event>
 6    1  0.1538147E-010  0.1466914E+03  0.7561462E-02  0.1204599E+00
         -2   -1    0    0    0  501 -0.00000000000E+00  0.00000000000E+00  0.16284859048E+03  0.16284859048E+03  0.00000000000E+00 0. -1.
          2   -1    0    0  501    0  0.00000000000E+00 -0.00000000000E+00 -0.14172645777E+03  0.14172645777E+03  0.00000000000E+00 0.  1.
          5    1    1    2  502    0 -0.13901025088E+02  0.46692725106E+02  0.31647467226E+02  0.58245031189E+02  0.41800000000E+01 0.  1.
         -5    1    1    2    0  502  0.10650676852E+03  0.54721930725E+01 -0.11423859404E+02  0.10733877957E+03  0.41800000000E+01 0.  1.
        -11    1    1    2    0    0 -0.44864338233E+02  0.21676039279E+02 -0.85509255926E+01  0.50554701586E+02  0.00000000000E+00 0.  1.
         11    1    1    2    0    0 -0.47741405193E+02 -0.73840957458E+02  0.94494504757E+01  0.88436535902E+02  0.00000000000E+00 0. -1.
</event>
<event>
 7    1  0.1538147E-010  0.1464171E+03  0.7561462E-02  0.1204946E+00
         -2   -1    0    0    0  501 -0.00000000000E+00  0.00000000000E+00  0.42182639938E+03  0.42182639938E+03  0.00000000000E+00 0.  1.
          2   -1    0    0  501    0  0.00000000000E+00 -0.00000000000E+00 -0.68908833767E+02  0.68908833767E+02  0.00000000000E+00 0. -1.
         25    2    1    2    0    0 -0.11922436637E+03 -0.17081211948E+02  0.26194400846E+03  0.31429537984E+03  0.12514273804E+03 0.  0.
          5    1    3    3  502    0 -0.12263073554E+03 -0.54404330200E+02  0.18449571787E+03  0.22815405049E+03  0.41800000000E+01 0.  1.
         -5    1    3    3    0  502  0.34063691676E+01  0.37323118252E+02  0.77448290590E+02  0.86141329350E+02  0.41800000000E+01 0.  1.
        -11    1    1    2    0    0  0.51469455702E+02  0.12652578773E+02  0.94608265565E+02  0.10844314885E+03  0.00000000000E+00 0.  1.
         11    1    1    2    0    0  0.67754910667E+02  0.44286331750E+01 -0.36347084112E+01  0.67996704453E+02  0.00000000000E+00 0. -1.
</event>
<event>
 7    1  0.1538147E-010  0.1192469E+03  0.7561462E-02  0.1244345E+00
          2   -1    0    0  501    0  0.00000000000E+00  0.00000000000E+00  0.49076512338E+03  0.49076512338E+03  0.00000000000E+00 0. -1.
         -2   -1    0    0    0  501 -0.00000000000E+00 -0.00000000000E+00 -0.36045821789E+02  0.36045821789E+02  0.00000000000E+00 0.  1.
         25    2    1    2    0    0 -0.43577405192E+02  0.34376531297E+02  0.35575421135E+03  0.38118814397E+03  0.12515033385E+03 0.  0.
          5    1    3    3  502    0  0.20821256393E+02  0.62164827599E+02  0.19439833029E+03  0.20519788918E+03  0.41800000000E+01 0. -1.
         -5    1    3    3    0  502 -0.64398661585E+02 -0.27788296303E+02  0.16135588106E+03  0.17599025478E+03  0.41800000000E+01 0. -1.
        -11    1    1    2    0    0  0.21600342905E+02  0.28598461435E+02  0.16210829690E+02  0.39334943871E+02  0.00000000000E+00 0.  1.
         11    1    1    2    0    0  0.21977062287E+02 -0.62974992732E+02  0.82754260559E+02  0.10628785734E+03  0.00000000000E+00 0. -1.
</event>
<event>
 7    1  0.1538147E-010  0.6512296E+02  0.7561462E-02  0.1377510E+00
         -2   -1    0    0    0  501 -0.00000000000E+00  0.00000000000E+00  0.92305331387E+02  0.92305331387E+02  0.00000000000E+00 0.  1.
          2   -1    0    0  501    0  0.00000000000E+00 -0.00000000000E+00 -0.12884194631E+03  0.12884194631E+03  0.00000000000E+00 0. -1.
         25    2    1    2    0    0 -0.13604965556E+01  0.15708472358E+02 -0.20637136320E+02  0.12777945933E+03  0.12511231665E+03 0.  0.
          5    1    3    3  502    0 -0.16964612990E+02 -0.28826742825E+02 -0.58242605349E+02  0.67293778863E+02  0.41800000000E+01 0.  1.
         -5    1    3    3    0  502  0.15604116435E+02  0.44535215183E+02  0.37605469029E+02  0.60485680470E+02  0.41800000000E+01 0.  1.
        -11    1    1    2    0    0  0.17197407677E+02 -0.25342000502E+02  0.30609905347E+02  0.43300509531E+02  0.00000000000E+00 0.  1.
         11    1    1    2    0    0 -0.15836911122E+02  0.96335281445E+01 -0.46509383946E+02  0.50067308829E+02  0.00000000000E+00 0. -1.
</event>
<event>
 7    1  0.1538147E-010  0.3791935E+03  0.7561462E-02  0.1051232E+00
         -2   -1    0    0    0  501 -0.00000000000E+00  0.00000000000E+00  0.32924913451E+03  0.32924913451E+03  0.00000000000E+00 0.  1.
          2   -1    0    0  501    0  0.00000000000E+00 -0.00000000000E+00 -0.46071846840E+03  0.46071846840E+03  0.00000000000E+00 0. -1.
         25    2    1    2    0    0 -0.31567488224E+03  0.19979339837E+03 -0.73615096239E+02  0.40078319062E+03  0.12505978643E+03 0.  0.
          5    1    3    3  502    0 -0.28781926595E+03  0.18218831082E+03 -0.24566909364E+02  0.34154577422E+03  0.41800000000E+01 0.  1.
         -5    1    3    3    0  502 -0.27855616291E+02  0.17605087554E+02 -0.49048186875E+02  0.59237416406E+02  0.41800000000E+01 0.  1.
        -11    1    1    2    0    0  0.11066275790E+03 -0.21324735740E+02 -0.24543183689E+02  0.11534018470E+03  0.00000000000E+00 0. -1.
         11    1    1    2    0    0  0.20501212434E+03 -0.17846866263E+03 -0.33311053962E+02  0.27384422759E+03  0.00000000000E+00 0.  1.
</event>
<event>
 6    1  0.1538147E-010  0.1201594E+03  0.7561462E-02  0.1242834E+00
         -1   -1    0    0    0  501 -0.00000000000E+00  0.00000000000E+00  0.17162169935E+03  0.17162169935E+03  0.00000000000E+00 0.  1.
          1   -1    0    0  501    0  0.00000000000E+00 -0.00000000000E+00 -0.97181057363E+02  0.97181057363E+02  0.00000000000E+00 0. -1.
          5    1    1    2  502    0 -0.82036944436E+02 -0.41142216847E+02  0.98375609059E+01  0.92395845491E+02  0.41800000000E+01 0.  1.
         -5    1    1    2    0  502  0.25759381107E+02  0.36098963956E+02 -0.62829947415E+01  0.44984767829E+02  0.41800000000E+01 0.  1.
        -11    1    1    2    0    0 -0.15443583262E+02  0.25065147855E+02  0.12439919692E+01  0.29467158278E+02  0.00000000000E+00 0. -1.
         11    1    1    2    0    0  0.71721146591E+02 -0.20021894965E+02  0.69642083857E+02  0.10195498512E+03  0.00000000000E+00 0.  1.
</event>
<event>
 6    1  0.1538147E-010  0.1327044E+03  0.7561462E-02  0.1223497E+00
         -1   -1    0    0    0  501 -0.00000000000E+00  0.00000000000E+00  0.37561109959E+02  0.37561109959E+02  0.00000000000E+00 0.  1.
          1   -1    0    0  501    0  0.00000000000E+00 -0.00000000000E+00 -0.60956707374E+03  0.60956707374E+03  0.00000000000E+00 0. -1.
          5    1    1    2  502    0 -0.83093177125E+02  0.29642134433E+02 -0.26699088390E+03  0.28122008589E+03  0.41800000000E+01 0. -1.
         -5    1    1    2    0  502 -0.63265554894E+01 -0.66835083227E+02 -0.13568999635E+03  0.15144702428E+03  0.41800000000E+01 0. -1.
        -11    1    1    2    0    0  0.59900730726E+02 -0.29764450263E+01 -0.14901819269E+03  0.16063430056E+03  0.00000000000E+00 0.  1.
         11    1    1    2    0    0  0.29519001888E+02  0.40169393820E+02 -0.20306890842E+02  0.53826772967E+02  0.00000000000E+00 0. -1.
</event>
<event>
 7    1  0.1538147E-010  0.1055886E+03  0.7561462E-02  0.1268964E+00
          1   -1    0    0  501    0  0.00000000000E+00  0.00000000000E+00  0.40345204596E+02  0.40345204596E+02  0.00000000000E+00 0. -1.
         -1   -1    0    0    0  501 -0.00000000000E+00 -0.00000000000E+00 -0.30841598054E+03  0.30841598054E+03  0.00000000000E+00 0.  1.
         25    2    1    2    0    0 -0.67033956492E+01  0.20085659275E+02 -0.17276738278E+03  0.21437789751E+03  0.12514369807E+03 0.  0.
          5    1    3    3  502    0  0.37740822601E+02 -0.32591452794E+02 -0.37588799256E+02  0.62585643045E+02  0.41800000000E+01 0. -1.
         -5    1    3    3    0  502 -0.44444218250E+02  0.52677112069E+02 -0.13517858352E+03  0.15179225446E+03  0.41800000000E+01 0. -1.
        -11    1    1    2    0    0 -0.35789880124E+02  0.13162884730E+02 -0.55486913461E+02  0.67327369020E+02  0.00000000000E+00 0.  1.
         11    1    1    2    0    0  0.42493275773E+02 -0.33248544005E+02 -0.39816479704E+02  0.67055918608E+02  0.00000000000E+00 0. -1.
</event>
<event>
 7    1  0.2178275E-010  0.1175235E+03  0.7561462E-02  0.1247239E+00
         -1   -1    0    0    0  501 -0.00000000000E+00  0.00000000000E+00  0.79253364596E+02  0.79253364596E+02  0.00000000000E+00 0.  1.
          1   -1    0    0  501    0  0.00000000000E+00 -0.00000000000E+00 -0.20058173177E+03  0.20058173177E+03  0.00000000000E+00 0. -1.
         25    2    1    2    0    0 -0.90280275244E+01 -0.59123785208E+02 -0.42502906874E+02  0.14500333204E+03  0.12506934857E+03 0.  0.
          5    1    3    3  502    0  0.29008301006E+02 -0.78310208376E+02  0.14809829686E+01  0.83627961674E+02  0.41800000000E+01 0. -1.
         -5    1    3    3    0  502 -0.38036328530E+02  0.19186423168E+02 -0.43983889843E+02  0.61375370368E+02  0.41800000000E+01 0. -1.
        -11    1    1    2    0    0  0.26986868940E+02  0.78021102566E+02 -0.66432493467E+02  0.10596631412E+03  0.00000000000E+00 0.  1.
         11    1    1    2    0    0 -0.17958841416E+02 -0.18897317358E+02 -0.12392966830E+02  0.28865450199E+02  0.00000000000E+00 0. -1.
</event>
<event>
 7    1  0.1538147E-010  0.1826925E+03  0.7561462E-02  0.1165222E+00
          2   -1    0    0  501    0  0.00000000000E+00  0.00000000000E+00  0.10529245493E+04  0.10529245493E+04  0.00000000000E+00 0. -1.
         -2   -1    0    0    0  501 -0.00000000000E+00 -0.00000000000E+00 -0.38673780451E+02  0.38673780451E+02  0.00000000000E+00 0.  1.
         25    2    1    2    0    0  0.47014355890E+02  0.15457632791E+03  0.39173872588E+03  0.44181844114E+03  0.12506044445E+03 0.  0.
          5    1    3    3  502    0  0.65272095103E+02  0.84755039831E+02  0.12084993107E+03  0.16144981082E+03  0.41800000000E+01 0. -1.
         -5    1    3    3    0  502 -0.18257739212E+02  0.69821288081E+02  0.27088879482E+03  0.28036863032E+03  0.41800000000E+01 0. -1.
        -11    1    1    2    0    0  0.21543026360E+02 -0.87541658535E+02  0.31754493730E+03  0.33009457913E+03  0.00000000000E+00 0. -1.
         11    1    1    2    0    0 -0.68557382250E+02 -0.67034669377E+02  0.30496710564E+03  0.31968530946E+03  0.00000000000E+00 0.  1.
</event>
<event>
 6    1  0.1538147E-010  0.1027603E+03  0.7561462E-02  0.1274596E+00
          1   -1    0    0  501    0  0.00000000000E+00  0.00000000000E+00  0.22223462018E+03  0.22223462018E+03  0.00000000000E+00 0. -1.
         -1   -1    0    0    0  501 -0.00000000000E+00 -0.00000000000E+00 -0.93346008199E+02  0.93346008199E+02  0.00000000000E+00 0.  1.
          5    1    1    2  502    0 -0.17494164498E+02 -0.39811984704E+02 -0.34989906633E+02  0.55971473839E+02  0.41800000000E+01 0.  1.
         -5    1    1    2    0  502 -0.51886737684E+02  0.60715114330E+02  0.37095839560E+02  0.88159698095E+02  0.41800000000E+01 0.  1.
        -11    1    1    2    0    0  0.51357797025E+02 -0.32172373634E+02  0.21905967739E+02  0.64440331805E+02  0.00000000000E+00 0.  1.
         11    1    1    2    0    0  0.18023105158E+02  0.11269244008E+02  0.10487671131E+03  0.10700912464E+03  0.00000000000E+00 0. -1.
</event>
<event>
 6    1  0.1538147E-010  0.5736029E+02  0.7561462E-02  0.1409256E+00
         -1   -1    0    0    0  501 -0.00000000000E+00  0.00000000000E+00  0.35028786155E+02  0.35028786155E+02  0.00000000000E+00 0.  1.
          1   -1    0    0  501    0  0.00000000000E+00 -0.00000000000E+00 -0.34426570505E+03  0.34426570505E+03  0.00000000000E+00 0. -1.
          5    1    1    2  502    0  0.20555858166E+01 -0.32077787187E+02 -0.21346285195E+03  0.21590986876E+03  0.41800000000E+01 0.  1.
         -5    1    1    2    0  502  0.11278097858E+01  0.28179317528E+02  0.32375117856E+01  0.28693200829E+02  0.41800000000E+01 0.  1.
        -11    1    1    2    0    0 -0.28006066623E+02  0.67569821233E+01 -0.10509711512E+03  0.10897430974E+03  0.00000000000E+00 0. -1.
         11    1    1    2    0    0  0.24822671021E+02 -0.28585124638E+01  0.60855363975E+01  0.25717111878E+02  0.00000000000E+00 0.  1.
</event>
<event>
 7    1  0.1538147E-010  0.1335236E+03  0.7561462E-02  0.1222319E+00
         -3   -1    0    0    0  501 -0.00000000000E+00  0.00000000000E+00  0.15058764119E+03  0.15058764119E+03  0.00000000000E+00 0.  1.
          3   -1    0    0  501    0  0.00000000000E+00 -0.00000000000E+00 -0.27633467815E+03  0.27633467815E+03  0.00000000000E+00 0. -1.
         25    2    1    2    0    0  0.48082587781E+02 -0.12427501484E+03  0.48825647792E+02  0.18919381165E+03  0.12511650540E+03 0.  0.
          5    1    3    3  502    0  0.31308083299E+02 -0.84144304832E+02 -0.33559208124E+02  0.95938276853E+02  0.41800000000E+01 0. -1.
         -5    1    3    3    0  502  0.16774504482E+02 -0.40130710010E+02  0.82384855916E+02  0.93255534800E+02  0.41800000000E+01 0. -1.
        -11    1    1    2    0    0 -0.17580709034E+02  0.35697165880E+02 -0.12613920963E+03  0.13226665940E+03  0.00000000000E+00 0. -1.
         11    1    1    2    0    0 -0.30501878747E+02  0.88577848962E+02 -0.48433475121E+02  0.10546184830E+03  0.00000000000E+00 0.  1.
</event>
<event>
 7    1  0.1538147E-010  0.1114586E+03  0.7561462E-02  0.1257892E+00
         -2   -1    0    0    0  501 -0.00000000000E+00  0.00000000000E+00  0.10143326196E+03  0.10143326196E+03  0.00000000000E+00 0.  1.
          2   -1    0    0  501    0  0.00000000000E+00 -0.00000000000E+00 -0.18386460969E+03  0.18386460969E+03  0.00000000000E+00 0. -1.
         25    2    1    2    0    0  0.72807817065E+02 -0.34593055083E+02 -0.26109829912E+02  0.15110484248E+03  0.12511311888E+03 0.  0.
          5    1    3    3  502    0  0.54035978883E+02 -0.61325088575E+02  0.29064892763E+02  0.86849835313E+02  0.41800000000E+01 0.  1.
         -5    1    3    3    0  502  0.18771838182E+02  0.26732033492E+02 -0.55174722675E+02  0.64255007164E+02  0.41800000000E+01 0.  1.
        -11    1    1    2    0    0 -0.44338792979E+01  0.39355415828E+02  0.77660583729E+01  0.40358638521E+02  0.00000000000E+00 0.  1.
         11    1    1    2    0    0 -0.68373937767E+02 -0.47623607448E+01 -0.64087576195E+02  0.93834390647E+02  0.00000000000E+00 0. -1.
</event>
<event>
 7    1  0.1538147E-010  0.7538855E+02  0.7561462E-02  0.1342672E+00
          2   -1    0    0  501    0  0.00000000000E+00  0.00000000000E+00  0.16545997205E+03  0.16545997205E+03  0.00000000000E+00 0.  1.
         -2   -1    0    0    0  501 -0.00000000000E+00 -0.00000000000E+00 -0.80024122575E+02  0.80024122575E+02  0.00000000000E+00 0. -1.
         25    2    1    2    0    0  0.26772629865E+02  0.25122038263E+00  0.80498240366E+02  0.15111422349E+03  0.12505480806E+03 0.  0.
          5    1    3    3  502    0  0.44403496056E+02 -0.18699825127E+02  0.10476483949E+03  0.11538846526E+03  0.41800000000E+01 0.  1.
         -5    1    3    3    0  502 -0.17630866191E+02  0.18951045509E+02 -0.24266599121E+02  0.35725758235E+02  0.41800000000E+01 0.  1.
        -11    1    1    2    0    0  0.23957167461E+02  0.69807728777E+01  0.28576065478E+02  0.37937693406E+02  0.00000000000E+00 0.  1.
         11    1    1    2    0    0 -0.50729797325E+02 -0.72319932603E+01 -0.23638456371E+02  0.56432177725E+02  0.00000000000E+00 0. -1.
</event>
<event>
 6    1  0.1538147E-010  0.9946585E+02  0.7561462E-02  0.1281423E+00
          1   -1    0    0  501    0  0.00000000000E+00  0.00000000000E+00  0.69049233929E+02  0.69049233929E+02  0.00000000000E+00 0. -1.
         -1   -1    0    0    0  501 -0.00000000000E+00 -0.00000000000E+00 -0.28410533270E+03  0.28410533270E+03  0.00000000000E+00 0.  1.
          5    1    1    2  502    0 -0.77807531201E+02 -0.18714079691E+02 -0.82911381435E+02  0.11530827491E+03  0.41800000000E+01 0. -1.
         -5    1    1    2    0  502  0.35090229471E+02  0.45118140074E+01 -0.13944147907E+03  0.14392039173E+03  0.41800000000E+01 0. -1.
        -11    1    1    2    0    0  0.38907585624E+02 -0.23382812300E+02 -0.17595848335E+02  0.48684391840E+02  0.00000000000E+00 0.  1.
         11    1    1    2    0    0  0.38097161051E+01  0.37585077983E+02  0.24892610072E+02  0.45241508153E+02  0.00000000000E+00 0. -1.
</event>
<event>
 7    1  0.1592381E-010  0.1418364E+03  0.7561462E-02  0.1210879E+00
          1   -1    0    0  501    0  0.00000000000E+00  0.00000000000E+00  0.23629334769E+03  0.23629334769E+03  0.00000000000E+00 0. -1.
         -1   -1    0    0    0  501 -0.00000000000E+00 -0.00000000000E+00 -0.95467439543E+02  0.95467439543E+02  0.00000000000E+00 0.  1.
         25    2    1    2    0    0  0.45727839850E+02 -0.81238615452E+02  0.12735922737E+03  0.20137650919E+03  0.12506549356E+03 0.  0.
          5    1    3    3  502    0 -0.31513654736E+02  0.11567616640E+02  0.39412504103E+02  0.51939754228E+02  0.41800000000E+01 0.  1.
         -5    1    3    3    0  502  0.77241494586E+02 -0.92806232092E+02  0.87946723270E+02  0.14943675497E+03  0.41800000000E+01 0.  1.
        -11    1    1    2    0    0 -0.29028761632E+02 -0.14075415951E+02 -0.22969187645E+01  0.32342884409E+02  0.00000000000E+00 0.  1.
         11    1    1    2    0    0 -0.16699078218E+02  0.95314031403E+02  0.15763599543E+02  0.98041393636E+02  0.00000000000E+00 0. -1.
</event>
<event>
 7    1  0.1538147E-010  0.1989737E+03  0.7561462E-02  0.1150608E+00
         -1   -1    0    0    0  501 -0.00000000000E+00  0.00000000000E+00  0.82627960575E+02  0.82627960575E+02  0.00000000000E+00 0.  1.
          1   -1    0    0  501    0  0.00000000000E+00 -0.00000000000E+00 -0.62938998193E+03  0.62938998193E+03  0.00000000000E+00 0. -1.
         25    2    1    2    0    0 -0.18113516406E+03 -0.22837609859E+02 -0.41306636861E+03  0.46862350906E+03  0.12511060819E+03 0.  0.
          5    1    3    3  502    0 -0.19291805347E+03 -0.33372091233E+02 -0.32808779442E+03  0.38208656752E+03  0.41800000000E+01 0.  1.
         -5    1    3    3    0  502  0.11782889406E+02  0.10534481374E+02 -0.84978574185E+02  0.86536941540E+02  0.41800000000E+01 0.  1.
        -11    1    1    2    0    0  0.15740043947E+03  0.76366472327E+01 -0.14391657862E+03  0.21341321029E+03  0.00000000000E+00 0. -1.
         11    1    1    2    0    0  0.23734724593E+02  0.15200962626E+02  0.10220925871E+02  0.29981223156E+02  0.00000000000E+00 0.  1.
</event>
<event>
 7    1  0.1538147E-010  0.1544875E+03  0.7561462E-02  0.1195065E+00
         -1   -1    0    0    0  501 -0.00000000000E+00  0.00000000000E+00  0.29217461863E+03  0.29217461863E+03  0.00000000000E+00 0.  1.
          1   -1    0    0  501    0  0.00000000000E+00 -0.00000000000E+00 -0.92707924932E+02  0.92707924932E+02  0.00000000000E+00 0. -1.
         25    2    1    2    0    0 -0.12014209301E+03  0.25509191450E+02  0.12362303323E+03  0.21449755539E+03  0.12506680440E+03 0.  0.
          5    1    3    3  502    0 -0.96705986527E+02 -0.40591480247E+02  0.77021096376E+02  0.13019000647E+03  0.41800000000E+01 0.  1.
         -5    1    3    3    0  502 -0.23436106483E+02  0.66100671697E+02  0.46601936851E+02  0.84307548915E+02  0.41800000000E+01 0.  1.
        -11    1    1    2    0    0  0.54568983840E+02 -0.38661028586E+02 -0.30657532216E+01  0.66946605377E+02  0.00000000000E+00 0. -1.
         11    1    1    2    0    0  0.65573109169E+02  0.13151837136E+02  0.78909413697E+02  0.10343838280E+03  0.00000000000E+00 0.  1.
</event>
<event>
 6    1  0.1538147E-010  0.1166854E+03  0.7561462E-02  0.1248667E+00
         -2   -1    0    0    0  501 -0.00000000000E+00  0.00000000000E+00  0.91361633411E+02  0.91361633411E+02  0.00000000000E+00 0.  1.
          2   -1    0    0  501    0  0.00000000000E+00 -0.00000000000E+00 -0.17966993181E+03  0.17966993181E+03  0.00000000000E+00 0. -1.
          5    1    1    2  502    0 -0.15247736187E+02  0.54529294253E+02  0.23965572621E+02  0.61625956071E+02  0.41800000000E+01 0.  1.
         -5    1    1    2    0  502 -0.44779425247E+02 -0.50352827114E+02 -0.39221862521E+02  0.78079645385E+02  0.41800000000E+01 0.  1.
        -11    1    1    2    0    0  0.57413092913E+01 -0.42337815742E+02 -0.26674341676E+02  0.50368380737E+02  0.00000000000E+00 0. -1.
         11    1    1    2    0    0  0.54285852143E+02  0.38161348602E+02 -0.46377666827E+02  0.80957583032E+02  0.00000000000E+00 0.  1.
</event>
<event>
 7    1  0.1538147E-010  0.1771581E+03  0.7561462E-02  0.1170582E+00
         -1   -1    0    0    0  501 -0.00000000000E+00  0.00000000000E+00  0.14128078309E+03  0.14128078309E+03  0.00000000000E+00 0.  1.
          1   -1    0    0  501    0  0.00000000000E+00 -0.00000000000E+00 -0.28756050992E+03  0.28756050992E+03  0.00000000000E+00 0. -1.
         25    2    1    2    0    0 -0.15404455234E+03 -0.86151828659E+01 -0.14944619360E+03  0.24858060098E+03  0.12511676513E+03 0.  0.
          5    1    3    3  502    0 -0.12543969577E+03  0.45465409363E+02 -0.12397141897E+03  0.18217740212E+03  0.41800000000E+01 0. -1.
         -5    1    3    3    0  502 -0.28604856575E+02 -0.54080592229E+02 -0.25474774637E+02  0.66403198856E+02  0.41800000000E+01 0. -1.
        -11    1    1    2    0    0  0.62801257155E+02 -0.16372912734E+02  0.42744811394E+02  0.77712219585E+02  0.00000000000E+00 0.  1.
         11    1    1    2    0    0  0.91243295189E+02  0.24988095600E+02 -0.39578344621E+02  0.10254847245E+03  0.00000000000E+00 0. -1.
</event>
<event>
 6    1  0.1538147E-010  0.1079769E+03  0.7561462E-02  0.1264363E+00
          2   -1    0    0  501    0  0.00000000000E+00  0.00000000000E+00  0.21825775786E+03  0.21825775786E+03  0.00000000000E+00 0. -1.
         -2   -1    0    0    0  501 -0.00000000000E+00 -0.00000000000E+00 -0.78886222159E+02  0.78886222159E+02  0.00000000000E+00 0.  1.
          5    1    1    2  502    0  0.21436181757E+02  0.10910091528E+02 -0.30773092523E+02  0.39280982789E+02  0.41800000000E+01 0. -1.
         -5    1    1    2    0  502 -0.77036030777E+02 -0.31631481107E+02  0.58501616074E+02  0.10185780342E+03  0.41800000000E+01 0. -1.
        -11    1    1    2    0    0 -0.22306378482E+02  0.20435001209E+02  0.40110546078E+02  0.50239622830E+02  0.00000000000E+00 0. -1.
         11    1    1    2    0    0  0.77906227502E+02  0.28638837000E+00  0.71532466076E+02  0.10576557098E+03  0.00000000000E+00 0.  1.
</event>
<event>
 7    1  0.1538147E-010  0.9120290E+02  0.7561462E-02  0.1299965E+00
          1   -1    0    0  501    0  0.00000000000E+00  0.00000000000E+00  0.76074824142E+02  0.76074824142E+02  0.00000000000E+00 0.  1.
         -1   -1    0    0    0  501 -0.00000000000E+00 -0.00000000000E+00 -0.15988341251E+03  0.15988341251E+03  0.00000000000E+00 0. -1.
         25    2    1    2    0    0  0.31306230331E+01  0.14124663737E+02 -0.37598572786E+02  0.13144190900E+03  0.12511600952E+03 0.  0.
          5    1    3    3  502    0  0.45831219019E+02 -0.18195222645E+01 -0.63810741251E+02  0.78696215900E+02  0.41800000000E+01 0. -1.
         -5    1    3    3    0  502 -0.42700595985E+02  0.15944186002E+02  0.26212168465E+02  0.52745693098E+02  0.41800000000E+01 0. -1.
        -11    1    1    2    0    0  0.19852396610E+02  0.32792078769E+02 -0.33115992047E+02  0.50656756809E+02  0.00000000000E+00 0.  1.
         11    1    1    2    0    0 -0.22983019643E+02 -0.46916742506E+02 -0.13094023536E+02  0.53859570845E+02  0.00000000000E+00 0. -1.
</event>
<event>
 7    1  0.1538147E-010  0.8714173E+02  0.7561462E-02  0.1309925E+00
         -1   -1    0    0    0  501 -0.00000000000E+00  0.00000000000E+00  0.29352642863E+02  0.29352642863E+02  0.00000000000E+00 0.  1.
          1   -1    0    0  501    0  0.00000000000E+00 -0.00000000000E+00 -0.50590327720E+03  0.50590327720E+03  0.00000000000E+00 0. -1.
         25    2    1    2    0    0 -0.20549598412E+02 -0.73791293236E+02 -0.30790192674E+03  0.34104459613E+03  0.12506150128E+03 0.  0.
          5    1    3    3  502    0 -0.39021678910E+02 -0.50524447890E+02 -0.49454615527E+02  0.80861873937E+02  0.41800000000E+01 0. -1.
         -5    1    3    3    0  502  0.18472080498E+02 -0.23266845346E+02 -0.25844731122E+03  0.26018272219E+03  0.41800000000E+01 0. -1.
        -11    1    1    2    0    0 -0.39943483313E+01  0.28630226822E+02 -0.12002435216E+03  0.12345642883E+03  0.00000000000E+00 0. -1.
         11    1    1    2    0    0  0.24543946744E+02  0.45161066414E+02 -0.48624355433E+02  0.70754895115E+02  0.00000000000E+00 0.  1.
</event>
<event>
 7    1  0.1538147E-010  0.1476770E+03  0.7561462E-02  0.1203357E+00
         -2   -1    0    0    0  501 -0.00000000000E+00  0.00000000000E+00  0.37771225613E+02  0.37771225613E+02  0.00000000000E+00 0.  1.
          2   -1    0    0  501    0  0.00000000000E+00 -0.00000000000E+00 -0.86778538440E+03  0.86778538440E+03  0.00000000000E+00 0. -1.
         25    2    1    2    0    0  0.12560875189E+03 -0.62512329894E+02 -0.34856250030E+03  0.39600722436E+03  0.12506220529E+03 0.  0.
          5    1    3    3  502    0  0.18834307206E+02 -0.29063836922E+02 -0.23113819746E+03  0.23375580521E+03  0.41800000000E+01 0.  1.
         -5    1    3    3    0  502  0.10677444468E+03 -0.33448492972E+02 -0.11742430284E+03  0.16225141915E+03  0.41800000000E+01 0.  1.
        -11    1    1    2    0    0 -0.82353334933E+01  0.23360613803E+02 -0.20115220801E+02  0.31908636807E+02  0.00000000000E+00 0.  1.
         11    1    1    2    0    0 -0.11737341840E+03  0.39151716090E+02 -0.46133643769E+03  0.47764074885E+03  0.00000000000E+00 0. -1.
</event>
<event>
 7    1  0.1538147E-010  0.1262101E+03  0.7561462E-02  0.1233190E+00
          3   -1    0    0  501    0  0.00000000000E+00  0.00000000000E+00  0.21953197689E+03  0.21953197689E+03  0.00000000000E+00 0. -1.
         -3   -1    0    0    0  501 -0.00000000000E+00 -0.00000000000E+00 -0.10419333888E+03  0.10419333888E+03  0.00000000000E+00 0.  1.
         25    2    1    2    0    0 -0.19222511099E+02  0.84692463917E+02  0.28180028544E+00  0.15231251601E+03  0.12512675471E+03 0.  0.
          5    1    3    3  502    0  0.35738495220E+02  0.68647501173E+00  0.30732044676E+02  0.47324858780E+02  0.41800000000E+01 0. -1.
         -5    1    3    3    0  502 -0.54961006319E+02  0.84005988906E+02 -0.30450244391E+02  0.10498765723E+03  0.41800000000E+01 0. -1.
        -11    1    1    2    0    0 -0.26049476621E+02 -0.57551436346E+02  0.96742343934E+02  0.11554143918E+03  0.00000000000E+00 0. -1.
         11    1    1    2    0    0  0.45271987720E+02 -0.27141027571E+02  0.18314493793E+02  0.55871360576E+02  0.00000000000E+00 0.  1.
</event>
<event>
 6    1  0.1538147E-010  0.1059363E+03  0.7561462E-02  0.1268286E+00
          1   -1    0    0  501    0  0.00000000000E+00  0.00000000000E+00  0.15489919876E+03  0.15489919876E+03  0.00000000000E+00 0. -1.
         -1   -1    0    0    0  501 -0.00000000000E+00 -0.00000000000E+00 -0.86966885830E+02  0.86966885830E+02  0.00000000000E+00 0.  1.
          5    1    1    2  502    0  0.55508840350E+02  0.39264249038E+02 -0.22049215630E+02  0.71599950554E+02  0.41800000000E+01 0. -1.
         -5    1    1    2    0  502 -0.15600221810E+02 -0.47339967581E+02  0.33325187953E+02  0.60103910049E+02  0.41800000000E+01 0. -1.
        -11    1    1    2    0    0  0.55883239595E+00  0.41343038697E+02  0.31891940195E+02  0.52217382085E+02  0.00000000000E+00 0.  1.
         11    1    1    2    0    0 -0.40467450936E+02 -0.33267320154E+02  0.24764400417E+02  0.57944841906E+02  0.00000000000E+00 0. -1.
</event>
<event>
 6    1  0.1538147E-010  0.9174526E+02  0.7561462E-02  0.1298679E+00
         -2   -1    0    0    0  501 -0.00000000000E+00  0.00000000000E+00  0.16211001418E+02  0.16211001418E+02  0.00000000000E+00 0.  1.
          2   -1    0    0  501    0  0.00000000000E+00 -0.00000000000E+00 -0.89554019077E+03  0.89554019077E+03  0.00000000000E+00 0. -1.
          5    1    1    2  502    0  0.23818657390E+02  0.36647048981E+02 -0.48656258543E+03  0.48853961618E+03  0.41800000000E+01 0. -1.
         -5    1    1    2    0  502  0.26828554102E+02 -0.24224255529E+02 -0.35463601504E+02  0.50810680991E+02  0.41800000000E+01 0. -1.
        -11    1    1    2    0    0 -0.46827509429E+01 -0.46022699621E+02 -0.19462065065E+03  0.20004303211E+03  0.00000000000E+00 0. -1.
         11    1    1    2    0    0 -0.45964460549E+02  0.33599906170E+02 -0.16268235177E+03  0.17235786291E+03  0.00000000000E+00 0.  1.
</event>
<event>
 7    1  0.1538147E-010  0.1069459E+03  0.7561462E-02  0.1266332E+00
          2   -1    0    0  501    0  0.00000000000E+00  0.00000000000E+00  0.33956784353E+03  0.33956784353E+03  0.00000000000E+00 0. -1.
         -2   -1    0    0    0  501 -0.00000000000E+00 -0.00000000000E+00 -0.74457492126E+02  0.74457492126E+02  0.00000000000E+00 0.  1.
         25    2    1    2    0    0  0.63657968039E+00 -0.24697988930E+02 -0.51780068830E+01  0.12758123985E+03  0.12505904652E+03 0.  0.
          5    1    3    3  502    0 -0.51006046241E+02  0.19235406712E+02  0.15043893343E+02  0.56704574343E+02  0.41800000000E+01 0. -1.
         -5    1    3    3    0  502  0.51642625921E+02 -0.43933395641E+02 -0.20221900226E+02  0.70876665507E+02  0.41800000000E+01 0. -1.
        -11    1    1    2    0    0  0.10011804724E+02 -0.32035948311E+02  0.13954466684E+03  0.14352439605E+03  0.00000000000E+00 0. -1.
         11    1    1    2    0    0 -0.10648384405E+02  0.56733937241E+02  0.13074369144E+03  0.14291969975E+03  0.00000000000E+00 0.  1.
</event>
<event>
 6    1  0.1538147E-010  0.2128261E+03  0.7561462E-02  0.1139347E+00
         -1   -1    0    0    0  501 -0.00000000000E+00  0.00000000000E+00  0.49334658866E+02  0.49334658866E+02  0.00000000000E+00 0.  1.
          1   -1    0    0  501    0  0.00000000000E+00 -0.00000000000E+00 -0.10438785483E+04  0.10438785483E+04  0.00000000000E+00 0. -1.
          5    1    1    2  502    0  0.47655469630E+02 -0.26963300409E+02 -0.18015026504E+03  0.18833388900E+03  0.41800000000E+01 0.  1.
         -5    1    1    2    0  502  0.11863893387E+03  0.12865218666E+03 -0.42888884502E+03  0.46323827081E+03  0.41800000000E+01 0.  1.
        -11    1    1    2    0    0 -0.53880534726E+02 -0.42596960209E+02 -0.23439328611E+03  0.24424951508E+03  0.00000000000E+00 0. -1.
         11    1    1    2    0    0 -0.11241386877E+03 -0.59091926043E+02 -0.15111149327E+03  0.19739153227E+03  0.00000000000E+00 0.  1.
</event>
<event>
 7    1  0.1538147E-010  0.2257538E+03  0.7561462E-02  0.1129665E+00
          2   -1    0    0  501    0  0.00000000000E+00  0.00000000000E+00  0.30852188687E+03  0.30852188687E+03  0.00000000000E+00 0. -1.
         -2   -1    0    0    0  501 -0.00000000000E+00 -0.00000000000E+00 -0.19195510177E+03  0.19195510177E+03  0.00000000000E+00 0.  1.
         25    2    1    2    0    0  0.14741324228E+03  0.15636255534E+03  0.45255993079E+02  0.25271253488E+03  0.12504242345E+03 0.  0.
          5    1    3    3  502    0  0.71093466486E+02  0.63390553308E+02 -0.41868758073E+02  0.10413024790E+03  0.41800000000E+01 0.  1.
         -5    1    3    3    0  502  0.76319775791E+02  0.92972002036E+02  0.87124751153E+02  0.14858228698E+03  0.41800000000E+01 0.  1.
        -11    1    1    2    0    0 -0.26745390618E+02 -0.98345100809E+02  0.44535196284E+02  0.11122256282E+03  0.00000000000E+00 0. -1.
         11    1    1    2    0    0 -0.12066785166E+03 -0.58017454535E+02  0.26775595739E+02  0.13654189094E+03  0.00000000000E+00 0.  1.
</event>
<event>
 6    1  0.1538147E-010  0.1731327E+03  0.7561462E-02  0.1174620E+00
          1   -1    0    0  501    0  0.00000000000E+00  0.00000000000E+00  0.38745332506E+03  0.38745332506E+03  0.00000000000E+00 0. -1.
         -1   -1    0    0    0  501 -0.00000000000E+00 -0.00000000000E+00 -0.12274920770E+03  0.12274920770E+03  0.00000000000E+00 0.  1.
          5    1    1    2  502    0 -0.58604615375E+00  0.14371726036E+03 -0.34392384645E+02  0.14783539122E+03  0.41800000000E+01 0. -1.
         -5    1    1    2    0  502  0.21634958638E+02  0.10860713214E+02  0.46324644521E+02  0.52435404230E+02  0.41800000000E+01 0. -1.
        -11    1    1    2    0    0 -0.48401307937E+02 -0.13726557855E+03  0.19039516233E+03  0.23965567697E+03  0.00000000000E+00 0. -1.
         11    1    1    2    0    0  0.27352395453E+02 -0.17312395023E+02  0.62376695161E+02  0.70276060345E+02  0.00000000000E+00 0.  1.
</event>
<event>
 6    1  0.1538147E-010  0.1412807E+03  0.7561462E-02  0.1211616E+00
          1   -1    0    0  501    0  0.00000000000E+00  0.00000000000E+00  0.24539551523E+03  0.24539551523E+03  0.00000000000E+00 0. -1.
         -1   -1    0    0    0  501 -0.00000000000E+00 -0.00000000000E+00 -0.90481951964E+02  0.90481951964E+02  0.00000000000E+00 0.  1.
          5    1    1    2  502    0  0.35007662273E+02 -0.43460196382E+02  0.42096154068E+02  0.70027735039E+02  0.41800000000E+01 0.  1.
         -5    1    1    2    0  502 -0.90943678244E+02 -0.38568128872E+02  0.16453778068E+02  0.10023199285E+03  0.41800000000E+01 0.  1.
        -11    1    1    2    0    0  0.40562167192E+02  0.97692494368E+02  0.97197175941E+02  0.14365376387E+03  0.00000000000E+00 0. -1.
         11    1    1    2    0    0  0.15373848779E+02 -0.15664169113E+02 -0.83354480624E+00  0.21963975442E+02  0.00000000000E+00 0.  1.
</event>
<event>
 7    1  0.1538147E-010  0.1016780E+03  0.7561462E-02  0.1276806E+00
          1   -1    0    0  501    0  0.00000000000E+00  0.00000000000E+00  0.47836314533E+02  0.47836314533E+02  0.00000000000E+00 0. -1.
         -1   -1    0    0    0  501 -0.00000000000E+00 -0.00000000000E+00 -0.82874025009E+03  0.82874025009E+03  0.00000000000E+00 0.  1.
         25    2    1    2    0    0  0.76934968445E+02  0.25348935586E+02 -0.73013997718E+03  0.74520354538E+03  0.12514943017E+03 0.  0.
          5    1    3    3  502    0  0.35437870675E+02  0.46517951673E+01 -0.41243969878E+02  0.54735905287E+02  0.41800000000E+01 0.  1.
         -5    1    3    3    0  502  0.41497097770E+02  0.20697140419E+02 -0.68889600730E+03  0.69046764010E+03  0.41800000000E+01 0.  1.
        -11    1    1    2    0    0  0.15118434088E+00 -0.41955389058E+02 -0.12865511224E+02  0.43883925381E+02  0.00000000000E+00 0. -1.
         11    1    1    2    0    0 -0.77086152786E+02  0.16606453472E+02 -0.37898447157E+02  0.87489093864E+02  0.00000000000E+00 0.  1.
</event>
<event>
 6    1  0.1538147E-010  0.1087745E+03  0.7561462E-02  0.1262856E+00
         -1   -1    0    0    0  501 -0.00000000000E+00  0.00000000000E+00  0.10700608893E+03  0.10700608893E+03  0.00000000000E+00 0.  1.
          1   -1    0    0  501    0  0.00000000000E+00 -0.00000000000E+00 -0.18392146529E+03  0.18392146529E+03  0.00000000000E+00 0. -1.
          5    1    1    2  502    0  0.41926090427E+02 -0.13928500555E+02 -0.64133162524E+02  0.77989326972E+02  0.41800000000E+01 0. -1.
         -5    1    1    2    0  502  0.27320293320E+02  0.70002507219E+02  0.27231872835E+02  0.80036221438E+02  0.41800000000E+01 0. -1.
        -11    1    1    2    0    0 -0.43143519667E+02 -0.89814308519E+01  0.23251332301E+02  0.49826236495E+02  0.00000000000E+00 0.  1.
         11    1    1    2    0    0 -0.26102864080E+02 -0.47092575811E+02 -0.63265418974E+02  0.83075769317E+02  0.00000000000E+00 0. -1.
</event>
<event>
 7    1  0.1538147E-010  0.1216352E+03  0.7561462E-02  0.1240424E+00
          2   -1    0    0  501    0  0.00000000000E+00  0.00000000000E+00  0.14285226368E+03  0.14285226368E+03  0.00000000000E+00 0. -1.
         -2   -1    0    0    0  501 -0.00000000000E+00 -0.00000000000E+00 -0.12675452165E+03  0.12675452165E+03  0.00000000000E+00 0.  1.
         25    2    1    2    0    0 -0.64030481722E+02  0.65341314660E-01 -0.35886064946E+02  0.14501226925E+03  0.12506335081E+03 0.  0.
          5    1    3    3  502    0 -0.43291848699E+02 -0.57660011502E+02  0.29658040586E+01  0.72285057127E+02  0.41800000000E+01 0. -1.
         -5    1    3    3    0  502 -0.20738633023E+02  0.57725352816E+02 -0.38851869005E+02  0.72727212119E+02  0.41800000000E+01 0. -1.
        -11    1    1    2    0    0  0.68460648157E+02 -0.33235540832E+02  0.50027666793E+02  0.91072657616E+02  0.00000000000E+00 0. -1.
         11    1    1    2    0    0 -0.44301664356E+01  0.33170199517E+02  0.19561401763E+01  0.33521858466E+02  0.00000000000E+00 0.  1.
</event>
<event>
 6    1  0.1538147E-010  0.1203392E+03  0.7561462E-02  0.1242539E+00
         -3   -1    0    0    0  501 -0.00000000000E+00  0.00000000000E+00  0.11620703061E+04  0.11620703061E+04  0.00000000000E+00 0.  1.
          3   -1    0    0  501    0  0.00000000000E+00 -0.00000000000E+00 -0.25764379291E+02  0.25764379291E+02  0.00000000000E+00 0. -1.
          5    1    1    2  502    0  0.40765578349E+02  0.51985180125E+02  0.80057875963E+03  0.80331072077E+03  0.41800000000E+01 0. -1.
         -5    1    1    2    0  502  0.44656286790E+02  0.12332678626E+02  0.80098493538E+02  0.92625698265E+02  0.41800000000E+01 0.  1.
        -11    1    1    2    0    0 -0.48927876766E+02 -0.75350342953E+02  0.11355226789E+03  0.14479547248E+03  0.00000000000E+00 0. -1.
         11    1    1    2    0    0 -0.36493988373E+02  0.11032484202E+02  0.14207640574E+03  0.14710279386E+03  0.00000000000E+00 0.  1.
</event>
<event>
 6    1  0.1538147E-010  0.1423977E+03  0.7561462E-02  0.1210139E+00
         -1   -1    0    0    0  501 -0.00000000000E+00  0.00000000000E+00  0.12536320839E+03  0.12536320839E+03  0.00000000000E+00 0.  1.
          1   -1    0    0  501    0  0.00000000000E+00 -0.00000000000E+00 -0.28484099061E+03  0.28484099061E+03  0.00000000000E+00 0. -1.
          5    1    1    2  502    0 -0.49380006197E+02  0.86173173661E+01  0.20229156211E+01  0.50340915349E+02  0.41800000000E+01 0. -1.
         -5    1    1    2    0  502 -0.66411184249E+02 -0.62421638761E+02 -0.18032237856E+03  0.20209042280E+03  0.41800000000E+01 0. -1.
        -11    1    1    2    0    0  0.10979669893E+03  0.67097057005E+02 -0.61865226673E+01  0.12882392331E+03  0.00000000000E+00 0. -1.
         11    1    1    2    0    0  0.59944915196E+01 -0.13292735610E+02  0.25008203378E+02  0.28948937541E+02  0.00000000000E+00 0.  1.
</event>
<event>
 6    1  0.1538147E-010  0.8388184E+02  0.7561462E-02  0.1318383E+00
         -1   -1    0    0    0  501 -0.00000000000E+00  0.00000000000E+00  0.39572843092E+03  0.39572843092E+03  0.00000000000E+00 0.  1.
          1   -1    0    0  501    0  0.00000000000E+00 -0.00000000000E+00 -0.33889462396E+02  0.33889462396E+02  0.00000000000E+00 0. -1.
          5    1    1    2  502    0 -0.11574907926E+02 -0.36033991190E+02  0.27458829841E+01  0.38176423195E+02  0.41800000000E+01 0.  1.
         -5    1    1    2    0  502 -0.26202457562E+02  0.18668507996E+02  0.20685901579E+03  0.20938769492E+03  0.41800000000E+01 0.  1.
        -11    1    1    2    0    0  0.17744410718E+02 -0.36057693765E+02  0.83927873789E+02  0.93053261040E+02  0.00000000000E+00 0. -1.
         11    1    1    2    0    0  0.20032954769E+02  0.53423176960E+02  0.68306195968E+02  0.89000514160E+02  0.00000000000E+00 0.  1.
</event>
<event>
 7    1  0.1538147E-010  0.1269482E+03  0.7561462E-02  0.1232056E+00
          3   -1    0    0  501    0  0.00000000000E+00  0.00000000000E+00  0.20678905330E+03  0.20678905330E+03  0.00000000000E+00 0. -1.
         -3   -1    0    0    0  501 -0.00000000000E+00 -0.00000000000E+00 -0.15603662669E+03  0.15603662669E+03  0.00000000000E+00 0.  1.
         25    2    1    2    0    0 -0.13893775634E+02  0.81591631962E+02 -0.90382054035E+02  0.17510104938E+03  0.12506490474E+03 0.  0.
          5    1    3    3  502    0  0.30460872028E+02 -0.18662211188E+02 -0.54878768193E+01  0.36383128550E+02  0.41800000000E+01 0.  1.
         -5    1    3    3    0  502 -0.44354647662E+02  0.10025384315E+03 -0.84894177216E+02  0.13871792083E+03  0.41800000000E+01 0.  1.
        -11    1    1    2    0    0  0.39794613947E+02 -0.68453160102E+02  0.13721109827E+03  0.15841821838E+03  0.00000000000E+00 0. -1.
         11    1    1    2    0    0 -0.25900838313E+02 -0.13138471860E+02  0.39233823867E+01  0.29306412225E+02  0.00000000000E+00 0.  1.
</event>
<event>
 7    1  0.1538147E-010  0.2388045E+03  0.7561462E-02  0.1120592E+00
          2   -1    0    0  501    0  0.00000000000E+00  0.00000000000E+00  0.19331015041E+04  0.19331015041E+04  0.00000000000E+00 0. -1.
         -2   -1    0    0    0  501 -0.00000000000E+00 -0.00000000000E+00 -0.41198703873E+02  0.41198703873E+02  0.00000000000E+00 0.  1.
         25    2    1    2    0    0 -0.58869929377E+02  0.22726854662E+03  0.13526630320E+04  0.13785764496E+04  0.12513627945E+03 0.  0.
          5    1    3    3  502    0 -0.30428574971E+02  0.18304268331E+03  0.12442016898E+04  0.12579689342E+04  0.41800000000E+01 0.  1.
         -5    1    3    3    0  502 -0.28441354406E+02  0.44225863315E+02  0.10846134222E+03  0.12060751545E+03  0.41800000000E+01 0.  1.
        -11    1    1    2    0    0  0.29585605018E+02 -0.40203218687E+02  0.21066314699E+03  0.21649611617E+03  0.00000000000E+00 0. -1.
         11    1    1    2    0    0  0.29284324359E+02 -0.18706532793E+03  0.32857662119E+03  0.37922764213E+03  0.00000000000E+00 0.  1.
</event>
<event>
 7    1  0.1538147E-010  0.1276437E+03  0.7561462E-02  0.1230994E+00
          1   -1    0    0  501    0  0.00000000000E+00  0.00000000000E+00  0.58724106987E+02  0.58724106987E+02  0.00000000000E+00 0. -1.
         -1   -1    0    0    0  501 -0.00000000000E+00 -0.00000000000E+00 -0.33573203014E+03  0.33573203014E+03  0.00000000000E+00 0.  1.
         25    2    1    2    0    0  0.70726056136E+02  0.18533426856E+02 -0.83655642268E+02  0.16732191085E+03  0.12511072073E+03 0.  0.
          5    1    3    3  502    0 -0.35393223468E+01  0.56122221650E+02 -0.56104097173E+02  0.79544784149E+02  0.41800000000E+01 0.  1.
         -5    1    3    3    0  502  0.74265378483E+02 -0.37588794794E+02 -0.27551545095E+02  0.87777126704E+02  0.41800000000E+01 0.  1.
        -11    1    1    2    0    0 -0.58029427133E+02  0.30045813425E+02 -0.81002660747E+02  0.10407495552E+03  0.00000000000E+00 0. -1.
         11    1    1    2    0    0 -0.12696629003E+02 -0.48579240281E+02 -0.11234962014E+03  0.12305927076E+03  0.00000000000E+00 0.  1.
</event>
<event>
 7    1  0.1538147E-010  0.1096073E+03  0.7561462E-02  0.1261299E+00
         -1   -1    0    0    0  501 -0.00000000000E+00  0.00000000000E+00  0.57075892804E+03  0.57075892804E+03  0.00000000000E+00 0.  1.
          1   -1    0    0  501    0  0.00000000000E+00 -0.00000000000E+00 -0.26352688007E+02  0.26352688007E+02  0.00000000000E+00 0. -1.
         25    2    1    2    0    0  0.44133834210E+02  0.22688122067E+02  0.36926144365E+03  0.39302659877E+03  0.12511333810E+03 0.  0.
          5    1    3    3  502    0  0.80244630525E+02 -0.84821353851E+01  0.28364039307E+03  0.29492455362E+03  0.41800000000E+01 0. -1.
         -5    1    3    3    0  502 -0.36110796316E+02  0.31170257452E+02  0.85621050580E+02  0.98102045149E+02  0.41800000000E+01 0. -1.
        -11    1    1    2    0    0 -0.56470149091E+02  0.83917469621E+01  0.15468408114E+03  0.16488318323E+03  0.00000000000E+00 0.  1.
         11    1    1    2    0    0  0.12336314882E+02 -0.31079869029E+02  0.20460715243E+02  0.39201834038E+02  0.00000000000E+00 0. -1.
</event>
<event>
 7    1  0.1538147E-010  0.1194844E+03  0.7561462E-02  0.1243950E+00
         -1   -1    0    0    0  501 -0.00000000000E+00  0.00000000000E+00  0.12306488470E+02  0.12306488470E+02  0.00000000000E+00 0.  1.
          1   -1    0    0  501    0  0.00000000000E+00 -0.00000000000E+00 -0.14030613915E+04  0.14030613915E+04  0.00000000000E+00 0. -1.
         25    2    1    2    0    0  0.49644888926E+02 -0.21479183644E+02 -0.10403524063E+04  0.10492454247E+04  0.12512738211E+03 0.  0.
          5    1    3    3  502    0 -0.64014505947E+01 -0.63525733995E+02 -0.58947724148E+03  0.59293961588E+03  0.41800000000E+01 0.  1.
         -5    1    3    3    0  502  0.56046339520E+02  0.42046550351E+02 -0.45087516478E+03  0.45630580885E+03  0.41800000000E+01 0.  1.
        -11    1    1    2    0    0 -0.75184360401E+02  0.24504973939E+02 -0.23715212224E+03  0.24998862150E+03  0.00000000000E+00 0. -1.
         11    1    1    2    0    0  0.25539471476E+02 -0.30257902955E+01 -0.11325037448E+03  0.11613383370E+03  0.00000000000E+00 0.  1.
</event>
<event>
 7    1  0.1538147E-010  0.4289755E+03  0.7561462E-02  0.1034184E+00
         -2   -1    0    0    0  501 -0.00000000000E+00  0.00000000000E+00  0.33646955640E+03  0.33646955640E+03  0.00000000000E+00 0.  1.
          2   -1    0    0  501    0  0.00000000000E+00 -0.00000000000E+00 -0.65245815266E+03  0.65245815266E+03  0.00000000000E+00 0. -1.
         25    2    1    2    0    0  0.33942465555E+03  0.25382921568E+03  0.17138462264E+02  0.44225545059E+03  0.12513108793E+03 0.  0.
          5    1    3    3  502    0  0.32475481900E+03  0.25237199251E+03 -0.96189281762E+01  0.41142108751E+03  0.41800000000E+01 0. -1.
         -5    1    3    3    0  502  0.14669836551E+02  0.14572231642E+01  0.26757390440E+02  0.30834363087E+02  0.41800000000E+01 0. -1.
        -11    1    1    2    0    0 -0.19080287671E+03 -0.19095987696E+03 -0.18188919616E+03  0.32550743778E+03  0.00000000000E+00 0.  1.
         11    1    1    2    0    0 -0.14862177883E+03 -0.62869338719E+02 -0.15123786237E+03  0.22116482068E+03  0.00000000000E+00 0. -1.
</event>
<event>
 7    1  0.1538147E-010  0.1047101E+03  0.7561462E-02  0.1270692E+00
          2   -1    0    0  501    0  0.00000000000E+00  0.00000000000E+00  0.39394657083E+03  0.39394657083E+03  0.00000000000E+00 0.  1.
         -2   -1    0    0    0  501 -0.00000000000E+00 -0.00000000000E+00 -0.40080246425E+02  0.40080246425E+02  0.00000000000E+00 0. -1.
         25    2    1    2    0    0 -0.12276247720E+02 -0.47504130735E+02  0.27442182169E+03  0.30553813739E+03  0.12505546163E+03 0.  0.
          5    1    3    3  502    0  0.22432171854E+02 -0.77241312497E+02  0.22038363761E+03  0.23463981507E+03  0.41800000000E+01 0.  1.
         -5    1    3    3    0  502 -0.34708419574E+02  0.29737181762E+02  0.54038184083E+02  0.70898322318E+02  0.41800000000E+01 0.  1.
        -11    1    1    2    0    0 -0.22370021255E+02  0.42431505518E+02  0.76001504009E+01  0.48565551552E+02  0.00000000000E+00 0. -1.
         11    1    1    2    0    0  0.34646268975E+02  0.50726252176E+01  0.71844352309E+02  0.79923128313E+02  0.00000000000E+00 0.  1.
</event>
<event>
 7    1  0.1735832E-010  0.1473493E+03  0.7561462E-02  0.1203768E+00
         -2   -1    0    0    0  501 -0.00000000000E+00  0.00000000000E+00  0.47930288487E+02  0.47930288487E+02  0.00000000000E+00 0.  1.
          2   -1    0    0  501    0  0.00000000000E+00 -0.00000000000E+00 -0.56840695525E+03  0.56840695525E+03  0.00000000000E+00 0. -1.
         25    2    1    2    0    0  0.10520432805E+03 -0.55270443404E+02 -0.21214526042E+03  0.27346229845E+03  0.12511292739E+03 0.  0.
          5    1    3    3  502    0  0.12335553387E+03 -0.75627044282E+02 -0.17303207863E+03  0.22559612186E+03  0.41800000000E+01 0.  1.
         -5    1    3    3    0  502 -0.18151205812E+02  0.20356600879E+02 -0.39113181785E+02  0.47866176588E+02  0.41800000000E+01 0.  1.
        -11    1    1    2    0    0 -0.24339433460E+02  0.27801058844E+02 -0.19699885965E+02  0.41873528644E+02  0.00000000000E+00 0.  1.
         11    1    1    2    0    0 -0.80864894595E+02  0.27469384559E+02 -0.28863152038E+03  0.30100141664E+03  0.00000000000E+00 0. -1.
</event>
<event>
 7    1  0.1538147E-010  0.9485571E+02  0.7561462E-02  0.1291501E+00
          2   -1    0    0  501    0  0.00000000000E+00  0.00000000000E+00  0.77696185119E+03  0.77696185119E+03  0.00000000000E+00 0. -1.
         -2   -1    0    0    0  501 -0.00000000000E+00 -0.00000000000E+00 -0.19428186370E+02  0.19428186370E+02  0.00000000000E+00 0.  1.
         25    2    1    2    0    0  0.43549800389E+02  0.39566580115E+01  0.55010701884E+03  0.56584770611E+03  0.12511456382E+03 0.  0.
          5    1    3    3  502    0  0.10502847372E+00 -0.34946479305E+02  0.43798840527E+03  0.43940025375E+03  0.41800000000E+01 0. -1.
         -5    1    3    3    0  502  0.43444771916E+02  0.38903137317E+02  0.11211861357E+03  0.12644745236E+03  0.41800000000E+01 0. -1.
        -11    1    1    2    0    0 -0.35953664781E+01 -0.41242612459E+02  0.12471786899E+03  0.13140938546E+03  0.00000000000E+00 0.  1.
         11    1    1    2    0    0 -0.39954433911E+02  0.37285954447E+02  0.82708776994E+02  0.99132945987E+02  0.00000000000E+00 0. -1.
</event>
<event>
 7    1  0.1538147E-010  0.1033386E+03  0.7561462E-02  0.1273428E+00
          1   -1    0    0  501    0  0.00000000000E+00  0.00000000000E+00  0.16710631382E+03  0.16710631382E+03  0.00000000000E+00 0. -1.
         -1   -1    0    0    0  501 -0.00000000000E+00 -0.00000000000E+00 -0.83632615870E+02  0.83632615870E+02  0.00000000000E+00 0.  1.
         25    2    1    2    0    0  0.12198011036E+02  0.46418420712E+01 -0.39826001356E+01  0.12585270628E+03  0.12511076853E+03 0.  0.
          5    1    3    3  502    0  0.61734000159E+02  0.26002752887E+02 -0.18899077806E+02  0.69727164543E+02  0.41800000000E+01 0.  1.
         -5    1    3    3    0  502 -0.49535989123E+02 -0.21360910816E+02  0.14916477670E+02  0.56125541738E+02  0.41800000000E+01 0.  1.
        -11    1    1    2    0    0 -0.44853153508E+02 -0.20305685528E+02  0.67456333228E+02  0.83513371007E+02  0.00000000000E+00 0. -1.
         11    1    1    2    0    0  0.32655142472E+02  0.15663843457E+02  0.19999964859E+02  0.41372852405E+02  0.00000000000E+00 0.  1.
</event>
<event>
 7    1  0.1694336E-010  0.1181839E+03  0.7561462E-02  0.1246123E+00
         -2   -1    0    0    0  501 -0.00000000000E+00  0.00000000000E+00  0.16881923601E+03  0.16881923601E+03  0.00000000000E+00 0.  1.
          2   -1    0    0  501    0  0.00000000000E+00 -0.00000000000E+00 -0.14174847191E+03  0.14174847191E+03  0.00000000000E+00 0. -1.
         25    2    1    2    0    0 -0.12313835424E+02  0.93372147870E+02  0.71708405073E+02  0.17223441605E+03  0.12511039195E+03 0.  0.
          5    1    3    3  502    0 -0.21297923331E+02  0.10533834350E+03  0.93353026824E+01  0.10795549280E+03  0.41800000000E+01 0.  1.
         -5    1    3    3    0  502  0.89840879062E+01 -0.11966195625E+02  0.62373102391E+02  0.64278923257E+02  0.41800000000E+01 0.  1.
        -11    1    1    2    0    0  0.38226618852E+02 -0.56060645979E+02  0.85462700833E+01  0.68389393540E+02  0.00000000000E+00 0.  1.
         11    1    1    2    0    0 -0.25912783428E+02 -0.37311501891E+02 -0.53183911059E+02  0.69943898332E+02  0.00000000000E+00 0. -1.
</event>
<event>
 7    1  0.1538147E-010  0.1214595E+03  0.7561462E-02  0.1240709E+00
          1   -1    0    0  501    0  0.00000000000E+00  0.00000000000E+00  0.45358402496E+03  0.45358402496E+03  0.00000000000E+00 0. -1.
         -1   -1    0    0    0  501 -0.00000000000E+00 -0.00000000000E+00 -0.49823350519E+02  0.49823350519E+02  0.00000000000E+00 0.  1.
         25    2    1    2    0    0 -0.21631559334E+02  0.99805210940E+02  0.18257576378E+03  0.24376428230E+03  0.12513237517E+03 0.  0.
          5    1    3    3  502    0  0.34349641109E+02  0.15228945197E+02  0.11689707565E+03  0.12285852559E+03  0.41800000000E+01 0. -1.
         -5    1    3    3    0  502 -0.55981200443E+02  0.84576265743E+02  0.65678688134E+02  0.12090575671E+03  0.41800000000E+01 0. -1.
        -11    1    1    2    0    0 -0.94562009071E-01 -0.39539394091E+02  0.12686668062E+02  0.41524982523E+02  0.00000000000E+00 0.  1.
         11    1    1    2    0    0  0.21726121343E+02 -0.60265816850E+02  0.20849824259E+03  0.21811811065E+03  0.00000000000E+00 0. -1.
</event>
<event>
 6    1  0.1538147E-010  0.1017672E+03  0.7561462E-02  0.1276623E+00
          2   -1    0    0  501    0  0.00000000000E+00  0.00000000000E+00  0.32031677376E+03  0.32031677376E+03  0.00000000000E+00 0. -1.
         -2   -1    0    0    0  501 -0.00000000000E+00 -0.00000000000E+00 -0.66785105990E+02  0.66785105990E+02  0.00000000000E+00 0.  1.
          5    1    1    2  502    0 -0.18693094833E+02 -0.24860455976E+02 -0.21326957250E+02  0.37944506471E+02  0.41800000000E+01 0. -1.
         -5    1    1    2    0  502 -0.68615687710E+02 -0.18067634722E+02  0.14985127233E+03  0.16585363500E+03  0.41800000000E+01 0. -1.
        -11    1    1    2    0    0  0.68262999984E+01  0.13953388395E+02 -0.13454501445E+02  0.20550402150E+02  0.00000000000E+00 0.  1.
         11    1    1    2    0    0  0.80482482544E+02  0.28974702303E+02  0.13846185414E+03  0.16275333613E+03  0.00000000000E+00 0. -1.
</event>
<event>
 6    1  0.1538147E-010  0.5221369E+02  0.7561462E-02  0.1433755E+00
          4   -1    0    0  501    0  0.00000000000E+00  0.00000000000E+00  0.50945207172E+02  0.50945207172E+02  0.00000000000E+00 0. -1.
         -4   -1    0    0    0  501 -0.00000000000E+00 -0.00000000000E+00 -0.31932234981E+03  0.31932234981E+03  0.00000000000E+00 0.  1.
          5    1    1    2  502    0  0.93727834192E+00  0.16949523115E+02  0.97028852635E+01  0.19994579439E+02  0.41800000000E+01 0.  1.
         -5    1    1    2    0  502 -0.13598136721E+02 -0.14286554720E+02 -0.25405643370E+03  0.25485517235E+03  0.41800000000E+01 0.  1.
        -11    1    1    2    0    0  0.22697555475E+01 -0.33842185470E+02  0.20836527870E+02  0.39807112447E+02  0.00000000000E+00 0. -1.
         11    1    1    2    0    0  0.10391102831E+02  0.31179217076E+02 -0.44860122065E+02  0.55610692742E+02  0.00000000000E+00 0.  1.
</event>
<event>
 6    1  0.1538147E-010  0.2144340E+03  0.7561462E-02  0.1138102E+00
          1   -1    0    0  501    0  0.00000000000E+00  0.00000000000E+00  0.56616025225E+03  0.56616025225E+03  0.00000000000E+00 0. -1.
         -1   -1    0    0    0  501 -0.00000000000E+00 -0.00000000000E+00 -0.11419905871E+03  0.11419905871E+03  0.00000000000E+00 0.  1.
          5    1    1    2  502    0 -0.11472618025E+03  0.16675050693E+03  0.28468813105E+03  0.34933169389E+03  0.41800000000E+01 0. -1.
         -5    1    1    2    0  502  0.17269726542E+02  0.72123881648E+01  0.98035020793E+02  0.99892941190E+02  0.41800000000E+01 0. -1.
        -11    1    1    2    0    0  0.41673959819E+02 -0.12909735394E+03  0.62805992927E+01  0.13580239928E+03  0.00000000000E+00 0. -1.
         11    1    1    2    0    0  0.55782493888E+02 -0.44865541154E+02  0.62957442400E+02  0.95332276596E+02  0.00000000000E+00 0.  1.
</event>
<event>
 7    1  0.1538147E-010  0.8988102E+02  0.7561462E-02  0.1303140E+00
          3   -1    0    0  501    0  0.00000000000E+00  0.00000000000E+00  0.13812435049E+03  0.13812435049E+03  0.00000000000E+00 0. -1.
         -3   -1    0    0    0  501 -0.00000000000E+00 -0.00000000000E+00 -0.13705107100E+03  0.13705107100E+03  0.00000000000E+00 0.  1.
         25    2    1    2    0    0  0.12318587357E+02 -0.33966587188E+02  0.76499090945E+02  0.15099330158E+03  0.12506554109E+03 0.  0.
          5    1    3    3  502    0  0.53315968207E+02  0.24311973671E+02  0.36762400855E+02  0.69300873344E+02  0.41800000000E+01 0.  1.
         -5    1    3    3    0  502 -0.40997380850E+02 -0.58278560859E+02  0.39736690090E+02  0.81692428239E+02  0.41800000000E+01 0.  1.
        -11    1    1    2    0    0  0.57188704413E+01  0.30798914961E+02  0.12973605999E+02  0.33905649890E+02  0.00000000000E+00 0. -1.
         11    1    1    2    0    0 -0.18037457798E+02  0.31676722269E+01 -0.88399417458E+02  0.90276470013E+02  0.00000000000E+00 0.  1.
</event>
<event>
 6    1  0.1538147E-010  0.1168671E+03  0.7561462E-02  0.1248357E+00
         -4   -1    0    0    0  501 -0.00000000000E+00  0.00000000000E+00  0.86349293466E+02  0.86349293466E+02  0.00000000000E+00 0. -1.
          4   -1    0    0  501    0  0.00000000000E+00 -0.00000000000E+00 -0.17990308222E+03  0.17990308222E+03  0.00000000000E+00 0.  1.
          5    1    1    2  502    0  0.22872389204E+02 -0.32665584165E+02  0.42539018512E+01  0.40320648032E+02  0.41800000000E+01 0.  1.
         -5    1    1    2    0  502 -0.79307217165E+02  0.30647111654E+02 -0.77517371688E+02  0.11513164405E+03  0.41800000000E+01 0.  1.
        -11    1    1    2    0    0  0.29311098936E+02  0.47349060195E+02 -0.55904262515E+01  0.55967194747E+02  0.00000000000E+00 0. -1.
         11    1    1    2    0    0  0.27123729025E+02 -0.45330587684E+02 -0.14699892661E+02  0.54832888856E+02  0.00000000000E+00 0.  1.
</event>
<event>
 7    1  0.1538147E-010  0.1421361E+03  0.7561462E-02  0.1210483E+00
          2   -1    0    0  501    0  0.00000000000E+00  0.00000000000E+00  0.12167260228E+04  0.12167260228E+04  0.00000000000E+00 0. -1.
         -2   -1    0    0    0  501 -0.00000000000E+00 -0.00000000000E+00 -0.23630949734E+02  0.23630949734E+02  0.00000000000E+00 0.  1.
         25    2    1    2    0    0 -0.90496249500E+02 -0.58224324821E+02  0.91013868226E+03  0.92497201224E+03  0.12506462052E+03 0.  0.
          5    1    3    3  502    0 -0.11152805875E+03 -0.70209225313E+02  0.84737980763E+03  0.85757673358E+03  0.41800000000E+01 0.  1.
         -5    1    3    3    0  502  0.21031809250E+02  0.11984900492E+02  0.62758874637E+02  0.67395278661E+02  0.41800000000E+01 0.  1.
        -11    1    1    2    0    0  0.83818114838E+02  0.73310935760E+02  0.18407173877E+03  0.21513338813E+03  0.00000000000E+00 0.  1.
         11    1    1    2    0    0  0.66781346621E+01 -0.15086610939E+02  0.98884652057E+02  0.10025157218E+03  0.00000000000E+00 0. -1.
</event>
<event>
 7    1  0.1538147E-010  0.1301183E+03  0.7561462E-02  0.1227280E+00
         -1   -1    0    0    0  501 -0.00000000000E+00  0.00000000000E+00  0.13736942060E+03  0.13736942060E+03  0.00000000000E+00 0.  1.
          1   -1    0    0  501    0  0.00000000000E+00 -0.00000000000E+00 -0.13116010490E+03  0.13116010490E+03  0.00000000000E+00 0. -1.
         25    2    1    2    0    0 -0.55849366317E+02 -0.54526654276E+02 -0.43871814478E+01  0.14753403381E+03  0.12511888757E+03 0.  0.
          5    1    3    3  502    0  0.35083522085E+02 -0.28532303354E+02  0.20233197031E+02  0.49717205459E+02  0.41800000000E+01 0.  1.
         -5    1    3    3    0  502 -0.90932888402E+02 -0.25994350922E+02 -0.24620378478E+02  0.97816828355E+02  0.41800000000E+01 0.  1.
        -11    1    1    2    0    0  0.80674834429E+02  0.50021936081E+02  0.12245019458E+02  0.95710832725E+02  0.00000000000E+00 0.  1.
         11    1    1    2    0    0 -0.24825468112E+02  0.45047181954E+01 -0.16485223037E+01  0.25284658962E+02  0.00000000000E+00 0. -1.
</event>
<event>
 7    1  0.1538147E-010  0.1161177E+03  0.7561462E-02  0.1249643E+00
         -3   -1    0    0    0  501 -0.00000000000E+00  0.00000000000E+00  0.14215197404E+03  0.14215197404E+03  0.00000000000E+00 0.  1.
          3   -1    0    0  501    0  0.00000000000E+00 -0.00000000000E+00 -0.26332464578E+03  0.26332464578E+03  0.00000000000E+00 0. -1.
         25    2    1    2    0    0 -0.67932490889E+02  0.14619068949E+02  0.87101702828E+02  0.16754758762E+03  0.12512772269E+03 0.  0.
          5    1    3    3  502    0  0.13201504536E+02 -0.40894755171E+02  0.38291801574E+02  0.57709576245E+02  0.41800000000E+01 0. -1.
         -5    1    3    3    0  502 -0.81133995425E+02  0.55513824121E+02  0.48809901253E+02  0.10983801137E+03  0.41800000000E+01 0. -1.
        -11    1    1    2    0    0  0.47132485098E+02  0.19253670449E+02 -0.39229914978E+02  0.64274109924E+02  0.00000000000E+00 0.  1.
         11    1    1    2    0    0  0.20800005791E+02 -0.33872739398E+02 -0.16904445959E+03  0.17365492228E+03  0.00000000000E+00 0. -1.
</event>
<event>
 7    1  0.1538147E-010  0.1174737E+03  0.7561462E-02  0.1247324E+00
         -1   -1    0    0    0  501 -0.00000000000E+00  0.00000000000E+00  0.71215333996E+02  0.71215333996E+02  0.00000000000E+00 0.  1.
          1   -1    0    0  501    0  0.00000000000E+00 -0.00000000000E+00 -0.21749071140E+03  0.21749071140E+03  0.00000000000E+00 0. -1.
         25    2    1    2    0    0  0.19108666889E+02  0.50980247384E+02 -0.55873020003E+02  0.14739373739E+03  0.12505595821E+03 0.  0.
          5    1    3    3  502    0  0.17208664230E+02  0.89908892337E+02 -0.19015418936E+02  0.93588490763E+02  0.41800000000E+01 0.  1.
         -5    1    3    3    0  502  0.19000026586E+01 -0.38928644954E+02 -0.36857601067E+02  0.53805246626E+02  0.41800000000E+01 0.  1.
        -11    1    1    2    0    0 -0.42561918112E-01 -0.74125537052E+02 -0.44419963049E+02  0.86416029601E+02  0.00000000000E+00 0. -1.
         11    1    1    2    0    0 -0.19066104970E+02  0.23145289668E+02 -0.45982394354E+02  0.54896278409E+02  0.00000000000E+00 0.  1.
</event>
<event>
 6    1  0.1538147E-010  0.1059219E+03  0.7561462E-02  0.1268314E+00
         -2   -1    0    0    0  501 -0.00000000000E+00  0.00000000000E+00  0.18814569137E+02  0.18814569137E+02  0.00000000000E+00 0.  1.
          2   -1    0    0  501    0  0.00000000000E+00 -0.00000000000E+00 -0.93669841179E+03  0.93669841179E+03  0.00000000000E+00 0. -1.
          5    1    1    2  502    0  0.25583253603E+02 -0.74100343815E+02 -0.20051136268E+03  0.21533147188E+03  0.41800000000E+01 0.  1.
         -5    1    1    2    0  502 -0.40666414505E+02  0.42870399565E+01 -0.40423448166E+03  0.40631899358E+03  0.41800000000E+01 0.  1.
        -11    1    1    2    0    0 -0.19664317847E+02  0.46235595087E+02 -0.26612620558E+03  0.27082757051E+03  0.00000000000E+00 0. -1.
         11    1    1    2    0    0  0.34747478749E+02  0.23577708772E+02 -0.47011792736E+02  0.63034944964E+02  0.00000000000E+00 0.  1.
</event>
<event>
 7    1  0.1538147E-010  0.2159368E+03  0.7561462E-02  0.1136949E+00
          2   -1    0    0  501    0  0.00000000000E+00  0.00000000000E+00  0.15457566994E+03  0.15457566994E+03  0.00000000000E+00 0. -1.
         -2   -1    0    0    0  501 -0.00000000000E+00 -0.00000000000E+00 -0.35783182100E+03  0.35783182100E+03  0.00000000000E+00 0.  1.
         25    2    1    2    0    0 -0.57776348166E+02  0.19407801524E+03 -0.52545703900E+02  0.24373319232E+03  0.12506172729E+03 0.  0.
          5    1    3    3  502    0 -0.72945912225E+02  0.14465254588E+03  0.10133613699E+02  0.16237496010E+03  0.41800000000E+01 0. -1.
         -5    1    3    3    0  502  0.15169564059E+02  0.49425469358E+02 -0.62679317599E+02  0.81358232219E+02  0.41800000000E+01 0. -1.
        -11    1    1    2    0    0  0.13128124010E+01 -0.13920293890E+03 -0.12124092430E+03  0.18460374698E+03  0.00000000000E+00 0.  1.
         11    1    1    2    0    0  0.56463535765E+02 -0.54875076345E+02 -0.29469522865E+02  0.84070551639E+02  0.00000000000E+00 0. -1.
</event>
<event>
 7    1  0.1538147E-010  0.1310547E+03  0.7561462E-02  0.1225899E+00
          1   -1    0    0  501    0  0.00000000000E+00  0.00000000000E+00  0.23612870524E+03  0.23612870524E+03  0.00000000000E+00 0. -1.
         -1   -1    0    0    0  501 -0.00000000000E+00 -0.00000000000E+00 -0.89749589432E+02  0.89749589432E+02  0.00000000000E+00 0.  1.
         25    2    1    2    0    0 -0.95817326224E+02 -0.17128892802E+02  0.82442409555E+02  0.17862994010E+03  0.12505017246E+03 0.  0.
          5    1    3    3  502    0 -0.64120148129E+02 -0.68669127117E+02  0.68636571454E+02  0.11642720368E+03  0.41800000000E+01 0. -1.
         -5    1    3    3    0  502 -0.31697178095E+02  0.51540234315E+02  0.13805838100E+02  0.62202736419E+02  0.41800000000E+01 0. -1.
        -11    1    1    2    0    0  0.20251590150E+02  0.24156172887E+02  0.64016453761E+02  0.71356526992E+02  0.00000000000E+00 0. -1.
         11    1    1    2    0    0  0.75565736073E+02 -0.70272800854E+01 -0.79747512399E-01  0.75891827580E+02  0.00000000000E+00 0.  1.
</event>
<event>
 6    1  0.1538147E-010  0.1264701E+03  0.7561462E-02  0.1232790E+00
         -2   -1    0    0    0  501 -0.00000000000E+00  0.00000000000E+00  0.37189894339E+02  0.37189894339E+02  0.00000000000E+00 0.  1.
          2   -1    0    0  501    0  0.00000000000E+00 -0.00000000000E+00 -0.67937606856E+03  0.67937606856E+03  0.00000000000E+00 0. -1.
          5    1    1    2  502    0 -0.34616515969E+01  0.21512936338E+02 -0.10504813207E+03  0.10736559930E+03  0.41800000000E+01 0. -1.
         -5    1    1    2    0  502 -0.23725369541E+02 -0.11027312567E+03 -0.92560285309E+02  0.14597237486E+03  0.41800000000E+01 0. -1.
        -11    1    1    2    0    0  0.51235693586E+02  0.46173998811E+02 -0.15644796853E+03  0.17097690289E+03  0.00000000000E+00 0.  1.
         11    1    1    2    0    0 -0.24048672448E+02  0.42586190525E+02 -0.28812978830E+03  0.29225108585E+03  0.00000000000E+00 0. -1.
</event>
<event>
 6    1  0.1538147E-010  0.7677896E+02  0.7561462E-02  0.1338449E+00
         -2   -1    0    0    0  501 -0.00000000000E+00  0.00000000000E+00  0.36195053180E+02  0.36195053180E+02  0.00000000000E+00 0.  1.
          2   -1    0    0  501    0  0.00000000000E+00 -0.00000000000E+00 -0.28780272230E+03  0.28780272230E+03  0.00000000000E+00 0. -1.
          5    1    1    2  502    0 -0.21137474085E+02  0.26748732556E+02 -0.15856580126E+03  0.16224325327E+03  0.41800000000E+01 0. -1.
         -5    1    1    2    0  502  0.11564671846E+02 -0.44201462619E+02 -0.77886795121E+01  0.46536511054E+02  0.41800000000E+01 0. -1.
        -11    1    1    2    0    0  0.35260864216E+02 -0.90681038732E+01 -0.23706682901E+02  0.43446126033E+02  0.00000000000E+00 0. -1.
         11    1    1    2    0    0 -0.25688061976E+02  0.26520833935E+02 -0.61546505449E+02  0.71771885120E+02  0.00000000000E+00 0.  1.
</event>
<event>
 6    1  0.1538147E-010  0.1083576E+03  0.7561462E-02  0.1263642E+00
          2   -1    0    0  501    0  0.00000000000E+00  0.00000000000E+00  0.95553651223E+03  0.95553651223E+03  0.00000000000E+00 0. -1.
         -2   -1    0    0    0  501 -0.00000000000E+00 -0.00000000000E+00 -0.14185282693E+02  0.14185282693E+02  0.00000000000E+00 0.  1.
          5    1    1    2  502    0 -0.30411010215E+02 -0.11477643926E+02  0.30703672994E+03  0.30878081511E+03  0.41800000000E+01 0. -1.
         -5    1    1    2    0  502  0.81783278830E+02  0.35321686044E+02  0.26697964307E+03  0.28148131095E+03  0.41800000000E+01 0. -1.
        -11    1    1    2    0    0 -0.17212741399E+02 -0.49261014596E+02  0.18490977418E+03  0.19213159712E+03  0.00000000000E+00 0.  1.
         11    1    1    2    0    0 -0.34159527215E+02  0.25416972478E+02  0.18242508235E+03  0.18732807174E+03  0.00000000000E+00 0. -1.
</event>
<event>
 6    1  0.1538147E-010  0.1134810E+03  0.7561462E-02  0.1254256E+00
         -1   -1    0    0    0  501 -0.00000000000E+00  0.00000000000E+00  0.18183820456E+02  0.18183820456E+02  0.00000000000E+00 0.  1.
          1   -1    0    0  501    0  0.00000000000E+00 -0.00000000000E+00 -0.10159883006E+04  0.10159883006E+04  0.00000000000E+00 0. -1.
          5    1    1    2  502    0 -0.68046282688E+02  0.77061608120E+02 -0.30514234435E+03  0.32202191036E+03  0.41800000000E+01 0. -1.
         -5    1    1    2    0  502  0.34720138291E+02 -0.15940276077E+01 -0.27033056784E+03  0.27258781564E+03  0.41800000000E+01 0. -1.
        -11    1    1    2    0    0  0.13685110690E+02 -0.30359719132E+01 -0.40350690540E+01  0.14587020337E+02  0.00000000000E+00 0.  1.
         11    1    1    2    0    0  0.19641033707E+02 -0.72431608599E+02 -0.41829649890E+03  0.42497537472E+03  0.00000000000E+00 0. -1.
</event>
<event>
 7    1  0.1538147E-010  0.1076739E+03  0.7561462E-02  0.1264939E+00
          2   -1    0    0  501    0  0.00000000000E+00  0.00000000000E+00  0.14804610511E+03  0.14804610511E+03  0.00000000000E+00 0. -1.
         -2   -1    0    0    0  501 -0.00000000000E+00 -0.00000000000E+00 -0.12085313231E+03  0.12085313231E+03  0.00000000000E+00 0.  1.
         25    2    1    2    0    0 -0.47817508889E+02  0.59455484779E+02  0.39671692181E+00  0.14649737055E+03  0.12505939936E+03 0.  0.
          5    1    3    3  502    0  0.13537816858E+02  0.14259291765E+02 -0.50775853676E+02  0.54610068700E+02  0.41800000000E+01 0.  1.
         -5    1    3    3    0  502 -0.61355325748E+02  0.45196193014E+02  0.51172570597E+02  0.91887301855E+02  0.41800000000E+01 0.  1.
        -11    1    1    2    0    0  0.32254829976E+02 -0.83935044175E+02  0.25042242171E+02  0.93341199855E+02  0.00000000000E+00 0. -1.
         11    1    1    2    0    0  0.15562678913E+02  0.24479559397E+02  0.17540137123E+01  0.29060667014E+02  0.00000000000E+00 0.  1.
</event>
<event>
 7    1  0.1538147E-010  0.5616138E+03  0.7561462E-02  0.9988410E-01
          2   -1    0    0  501    0  0.00000000000E+00  0.00000000000E+00  0.74768520575E+03  0.74768520575E+03  0.00000000000E+00 0.  1.
         -2   -1    0    0    0  501 -0.00000000000E+00 -0.00000000000E+00 -0.43190846802E+03  0.43190846802E+03  0.00000000000E+00 0. -1.
         25    2    1    2    0    0  0.55628281795E+03 -0.26815814516E+02  0.13344736936E+03  0.58618401462E+03  0.12503534362E+03 0.  0.
          5    1    3    3  502    0  0.31306112110E+03  0.35573741001E+02  0.37411075162E+02  0.31731658882E+03  0.41800000000E+01 0. -1.
         -5    1    3    3    0  502  0.24322169685E+03 -0.62389555517E+02  0.96036294195E+02  0.26886742580E+03  0.41800000000E+01 0. -1.
        -11    1    1    2    0    0 -0.44405140042E+03  0.24808512390E+02  0.10461193074E+03  0.45688156513E+03  0.00000000000E+00 0. -1.
         11    1    1    2    0    0 -0.11223141753E+03  0.20073021269E+01  0.77717437641E+02  0.13652809402E+03  0.00000000000E+00 0.  1.
</event>
<event>
 7    1  0.1538147E-010  0.1896092E+03  0.7561462E-02  0.1158814E+00
          2   -1    0    0  501    0  0.00000000000E+00  0.00000000000E+00  0.89824619366E+03  0.89824619366E+03  0.00000000000E+00 0. -1.
         -2   -1    0    0    0  501 -0.00000000000E+00 -0.00000000000E+00 -0.50098116672E+02  0.50098116672E+02  0.00000000000E+00 0.  1.
         25    2    1    2    0    0 -0.13822504109E+03 -0.11084128833E+03  0.54034506742E+03  0.58223937091E+03  0.12505174916E+03 0.  0.
          5    1    3    3  502    0 -0.15068597298E+02  0.13029236731E+02  0.78576113252E+01  0.21818297139E+02  0.41800000000E+01 0.  1.
         -5    1    3    3    0  502 -0.12315644379E+03 -0.12387052506E+03  0.53248745610E+03  0.56042107377E+03  0.41800000000E+01 0.  1.
        -11    1    1    2    0    0  0.10857069484E+03  0.56884666075E+02  0.26236823087E+03  0.28958686017E+03  0.00000000000E+00 0. -1.
         11    1    1    2    0    0  0.29654346252E+02  0.53956622259E+02  0.45434778697E+02  0.76518079252E+02  0.00000000000E+00 0.  1.
</event>
<event>
 7    1  0.1538147E-010  0.1243581E+03  0.7561462E-02  0.1236076E+00
         -3   -1    0    0    0  501 -0.00000000000E+00  0.00000000000E+00  0.14602805313E+03  0.14602805313E+03  0.00000000000E+00 0.  1.
          3   -1    0    0  501    0  0.00000000000E+00 -0.00000000000E+00 -0.11814330000E+03  0.11814330000E+03  0.00000000000E+00 0. -1.
         25    2    1    2    0    0 -0.71149547212E+02 -0.40805666198E+01  0.25952373178E+02  0.14630596240E+03  0.12511194934E+03 0.  0.
          5    1    3    3  502    0 -0.57851076257E+02  0.56993981448E+02  0.15957962334E+02  0.82868509744E+02  0.41800000000E+01 0. -1.
         -5    1    3    3    0  502 -0.13298470955E+02 -0.61074548068E+02  0.99944108437E+01  0.63437452656E+02  0.41800000000E+01 0. -1.
        -11    1    1    2    0    0  0.82421028230E+02  0.20411157746E+02  0.23951865618E+02  0.88224334067E+02  0.00000000000E+00 0.  1.
         11    1    1    2    0    0 -0.11271481018E+02 -0.16330591126E+02 -0.22019485670E+02  0.29641056662E+02  0.00000000000E+00 0. -1.
</event>
<event>
 7    1  0.1538147E-010  0.1096999E+03  0.7561462E-02  0.1261127E+00
         -1   -1    0    0    0  501 -0.00000000000E+00  0.00000000000E+00  0.22989257482E+03  0.22989257482E+03  0.00000000000E+00 0.  1.
          1   -1    0    0  501    0  0.00000000000E+00 -0.00000000000E+00 -0.88029070384E+02  0.88029070384E+02  0.00000000000E+00 0. -1.
         25    2    1    2    0    0  0.52968053662E+01  0.41481428577E+02  0.16564422983E+03  0.21172552957E+03  0.12506367951E+03 0.  0.
          5    1    3    3  502    0 -0.11053937872E+02 -0.40840985796E+02  0.29548708541E+02  0.51776193755E+02  0.41800000000E+01 0.  1.
         -5    1    3    3    0  502  0.16350743239E+02  0.82322414373E+02  0.13609552129E+03  0.15994933581E+03  0.41800000000E+01 0.  1.
        -11    1    1    2    0    0 -0.42893802404E+02 -0.10572351151E+02 -0.34865534669E+02  0.56278400841E+02  0.00000000000E+00 0. -1.
         11    1    1    2    0    0  0.37596997038E+02 -0.30909077427E+02  0.11084809276E+02  0.49917714795E+02  0.00000000000E+00 0.  1.
</event>
<event>
 7    1  0.1538147E-010  0.1727697E+03  0.7561462E-02  0.1174990E+00
          1   -1    0    0  501    0  0.00000000000E+00  0.00000000000E+00  0.22111757409E+04  0.22111757409E+04  0.00000000000E+00 0. -1.
         -1   -1    0    0    0  501 -0.00000000000E+00 -0.00000000000E+00 -0.34486494076E+02  0.34486494076E+02  0.00000000000E+00 0.  1.
         25    2    1    2    0    0  0.12057276898E+02 -0.15848992297E+03  0.19411329289E+04  0.19516451850E+04  0.12512971974E+03 0.  0.
          5    1    3    3  502    0 -0.18882177908E+02 -0.11580744295E+02  0.53608817515E+02  0.58155206098E+02  0.41800000000E+01 0. -1.
         -5    1    3    3    0  502  0.30939454806E+02 -0.14690917868E+03  0.18875241114E+04  0.18934899789E+04  0.41800000000E+01 0. -1.
        -11    1    1    2    0    0 -0.40286570066E+02  0.84394099270E+02  0.15470851636E+03  0.18077637222E+03  0.00000000000E+00 0.  1.
         11    1    1    2    0    0  0.28229293168E+02  0.74095823701E+02  0.80847801505E+02  0.11324067772E+03  0.00000000000E+00 0. -1.
</event>
<event>
 6    1  0.1538147E-010  0.2115754E+03  0.7561462E-02  0.1140324E+00
          1   -1    0    0  501    0  0.00000000000E+00  0.00000000000E+00  0.41450013031E+03  0.41450013031E+03  0.00000000000E+00 0. -1.
         -1   -1    0    0    0  501 -0.00000000000E+00 -0.00000000000E+00 -0.11475108716E+03  0.11475108716E+03  0.00000000000E+00 0.  1.
          5    1    1    2  502    0 -0.68117479632E+02 -0.12654007753E+03  0.13588772181E+03  0.19782650882E+03  0.41800000000E+01 0.  1.
         -5    1    1    2    0  502  0.53946985210E+02 -0.57239849347E+02  0.65559737225E+02  0.10248038403E+03  0.41800000000E+01 0.  1.
        -11    1    1    2    0    0 -0.25962627005E+02  0.22309715935E+02 -0.26447001811E+01  0.34333305479E+02  0.00000000000E+00 0.  1.
         11    1    1    2    0    0  0.40133121427E+02  0.16147021094E+03  0.10094628430E+03  0.19461101914E+03  0.00000000000E+00 0. -1.
</event>
<event>
 7    1  0.1538147E-010  0.1705929E+03  0.7561462E-02  0.1177231E+00
          2   -1    0    0  501    0  0.00000000000E+00  0.00000000000E+00  0.77436006181E+02  0.77436006181E+02  0.00000000000E+00 0. -1.
         -2   -1    0    0    0  501 -0.00000000000E+00 -0.00000000000E+00 -0.55512845581E+03  0.55512845581E+03  0.00000000000E+00 0.  1.
         25    2    1    2    0    0 -0.13165126463E+03  0.57846358435E+02 -0.11710064379E+03  0.22366904622E+03  0.12504808995E+03 0.  0.
          5    1    3    3  502    0 -0.29002341598E+02  0.30085263624E+02  0.22883600551E+02  0.47826671216E+02  0.41800000000E+01 0.  1.
         -5    1    3    3    0  502 -0.10264892303E+03  0.27761094811E+02 -0.13998424434E+03  0.17584237500E+03  0.41800000000E+01 0.  1.
        -11    1    1    2    0    0  0.39298352638E+02 -0.87379731222E+02 -0.17610770630E+03  0.20048317178E+03  0.00000000000E+00 0.  1.
         11    1    1    2    0    0  0.92352911991E+02  0.29533372787E+02 -0.18448409954E+03  0.20841224399E+03  0.00000000000E+00 0. -1.
</event>
<event>
 7    1  0.1538147E-010  0.7833902E+02  0.7561462E-02  0.1333832E+00
         -4   -1    0    0    0  501 -0.00000000000E+00  0.00000000000E+00  0.30280318404E+03  0.30280318404E+03  0.00000000000E+00 0. -1.
          4   -1    0    0  501    0  0.00000000000E+00 -0.00000000000E+00 -0.45967719606E+02  0.45967719606E+02  0.00000000000E+00 0.  1.
         25    2    1    2    0    0  0.20686309692E+02  0.17797060158E+02  0.10223139803E+03  0.16386356266E+03  0.12512133977E+03 0.  0.
          5    1    3    3  502    0  0.42318572948E+01  0.42543480785E+02  0.12104656764E+03  0.12844298467E+03  0.41800000000E+01 0. -1.
         -5    1    3    3    0  502  0.16454452398E+02 -0.24746420627E+02 -0.18815169611E+02  0.35420577988E+02  0.41800000000E+01 0. -1.
        -11    1    1    2    0    0 -0.21925459376E+00 -0.47575925572E+02  0.13637444023E+03  0.14443512286E+03  0.00000000000E+00 0. -1.
         11    1    1    2    0    0 -0.20467055099E+02  0.29778865414E+02  0.18229626170E+02  0.40472218126E+02  0.00000000000E+00 0.  1.
</event>
<event>
 7    1  0.1538147E-010  0.2362415E+03  0.7561462E-02  0.1122322E+00
          2   -1    0    0  501    0  0.00000000000E+00  0.00000000000E+00  0.11633381615E+04  0.11633381615E+04  0.00000000000E+00 0. -1.
         -2   -1    0    0    0  501 -0.00000000000E+00 -0.00000000000E+00 -0.56363799259E+02  0.56363799259E+02  0.00000000000E+00 0.  1.
         25    2    1    2    0    0  0.20993801286E+03  0.64032540021E+02  0.39446770614E+03  0.46843992608E+03  0.12512816524E+03 0.  0.
          5    1    3    3  502    0  0.82630924825E+02 -0.33411740996E+02  0.10757102859E+03  0.13976127062E+03  0.41800000000E+01 0.  1.
         -5    1    3    3    0  502  0.12730708804E+03  0.97444281017E+02  0.28689667755E+03  0.32867865547E+03  0.41800000000E+01 0.  1.
        -11    1    1    2    0    0 -0.10213315827E+03 -0.51400022725E+02  0.23195338080E+03  0.25860300698E+03  0.00000000000E+00 0.  1.
         11    1    1    2    0    0 -0.10780485459E+03 -0.12632517296E+02  0.48055327532E+03  0.49265902771E+03  0.00000000000E+00 0. -1.
</event>
<event>
 7    1  0.1538147E-010  0.1128798E+03  0.7561462E-02  0.1255328E+00
         -2   -1    0    0    0  501 -0.00000000000E+00  0.00000000000E+00  0.51119192837E+03  0.51119192837E+03  0.00000000000E+00 0.  1.
          2   -1    0    0  501    0  0.00000000000E+00 -0.00000000000E+00 -0.30047178775E+02  0.30047178775E+02  0.00000000000E+00 0. -1.
         25    2    1    2    0    0  0.34393551528E+02  0.22131663741E+02  0.36105421155E+03  0.38429874834E+03  0.12511058058E+03 0.  0.
          5    1    3    3  502    0  0.56873739748E+02  0.62880790293E+02  0.23526284353E+03  0.25010936409E+03  0.41800000000E+01 0.  1.
         -5    1    3    3    0  502 -0.22480188220E+02 -0.40749126552E+02  0.12579136802E+03  0.13418938425E+03  0.41800000000E+01 0.  1.
        -11    1    1    2    0    0  0.22626417582E+02  0.14031591524E+02  0.11350738434E+02  0.28942695042E+02  0.00000000000E+00 0.  1.
         11    1    1    2    0    0 -0.57019969110E+02 -0.36163255265E+02  0.10873979961E+03  0.12799766376E+03  0.00000000000E+00 0. -1.
</event>
<event>
 6    1  0.1538147E-010  0.9533667E+02  0.7561462E-02  0.1290420E+00
          1   -1    0    0  501    0  0.00000000000E+00  0.00000000000E+00  0.32015605340E+03  0.32015605340E+03  0.00000000000E+00 0. -1.
         -1   -1    0    0    0  501 -0.00000000000E+00 -0.00000000000E+00 -0.41095261807E+02  0.41095261807E+02  0.00000000000E+00 0.  1.
          5    1    1    2  502    0 -0.41370377886E+02  0.26888737900E+02  0.12153518793E+03  0.13123561520E+03  0.41800000000E+01 0. -1.
         -5    1    1    2    0  502  0.63117585395E+02 -0.33054958662E+02  0.85698428317E+02  0.11152646724E+03  0.41800000000E+01 0. -1.
        -11    1    1    2    0    0  0.80708817286E+01  0.30341774978E+02 -0.57639743598E+01  0.31921557623E+02  0.00000000000E+00 0.  1.
         11    1    1    2    0    0 -0.29818089238E+02 -0.24175554215E+02  0.77591149707E+02  0.86567675147E+02  0.00000000000E+00 0. -1.
</event>
<event>
 7    1  0.2028055E-010  0.1158594E+03  0.7561462E-02  0.1250088E+00
          2   -1    0    0  501    0  0.00000000000E+00  0.00000000000E+00  0.13096908147E+04  0.13096908147E+04  0.00000000000E+00 0. -1.
         -2   -1    0    0    0  501 -0.00000000000E+00 -0.00000000000E+00 -0.11134935027E+02  0.11134935027E+02  0.00000000000E+00 0.  1.
         25    2    1    2    0    0 -0.44534926379E+02 -0.17947535610E+02  0.84958208446E+03  0.86007925025E+03  0.12506448250E+03 0.  0.
          5    1    3    3  502    0 -0.81879234546E+02 -0.33905514323E+02  0.46934694585E+03  0.47765868665E+03  0.41800000000E+01 0.  1.
         -5    1    3    3    0  502  0.37344308167E+02  0.15957978713E+02  0.38023513860E+03  0.38242056360E+03  0.41800000000E+01 0.  1.
        -11    1    1    2    0    0  0.17213276647E+02 -0.36999805837E+02  0.14457591767E+03  0.15022475993E+03  0.00000000000E+00 0. -1.
         11    1    1    2    0    0  0.27321649732E+02  0.54947341447E+02  0.30439787753E+03  0.31052173953E+03  0.00000000000E+00 0.  1.
</event>
<event>
 6    1  0.1538147E-010  0.1657737E+03  0.7561462E-02  0.1182328E+00
          2   -1    0    0  501    0  0.00000000000E+00  0.00000000000E+00  0.71050793463E+03  0.71050793463E+03  0.00000000000E+00 0. -1.
         -2   -1    0    0    0  501 -0.00000000000E+00 -0.00000000000E+00 -0.48271706116E+02  0.48271706116E+02  0.00000000000E+00 0.  1.
          5    1    1    2  502    0  0.39480190597E+02 -0.34688486045E+02  0.27621608507E+03  0.28120237297E+03  0.41800000000E+01 0. -1.
         -5    1    1    2    0  502  0.58295370809E+01 -0.10703135522E+03  0.12450166480E+03  0.16434059584E+03  0.41800000000E+01 0. -1.
        -11    1    1    2    0    0  0.18374378152E+02  0.82738579803E+02  0.14478924924E+03  0.16777132370E+03  0.00000000000E+00 0.  1.
         11    1    1    2    0    0 -0.63684105830E+02  0.58981261465E+02  0.11672922940E+03  0.14546534823E+03  0.00000000000E+00 0. -1.
</event>
<event>
 6    1  0.1538147E-010  0.8898084E+02  0.7561462E-02  0.1305339E+00
         -1   -1    0    0    0  501 -0.00000000000E+00  0.00000000000E+00  0.18724648529E+03  0.18724648529E+03  0.00000000000E+00 0.  1.
          1   -1    0    0  501    0  0.00000000000E+00 -0.00000000000E+00 -0.95148029295E+02  0.95148029295E+02  0.00000000000E+00 0. -1.
          5    1    1    2  502    0 -0.31845647136E+02  0.51734585845E+02  0.26235997878E+02  0.66305449239E+02  0.41800000000E+01 0.  1.
         -5    1    1    2    0  502  0.40729905894E+02 -0.16851716003E+02 -0.48525532296E+02  0.65689460730E+02  0.41800000000E+01 0.  1.
        -11    1    1    2    0    0 -0.19183632382E+02  0.13414237202E+02 -0.24673022428E+01  0.23538077480E+02  0.00000000000E+00 0. -1.
         11    1    1    2    0    0  0.10299373624E+02 -0.48297107044E+02  0.11685529266E+03  0.12686152714E+03  0.00000000000E+00 0.  1.
</event>
<event>
 7    1  0.1538147E-010  0.2186309E+03  0.7561462E-02  0.1134908E+00
          2   -1    0    0  501    0  0.00000000000E+00  0.00000000000E+00  0.39166922768E+03  0.39166922768E+03  0.00000000000E+00 0. -1.
         -2   -1    0    0    0  501 -0.00000000000E+00 -0.00000000000E+00 -0.15545734217E+03  0.15545734217E+03  0.00000000000E+00 0.  1.
         25    2    1    2    0    0 -0.10875727154E+03 -0.16952804962E+03  0.20135950773E+02  0.23792138359E+03  0.12503289381E+03 0.  0.
          5    1    3    3  502    0 -0.22950721217E+02  0.32205090438E+01 -0.30426170954E+02  0.38475077151E+02  0.41800000000E+01 0.  1.
         -5    1    3    3    0  502 -0.85806550319E+02 -0.17274855866E+03  0.50562121727E+02  0.19944630643E+03  0.41800000000E+01 0.  1.
        -11    1    1    2    0    0  0.12060338642E+03  0.12104217660E+03  0.15928470759E+03  0.23359795248E+03  0.00000000000E+00 0. -1.
         11    1    1    2    0    0 -0.11846114884E+02  0.48485873012E+02  0.56791227143E+02  0.75607233781E+02  0.00000000000E+00 0.  1.
</event>
<event>
 7    1  0.1538147E-010  0.8455734E+02  0.7561462E-02  0.1316594E+00
          1   -1    0    0  501    0  0.00000000000E+00  0.00000000000E+00  0.23969297123E+03  0.23969297123E+03  0.00000000000E+00 0. -1.
         -1   -1    0    0    0  501 -0.00000000000E+00 -0.00000000000E+00 -0.60186781070E+02  0.60186781070E+02  0.00000000000E+00 0.  1.
         25    2    1    2    0    0 -0.11698134681E+02  0.45650748292E+02  0.72157346745E+02  0.15186982028E+03  0.12504768069E+03 0.  0.
          5    1    3    3  502    0  0.20606329190E+02  0.15505395470E+02  0.97378343820E+02  0.10082188421E+03  0.41800000000E+01 0. -1.
         -5    1    3    3    0  502 -0.32304463871E+02  0.30145352821E+02 -0.25220997076E+02  0.51047936062E+02  0.41800000000E+01 0. -1.
        -11    1    1    2    0    0  0.43854788747E+02 -0.13620931929E+01  0.29592614448E+02  0.52922779820E+02  0.00000000000E+00 0.  1.
         11    1    1    2    0    0 -0.32156654066E+02 -0.44288655099E+02  0.77756228964E+02  0.95087152202E+02  0.00000000000E+00 0. -1.
</event>
<event>
 6    1  0.1538147E-010  0.1349226E+03  0.7561462E-02  0.1220329E+00
         -1   -1    0    0    0  501 -0.00000000000E+00  0.00000000000E+00  0.25748269514E+03  0.25748269514E+03  0.00000000000E+00 0.  1.
          1   -1    0    0  501    0  0.00000000000E+00 -0.00000000000E+00 -0.81565741514E+02  0.81565741514E+02  0.00000000000E+00 0. -1.
          5    1    1    2  502    0 -0.24131936975E+02 -0.11862043534E+02  0.39558188136E+01  0.27498715632E+02  0.41800000000E+01 0.  1.
         -5    1    1    2    0  502  0.11131875428E+03  0.47236963309E+02  0.14048839398E+03  0.18541212743E+03  0.41800000000E+01 0.  1.
        -11    1    1    2    0    0 -0.98098989058E+02 -0.15997039601E+02  0.21152677253E+02  0.10162063120E+03  0.00000000000E+00 0.  1.
         11    1    1    2    0    0  0.10912171753E+02 -0.19377880173E+02  0.10320063578E+02  0.24516962386E+02  0.00000000000E+00 0. -1.
</event>
<event>
 6    1  0.1538147E-010  0.1769836E+03  0.7561462E-02  0.1170755E+00
          2   -1    0    0  501    0  0.00000000000E+00  0.00000000000E+00  0.49271713423E+03  0.49271713423E+03  0.00000000000E+00 0. -1.
         -2   -1    0    0    0  501 -0.00000000000E+00 -0.00000000000E+00 -0.69352481182E+02  0.69352481182E+02  0.00000000000E+00 0.  1.
          5    1    1    2  502    0 -0.47630158696E+02  0.15096138379E+03  0.25971107117E+03  0.30417969081E+03  0.41800000000E+01 0. -1.
         -5    1    1    2    0  502  0.27507616599E+02 -0.91187616007E+01  0.25984421069E+02  0.39146945250E+02  0.41800000000E+01 0. -1.
        -11    1    1    2    0    0 -0.30303309377E+02 -0.85558269073E+02  0.97315066923E+02  0.13307415307E+03  0.00000000000E+00 0. -1.
         11    1    1    2    0    0  0.50425851473E+02 -0.56284353117E+02  0.40354093886E+02  0.85668826278E+02  0.00000000000E+00 0.  1.
</event>
<event>
 6    1  0.1538147E-010  0.1915209E+03  0.7561462E-02  0.1157097E+00
          2   -1    0    0  501    0  0.00000000000E+00  0.00000000000E+00  0.11418957647E+04  0.11418957647E+04  0.00000000000E+00 0. -1.
         -2   -1    0    0    0  501 -0.00000000000E+00 -0.00000000000E+00 -0.44558734804E+02  0.44558734804E+02  0.00000000000E+00 0.  1.
          5    1    1    2  502    0 -0.17463821480E+03  0.18639374747E+02  0.77171767243E+03  0.79146166723E+03  0.41800000000E+01 0. -1.
         -5    1    1    2    0  502  0.17024219846E+02 -0.18462285029E+02  0.10972207793E+03  0.11263696913E+03  0.41800000000E+01 0. -1.
        -11    1    1    2    0    0  0.40957385845E+02 -0.41343399808E+02  0.72679892728E+02  0.93108275518E+02  0.00000000000E+00 0.  1.
         11    1    1    2    0    0  0.11665660911E+03  0.41166310089E+02  0.14321738679E+03  0.18924758760E+03  0.00000000000E+00 0. -1.
</event>
<event>
 7    1  0.1538147E-010  0.3465501E+03  0.7561462E-02  0.1064040E+00
          1   -1    0    0  501    0  0.00000000000E+00  0.00000000000E+00  0.66121286989E+02  0.66121286989E+02  0.00000000000E+00 0. -1.
         -1   -1    0    0    0  501 -0.00000000000E+00 -0.00000000000E+00 -0.20807744316E+04  0.20807744316E+04  0.00000000000E+00 0.  1.
         25    2    1    2    0    0  0.31858868809E+03 -0.13074281121E+03 -0.12549690768E+04  0.13073625957E+04  0.12512848636E+03 0.  0.
          5    1    3    3  502    0  0.20485686019E+03 -0.57069992346E+02 -0.95155319838E+03  0.97503552701E+03  0.41800000000E+01 0. -1.
         -5    1    3    3    0  502  0.11373182790E+03 -0.73672818868E+02 -0.30341587844E+03  0.33232706873E+03  0.41800000000E+01 0. -1.
        -11    1    1    2    0    0 -0.26366331851E+03  0.11531253173E+03 -0.53240397349E+03  0.60520188077E+03  0.00000000000E+00 0. -1.
         11    1    1    2    0    0 -0.54925369583E+02  0.15430279487E+02 -0.22728009432E+03  0.23433124210E+03  0.00000000000E+00 0.  1.
</event>
<event>
 7    1  0.1538147E-010  0.2122085E+03  0.7561462E-02  0.1139829E+00
         -1   -1    0    0    0  501 -0.00000000000E+00  0.00000000000E+00  0.74795609956E+02  0.74795609956E+02  0.00000000000E+00 0.  1.
          1   -1    0    0  501    0  0.00000000000E+00 -0.00000000000E+00 -0.71889570615E+03  0.71889570615E+03  0.00000000000E+00 0. -1.
         25    2    1    2    0    0 -0.94842781328E+02 -0.17072870266E+03 -0.22779680998E+03  0.32509982278E+03  0.12512020241E+03 0.  0.
          5    1    3    3  502    0 -0.38333288272E+02 -0.14295766690E+03 -0.89316933085E+02  0.17291998858E+03  0.41800000000E+01 0.  1.
         -5    1    3    3    0  502 -0.56509493056E+02 -0.27771035766E+02 -0.13847987689E+03  0.15217983420E+03  0.41800000000E+01 0.  1.
        -11    1    1    2    0    0 -0.72091664284E+01  0.68221120054E+02 -0.16393486561E+03  0.17770968872E+03  0.00000000000E+00 0. -1.
         11    1    1    2    0    0  0.10205194776E+03  0.10250758261E+03 -0.25236842061E+03  0.29088180461E+03  0.00000000000E+00 0.  1.
</event>
<event>
 6    1  0.1538147E-010  0.1154628E+03  0.7561462E-02  0.1250775E+00
          3   -1    0    0  501    0  0.00000000000E+00  0.00000000000E+00  0.76408608291E+03  0.76408608291E+03  0.00000000000E+00 0. -1.
         -3   -1    0    0    0  501 -0.00000000000E+00 -0.00000000000E+00 -0.23999697141E+02  0.23999697141E+02  0.00000000000E+00 0.  1.
          5    1    1    2  502    0  0.46198320792E+02 -0.71222889609E+02  0.15653580850E+03  0.17812331849E+03  0.41800000000E+01 0. -1.
         -5    1    1    2    0  502 -0.36631522191E+02  0.27634411379E+02  0.54006316151E+02  0.70990729637E+02  0.41800000000E+01 0. -1.
        -11    1    1    2    0    0  0.38721541620E+02  0.31901423446E+02  0.29327848943E+03  0.29753878901E+03  0.00000000000E+00 0.  1.
         11    1    1    2    0    0 -0.48288340221E+02  0.11687054784E+02  0.23626577169E+03  0.24143294291E+03  0.00000000000E+00 0. -1.
</event>
<event>
 6    1  0.1538147E-010  0.1445235E+03  0.7561462E-02  0.1207369E+00
         -2   -1    0    0    0  501 -0.00000000000E+00  0.00000000000E+00  0.38868678312E+03  0.38868678312E+03  0.00000000000E+00 0.  1.
          2   -1    0    0  501    0  0.00000000000E+00 -0.00000000000E+00 -0.67933663281E+02  0.67933663281E+02  0.00000000000E+00 0. -1.
          5    1    1    2  502    0 -0.93447363807E+02 -0.37390790266E+02  0.52361701436E+02  0.11353281982E+03  0.41800000000E+01 0.  1.
         -5    1    1    2    0  502  0.37336175572E+02 -0.46797103043E+02  0.27286785538E+02  0.65924198323E+02  0.41800000000E+01 0.  1.
        -11    1    1    2    0    0 -0.69566105297E+01  0.60546479070E+02  0.16304283033E+03  0.17406100964E+03  0.00000000000E+00 0.  1.
         11    1    1    2    0    0  0.63067798764E+02  0.23641414238E+02  0.78061802536E+02  0.10310241861E+03  0.00000000000E+00 0. -1.
</event>
<event>
 7    1  0.1538147E-010  0.8860785E+02  0.7561462E-02  0.1306258E+00
          1   -1    0    0  501    0  0.00000000000E+00  0.00000000000E+00  0.15182791271E+03  0.15182791271E+03  0.00000000000E+00 0. -1.
         -1   -1    0    0    0  501 -0.00000000000E+00 -0.00000000000E+00 -0.84620878886E+02  0.84620878886E+02  0.00000000000E+00 0.  1.
         25    2    1    2    0    0 -0.20500599317E+02 -0.25896644570E+02  0.41937698667E+02  0.13603878751E+03  0.12512741653E+03 0.  0.
          5    1    3    3  502    0  0.13052831580E+02 -0.42701991446E+02 -0.30579016623E+02  0.54280614803E+02  0.41800000000E+01 0.  1.
         -5    1    3    3    0  502 -0.33553430897E+02  0.16805346876E+02  0.72516715291E+02  0.81758172711E+02  0.41800000000E+01 0.  1.
        -11    1    1    2    0    0  0.40027705527E+02 -0.19989186987E+02  0.53411382589E+00  0.44744497804E+02  0.00000000000E+00 0.  1.
         11    1    1    2    0    0 -0.19527106210E+02  0.45885831557E+02  0.24735221327E+02  0.55665506273E+02  0.00000000000E+00 0. -1.
</event>
<event>
 7    1  0.1538147E-010  0.1950138E+03  0.7561462E-02  0.1154015E+00
          1   -1    0    0  501    0  0.00000000000E+00  0.00000000000E+00  0.74321667983E+03  0.74321667983E+03  0.00000000000E+00 0. -1.
         -1   -1    0    0    0  501 -0.00000000000E+00 -0.00000000000E+00 -0.70530503105E+02  0.70530503105E+02  0.00000000000E+00 0.  1.
         25    2    1    2    0    0  0.14479384930E+02  0.16403752784E+03  0.55004226220E+03  0.58763984965E+03  0.12512449625E+03 0.  0.
          5    1    3    3  502    0 -0.50573098553E+02  0.76081428241E+02  0.18238616341E+03  0.20402991698E+03  0.41800000000E+01 0.  1.
         -5    1    3    3    0  502  0.65052483483E+02  0.87956099602E+02  0.36765609879E+03  0.38360993267E+03  0.41800000000E+01 0.  1.
        -11    1    1    2    0    0 -0.52576004604E+02 -0.69304341652E+02  0.45762611553E+02  0.98293156669E+02  0.00000000000E+00 0. -1.
         11    1    1    2    0    0  0.38096619674E+02 -0.94733186190E+02  0.76881302968E+02  0.12781417661E+03  0.00000000000E+00 0.  1.
</event>
<event>
 7    1  0.1538147E-010  0.8538901E+02  0.7561462E-02  0.1314418E+00
         -1   -1    0    0    0  501 -0.00000000000E+00  0.00000000000E+00  0.56623103302E+03  0.56623103302E+03  0.00000000000E+00 0.  1.
          1   -1    0    0  501    0  0.00000000000E+00 -0.00000000000E+00 -0.24775409102E+02  0.24775409102E+02  0.00000000000E+00 0. -1.
         25    2    1    2    0    0  0.12532814888E+02 -0.22002549816E+02  0.42253974079E+03  0.44140139997E+03  0.12511666438E+03 0.  0.
          5    1    3    3  502    0 -0.30249053695E+02  0.18783165960E+02  0.32712710231E+03  0.32908574268E+03  0.41800000000E+01 0. -1.
         -5    1    3    3    0  502  0.42781868583E+02 -0.40785715776E+02  0.95412638477E+02  0.11231565729E+03  0.41800000000E+01 0. -1.
        -11    1    1    2    0    0  0.29325126806E+02  0.15938316602E+02  0.95708842906E+02  0.10136160816E+03  0.00000000000E+00 0.  1.
         11    1    1    2    0    0 -0.41857941694E+02  0.60642332137E+01  0.23207040230E+02  0.48243433995E+02  0.00000000000E+00 0. -1.
</event>
<event>
 6    1  0.1538147E-010  0.2829682E+03  0.7561462E-02  0.1094079E+00
          2   -1    0    0  501    0  0.00000000000E+00  0.00000000000E+00  0.20714156671E+04  0.20714156671E+04  0.00000000000E+00 0. -1.
         -2   -1    0    0    0  501 -0.00000000000E+00 -0.00000000000E+00 -0.49373644117E+02  0.49373644117E+02  0.00000000000E+00 0.  1.
          5    1    1    2  502    0  0.11282773894E+02  0.11503157031E+01  0.19017858159E+03  0.19056229823E+03  0.41800000000E+01 0.  1.
         -5    1    1    2    0  502 -0.17343943004E+03  0.21469826009E+03  0.12765366591E+04  0.13060397748E+04  0.41800000000E+01 0.  1.
        -11    1    1    2    0    0  0.40385030181E+02 -0.10744468532E+03  0.16324126590E+03  0.19955706442E+03  0.00000000000E+00 0.  1.
         11    1    1    2    0    0  0.12177162596E+03 -0.10840389047E+03  0.39208551639E+03  0.42463017383E+03  0.00000000000E+00 0. -1.
</event>
<event>
 7    1  0.1538147E-010  0.2078234E+03  0.7561462E-02  0.1143301E+00
         -2   -1    0    0    0  501 -0.00000000000E+00  0.00000000000E+00  0.73443069150E+02  0.73443069150E+02  0.00000000000E+00 0.  1.
          2   -1    0    0  501    0  0.00000000000E+00 -0.00000000000E+00 -0.70342533063E+03  0.70342533063E+03  0.00000000000E+00 0. -1.
         25    2    1    2    0    0 -0.17468573045E+03 -0.60272260858E+02 -0.45452993690E+03  0.50634153609E+03  0.12504574276E+03 0.  0.
          5    1    3    3  502    0  0.24468924650E+01  0.23560744892E+02 -0.27901274546E+02  0.36838152830E+02  0.41800000000E+01 0.  1.
         -5    1    3    3    0  502 -0.17713262292E+03 -0.83833005750E+02 -0.42662866235E+03  0.46950338326E+03  0.41800000000E+01 0.  1.
        -11    1    1    2    0    0  0.85653843719E+02  0.63284728993E+02 -0.52607511085E+02  0.11878168247E+03  0.00000000000E+00 0.  1.
         11    1    1    2    0    0  0.89031886735E+02 -0.30124681356E+01 -0.12284481350E+03  0.15174518122E+03  0.00000000000E+00 0. -1.
</event>
<event>
 6    1  0.1538147E-010  0.1133142E+03  0.7561462E-02  0.1254553E+00
         -2   -1    0    0    0  501 -0.00000000000E+00  0.00000000000E+00  0.22981257616E+02  0.22981257616E+02  0.00000000000E+00 0.  1.
          2   -1    0    0  501    0  0.00000000000E+00 -0.00000000000E+00 -0.76790818458E+03  0.76790818458E+03  0.00000000000E+00 0. -1.
          5    1    1    2  502    0  0.50970185117E+02 -0.71013773941E+02 -0.18208387020E+03  0.20202208802E+03  0.41800000000E+01 0. -1.
         -5    1    1    2    0  502 -0.39055177064E+01  0.20772581349E+02 -0.30039528755E+03  0.30116698754E+03  0.41800000000E+01 0. -1.
        -11    1    1    2    0    0 -0.98034487217E+01 -0.28672419644E+02 -0.76893301625E+02  0.82648624247E+02  0.00000000000E+00 0. -1.
         11    1    1    2    0    0 -0.37261218689E+02  0.78913612236E+02 -0.18555446759E+03  0.20505174239E+03  0.00000000000E+00 0.  1.
</event>
<event>
 7    1  0.1538147E-010  0.8196069E+02  0.7561462E-02  0.1323578E+00
         -3   -1    0    0    0  501 -0.00000000000E+00  0.00000000000E+00  0.38723087320E+03  0.38723087320E+03  0.00000000000E+00 0.  1.
          3   -1    0    0  501    0  0.00000000000E+00 -0.00000000000E+00 -0.39101359397E+02  0.39101359397E+02  0.00000000000E+00 0. -1.
         25    2    1    2    0    0 -0.19215459441E+02 -0.22661910600E+02  0.16741297382E+03  0.21107321893E+03  0.12506799701E+03 0.  0.
          5    1    3    3  502    0  0.14993437912E+02 -0.18972197270E+02 -0.12716597158E+02  0.27639314264E+02  0.41800000000E+01 0. -1.
         -5    1    3    3    0  502 -0.34208897353E+02 -0.36897133297E+01  0.18012957098E+03  0.18343390467E+03  0.41800000000E+01 0. -1.
        -11    1    1    2    0    0  0.23392125119E+02  0.61427636020E+02  0.62206007795E+02  0.90499355746E+02  0.00000000000E+00 0. -1.
         11    1    1    2    0    0 -0.41766656778E+01 -0.38765725420E+02  0.11851053219E+03  0.12475965792E+03  0.00000000000E+00 0.  1.
</event>
<event>
 7    1  0.1538147E-010  0.1295547E+03  0.7561462E-02  0.1228118E+00
         -1   -1    0    0    0  501 -0.00000000000E+00  0.00000000000E+00  0.15964781783E+03  0.15964781783E+03  0.00000000000E+00 0.  1.
          1   -1    0    0  501    0  0.00000000000E+00 -0.00000000000E+00 -0.12511311601E+03  0.12511311601E+03  0.00000000000E+00 0. -1.
         25    2    1    2    0    0 -0.76421054218E+02  0.18882677311E+02  0.68930717742E+02  0.16306565154E+03  0.12506890034E+03 0.  0.
          5    1    3    3  502    0  0.19569135737E+02  0.43775622567E+02  0.28158924549E+02  0.55764268456E+02  0.41800000000E+01 0.  1.
         -5    1    3    3    0  502 -0.95990189955E+02 -0.24892945256E+02  0.40771793193E+02  0.10730138308E+03  0.41800000000E+01 0.  1.
        -11    1    1    2    0    0  0.37815344169E+02 -0.49612237248E+02 -0.36560256664E+02  0.72305094611E+02  0.00000000000E+00 0. -1.
         11    1    1    2    0    0  0.38605710049E+02  0.30729559936E+02  0.21642407343E+01  0.49390187692E+02  0.00000000000E+00 0.  1.
</event>
<event>
 6    1  0.1538147E-010  0.2299427E+03  0.7561462E-02  0.1126680E+00
          2   -1    0    0  501    0  0.00000000000E+00  0.00000000000E+00  0.36636079034E+03  0.36636079034E+03  0.00000000000E+00 0. -1.
         -2   -1    0    0    0  501 -0.00000000000E+00 -0.00000000000E+00 -0.24869653111E+03  0.24869653111E+03  0.00000000000E+00 0.  1.
          5    1    1    2  502    0 -0.10837183323E+03  0.48748812599E+02  0.74959760642E+01  0.11914093765E+03  0.41800000000E+01 0. -1.
         -5    1    1    2    0  502 -0.10501392520E+03  0.23657309177E+02 -0.12221987489E+03  0.16291949847E+03  0.41800000000E+01 0. -1.
        -11    1    1    2    0    0  0.30247774651E+02  0.10776170049E+02  0.11152084887E+02  0.33991509375E+02  0.00000000000E+00 0.  1.
         11    1    1    2    0    0  0.18313798378E+03 -0.83182291824E+02  0.22123607317E+03  0.29900537595E+03  0.00000000000E+00 0. -1.
</event>
<event>
 7    1  0.1538147E-010  0.1015504E+03  0.7561462E-02  0.1277069E+00
          2   -1    0    0  501    0  0.00000000000E+00  0.00000000000E+00  0.77802149212E+03  0.77802149212E+03  0.00000000000E+00 0. -1.
         -2   -1    0    0    0  501 -0.00000000000E+00 -0.00000000000E+00 -0.16611086094E+02  0.16611086094E+02  0.00000000000E+00 0.  1.
         25    2    1    2    0    0  0.24426148620E+02  0.23241061454E+02  0.41105428093E+03  0.43099777040E+03  0.12512662602E+03 0.  0.
          5    1    3    3  502    0  0.33728993439E+02  0.59363416698E+02  0.12500972499E+03  0.14250110169E+03  0.41800000000E+01 0. -1.
         -5    1    3    3    0  502 -0.93028448195E+01 -0.36122355243E+02  0.28604455595E+03  0.28849666871E+03  0.41800000000E+01 0. -1.
        -11    1    1    2    0    0  0.20855996070E+02 -0.42973658316E+02  0.18412258527E+03  0.19021786006E+03  0.00000000000E+00 0.  1.
         11    1    1    2    0    0 -0.45282144689E+02  0.19732596862E+02  0.16623353983E+03  0.17341694776E+03  0.00000000000E+00 0. -1.
</event>
<event>
 7    1  0.1538147E-010  0.1115953E+03  0.7561462E-02  0.1257644E+00
         -2   -1    0    0    0  501 -0.00000000000E+00  0.00000000000E+00  0.10468632801E+03  0.10468632801E+03  0.00000000000E+00 0. -1.
          2   -1    0    0  501    0  0.00000000000E+00 -0.00000000000E+00 -0.15323139425E+03  0.15323139425E+03  0.00000000000E+00 0.  1.
         25    2    1    2    0    0 -0.71888597548E+01  0.26897027342E+02  0.33000168002E+02  0.13235121696E+03  0.12511076595E+03 0.  0.
          5    1    3    3  502    0  0.55438974241E+02 -0.82928241746E+01  0.14204445388E+02  0.57978353430E+02  0.41800000000E+01 0. -1.
         -5    1    3    3    0  502 -0.62627833995E+02  0.35189851516E+02  0.18795722614E+02  0.74372863527E+02  0.41800000000E+01 0. -1.
        -11    1    1    2    0    0  0.38565672790E+02  0.16100712259E+02 -0.29774218777E+02  0.51313235688E+02  0.00000000000E+00 0.  1.
         11    1    1    2    0    0 -0.31376813035E+02 -0.42997739600E+02 -0.51771015463E+02  0.74253269618E+02  0.00000000000E+00 0. -1.
</event>
<event>
 7    1  0.1538147E-010  0.1185221E+03  0.7561462E-02  0.1245555E+00
          2   -1    0    0  501    0  0.00000000000E+00  0.00000000000E+00  0.23505362378E+04  0.23505362378E+04  0.00000000000E+00 0. -1.
         -2   -1    0    0    0  501 -0.00000000000E+00 -0.00000000000E+00 -0.99024558471E+01  0.99024558471E+01  0.00000000000E+00 0.  1.
         25    2    1    2    0    0 -0.73691305392E+02 -0.10103315814E+02  0.18451998683E+04  0.18509316039E+04  0.12511100145E+03 0.  0.
          5    1    3    3  502    0  0.19683623907E+02  0.10870290534E+02  0.81951582656E+02  0.85083150895E+02  0.41800000000E+01 0.  1.
         -5    1    3    3    0  502 -0.93374929299E+02 -0.20973606348E+02  0.17632482856E+04  0.17658484530E+04  0.41800000000E+01 0.  1.
        -11    1    1    2    0    0  0.88843777475E+02 -0.13970069041E+02  0.39602291300E+03  0.40610654667E+03  0.00000000000E+00 0. -1.
         11    1    1    2    0    0 -0.15152472082E+02  0.24073384855E+02  0.99411000693E+02  0.10340054317E+03  0.00000000000E+00 0.  1.
</event>
<event>
 7    1  0.1538147E-010  0.2194936E+03  0.7561462E-02  0.1134261E+00
         -1   -1    0    0    0  501 -0.00000000000E+00  0.00000000000E+00  0.78438251987E+02  0.78438251987E+02  0.00000000000E+00 0.  1.
          1   -1    0    0  501    0  0.00000000000E+00 -0.00000000000E+00 -0.70464672472E+03  0.70464672472E+03  0.00000000000E+00 0. -1.
         25    2    1    2    0    0 -0.20399126798E+03  0.42859195733E+02 -0.29090232884E+03  0.37908849759E+03  0.12503829818E+03 0.  0.
          5    1    3    3  502    0 -0.28968803822E+02  0.34579381792E+02 -0.75755014647E+01  0.45932405363E+02  0.41800000000E+01 0. -1.
         -5    1    3    3    0  502 -0.17502246416E+03  0.82798139419E+01 -0.28332682737E+03  0.33315609223E+03  0.41800000000E+01 0. -1.
        -11    1    1    2    0    0  0.71834144575E+02 -0.47599945116E+02 -0.85758226869E+02  0.12157455563E+03  0.00000000000E+00 0. -1.
         11    1    1    2    0    0  0.13215712341E+03  0.47407493828E+01 -0.24954791703E+03  0.28242192349E+03  0.00000000000E+00 0.  1.
</event>
<event>
 7    1  0.1538147E-010  0.9577146E+02  0.7561462E-02  0.1289448E+00
          2   -1    0    0  501    0  0.00000000000E+00  0.00000000000E+00  0.24734994231E+02  0.24734994231E+02  0.00000000000E+00 0. -1.
         -2   -1    0    0    0  501 -0.00000000000E+00 -0.00000000000E+00 -0.58003012717E+03  0.58003012717E+03  0.00000000000E+00 0.  1.
         25    2    1    2    0    0  0.12098652296E+02 -0.41779810997E+02 -0.35989988915E+03  0.38351292261E+03  0.12514911747E+03 0.  0.
          5    1    3    3  502    0 -0.20460147599E+02 -0.50754835152E+02 -0.33934842179E+03  0.34375790129E+03  0.41800000000E+01 0.  1.
         -5    1    3    3    0  502  0.32558799895E+02  0.89750241542E+01 -0.20551467365E+02  0.39755021318E+02  0.41800000000E+01 0.  1.
        -11    1    1    2    0    0 -0.41585030924E+02  0.56113835188E+02 -0.14762659852E+03  0.16331469587E+03  0.00000000000E+00 0. -1.
         11    1    1    2    0    0  0.29486378629E+02 -0.14334024191E+02 -0.47768645262E+02  0.57937502917E+02  0.00000000000E+00 0.  1.
</event>
<event>
 7    1  0.1538147E-010  0.9408303E+02  0.7561462E-02  0.1293255E+00
         -1   -1    0    0    0  501 -0.00000000000E+00  0.00000000000E+00  0.32562206862E+02  0.32562206862E+02  0.00000000000E+00 0.  1.
          1   -1    0    0  501    0  0.00000000000E+00 -0.00000000000E+00 -0.53380631853E+03  0.53380631853E+03  0.00000000000E+00 0. -1.
         25    2    1    2    0    0 -0.87150399555E+01 -0.14355331127E+02 -0.42448485440E+03  0.44286646053E+03  0.12514504702E+03 0.  0.
          5    1    3    3  502    0 -0.10279699917E+02 -0.69375417887E+02 -0.21254661796E+03  0.22385745028E+03  0.41800000000E+01 0.  1.
         -5    1    3    3    0  502  0.15646599617E+01  0.55020086759E+02 -0.21193823644E+03  0.21900901025E+03  0.41800000000E+01 0.  1.
        -11    1    1    2    0    0  0.25331372938E+02  0.30426564834E+02  0.37229393309E+01  0.39765746313E+02  0.00000000000E+00 0.  1.
         11    1    1    2    0    0 -0.16616332983E+02 -0.16071233707E+02 -0.80482196601E+02  0.83736318550E+02  0.00000000000E+00 0. -1.
</event>
<event>
 6    1  0.1538147E-010  0.7724206E+02  0.7561462E-02  0.1337065E+00
          1   -1    0    0  501    0  0.00000000000E+00  0.00000000000E+00  0.21094273067E+02  0.21094273067E+02  0.00000000000E+00 0. -1.
         -1   -1    0    0    0  501 -0.00000000000E+00 -0.00000000000E+00 -0.67628763484E+03  0.67628763484E+03  0.00000000000E+00 0.  1.
          5    1    1    2  502    0  0.12910636362E+02 -0.37134862816E+02 -0.35409102858E+03  0.35629146985E+03  0.41800000000E+01 0. -1.
         -5    1    1    2    0  502  0.22750361001E+02  0.39865261498E+01 -0.11400840007E+01  0.23499861871E+02  0.41800000000E+01 0. -1.
        -11    1    1    2    0    0 -0.31859345075E+02 -0.20374712606E+02 -0.54522618945E+02  0.66354071156E+02  0.00000000000E+00 0. -1.
         11    1    1    2    0    0 -0.38016522892E+01  0.53523049272E+02 -0.24543963024E+03  0.25123650503E+03  0.00000000000E+00 0.  1.
</event>
<event>
 6    1  0.1538147E-010  0.8091522E+02  0.7561462E-02  0.1326474E+00
         -2   -1    0    0    0  501 -0.00000000000E+00  0.00000000000E+00  0.24064809434E+02  0.24064809434E+02  0.00000000000E+00 0.  1.
          2   -1    0    0  501    0  0.00000000000E+00 -0.00000000000E+00 -0.56645029851E+03  0.56645029851E+03  0.00000000000E+00 0. -1.
          5    1    1    2  502    0 -0.49855461589E+02  0.63220285316E+01 -0.32388539280E+03  0.32778766781E+03  0.41800000000E+01 0. -1.
         -5    1    1    2    0  502  0.48043748947E+01 -0.97360527756E+01  0.85884346065E+01  0.14460510045E+02  0.41800000000E+01 0. -1.
        -11    1    1    2    0    0  0.70639782530E+02 -0.92056134464E+01 -0.14966999892E+03  0.16575835054E+03  0.00000000000E+00 0.  1.
         11    1    1    2    0    0 -0.25588695836E+02  0.12619637690E+02 -0.77418531960E+02  0.82508579559E+02  0.00000000000E+00 0. -1.
</event>
<event>
 7    1  0.1538147E-010  0.3223879E+03  0.7561462E-02  0.1074556E+00
          2   -1    0    0  501    0  0.00000000000E+00  0.00000000000E+00  0.62506165489E+03  0.62506165489E+03  0.00000000000E+00 0. -1.
         -2   -1    0    0    0  501 -0.00000000000E+00 -0.00000000000E+00 -0.17608000609E+03  0.17608000609E+03  0.00000000000E+00 0.  1.
         25    2    1    2    0    0 -0.30409056327E+03  0.68378645344E+02  0.26268162501E+03  0.42636820050E+03  0.12506596847E+03 0.  0.
          5    1    3    3  502    0 -0.27182303994E+03  0.93098749355E+02  0.19487758033E+03  0.34720294626E+03  0.41800000000E+01 0. -1.
         -5    1    3    3    0  502 -0.32267523328E+02 -0.24720104011E+02  0.67804044682E+02  0.79165254243E+02  0.41800000000E+01 0. -1.
        -11    1    1    2    0    0  0.32270573162E+02 -0.26028667613E+02  0.57827159161E+02  0.71153789544E+02  0.00000000000E+00 0. -1.
         11    1    1    2    0    0  0.27181999011E+03 -0.42349977730E+02  0.12847286463E+03  0.30361967094E+03  0.00000000000E+00 0.  1.
</event>
<event>
 7    1  0.1538147E-010  0.1438858E+03  0.7561462E-02  0.1208194E+00
         -2   -1    0    0    0  501 -0.00000000000E+00  0.00000000000E+00  0.43224717830E+02  0.43224717830E+02  0.00000000000E+00 0.  1.
          2   -1    0    0  501    0  0.00000000000E+00 -0.00000000000E+00 -0.58152753436E+03  0.58152753436E+03  0.00000000000E+00 0. -1.
         25    2    1    2    0    0 -0.12087012225E+03 -0.39901677265E+01 -0.33938293809E+03  0.38137023145E+03  0.12504785835E+03 0.  0.
          5    1    3    3  502    0 -0.12144886412E+03  0.32594107014E+02 -0.30898363278E+03  0.33361738584E+03  0.41800000000E+01 0. -1.
         -5    1    3    3    0  502  0.57874187026E+00 -0.36584274740E+02 -0.30399305309E+02  0.47752845608E+02  0.41800000000E+01 0. -1.
        -11    1    1    2    0    0  0.73276759942E+02  0.18116799279E+02 -0.61810921062E+02  0.97561733924E+02  0.00000000000E+00 0.  1.
         11    1    1    2    0    0  0.47593362305E+02 -0.14126631553E+02 -0.13710895738E+03  0.14582028682E+03  0.00000000000E+00 0. -1.
</event>
<event>
 7    1  0.1538147E-010  0.2112295E+03  0.7561462E-02  0.1140596E+00
          2   -1    0    0  501    0  0.00000000000E+00  0.00000000000E+00  0.96264842458E+03  0.96264842458E+03  0.00000000000E+00 0. -1.
         -2   -1    0    0    0  501 -0.00000000000E+00 -0.00000000000E+00 -0.55725230413E+02  0.55725230413E+02  0.00000000000E+00 0.  1.
         25    2    1    2    0    0  0.92195128779E+02  0.17030350704E+03  0.60370033845E+03  0.64623146705E+03  0.12513106757E+03 0.  0.
          5    1    3    3  502    0  0.65844150565E+02  0.17219784692E+03  0.39617273295E+03  0.43698725083E+03  0.41800000000E+01 0. -1.
         -5    1    3    3    0  502  0.26350978214E+02 -0.18943398851E+01  0.20752760550E+03  0.20924421622E+03  0.41800000000E+01 0. -1.
        -11    1    1    2    0    0 -0.65680397220E+02 -0.36985768896E+02  0.73899516694E+02  0.10556041042E+03  0.00000000000E+00 0.  1.
         11    1    1    2    0    0 -0.26514731559E+02 -0.13331773814E+03  0.22932333902E+03  0.26658177754E+03  0.00000000000E+00 0. -1.
</event>
<event>
 6    1  0.1538147E-010  0.9125730E+02  0.7561462E-02  0.1299835E+00
         -1   -1    0    0    0  501 -0.00000000000E+00  0.00000000000E+00  0.26740445662E+03  0.26740445662E+03  0.00000000000E+00 0.  1.
          1   -1    0    0  501    0  0.00000000000E+00 -0.00000000000E+00 -0.47676699233E+02  0.47676699233E+02  0.00000000000E+00 0. -1.
          5    1    1    2  502    0 -0.62416146932E+02 -0.21045757091E+02  0.14933845157E+02  0.67669723072E+02  0.41800000000E+01 0.  1.
         -5    1    1    2    0  502  0.39478617763E+02  0.39820030023E+01  0.89147974872E+02  0.97669091488E+02  0.41800000000E+01 0.  1.
        -11    1    1    2    0    0  0.36967896983E+02  0.36956196492E+02  0.11391823438E+03  0.12533854152E+03  0.00000000000E+00 0.  1.
         11    1    1    2    0    0 -0.14030367813E+02 -0.19892442404E+02  0.17277029802E+01  0.24403799773E+02  0.00000000000E+00 0. -1.
</event>
<event>
 7    1  0.1538147E-010  0.2211999E+03  0.7561462E-02  0.1132992E+00
         -2   -1    0    0    0  501 -0.00000000000E+00  0.00000000000E+00  0.13818170847E+03  0.13818170847E+03  0.00000000000E+00 0.  1.
          2   -1    0    0  501    0  0.00000000000E+00 -0.00000000000E+00 -0.40454837273E+03  0.40454837273E+03  0.00000000000E+00 0. -1.
         25    2    1    2    0    0 -0.14398767412E+03  0.15100327853E+03 -0.16351141026E+03  0.29309950139E+03  0.12504757495E+03 0.  0.
          5    1    3    3  502    0 -0.92977745792E+02  0.15616123249E+03 -0.88618305093E+02  0.20224210280E+03  0.41800000000E+01 0. -1.
         -5    1    3    3    0  502 -0.51009928328E+02 -0.51579539568E+01 -0.74893105170E+02  0.90857398593E+02  0.41800000000E+01 0. -1.
        -11    1    1    2    0    0  0.11607591794E+03 -0.12968197391E+03 -0.41483404448E+02  0.17891871319E+03  0.00000000000E+00 0.  1.
         11    1    1    2    0    0  0.27911756176E+02 -0.21321304620E+02 -0.61371849551E+02  0.70711866619E+02  0.00000000000E+00 0. -1.
</event>
<event>
 7    1  0.1538147E-010  0.1534839E+03  0.7561462E-02  0.1196256E+00
         -2   -1    0    0    0  501 -0.00000000000E+00  0.00000000000E+00  0.12399706352E+03  0.12399706352E+03  0.00000000000E+00 0.  1.
          2   -1    0    0  501    0  0.00000000000E+00 -0.00000000000E+00 -0.34487419513E+03  0.34487419513E+03  0.00000000000E+00 0. -1.
         25    2    1    2    0    0 -0.13365462951E+03  0.73751226275E+02 -0.21348934032E+03  0.29075476292E+03  0.12513125253E+03 0.  0.
          5    1    3    3  502    0 -0.10585314416E+03  0.56083098610E+02 -0.60622750501E+02  0.13432346168E+03  0.41800000000E+01 0.  1.
         -5    1    3    3    0  502 -0.27801485346E+02  0.17668127665E+02 -0.15286658982E+03  0.15643130124E+03  0.41800000000E+01 0.  1.
        -11    1    1    2    0    0  0.78570922109E+02 -0.32259177839E+02  0.40560564106E+02  0.94123343100E+02  0.00000000000E+00 0.  1.
         11    1    1    2    0    0  0.55083707401E+02 -0.41492048436E+02 -0.47948355396E+02  0.83993152635E+02  0.00000000000E+00 0. -1.
</event>
<event>
 7    1  0.1538147E-010  0.1180656E+03  0.7561462E-02  0.1246323E+00
          2   -1    0    0  501    0  0.00000000000E+00  0.00000000000E+00  0.92805116072E+02  0.92805116072E+02  0.00000000000E+00 0.  1.
         -2   -1    0    0    0  501 -0.00000000000E+00 -0.00000000000E+00 -0.16834798311E+03  0.16834798311E+03  0.00000000000E+00 0. -1.
         25    2    1    2    0    0  0.32656300885E+02 -0.41974811586E+02 -0.95684402907E+01  0.13630367673E+03  0.12513520067E+03 0.  0.
          5    1    3    3  502    0 -0.25382402711E+02  0.28786754617E+02 -0.21051687394E+02  0.43972600002E+02  0.41800000000E+01 0.  1.
         -5    1    3    3    0  502  0.58038703596E+02 -0.70761566203E+02  0.11483247104E+02  0.92331076733E+02  0.41800000000E+01 0.  1.
        -11    1    1    2    0    0  0.28898328507E+02  0.32736913945E+02 -0.24778367383E+02  0.50207433865E+02  0.00000000000E+00 0.  1.
         11    1    1    2    0    0 -0.61554629391E+02  0.92378976403E+01 -0.41196059362E+02  0.74641988581E+02  0.00000000000E+00 0. -1.
</event>
<event>
 7    1  0.1538147E-010  0.8621407E+02  0.7561462E-02  0.1312288E+00
          2   -1    0    0  501    0  0.00000000000E+00  0.00000000000E+00  0.16442351857E+02  0.16442351857E+02  0.00000000000E+00 0.  1.
         -2   -1    0    0    0  501 -0.00000000000E+00 -0.00000000000E+00 -0.79251154145E+03  0.79251154145E+03  0.00000000000E+00 0. -1.
         25    2    1    2    0    0 -0.82223226708E+01 -0.18608819444E+02 -0.33109767438E+03  0.35451282712E+03  0.12505910546E+03 0.  0.
          5    1    3    3  502    0  0.21581950704E+02  0.22763076008E+02 -0.16321525346E+02  0.35606218771E+02  0.41800000000E+01 0. -1.
         -5    1    3    3    0  502 -0.29804273375E+02 -0.41371895452E+02 -0.31477614904E+03  0.31890660835E+03  0.41800000000E+01 0. -1.
        -11    1    1    2    0    0 -0.27055765976E+02 -0.22687570365E+02 -0.12494323503E+03  0.12983663697E+03  0.00000000000E+00 0.  1.
         11    1    1    2    0    0  0.35278088646E+02  0.41296389809E+02 -0.32002828018E+03  0.32460442922E+03  0.00000000000E+00 0. -1.
</event>
<event>
 6    1  0.1538147E-010  0.1197173E+03  0.7561462E-02  0.1243564E+00
         -1   -1    0    0    0  501 -0.00000000000E+00  0.00000000000E+00  0.12102608199E+03  0.12102608199E+03  0.00000000000E+00 0.  1.
          1   -1    0    0  501    0  0.00000000000E+00 -0.00000000000E+00 -0.18063641479E+03  0.18063641479E+03  0.00000000000E+00 0. -1.
          5    1    1    2  502    0  0.12875908918E+02  0.44228760247E+02  0.28528775092E+02  0.54344601127E+02  0.41800000000E+01 0. -1.
         -5    1    1    2    0  502 -0.55917998123E+02 -0.67773393243E+02  0.25393632358E+02  0.91555252772E+02  0.41800000000E+01 0. -1.
        -11    1    1    2    0    0 -0.25648525465E+02  0.25947564474E+02 -0.51920014226E+02  0.63457157500E+02  0.00000000000E+00 0. -1.
         11    1    1    2    0    0  0.68690614670E+02 -0.24029314774E+01 -0.61612726025E+02  0.92305485382E+02  0.00000000000E+00 0.  1.
</event>
<event>
 7    1  0.4738604E-010  0.8092074E+02  0.7561462E-02  0.1326459E+00
          2   -1    0    0  501    0  0.00000000000E+00  0.00000000000E+00  0.58688023280E+03  0.58688023280E+03  0.00000000000E+00 0. -1.
         -2   -1    0    0    0  501 -0.00000000000E+00 -0.00000000000E+00 -0.23107540088E+02  0.23107540088E+02  0.00000000000E+00 0.  1.
         25    2    1    2    0    0 -0.22732565706E+02 -0.18554124032E+02  0.23707229070E+03  0.26966279744E+03  0.12511486020E+03 0.  0.
          5    1    3    3  502    0 -0.30930438360E+02  0.14230213481E+02  0.23283572302E+03  0.23534896921E+03  0.41800000000E+01 0.  1.
         -5    1    3    3    0  502  0.81978726540E+01 -0.32784337513E+02  0.42365676792E+01  0.34313828232E+02  0.41800000000E+01 0.  1.
        -11    1    1    2    0    0 -0.32818306046E+01  0.51446633228E+02  0.21263484456E+03  0.21879466082E+03  0.00000000000E+00 0. -1.
         11    1    1    2    0    0  0.26014396311E+02 -0.32892509196E+02  0.11406555745E+03  0.12153031463E+03  0.00000000000E+00 0.  1.
</event>
<event>
 7    1  0.1538147E-010  0.3435412E+03  0.7561462E-02  0.1065298E+00
         -2   -1    0    0    0  501 -0.00000000000E+00  0.00000000000E+00  0.54729767067E+03  0.54729767067E+03  0.00000000000E+00 0.  1.
          2   -1    0    0  501    0  0.00000000000E+00 -0.00000000000E+00 -0.22282372622E+03  0.22282372622E+03  0.00000000000E+00 0. -1.
         25    2    1    2    0    0  0.89126853060E+02 -0.31951327644E+03  0.16514028349E+03  0.39108042838E+03  0.12506101901E+03 0.  0.
          5    1    3    3  502    0  0.11972838290E+03 -0.26145114498E+03  0.14632327262E+03  0.32267562566E+03  0.41800000000E+01 0. -1.
         -5    1    3    3    0  502 -0.30601529836E+02 -0.58062131463E+02  0.18817010870E+02  0.68404802729E+02  0.41800000000E+01 0. -1.
        -11    1    1    2    0    0 -0.49530317927E+02  0.11193727606E+03  0.15423976092E+02  0.12337384327E+03  0.00000000000E+00 0. -1.
         11    1    1    2    0    0 -0.39596535134E+02  0.20757600039E+03  0.14390968487E+03  0.25566712524E+03  0.00000000000E+00 0.  1.
</event>
<event>
 7    1  0.1538147E-010  0.1140282E+03  0.7561462E-02  0.1253287E+00
          1   -1    0    0  501    0  0.00000000000E+00  0.00000000000E+00  0.13807275754E+03  0.13807275754E+03  0.00000000000E+00 0. -1.
         -1   -1    0    0    0  501 -0.00000000000E+00 -0.00000000000E+00 -0.41147475679E+03  0.41147475679E+03  0.00000000000E+00 0.  1.
         25    2    1    2    0    0 -0.85610027736E+02  0.71632346813E+02  0.68076545964E+02  0.18097046348E+03  0.12512243037E+03 0.  0.
          5    1    3    3  502    0 -0.28756173783E+02  0.10186975658E+02 -0.35978334092E+02  0.47356149841E+02  0.41800000000E+01 0. -1.
         -5    1    3    3    0  502 -0.56853853953E+02  0.61445371155E+02  0.10405488006E+03  0.13361431364E+03  0.41800000000E+01 0. -1.
        -11    1    1    2    0    0  0.49958702999E+02 -0.54364805264E+02 -0.30795650511E+03  0.31668377460E+03  0.00000000000E+00 0.  1.
         11    1    1    2    0    0  0.35651324738E+02 -0.17267541549E+02 -0.33522040113E+02  0.51893276251E+02  0.00000000000E+00 0. -1.
</event>
<event>
 6    1  0.1538147E-010  0.1252466E+03  0.7561462E-02  0.1234684E+00
          2   -1    0    0  501    0  0.00000000000E+00  0.00000000000E+00  0.72185068203E+03  0.72185068203E+03  0.00000000000E+00 0. -1.
         -2   -1    0    0    0  501 -0.00000000000E+00 -0.00000000000E+00 -0.26410730044E+02  0.26410730044E+02  0.00000000000E+00 0.  1.
          5    1    1    2  502    0 -0.17721654315E+02 -0.10216150798E+03  0.29751432046E+03  0.31509248487E+03  0.41800000000E+01 0.  1.
         -5    1    1    2    0  502  0.21268840481E+02  0.20381966920E+02  0.20335689076E+02  0.36038879022E+02  0.41800000000E+01 0.  1.
        -11    1    1    2    0    0 -0.38573740079E+02  0.14672049022E+02  0.19770234696E+03  0.20196390876E+03  0.00000000000E+00 0. -1.
         11    1    1    2    0    0  0.35026553913E+02  0.67107492038E+02  0.17988759549E+03  0.19516613942E+03  0.00000000000E+00 0.  1.
</event>
<event>
 6    1  0.1538147E-010  0.1515434E+03  0.7561462E-02  0.1198589E+00
         -3   -1    0    0    0  501 -0.00000000000E+00  0.00000000000E+00  0.17307412154E+03  0.17307412154E+03  0.00000000000E+00 0.  1.
          3   -1    0    0  501    0  0.00000000000E+00 -0.00000000000E+00 -0.17775366032E+03  0.17775366032E+03  0.00000000000E+00 0. -1.
          5    1    1    2  502    0 -0.12342156119E+03  0.16297117452E+02 -0.74089963721E+02  0.14493195965E+03  0.41800000000E+01 0. -1.
         -5    1    1    2    0  502  0.28755436291E+01  0.25112595391E+02  0.29638679373E+02  0.39176969171E+02  0.41800000000E+01 0. -1.
        -11    1    1    2    0    0  0.84312402559E+02 -0.67706806809E+02  0.52457527342E+02  0.12018562763E+03  0.00000000000E+00 0.  1.
         11    1    1    2    0    0  0.36233615006E+02  0.26297093967E+02 -0.12685781772E+02  0.46533225406E+02  0.00000000000E+00 0. -1.
</event>
<event>
 7    1  0.1538147E-010  0.1088032E+03  0.7561462E-02  0.1262802E+00
         -1   -1    0    0    0  501 -0.00000000000E+00  0.00000000000E+00  0.37560190594E+02  0.37560190594E+02  0.00000000000E+00 0.  1.
          1   -1    0    0  501    0  0.00000000000E+00 -0.00000000000E+00 -0.44181017159E+03  0.44181017159E+03  0.00000000000E+00 0. -1.
         25    2    1    2    0    0  0.28323655299E+02  0.34095170745E+02 -0.12662222080E+03  0.18340779682E+03  0.12506207665E+03 0.  0.
          5    1    3    3  502    0  0.34040259045E+02  0.73473094885E+02 -0.45552844347E+02  0.93003058745E+02  0.41800000000E+01 0. -1.
         -5    1    3    3    0  502 -0.57166037460E+01 -0.39377924140E+02 -0.81069376454E+02  0.90404738076E+02  0.41800000000E+01 0. -1.
        -11    1    1    2    0    0 -0.88255890363E+01 -0.61915123753E+02 -0.22325295103E+03  0.23184747943E+03  0.00000000000E+00 0.  1.
         11    1    1    2    0    0 -0.19498066263E+02  0.27819953008E+02 -0.54374809162E+02  0.64115085937E+02  0.00000000000E+00 0. -1.
</event>
<event>
 6    1  0.1538147E-010  0.9859576E+02  0.7561462E-02  0.1283277E+00
         -1   -1    0    0    0  501 -0.00000000000E+00  0.00000000000E+00  0.15110911158E+03  0.15110911158E+03  0.00000000000E+00 0.  1.
          1   -1    0    0  501    0  0.00000000000E+00 -0.00000000000E+00 -0.12160605462E+03  0.12160605462E+03  0.00000000000E+00 0. -1.
          5    1    1    2  502    0  0.47719316244E+02  0.26380024182E+02  0.85662317057E+02  0.10162944348E+03  0.41800000000E+01 0.  1.
         -5    1    1    2    0  502 -0.20110673081E+01 -0.43383872423E+02 -0.20076441967E+02  0.48028540475E+02  0.41800000000E+01 0.  1.
        -11    1    1    2    0    0 -0.70847234446E+02  0.19849270322E+02 -0.54670494672E+02  0.91663444997E+02  0.00000000000E+00 0.  1.
         11    1    1    2    0    0  0.25138985511E+02 -0.28454220810E+01  0.18587676542E+02  0.31393737251E+02  0.00000000000E+00 0. -1.
</event>
<event>
 7    1  0.1538147E-010  0.1107861E+03  0.7561462E-02  0.1259121E+00
         -1   -1    0    0    0  501 -0.00000000000E+00  0.00000000000E+00  0.77109583842E+02  0.77109583842E+02  0.00000000000E+00 0.  1.
          1   -1    0    0  501    0  0.00000000000E+00 -0.00000000000E+00 -0.26515116943E+03  0.26515116943E+03  0.00000000000E+00 0. -1.
         25    2    1    2    0    0  0.43636335163E+02 -0.50908943277E+02 -0.26034908762E+02  0.14426576766E+03  0.12505576753E+03 0.  0.
          5    1    3    3  502    0 -0.16340908579E+02  0.19402615832E+02 -0.43107410344E+02  0.50191712671E+02  0.41800000000E+01 0.  1.
         -5    1    3    3    0  502  0.59977243742E+02 -0.70311559108E+02  0.17072501582E+02  0.94074054986E+02  0.41800000000E+01 0.  1.
        -11    1    1    2    0    0  0.17466367181E+02  0.36661227140E+02 -0.26014990886E+02  0.48227578300E+02  0.00000000000E+00 0.  1.
         11    1    1    2    0    0 -0.61102702344E+02  0.14247716137E+02 -0.13599168594E+03  0.14976740731E+03  0.00000000000E+00 0. -1.
</event>
<event>
 6    1  0.1538147E-010  0.1397679E+03  0.7561462E-02  0.1213642E+00
         -1   -1    0    0    0  501 -0.00000000000E+00  0.00000000000E+00  0.22112329595E+03  0.22112329595E+03  0.00000000000E+00 0.  1.
          1   -1    0    0  501    0  0.00000000000E+00 -0.00000000000E+00 -0.12296465027E+03  0.12296465027E+03  0.00000000000E+00 0. -1.
          5    1    1    2  502    0  0.55730109263E+01  0.72708829760E+00 -0.27385544238E+02  0.28267075218E+02  0.41800000000E+01 0. -1.
         -5    1    1    2    0  502 -0.13011307635E+03  0.57739839610E+01  0.94511138525E+02  0.16097384643E+03  0.41800000000E+01 0. -1.
        -11    1    1    2    0    0  0.47304828529E+01  0.19127142318E+02 -0.14153543124E+02  0.24260004621E+02  0.00000000000E+00 0. -1.
         11    1    1    2    0    0  0.11980958257E+03 -0.25628214576E+02  0.45186594513E+02  0.13058701996E+03  0.00000000000E+00 0.  1.
</event>
<event>
 7    1  0.1538147E-010  0.2012858E+03  0.7561462E-02  0.1148659E+00
          1   -1    0    0  501    0  0.00000000000E+00  0.00000000000E+00  0.20242120835E+03  0.20242120835E+03  0.00000000000E+00 0. -1.
         -1   -1    0    0    0  501 -0.00000000000E+00 -0.00000000000E+00 -0.25005360125E+03  0.25005360125E+03  0.00000000000E+00 0.  1.
         25    2    1    2    0    0  0.13958443732E+03  0.13663709034E+03 -0.27876120195E+02  0.23360657544E+03  0.12506576035E+03 0.  0.
          5    1    3    3  502    0  0.62799684445E+02  0.83463785842E+02 -0.75244822894E+02  0.12879930002E+03  0.41800000000E+01 0.  1.
         -5    1    3    3    0  502  0.76784752870E+02  0.53173304500E+02  0.47368702699E+02  0.10480727542E+03  0.41800000000E+01 0.  1.
        -11    1    1    2    0    0 -0.72838750564E+02 -0.11158181775E+03  0.23745560775E+02  0.13535079347E+03  0.00000000000E+00 0. -1.
         11    1    1    2    0    0 -0.66745686752E+02 -0.25055272595E+02 -0.43501833473E+02  0.83517440695E+02  0.00000000000E+00 0.  1.
</event>
<event>
 7    1  0.1538147E-010  0.1425731E+03  0.7561462E-02  0.1209908E+00
         -2   -1    0    0    0  501 -0.00000000000E+00  0.00000000000E+00  0.34229169679E+02  0.34229169679E+02  0.00000000000E+00 0.  1.
          2   -1    0    0  501    0  0.00000000000E+00 -0.00000000000E+00 -0.12610630289E+04  0.12610630289E+04  0.00000000000E+00 0. -1.
         25    2    1    2    0    0  0.69043519332E+02  0.84075925682E+02 -0.10718278612E+04  0.10845703768E+04  0.12506865916E+03 0.  0.
          5    1    3    3  502    0  0.88824901572E+02  0.43122488914E+02 -0.43402536752E+03  0.44513470348E+03  0.41800000000E+01 0.  1.
         -5    1    3    3    0  502 -0.19781382240E+02  0.40953436768E+02 -0.63780249365E+03  0.63943567337E+03  0.41800000000E+01 0.  1.
        -11    1    1    2    0    0 -0.75018555857E+02 -0.21852174217E+02 -0.67960211169E+02  0.10355622407E+03  0.00000000000E+00 0.  1.
         11    1    1    2    0    0  0.59750365257E+01 -0.62223751465E+02 -0.87045786836E+02  0.10716559762E+03  0.00000000000E+00 0. -1.
</event>
<event>
 6    1  0.1538147E-010  0.1225715E+03  0.7561462E-02  0.1238914E+00
          2   -1    0    0  501    0  0.00000000000E+00  0.00000000000E+00  0.29928091659E+02  0.29928091659E+02  0.00000000000E+00 0.  1.
         -2   -1    0    0    0  501 -0.00000000000E+00 -0.00000000000E+00 -0.55366417131E+03  0.55366417131E+03  0.00000000000E+00 0. -1.
          5    1    1    2  502    0  0.34193248609E+02 -0.27497198963E+02 -0.11607424176E+03  0.12416108972E+03  0.41800000000E+01 0. -1.
         -5    1    1    2    0  502 -0.94628968850E+02  0.13252642952E+02 -0.26642528837E+03  0.28307274856E+03  0.41800000000E+01 0. -1.
        -11    1    1    2    0    0  0.73424775982E+01 -0.33332248840E+02 -0.50796579308E+02  0.61198392621E+02  0.00000000000E+00 0.  1.
         11    1    1    2    0    0  0.53093242644E+02  0.47576804851E+02 -0.90439970214E+02  0.11516003207E+03  0.00000000000E+00 0. -1.
</event>
<event>
 6    1  0.1538147E-010  0.1025186E+03  0.7561462E-02  0.1275087E+00
         -2   -1    0    0    0  501 -0.00000000000E+00  0.00000000000E+00  0.29846574938E+02  0.29846574938E+02  0.00000000000E+00 0.  1.
          2   -1    0    0  501    0  0.00000000000E+00 -0.00000000000E+00 -0.66307155037E+03  0.66307155037E+03  0.00000000000E+00 0. -1.
          5    1    1    2  502    0 -0.34752105060E+01  0.59353017736E+02 -0.13683502649E+03  0.14925198383E+03  0.41800000000E+01 0. -1.
         -5    1    1    2    0  502  0.14783420160E+02 -0.39265920714E+02 -0.40050297142E+03  0.40271635745E+03  0.41800000000E+01 0. -1.
        -11    1    1    2    0    0  0.31049275823E+02 -0.44591506308E+02 -0.52320304693E+02  0.75431255108E+02  0.00000000000E+00 0.  1.
         11    1    1    2    0    0 -0.42357485478E+02  0.24504409286E+02 -0.43566672827E+02  0.65518528919E+02  0.00000000000E+00 0. -1.
</event>
<event>
 7    1  0.1538147E-010  0.1202469E+03  0.7561462E-02  0.1242690E+00
         -2   -1    0    0    0  501 -0.00000000000E+00  0.00000000000E+00  0.13473624080E+02  0.13473624080E+02  0.00000000000E+00 0.  1.
          2   -1    0    0  501    0  0.00000000000E+00 -0.00000000000E+00 -0.11060611112E+04  0.11060611112E+04  0.00000000000E+00 0. -1.
         25    2    1    2    0    0 -0.29056057693E+02 -0.46702338551E+02 -0.66709513872E+03  0.68095190868E+03  0.12511680508E+03 0.  0.
          5    1    3    3  502    0  0.44849399961E+02 -0.42783171368E+02 -0.33098812991E+03  0.33676769883E+03  0.41800000000E+01 0. -1.
         -5    1    3    3    0  502 -0.73905457654E+02 -0.39191671828E+01 -0.33610700881E+03  0.34418420985E+03  0.41800000000E+01 0. -1.
        -11    1    1    2    0    0  0.18017760357E+02  0.73280852282E+02 -0.26521439101E+03  0.27574153876E+03  0.00000000000E+00 0.  1.
         11    1    1    2    0    0  0.11038297336E+02 -0.26578513731E+02 -0.16027795736E+03  0.16284128781E+03  0.00000000000E+00 0. -1.
</event>
<event>
 7    1  0.1538147E-010  0.1304245E+03  0.7561462E-02  0.1226827E+00
         -4   -1    0    0    0  501 -0.00000000000E+00  0.00000000000E+00  0.98155362896E+02  0.98155362896E+02  0.00000000000E+00 0.  1.
          4   -1    0    0  501    0  0.00000000000E+00 -0.00000000000E+00 -0.20645128015E+03  0.20645128015E+03  0.00000000000E+00 0. -1.
         25    2    1    2    0    0 -0.68772983794E+02  0.28449860315E+02 -0.11682838010E+03  0.18661584060E+03  0.12504992490E+03 0.  0.
          5    1    3    3  502    0 -0.68783786925E+02 -0.38040809657E+02 -0.67968810531E+02  0.10399780838E+03  0.41800000000E+01 0. -1.
         -5    1    3    3    0  502  0.10803131815E-01  0.66490669972E+02 -0.48859569568E+02  0.82618032223E+02  0.41800000000E+01 0. -1.
        -11    1    1    2    0    0  0.87200852195E+02 -0.73654467633E+01 -0.33408509212E+01  0.87575108989E+02  0.00000000000E+00 0.  1.
         11    1    1    2    0    0 -0.18427868402E+02 -0.21084413552E+02  0.11873313763E+02  0.30415693455E+02  0.00000000000E+00 0. -1.
</event>
<event>
 7    1  0.1538147E-010  0.1086392E+03  0.7561462E-02  0.1263111E+00
          4   -1    0    0  501    0  0.00000000000E+00  0.00000000000E+00  0.11220055587E+03  0.11220055587E+03  0.00000000000E+00 0. -1.
         -4   -1    0    0    0  501 -0.00000000000E+00 -0.00000000000E+00 -0.16215103516E+03  0.16215103516E+03  0.00000000000E+00 0.  1.
         25    2    1    2    0    0  0.31715281155E+02  0.64222821050E+02  0.91432801294E+01  0.14439967819E+03  0.12504894117E+03 0.  0.
          5    1    3    3  502    0  0.26371980418E+01  0.76229965970E+02 -0.39747178183E+02  0.86111979996E+02  0.41800000000E+01 0.  1.
         -5    1    3    3    0  502  0.29078083113E+02 -0.12007144920E+02  0.48890458312E+02  0.58287698193E+02  0.41800000000E+01 0.  1.
        -11    1    1    2    0    0 -0.12172215514E+02  0.19605044528E+02  0.37461233644E+01  0.23378495283E+02  0.00000000000E+00 0. -1.
         11    1    1    2    0    0 -0.19543065640E+02 -0.83827865578E+02 -0.62839882784E+02  0.10657341756E+03  0.00000000000E+00 0.  1.
</event>
<event>
 6    1  0.1538147E-010  0.1027929E+03  0.7561462E-02  0.1274530E+00
         -1   -1    0    0    0  501 -0.00000000000E+00  0.00000000000E+00  0.22812476166E+03  0.22812476166E+03  0.00000000000E+00 0.  1.
          1   -1    0    0  501    0  0.00000000000E+00 -0.00000000000E+00 -0.61905001009E+02  0.61905001009E+02  0.00000000000E+00 0. -1.
          5    1    1    2  502    0  0.16587845820E+02  0.60823749592E+02  0.52077186588E+02  0.81879123751E+02  0.41800000000E+01 0. -1.
         -5    1    1    2    0  502 -0.30516852680E+02 -0.41853120581E+02 -0.83856327855E+01  0.52637944842E+02  0.41800000000E+01 0. -1.
        -11    1    1    2    0    0  0.18935239119E+01 -0.53672951040E+02  0.46348398454E+02  0.70940433783E+02  0.00000000000E+00 0. -1.
         11    1    1    2    0    0  0.12035482948E+02  0.34702322030E+02  0.76179808396E+02  0.84572260294E+02  0.00000000000E+00 0.  1.
</event>
<event>
 7    1  0.1538147E-010  0.1595032E+03  0.7561462E-02  0.1189259E+00
         -3   -1    0    0    0  501 -0.00000000000E+00  0.00000000000E+00  0.29657717366E+03  0.29657717366E+03  0.00000000000E+00 0.  1.
          3   -1    0    0  501    0  0.00000000000E+00 -0.00000000000E+00 -0.17775170137E+03  0.17775170137E+03  0.00000000000E+00 0. -1.
         25    2    1    2    0    0 -0.37501439761E+02  0.14852989829E+03  0.19599934544E+03  0.27845883276E+03  0.12512429604E+03 0.  0.
          5    1    3    3  502    0 -0.49354993763E+02  0.94904871348E+02  0.42157584317E+02  0.11505470147E+03  0.41800000000E+01 0.  1.
         -5    1    3    3    0  502  0.11853554001E+02  0.53625026943E+02  0.15384176113E+03  0.16340413129E+03  0.41800000000E+01 0.  1.
        -11    1    1    2    0    0  0.18625869913E+02 -0.21480006155E+02  0.20040700619E+02  0.34784240336E+02  0.00000000000E+00 0.  1.
         11    1    1    2    0    0  0.18875569849E+02 -0.12704989214E+03 -0.97214573776E+02  0.16108580193E+03  0.00000000000E+00 0. -1.
</event>
<event>
 7    1  0.1538147E-010  0.3996690E+03  0.7561462E-02  0.1043894E+00
          1   -1    0    0  501    0  0.00000000000E+00  0.00000000000E+00  0.12369947425E+04  0.12369947425E+04  0.00000000000E+00 0. -1.
         -1   -1    0    0    0  501 -0.00000000000E+00 -0.00000000000E+00 -0.14881864727E+03  0.14881864727E+03  0.00000000000E+00 0.  1.
         25    2    1    2    0    0 -0.30457019717E+03  0.23788015701E+03  0.30575545521E+03  0.50840644698E+03  0.12506295550E+03 0.  0.
          5    1    3    3  502    0 -0.25328961559E+03  0.24671090357E+03  0.27356631874E+03  0.44707706545E+03  0.41800000000E+01 0.  1.
         -5    1    3    3    0  502 -0.51280581580E+02 -0.88307465591E+01  0.32189136470E+02  0.61329381529E+02  0.41800000000E+01 0.  1.
        -11    1    1    2    0    0  0.30331778513E+02 -0.58309171666E+02  0.17921033642E+03  0.19088300335E+03  0.00000000000E+00 0. -1.
         11    1    1    2    0    0  0.27423841866E+03 -0.17957098535E+03  0.60321030356E+03  0.68652393940E+03  0.00000000000E+00 0.  1.
</event>
<event>
 6    1  0.1538147E-010  0.1435706E+03  0.7561462E-02  0.1208604E+00
         -2   -1    0    0    0  501 -0.00000000000E+00  0.00000000000E+00  0.10597812101E+03  0.10597812101E+03  0.00000000000E+00 0.  1.
          2   -1    0    0  501    0  0.00000000000E+00 -0.00000000000E+00 -0.67746417037E+03  0.67746417037E+03  0.00000000000E+00 0. -1.
          5    1    1    2  502    0  0.90604137737E+02  0.64904967798E+02 -0.45819332619E+03  0.47157222266E+03  0.41800000000E+01 0.  1.
         -5    1    1    2    0  502 -0.41926898707E+02  0.28867355262E+02 -0.15732517519E+03  0.16540819866E+03  0.41800000000E+01 0.  1.
        -11    1    1    2    0    0  0.16625582940E+02 -0.17918326475E+02  0.39271655228E+02  0.46257316568E+02  0.00000000000E+00 0.  1.
         11    1    1    2    0    0 -0.65302821970E+02 -0.75853996585E+02  0.47607967888E+01  0.10020455350E+03  0.00000000000E+00 0. -1.
</event>
<event>
 7    1  0.1538147E-010  0.1265531E+03  0.7561462E-02  0.1232662E+00
          3   -1    0    0  501    0  0.00000000000E+00  0.00000000000E+00  0.50163791836E+02  0.50163791836E+02  0.00000000000E+00 0. -1.
         -3   -1    0    0    0  501 -0.00000000000E+00 -0.00000000000E+00 -0.39437420729E+03  0.39437420729E+03  0.00000000000E+00 0.  1.
         25    2    1    2    0    0  0.28216844527E+02 -0.58462692112E+02 -0.28234412369E+03  0.31555439592E+03  0.12506916455E+03 0.  0.
          5    1    3    3  502    0  0.14935926592E+02  0.38750744419E+02 -0.10190398244E+03  0.11012082516E+03  0.41800000000E+01 0.  1.
         -5    1    3    3    0  502  0.13280917935E+02 -0.97213436531E+02 -0.18044014125E+03  0.20543357076E+03  0.41800000000E+01 0.  1.
        -11    1    1    2    0    0  0.32131247145E+02  0.49608442795E+01 -0.16770471164E+02  0.36582451013E+02  0.00000000000E+00 0.  1.
         11    1    1    2    0    0 -0.60348091673E+02  0.53501847832E+02 -0.45095820596E+02  0.92401152186E+02  0.00000000000E+00 0. -1.
</event>
<event>
 7    1  0.1538147E-010  0.1033899E+03  0.7561462E-02  0.1273325E+00
          1   -1    0    0  501    0  0.00000000000E+00  0.00000000000E+00  0.85354508327E+02  0.85354508327E+02  0.00000000000E+00 0. -1.
         -1   -1    0    0    0  501 -0.00000000000E+00 -0.00000000000E+00 -0.14761085245E+03  0.14761085245E+03  0.00000000000E+00 0.  1.
         25    2    1    2    0    0 -0.11744496647E+02 -0.11706350693E+02 -0.43329913999E+02  0.13337739363E+03  0.12504829401E+03 0.  0.
          5    1    3    3  502    0  0.11822080310E+01 -0.67708760664E+02 -0.16578324180E+02  0.69844019923E+02  0.41800000000E+01 0.  1.
         -5    1    3    3    0  502 -0.12926704678E+02  0.56002409971E+02 -0.26751589819E+02  0.63533373704E+02  0.41800000000E+01 0.  1.
        -11    1    1    2    0    0  0.26600501140E+02  0.40760897644E+02 -0.38036086768E+02  0.61772010930E+02  0.00000000000E+00 0.  1.
         11    1    1    2    0    0 -0.14856004494E+02 -0.29054546951E+02  0.19109656641E+02  0.37815956222E+02  0.00000000000E+00 0. -1.
</event>
<event>
 6    1  0.1538147E-010  0.1602949E+03  0.7561462E-02  0.1188364E+00
          2   -1    0    0  501    0  0.00000000000E+00  0.00000000000E+00  0.18426399174E+04  0.18426399174E+04  0.00000000000E+00 0. -1.
         -2   -1    0    0    0  501 -0.00000000000E+00 -0.00000000000E+00 -0.26385734234E+02  0.26385734234E+02  0.00000000000E+00 0.  1.
          5    1    1    2  502    0 -0.13233017312E+03  0.74104298222E+02  0.10485946884E+04  0.10595145184E+04  0.41800000000E+01 0.  1.
         -5    1    1    2    0  502  0.23453040766E+02  0.14620535082E+02  0.44573563376E+03  0.44661116507E+03  0.41800000000E+01 0.  1.
        -11    1    1    2    0    0  0.94668331962E+02 -0.81775146071E+02  0.32365357554E+03  0.34698833489E+03  0.00000000000E+00 0. -1.
         11    1    1    2    0    0  0.14208800390E+02 -0.69496872328E+01 -0.17297145354E+01  0.15911633276E+02  0.00000000000E+00 0.  1.
</event>
<event>
 7    1  0.1538147E-010  0.1276088E+03  0.7561462E-02  0.1231048E+00
         -2   -1    0    0    0  501 -0.00000000000E+00  0.00000000000E+00  0.83928639889E+02  0.83928639889E+02  0.00000000000E+00 0.  1.
          2   -1    0    0  501    0  0.00000000000E+00 -0.00000000000E+00 -0.78638144145E+03  0.78638144145E+03  0.00000000000E+00 0. -1.
         25    2    1    2    0    0 -0.91821233457E+02 -0.27337364784E+02 -0.71644842365E+03  0.73357549823E+03  0.12512472745E+03 0.  0.
          5    1    3    3  502    0 -0.11809157981E+03  0.12461746072E+01 -0.51589100463E+03  0.52925246833E+03  0.41800000000E+01 0.  1.
         -5    1    3    3    0  502  0.26270346358E+02 -0.28583539391E+02 -0.20055741902E+03  0.20432302990E+03  0.41800000000E+01 0.  1.
        -11    1    1    2    0    0  0.54040362777E+02  0.26549858467E+02 -0.38932505558E+02  0.71700737672E+02  0.00000000000E+00 0. -1.
         11    1    1    2    0    0  0.37780870679E+02  0.78750631675E+00  0.52928127653E+02  0.65033845437E+02  0.00000000000E+00 0.  1.
</event>
<event>
 7    1  0.1538147E-010  0.1347153E+03  0.7561462E-02  0.1220622E+00
          2   -1    0    0  501    0  0.00000000000E+00  0.00000000000E+00  0.58462961798E+03  0.58462961798E+03  0.00000000000E+00 0. -1.
         -2   -1    0    0    0  501 -0.00000000000E+00 -0.00000000000E+00 -0.39430927526E+02  0.39430927526E+02  0.00000000000E+00 0.  1.
         25    2    1    2    0    0  0.26955748287E+02  0.89314149747E+02  0.19172681865E+03  0.24721844247E+03  0.12511656803E+03 0.  0.
          5    1    3    3  502    0  0.65232728481E+02  0.11789157838E+02  0.59474494275E+02  0.89157057919E+02  0.41800000000E+01 0. -1.
         -5    1    3    3    0  502 -0.38276980194E+02  0.77524991909E+02  0.13225232438E+03  0.15806138455E+03  0.41800000000E+01 0. -1.
        -11    1    1    2    0    0  0.13293003258E+02 -0.70992473224E+02  0.29393177740E+03  0.30267561011E+03  0.00000000000E+00 0. -1.
         11    1    1    2    0    0 -0.40248751546E+02 -0.18321676523E+02  0.59540094404E+02  0.74166492928E+02  0.00000000000E+00 0.  1.
</event>
<event>
 6    1  0.1538147E-010  0.9653137E+02  0.7561462E-02  0.1287764E+00
          2   -1    0    0  501    0  0.00000000000E+00  0.00000000000E+00  0.68510452882E+02  0.68510452882E+02  0.00000000000E+00 0.  1.
         -2   -1    0    0    0  501 -0.00000000000E+00 -0.00000000000E+00 -0.26884465702E+03  0.26884465702E+03  0.00000000000E+00 0. -1.
          5    1    1    2  502    0 -0.33020073480E+02  0.86540707757E+01  0.13716955523E+02  0.37024930283E+02  0.41800000000E+01 0.  1.
         -5    1    1    2    0  502  0.91770801113E+02  0.12885414476E+02 -0.59490781765E+02  0.11020226567E+03  0.41800000000E+01 0.  1.
        -11    1    1    2    0    0 -0.41025440282E+02 -0.24722057036E+02 -0.16325036711E+03  0.17013215221E+03  0.00000000000E+00 0. -1.
         11    1    1    2    0    0 -0.17725287350E+02  0.31825717844E+01  0.86899892182E+01  0.19995761737E+02  0.00000000000E+00 0.  1.
</event>
<event>
 7    1  0.1538147E-010  0.1172344E+03  0.7561462E-02  0.1247730E+00
          2   -1    0    0  501    0  0.00000000000E+00  0.00000000000E+00  0.21350903467E+02  0.21350903467E+02  0.00000000000E+00 0. -1.
         -2   -1    0    0    0  501 -0.00000000000E+00 -0.00000000000E+00 -0.79338598360E+03  0.79338598360E+03  0.00000000000E+00 0.  1.
         25    2    1    2    0    0  0.42031649253E+02  0.45509798963E+02 -0.31216084727E+03  0.34196182539E+03  0.12512271622E+03 0.  0.
          5    1    3    3  502    0  0.43797303831E+02 -0.36692809262E+02 -0.12712914136E+03  0.13944123156E+03  0.41800000000E+01 0. -1.
         -5    1    3    3    0  502 -0.17656545784E+01  0.82202608225E+02 -0.18503170591E+03  0.20252059383E+03  0.41800000000E+01 0. -1.
        -11    1    1    2    0    0 -0.62408921354E+02 -0.38366511551E+02 -0.42832013774E+03  0.43453999018E+03  0.00000000000E+00 0.  1.
         11    1    1    2    0    0  0.20377272101E+02 -0.71432874122E+01 -0.31554095120E+02  0.38235071494E+02  0.00000000000E+00 0. -1.
</event>
<event>
 6    1  0.1538147E-010  0.2374592E+03  0.7561462E-02  0.1121497E+00
          1   -1    0    0  501    0  0.00000000000E+00  0.00000000000E+00  0.14815047342E+03  0.14815047342E+03  0.00000000000E+00 0. -1.
         -1   -1    0    0    0  501 -0.00000000000E+00 -0.00000000000E+00 -0.45155832152E+03  0.45155832152E+03  0.00000000000E+00 0.  1.
          5    1    1    2  502    0  0.19708833060E+02 -0.11154596847E+03 -0.10276638022E+03  0.15300111923E+03  0.41800000000E+01 0. -1.
         -5    1    1    2    0  502 -0.26914452367E+02 -0.11475565488E+03  0.17703512302E+02  0.11926497735E+03  0.41800000000E+01 0. -1.
        -11    1    1    2    0    0  0.46503888471E+02  0.15928640861E+03 -0.15724987597E+03  0.22860948166E+03  0.00000000000E+00 0. -1.
         11    1    1    2    0    0 -0.39298269164E+02  0.67015214740E+02 -0.61095104213E+02  0.98833216707E+02  0.00000000000E+00 0.  1.
</event>
<event>
 7    1  0.1538147E-010  0.1287075E+03  0.7561462E-02  0.1229386E+00
          1   -1    0    0  501    0  0.00000000000E+00  0.00000000000E+00  0.82287767895E+03  0.82287767895E+03  0.00000000000E+00 0. -1.
         -1   -1    0    0    0  501 -0.00000000000E+00 -0.00000000000E+00 -0.32208712086E+02  0.32208712086E+02  0.00000000000E+00 0.  1.
         25    2    1    2    0    0  0.45526354872E+02  0.86595800538E+02  0.60552357991E+03  0.62600913845E+03  0.12512854968E+03 0.  0.
          5    1    3    3  502    0 -0.31410759296E+02  0.21507669767E+02  0.33697056781E+03  0.33913987030E+03  0.41800000000E+01 0.  1.
         -5    1    3    3    0  502  0.76937114168E+02  0.65088130771E+02  0.26855301210E+03  0.28686926815E+03  0.41800000000E+01 0.  1.
        -11    1    1    2    0    0 -0.29461541686E+02  0.72344886797E+00  0.10639047046E+03  0.11039673012E+03  0.00000000000E+00 0. -1.
         11    1    1    2    0    0 -0.16064813187E+02 -0.87319249406E+02  0.78754916501E+02  0.11868052246E+03  0.00000000000E+00 0.  1.
</event>
<event>
 7    1  0.1538147E-010  0.1013006E+03  0.7561462E-02  0.1277585E+00
         -1   -1    0    0    0  501 -0.00000000000E+00  0.00000000000E+00  0.70405019452E+02  0.70405019452E+02  0.00000000000E+00 0.  1.
          1   -1    0    0  501    0  0.00000000000E+00 -0.00000000000E+00 -0.24649236664E+03  0.24649236664E+03  0.00000000000E+00 0. -1.
         25    2    1    2    0    0 -0.14943341923E+02  0.74828079169E+02 -0.95367962964E+02  0.17481418983E+03  0.12506961144E+03 0.  0.
          5    1    3    3  502    0  0.32513209824E+02  0.15436615900E+02 -0.91687803776E+02  0.98587644686E+02  0.41800000000E+01 0. -1.
         -5    1    3    3    0  502 -0.47456551747E+02  0.59391463269E+02 -0.36801591874E+01  0.76226545144E+02  0.41800000000E+01 0. -1.
        -11    1    1    2    0    0  0.32359930643E+02 -0.41498290865E+02 -0.89169295769E+02  0.10353954106E+03  0.00000000000E+00 0. -1.
         11    1    1    2    0    0 -0.17416588720E+02 -0.33329788304E+02  0.84499115429E+01  0.38543655199E+02  0.00000000000E+00 0.  1.
</event>
<event>
 7    1  0.1538147E-010  0.1166658E+03  0.7561462E-02  0.1248701E+00
          2   -1    0    0  501    0  0.00000000000E+00  0.00000000000E+00  0.15814750627E+03  0.15814750627E+03  0.00000000000E+00 0.  1.
         -2   -1    0    0    0  501 -0.00000000000E+00 -0.00000000000E+00 -0.10726552991E+03  0.10726552991E+03  0.00000000000E+00 0. -1.
         25    2    1    2    0    0  0.36228679544E+02  0.58359741694E+02  0.51457624949E+02  0.15172350471E+03  0.12511497930E+03 0.  0.
          5    1    3    3  502    0 -0.37240857648E+02  0.40170613703E+02 -0.78260672419E+01  0.55491255276E+02  0.41800000000E+01 0. -1.
         -5    1    3    3    0  502  0.73469537191E+02  0.18189127991E+02  0.59283692191E+02  0.96232249439E+02  0.41800000000E+01 0. -1.
        -11    1    1    2    0    0 -0.48824125303E+02 -0.65359715419E+01 -0.24757194815E+02  0.55131051420E+02  0.00000000000E+00 0. -1.
         11    1    1    2    0    0  0.12595445759E+02 -0.51823770152E+02  0.24181546224E+02  0.58558480039E+02  0.00000000000E+00 0.  1.
</event>
<event>
 7    1  0.1538147E-010  0.8583403E+02  0.7561462E-02  0.1313266E+00
         -1   -1    0    0    0  501 -0.00000000000E+00  0.00000000000E+00  0.91155734925E+03  0.91155734925E+03  0.00000000000E+00 0.  1.
          1   -1    0    0  501    0  0.00000000000E+00 -0.00000000000E+00 -0.15251043702E+02  0.15251043702E+02  0.00000000000E+00 0. -1.
         25    2    1    2    0    0 -0.22968254574E+01  0.58115892671E+01  0.68107453668E+03  0.69249072577E+03  0.12506730501E+03 0.  0.
          5    1    3    3  502    0  0.35634361165E+02 -0.11456081667E+02  0.60049601300E+03  0.60167597886E+03  0.41800000000E+01 0.  1.
         -5    1    3    3    0  502 -0.37931186622E+02  0.17267670934E+02  0.80578523679E+02  0.90814746910E+02  0.41800000000E+01 0.  1.
        -11    1    1    2    0    0  0.47063225698E+02 -0.51873980198E+01  0.98326301257E+02  0.10913256998E+03  0.00000000000E+00 0.  1.
         11    1    1    2    0    0 -0.44766400240E+02 -0.62419124731E+00  0.11690546761E+03  0.12518509721E+03  0.00000000000E+00 0. -1.
</event>
<event>
 6    1  0.1538147E-010  0.9268434E+02  0.7561462E-02  0.1296478E+00
         -1   -1    0    0    0  501 -0.00000000000E+00  0.00000000000E+00  0.28130846679E+02  0.28130846679E+02  0.00000000000E+00 0.  1.
          1   -1    0    0  501    0  0.00000000000E+00 -0.00000000000E+00 -0.46519380015E+03  0.46519380015E+03  0.00000000000E+00 0. -1.
          5    1    1    2  502    0 -0.31687022191E+02 -0.75337018509E+02 -0.20825582098E+03  0.22375811293E+03  0.41800000000E+01 0.  1.
         -5    1    1    2    0  502  0.15344140879E+02  0.41930589995E+02 -0.64238355105E+02  0.78343191812E+02  0.41800000000E+01 0.  1.
        -11    1    1    2    0    0  0.30717951113E+02  0.12165911302E+02 -0.99690733932E+01  0.34510641007E+02  0.00000000000E+00 0.  1.
         11    1    1    2    0    0 -0.14375069801E+02  0.21240517212E+02 -0.15459970400E+03  0.15671270108E+03  0.00000000000E+00 0. -1.
</event>
<event>
 7    1  0.1538147E-010  0.1178812E+03  0.7561462E-02  0.1246634E+00
          2   -1    0    0  501    0  0.00000000000E+00  0.00000000000E+00  0.57311914108E+03  0.57311914108E+03  0.00000000000E+00 0. -1.
         -2   -1    0    0    0  501 -0.00000000000E+00 -0.00000000000E+00 -0.26645106270E+02  0.26645106270E+02  0.00000000000E+00 0.  1.
         25    2    1    2    0    0 -0.16382885225E+02 -0.40050799164E+02  0.21512507955E+03  0.25255549950E+03  0.12503205602E+03 0.  0.
          5    1    3    3  502    0  0.27359090072E+02 -0.72450090569E+02  0.12014328508E+03  0.14300145728E+03  0.41800000000E+01 0. -1.
         -5    1    3    3    0  502 -0.43741975297E+02  0.32399291406E+02  0.94981794471E+02  0.10955404222E+03  0.41800000000E+01 0. -1.
        -11    1    1    2    0    0  0.34515835211E+02  0.64510272564E+02  0.22596598775E+03  0.23751535901E+03  0.00000000000E+00 0.  1.
         11    1    1    2    0    0 -0.18132949986E+02 -0.24459473400E+02  0.10538296751E+03  0.10969338884E+03  0.00000000000E+00 0. -1.
</event>
<event>
 7    1  0.1538147E-010  0.1219635E+03  0.7561462E-02  0.1239893E+00
         -2   -1    0    0    0  501 -0.00000000000E+00  0.00000000000E+00  0.53559453091E+02  0.53559453091E+02  0.00000000000E+00 0.  1.
          2   -1    0    0  501    0  0.00000000000E+00 -0.00000000000E+00 -0.38629078425E+03  0.38629078425E+03  0.00000000000E+00 0. -1.
         25    2    1    2    0    0 -0.66210219874E+02 -0.13639236560E+02 -0.81173296325E+02  0.16377245862E+03  0.12514987886E+03 0.  0.
          5    1    3    3  502    0 -0.26686254408E+02 -0.63172241855E+02 -0.11783171437E+02  0.69707989818E+02  0.41800000000E+01 0.  1.
         -5    1    3    3    0  502 -0.39523965466E+02  0.49533005296E+02 -0.69390124888E+02  0.94064468806E+02  0.41800000000E+01 0.  1.
        -11    1    1    2    0    0  0.26708441694E+02  0.50856059097E+02 -0.10328243286E+03  0.11818181138E+03  0.00000000000E+00 0.  1.
         11    1    1    2    0    0  0.39501778180E+02 -0.37216822537E+02 -0.14827560197E+03  0.15789596733E+03  0.00000000000E+00 0. -1.
</event>
<event>
 7    1  0.1538147E-010  0.7965558E+02  0.7561462E-02  0.1330032E+00
          2   -1    0    0  501    0  0.00000000000E+00  0.00000000000E+00  0.19700690921E+03  0.19700690921E+03  0.00000000000E+00 0. -1.
         -2   -1    0    0    0  501 -0.00000000000E+00 -0.00000000000E+00 -0.93490152451E+02  0.93490152451E+02  0.00000000000E+00 0.  1.
         25    2    1    2    0    0  0.48841562345E+02 -0.11443401352E+02  0.70531146573E+01  0.13500845045E+03  0.12514425924E+03 0.  0.
          5    1    3    3  502    0  0.17280752745E+02 -0.23641322864E+02 -0.55997612744E+02  0.63330416035E+02  0.41800000000E+01 0. -1.
         -5    1    3    3    0  502  0.31560809600E+02  0.12197921511E+02  0.63050727401E+02  0.71678034415E+02  0.41800000000E+01 0. -1.
        -11    1    1    2    0    0 -0.20053425022E+01  0.40480660488E+02 -0.41804266929E+01  0.40745321687E+02  0.00000000000E+00 0.  1.
         11    1    1    2    0    0 -0.46836219843E+02 -0.29037259135E+02  0.10064406880E+03  0.11474328952E+03  0.00000000000E+00 0. -1.
</event>
<event>
 6    1  0.1538147E-010  0.1243501E+03  0.7561462E-02  0.1236088E+00
          3   -1    0    0  501    0  0.00000000000E+00  0.00000000000E+00  0.12164437264E+03  0.12164437264E+03  0.00000000000E+00 0. -1.
         -3   -1    0    0    0  501 -0.00000000000E+00 -0.00000000000E+00 -0.15980354614E+03  0.15980354614E+03  0.00000000000E+00 0.  1.
          5    1    1    2  502    0  0.38664895030E+01  0.58368899468E+02 -0.10680678637E+02  0.59610632124E+02  0.41800000000E+01 0.  1.
         -5    1    1    2    0  502 -0.85442309876E+02 -0.32358782998E+02  0.78631237759E+01  0.91797495988E+02  0.41800000000E+01 0.  1.
        -11    1    1    2    0    0  0.24095829866E+02  0.14638114887E+02 -0.50673933735E+02  0.57989059180E+02  0.00000000000E+00 0.  1.
         11    1    1    2    0    0  0.57479990508E+02 -0.40648231357E+02  0.15332315103E+02  0.72050731486E+02  0.00000000000E+00 0. -1.
</event>
<event>
 7    1  0.1538147E-010  0.1239112E+03  0.7561462E-02  0.1236781E+00
          1   -1    0    0  501    0  0.00000000000E+00  0.00000000000E+00  0.44309614063E+03  0.44309614063E+03  0.00000000000E+00 0. -1.
         -1   -1    0    0    0  501 -0.00000000000E+00 -0.00000000000E+00 -0.44143253666E+02  0.44143253666E+02  0.00000000000E+00 0.  1.
         25    2    1    2    0    0  0.72921454334E+02 -0.43062954285E+02  0.25890567937E+03  0.29977166224E+03  0.12513569491E+03 0.  0.
          5    1    3    3  502    0  0.79695985343E+02 -0.75524799892E+02  0.23257020445E+03  0.25721939638E+03  0.41800000000E+01 0. -1.
         -5    1    3    3    0  502 -0.67745310099E+01  0.32461845607E+02  0.26335474919E+02  0.42552265860E+02  0.41800000000E+01 0. -1.
        -11    1    1    2    0    0 -0.83536667351E+02  0.42893652973E+02  0.14724545366E+03  0.17464095706E+03  0.00000000000E+00 0. -1.
         11    1    1    2    0    0  0.10615213017E+02  0.16930131193E+00 -0.71982460667E+01  0.12826774995E+02  0.00000000000E+00 0.  1.
</event>
<event>
 7    1  0.1538147E-010  0.1026673E+03  0.7561462E-02  0.1274785E+00
          1   -1    0    0  501    0  0.00000000000E+00  0.00000000000E+00  0.18310291677E+02  0.18310291677E+02  0.00000000000E+00 0.  1.
         -1   -1    0    0    0  501 -0.00000000000E+00 -0.00000000000E+00 -0.78175740260E+03  0.78175740260E+03  0.00000000000E+00 0. -1.
         25    2    1    2    0    0  0.10991174876E+02 -0.12234537106E+01 -0.59416855922E+03  0.60730022191E+03  0.12511986252E+03 0.  0.
          5    1    3    3  502    0  0.68082493152E+01  0.56070899308E+02 -0.16876858815E+03  0.17801855733E+03  0.41800000000E+01 0.  1.
         -5    1    3    3    0  502  0.41829255608E+01 -0.57294353018E+02 -0.42539997107E+03  0.42928166457E+03  0.41800000000E+01 0.  1.
        -11    1    1    2    0    0 -0.44128555507E+02  0.24622110413E+02 -0.10855673244E+03  0.11974198049E+03  0.00000000000E+00 0.  1.
         11    1    1    2    0    0  0.33137380631E+02 -0.23398656702E+02 -0.60721819257E+02  0.73025491881E+02  0.00000000000E+00 0. -1.
</event>
<event>
 6    1  0.1538147E-010  0.1190648E+03  0.7561462E-02  0.1244648E+00
          1   -1    0    0  501    0  0.00000000000E+00  0.00000000000E+00  0.16205519807E+04  0.16205519807E+04  0.00000000000E+00 0. -1.
         -1   -1    0    0    0  501 -0.00000000000E+00 -0.00000000000E+00 -0.12167218545E+02  0.12167218545E+02  0.00000000000E+00 0.  1.
          5    1    1    2  502    0 -0.51191254465E+02  0.26608898004E+01  0.21278121810E+03  0.21890852894E+03  0.41800000000E+01 0. -1.
         -5    1    1    2    0  502  0.29021167538E+02  0.64803113655E+02  0.97227643569E+03  0.97487466451E+03  0.41800000000E+01 0. -1.
        -11    1    1    2    0    0 -0.35669236589E+02 -0.30483220005E+02  0.15337882003E+03  0.16039508588E+03  0.00000000000E+00 0.  1.
         11    1    1    2    0    0  0.57839323516E+02 -0.36980783450E+02  0.26994828833E+03  0.27854091990E+03  0.00000000000E+00 0. -1.
</event>
<event>
 7    1  0.1538147E-010  0.8407056E+02  0.7561462E-02  0.1317881E+00
         -3   -1    0    0    0  501 -0.00000000000E+00  0.00000000000E+00  0.20881751135E+03  0.20881751135E+03  0.00000000000E+00 0.  1.
          3   -1    0    0  501    0  0.00000000000E+00 -0.00000000000E+00 -0.61577540279E+02  0.61577540279E+02  0.00000000000E+00 0. -1.
         25    2    1    2    0    0 -0.12548306883E+02  0.18816619236E+02  0.10243304016E+03  0.16321604725E+03  0.12504169384E+03 0.  0.
          5    1    3    3  502    0 -0.56734375504E+02  0.43305902691E+02  0.81383943856E+02  0.10832824788E+03  0.41800000000E+01 0.  1.
         -5    1    3    3    0  502  0.44186068621E+02 -0.24489283456E+02  0.21049096302E+02  0.54887799368E+02  0.41800000000E+01 0.  1.
        -11    1    1    2    0    0  0.26272947406E+02 -0.18665652810E+02  0.70796908997E+02  0.77787381263E+02  0.00000000000E+00 0.  1.
         11    1    1    2    0    0 -0.13724640523E+02 -0.15096642582E+00 -0.25989978086E+02  0.29391623114E+02  0.00000000000E+00 0. -1.
</event>
<event>
 7    1  0.1538147E-010  0.1031883E+03  0.7561462E-02  0.1273731E+00
         -3   -1    0    0    0  501 -0.00000000000E+00  0.00000000000E+00  0.31518769402E+03  0.31518769402E+03  0.00000000000E+00 0.  1.
          3   -1    0    0  501    0  0.00000000000E+00 -0.00000000000E+00 -0.54624230837E+02  0.54624230837E+02  0.00000000000E+00 0. -1.
         25    2    1    2    0    0 -0.41611839232E+02  0.53653844595E+02  0.92068609167E+02  0.16948622049E+03  0.12505466780E+03 0.  0.
          5    1    3    3  502    0 -0.38247966966E+02 -0.56758913956E+01 -0.19125088819E+02  0.43340098552E+02  0.41800000000E+01 0.  1.
         -5    1    3    3    0  502 -0.33638722662E+01  0.59329735990E+02  0.11119369799E+03  0.12614612194E+03  0.41800000000E+01 0.  1.
        -11    1    1    2    0    0  0.31591759802E+02  0.17460576585E+02  0.65078772323E+02  0.74418798896E+02  0.00000000000E+00 0.  1.
         11    1    1    2    0    0  0.10020079431E+02 -0.71114421179E+02  0.10341608169E+03  0.12590690546E+03  0.00000000000E+00 0. -1.
</event>
<event>
 6    1  0.1538147E-010  0.1086746E+03  0.7561462E-02  0.1263044E+00
         -4   -1    0    0    0  501 -0.00000000000E+00  0.00000000000E+00  0.15222921876E+03  0.15222921876E+03  0.00000000000E+00 0.  1.
          4   -1    0    0  501    0  0.00000000000E+00 -0.00000000000E+00 -0.86231393901E+02  0.86231393901E+02  0.00000000000E+00 0. -1.
          5    1    1    2  502    0 -0.60021456285E+02 -0.42535346188E+02  0.12304309733E+02  0.74704078389E+02  0.41800000000E+01 0.  1.
         -5    1    1    2    0  502  0.56150055300E+02  0.43149372966E+01  0.49113556432E+01  0.56683694378E+02  0.41800000000E+01 0.  1.
        -11    1    1    2    0    0  0.40661386457E+02  0.13388667058E+02  0.24024415872E+01  0.42876292747E+02  0.00000000000E+00 0. -1.
         11    1    1    2    0    0 -0.36789985471E+02  0.24831741834E+02  0.46379717899E+02  0.64196547149E+02  0.00000000000E+00 0.  1.
</event>
<event>
 7    1  0.1538147E-010  0.8680174E+02  0.7561462E-02  0.1310787E+00
         -2   -1    0    0    0  501 -0.00000000000E+00  0.00000000000E+00  0.10764532780E+03  0.10764532780E+03  0.00000000000E+00 0.  1.
          2   -1    0    0  501    0  0.00000000000E+00 -0.00000000000E+00 -0.12987238400E+03  0.12987238400E+03  0.00000000000E+00 0. -1.
         25    2    1    2    0    0 -0.49590143024E+02 -0.38404761840E+01 -0.19912871840E+02  0.13606069484E+03  0.12506821608E+03 0.  0.
          5    1    3    3  502    0 -0.64753070179E+02  0.40679741954E+02  0.14095348875E+02  0.77871386034E+02  0.41800000000E+01 0.  1.
         -5    1    3    3    0  502  0.15162927155E+02 -0.44520218138E+02 -0.34008220715E+02  0.58189308805E+02  0.41800000000E+01 0.  1.
        -11    1    1    2    0    0  0.18765139674E+02  0.26712885614E+01 -0.44978542544E+02  0.48809174742E+02  0.00000000000E+00 0. -1.
         11    1    1    2    0    0  0.30825003350E+02  0.11691876226E+01  0.42664358184E+02  0.52647842220E+02  0.00000000000E+00 0.  1.
</event>
<event>
 7    1  0.1538147E-010  0.1296381E+03  0.7561462E-02  0.1227994E+00
          3   -1    0    0  501    0  0.00000000000E+00  0.00000000000E+00  0.74183825818E+03  0.74183825818E+03  0.00000000000E+00 0. -1.
         -3   -1    0    0    0  501 -0.00000000000E+00 -0.00000000000E+00 -0.26868433649E+02  0.26868433649E+02  0.00000000000E+00 0.  1.
         25    2    1    2    0    0  0.94076030376E+02  0.21341508506E+02  0.48588181094E+03  0.51090967661E+03  0.12506719784E+03 0.  0.
          5    1    3    3  502    0 -0.66299561292E+01 -0.30360782069E+02  0.39793333116E+02  0.50662759169E+02  0.41800000000E+01 0. -1.
         -5    1    3    3    0  502  0.10070598651E+03  0.51702290574E+02  0.44608847783E+03  0.46024691744E+03  0.41800000000E+01 0. -1.
        -11    1    1    2    0    0 -0.81421340563E+02  0.88530362129E+01  0.13206731779E+03  0.15540137508E+03  0.00000000000E+00 0. -1.
         11    1    1    2    0    0 -0.12654689813E+02 -0.30194544719E+02  0.97020695801E+02  0.10239564014E+03  0.00000000000E+00 0.  1.
</event>
<event>
 7    1  0.1538147E-010  0.1123717E+03  0.7561462E-02  0.1256240E+00
          1   -1    0    0  501    0  0.00000000000E+00  0.00000000000E+00  0.83142434708E+03  0.83142434708E+03  0.00000000000E+00 0. -1.
         -1   -1    0    0    0  501 -0.00000000000E+00 -0.00000000000E+00 -0.22134389875E+02  0.22134389875E+02  0.00000000000E+00 0.  1.
         25    2    1    2    0    0  0.94833824513E+01  0.44538012712E+02  0.65732896677E+03  0.67068130714E+03  0.12513383263E+03 0.  0.
          5    1    3    3  502    0 -0.46494760315E+02  0.55995521988E+02  0.43625807893E+03  0.44230741012E+03  0.41800000000E+01 0.  1.
         -5    1    3    3    0  502  0.55978142767E+02 -0.11457509277E+02  0.22107088785E+03  0.22837389702E+03  0.41800000000E+01 0.  1.
        -11    1    1    2    0    0  0.36800543095E+02 -0.15646814891E+02  0.99294168592E+02  0.10704407833E+03  0.00000000000E+00 0. -1.
         11    1    1    2    0    0 -0.46283925546E+02 -0.28891197821E+02  0.52666821841E+02  0.75833351491E+02  0.00000000000E+00 0.  1.
</event>
<event>
 7    1  0.1538147E-010  0.1302964E+03  0.7561462E-02  0.1227017E+00
         -4   -1    0    0    0  501 -0.00000000000E+00  0.00000000000E+00  0.97156068799E+02  0.97156068799E+02  0.00000000000E+00 0.  1.
          4   -1    0    0  501    0  0.00000000000E+00 -0.00000000000E+00 -0.19443775677E+03  0.19443775677E+03  0.00000000000E+00 0. -1.
         25    2    1    2    0    0 -0.74673046594E+02  0.90906220187E+01 -0.10472359006E+02  0.14631918428E+03  0.12506370413E+03 0.  0.
          5    1    3    3  502    0 -0.10889050676E+03  0.23354536274E+00 -0.16524661451E+02  0.11021675844E+03  0.41800000000E+01 0. -1.
         -5    1    3    3    0  502  0.34217460162E+02  0.88570766560E+01  0.60523024451E+01  0.36102425842E+02  0.41800000000E+01 0. -1.
        -11    1    1    2    0    0  0.34566849235E+02  0.39851641143E+02 -0.33110939371E+02  0.62284465751E+02  0.00000000000E+00 0. -1.
         11    1    1    2    0    0  0.40106197359E+02 -0.48942263162E+02 -0.53698389591E+02  0.82990175531E+02  0.00000000000E+00 0.  1.
</event>
<event>
 6    1  0.1538147E-010  0.1179340E+03  0.7561462E-02  0.1246545E+00
         -2   -1    0    0    0  501 -0.00000000000E+00  0.00000000000E+00  0.87487343548E+03  0.87487343548E+03  0.00000000000E+00 0.  1.
          2   -1    0    0  501    0  0.00000000000E+00 -0.00000000000E+00 -0.21467792506E+02  0.21467792506E+02  0.00000000000E+00 0. -1.
          5    1    1    2  502    0 -0.26485559969E+02  0.16257502692E+02  0.62076645933E+02  0.69546916905E+02  0.41800000000E+01 0. -1.
         -5    1    1    2    0  502  0.95337698818E+02 -0.32744257989E+02  0.54862073763E+03  0.55782044548E+03  0.41800000000E+01 0. -1.
        -11    1    1    2    0    0 -0.85209405633E+02  0.91709051004E+01  0.13585031479E+03  0.16062395942E+03  0.00000000000E+00 0. -1.
         11    1    1    2    0    0  0.16357266784E+02  0.73158501963E+01  0.10685794462E+03  0.10834990618E+03  0.00000000000E+00 0.  1.
</event>
<event>
 7    1  0.1538147E-010  0.1414571E+03  0.7561462E-02  0.1211382E+00
         -2   -1    0    0    0  501 -0.00000000000E+00  0.00000000000E+00  0.44282042132E+02  0.44282042132E+02  0.00000000000E+00 0. -1.
          2   -1    0    0  501    0  0.00000000000E+00 -0.00000000000E+00 -0.74654599970E+03  0.74654599970E+03  0.00000000000E+00 0.  1.
         25    2    1    2    0    0  0.12420176400E+03  0.62759014513E+02 -0.48961583952E+03  0.52415953610E+03  0.12511905089E+03 0.  0.
          5    1    3    3  502    0  0.76847554944E+02  0.21560451939E+02 -0.43042917345E+03  0.43778664386E+03  0.41800000000E+01 0.  1.
         -5    1    3    3    0  502  0.47354209054E+02  0.41198562574E+02 -0.59186666075E+02  0.86372892243E+02  0.41800000000E+01 0.  1.
        -11    1    1    2    0    0 -0.97511790040E+02 -0.56395804293E+02 -0.99681718762E+02  0.15041768843E+03  0.00000000000E+00 0. -1.
         11    1    1    2    0    0 -0.26689973958E+02 -0.63632102203E+01 -0.11296639929E+03  0.11625081730E+03  0.00000000000E+00 0.  1.
</event>
<event>
 7    1  0.1538147E-010  0.7725430E+02  0.7561462E-02  0.1337029E+00
          1   -1    0    0  501    0  0.00000000000E+00  0.00000000000E+00  0.43137610039E+03  0.43137610039E+03  0.00000000000E+00 0. -1.
         -1   -1    0    0    0  501 -0.00000000000E+00 -0.00000000000E+00 -0.42673581124E+02  0.42673581124E+02  0.00000000000E+00 0.  1.
         25    2    1    2    0    0  0.30639096743E+02 -0.49535255971E+02  0.11756247569E+03  0.18124971508E+03  0.12505209992E+03 0.  0.
          5    1    3    3  502    0  0.36104163858E+02 -0.17278478183E+02 -0.16273795457E+02  0.43409276368E+02  0.41800000000E+01 0. -1.
         -5    1    3    3    0  502 -0.54650671158E+01 -0.32256777788E+02  0.13383627114E+03  0.13784043872E+03  0.41800000000E+01 0. -1.
        -11    1    1    2    0    0  0.14061049263E+02 -0.65081371020E+00  0.65577968666E+00  0.14091370120E+02  0.00000000000E+00 0.  1.
         11    1    1    2    0    0 -0.44700146005E+02  0.50186069681E+02  0.27048426389E+03  0.27870859631E+03  0.00000000000E+00 0. -1.
</event>
<event>
 7    1  0.1538147E-010  0.1257351E+03  0.7561462E-02  0.1233925E+00
          1   -1    0    0  501    0  0.00000000000E+00  0.00000000000E+00  0.75540408151E+02  0.75540408151E+02  0.00000000000E+00 0.  1.
         -1   -1    0    0    0  501 -0.00000000000E+00 -0.00000000000E+00 -0.23491802589E+03  0.23491802589E+03  0.00000000000E+00 0. -1.
         25    2    1    2    0    0  0.56797249625E+02 -0.39758306006E+02 -0.47110328619E+02  0.15055014796E+03  0.12505724100E+03 0.  0.
          5    1    3    3  502    0  0.78986563916E+02  0.17528610206E+02 -0.21194449071E+02  0.83742501315E+02  0.41800000000E+01 0. -1.
         -5    1    3    3    0  502 -0.22189314291E+02 -0.57286916213E+02 -0.25915879548E+02  0.66807646648E+02  0.41800000000E+01 0. -1.
        -11    1    1    2    0    0 -0.57945551727E+02 -0.10259710598E+02 -0.36941845647E+02  0.69481282273E+02  0.00000000000E+00 0.  1.
         11    1    1    2    0    0  0.11483021021E+01  0.50018016604E+02 -0.75325443476E+02  0.90427003807E+02  0.00000000000E+00 0. -1.
</event>
<event>
 7    1  0.1538147E-010  0.3920966E+03  0.7561462E-02  0.1046551E+00
          2   -1    0    0  501    0  0.00000000000E+00  0.00000000000E+00  0.11170899142E+04  0.11170899142E+04  0.00000000000E+00 0. -1.
         -2   -1    0    0    0  501 -0.00000000000E+00 -0.00000000000E+00 -0.16124967319E+03  0.16124967319E+03  0.00000000000E+00 0.  1.
         25    2    1    2    0    0 -0.31271463340E+03  0.22377288198E+03  0.69894031032E+03  0.80747963047E+03  0.12506418987E+03 0.  0.
          5    1    3    3  502    0 -0.26333069893E+03  0.13054078704E+03  0.56537261568E+03  0.63721866031E+03  0.41800000000E+01 0. -1.
         -5    1    3    3    0  502 -0.49383934463E+02  0.93232094943E+02  0.13356769463E+03  0.17026097016E+03  0.41800000000E+01 0. -1.
        -11    1    1    2    0    0  0.17858382713E+03 -0.12160074140E+03  0.91382116566E+02  0.23458391857E+03  0.00000000000E+00 0.  1.
         11    1    1    2    0    0  0.13413080627E+03 -0.10217214058E+03  0.16551781409E+03  0.23627603831E+03  0.00000000000E+00 0. -1.
</event>
<event>
 7    1  0.1538147E-010  0.7709493E+02  0.7561462E-02  0.1337504E+00
          1   -1    0    0  501    0  0.00000000000E+00  0.00000000000E+00  0.42969342238E+02  0.42969342238E+02  0.00000000000E+00 0. -1.
         -1   -1    0    0    0  501 -0.00000000000E+00 -0.00000000000E+00 -0.28218359912E+03  0.28218359912E+03  0.00000000000E+00 0.  1.
         25    2    1    2    0    0 -0.70049228760E+01 -0.19393645887E+01 -0.11425231981E+03  0.16958608305E+03  0.12511201742E+03 0.  0.
          5    1    3    3  502    0 -0.47829001003E+02 -0.33526776394E+02 -0.99983315245E+02  0.11586972771E+03  0.41800000000E+01 0. -1.
         -5    1    3    3    0  502  0.40824078127E+02  0.31587411805E+02 -0.14269004562E+02  0.53716355337E+02  0.41800000000E+01 0. -1.
        -11    1    1    2    0    0  0.14689141263E+02  0.19653060079E+02 -0.13256407056E+03  0.13481560164E+03  0.00000000000E+00 0.  1.
         11    1    1    2    0    0 -0.76842183868E+01 -0.17713695490E+02  0.76021334823E+01  0.20751256675E+02  0.00000000000E+00 0. -1.
</event>
<event>
 6    1  0.1538147E-010  0.1057820E+03  0.7561462E-02  0.1268586E+00
         -2   -1    0    0    0  501 -0.00000000000E+00  0.00000000000E+00  0.39072231543E+02  0.39072231543E+02  0.00000000000E+00 0.  1.
          2   -1    0    0  501    0  0.00000000000E+00 -0.00000000000E+00 -0.56938887749E+03  0.56938887749E+03  0.00000000000E+00 0. -1.
          5    1    1    2  502    0  0.81367970836E+02 -0.52480954371E+01 -0.15278153633E+03  0.17322805612E+03  0.41800000000E+01 0. -1.
         -5    1    1    2    0  502 -0.18993902443E+02  0.79289205073E+01 -0.29828747827E+03  0.29902596577E+03  0.41800000000E+01 0. -1.
        -11    1    1    2    0    0  0.44983978363E+01 -0.34548305775E+02 -0.14195670433E+02  0.37620979175E+02  0.00000000000E+00 0.  1.
         11    1    1    2    0    0 -0.66872466229E+02  0.31867480705E+02 -0.65051960909E+02  0.98586107967E+02  0.00000000000E+00 0. -1.
</event>
<event>
 7    1  0.1538147E-010  0.1244016E+03  0.7561462E-02  0.1236007E+00
         -2   -1    0    0    0  501 -0.00000000000E+00  0.00000000000E+00  0.30903691377E+03  0.30903691377E+03  0.00000000000E+00 0.  1.
          2   -1    0    0  501    0  0.00000000000E+00 -0.00000000000E+00 -0.14434120084E+03  0.14434120084E+03  0.00000000000E+00 0. -1.
         25    2    1    2    0    0  0.49433047345E+02  0.99349871413E+02 -0.67520116992E+02  0.18035556855E+03  0.12512050906E+03 0.  0.
          5    1    3    3  502    0 -0.91186434354E+01  0.55616794282E+02  0.25488540952E+02  0.61996093298E+02  0.41800000000E+01 0. -1.
         -5    1    3    3    0  502  0.58551690780E+02  0.43733077130E+02 -0.93008657945E+02  0.11835947525E+03  0.41800000000E+01 0. -1.
        -11    1    1    2    0    0 -0.17434189633E+00 -0.47753417136E+02  0.17552395792E+03  0.18190403802E+03  0.00000000000E+00 0.  1.
         11    1    1    2    0    0 -0.49258705449E+02 -0.51596454276E+02  0.56691872004E+02  0.91118508041E+02  0.00000000000E+00 0. -1.
</event>
<event>
 6    1  0.1538147E-010  0.3248393E+03  0.7561462E-02  0.1073443E+00
          2   -1    0    0  501    0  0.00000000000E+00  0.00000000000E+00  0.19465246796E+04  0.19465246796E+04  0.00000000000E+00 0. -1.
         -2   -1    0    0    0  501 -0.00000000000E+00 -0.00000000000E+00 -0.68507719151E+02  0.68507719151E+02  0.00000000000E+00 0.  1.
          5    1    1    2  502    0 -0.51130032354E+02  0.22966503491E+03  0.51882004634E+03  0.56969467380E+03  0.41800000000E+01 0. -1.
         -5    1    1    2    0  502 -0.11529495824E+02  0.85561384987E+02  0.63983298347E+02  0.10754075852E+03  0.41800000000E+01 0. -1.
        -11    1    1    2    0    0  0.46950228196E+02 -0.84580812180E+02  0.26899063048E+03  0.28585695199E+03  0.00000000000E+00 0.  1.
         11    1    1    2    0    0  0.15709299982E+02 -0.23064560772E+03  0.10262229853E+04  0.10519400145E+04  0.00000000000E+00 0. -1.
</event>
<event>
 6    1  0.1538147E-010  0.1230531E+03  0.7561462E-02  0.1238144E+00
          1   -1    0    0  501    0  0.00000000000E+00  0.00000000000E+00  0.10479434759E+03  0.10479434759E+03  0.00000000000E+00 0. -1.
         -1   -1    0    0    0  501 -0.00000000000E+00 -0.00000000000E+00 -0.20319420213E+03  0.20319420213E+03  0.00000000000E+00 0.  1.
          5    1    1    2  502    0 -0.11153825801E+02 -0.41599742011E+02 -0.42142680686E+02  0.60402187880E+02  0.41800000000E+01 0.  1.
         -5    1    1    2    0  502  0.10056294183E+03  0.38629610515E+02 -0.52413588040E+02  0.11987413686E+03  0.41800000000E+01 0.  1.
        -11    1    1    2    0    0 -0.13477630987E+02  0.12645272176E+02 -0.39243519517E+02  0.43377451164E+02  0.00000000000E+00 0.  1.
         11    1    1    2    0    0 -0.75931485038E+02 -0.96751406800E+01  0.35399933704E+02  0.84334773810E+02  0.00000000000E+00 0. -1.
</event>
<event>
 7    1  0.1538147E-010  0.7385706E+02  0.7561462E-02  0.1347447E+00
          2   -1    0    0  501    0  0.00000000000E+00  0.00000000000E+00  0.20798835822E+03  0.20798835822E+03  0.00000000000E+00 0. -1.
         -2   -1    0    0    0  501 -0.00000000000E+00 -0.00000000000E+00 -0.83300167072E+02  0.83300167072E+02  0.00000000000E+00 0.  1.
         25    2    1    2    0    0  0.26329893657E+02 -0.34256687328E+02  0.13791551976E+03  0.19111340072E+03  0.12504742069E+03 0.  0.
          5    1    3    3  502    0  0.87498110323E+01  0.32273337400E+02  0.11282353175E+03  0.11774866971E+03  0.41800000000E+01 0.  1.
         -5    1    3    3    0  502  0.17580082625E+02 -0.66530024728E+02  0.25091988001E+02  0.73364731017E+02  0.41800000000E+01 0.  1.
        -11    1    1    2    0    0 -0.18787285238E+01  0.11565733907E+02  0.37597575008E+02  0.39381130865E+02  0.00000000000E+00 0. -1.
         11    1    1    2    0    0 -0.24451165133E+02  0.22690953422E+02 -0.50824903613E+02  0.60793993707E+02  0.00000000000E+00 0.  1.
</event>
<event>
 7    1  0.1538147E-010  0.1917858E+03  0.7561462E-02  0.1156860E+00
          1   -1    0    0  501    0  0.00000000000E+00  0.00000000000E+00  0.13638549230E+04  0.13638549230E+04  0.00000000000E+00 0. -1.
         -1   -1    0    0    0  501 -0.00000000000E+00 -0.00000000000E+00 -0.11661586514E+03  0.11661586514E+03  0.00000000000E+00 0.  1.
         25    2    1    2    0    0  0.15657509488E+03  0.52721024855E+02  0.12736288747E+04  0.12903737810E+04  0.12505485776E+03 0.  0.
          5    1    3    3  502    0  0.32120290575E+02 -0.38978172869E+02  0.24519133678E+03  0.25037426996E+03  0.41800000000E+01 0. -1.
         -5    1    3    3    0  502  0.12445480430E+03  0.91699197725E+02  0.10284375379E+04  0.10399995111E+04  0.41800000000E+01 0. -1.
        -11    1    1    2    0    0 -0.13105378183E+03 -0.13902122471E+02  0.84015974482E+01  0.13205661506E+03  0.00000000000E+00 0. -1.
         11    1    1    2    0    0 -0.25521313046E+02 -0.38818902384E+02 -0.34791414295E+02  0.58040392061E+02  0.00000000000E+00 0.  1.
</event>
<event>
 7    1  0.1538147E-010  0.1822502E+03  0.7561462E-02  0.1165643E+00
         -1   -1    0    0    0  501 -0.00000000000E+00  0.00000000000E+00  0.43483066355E+02  0.43483066355E+02  0.00000000000E+00 0.  1.
          1   -1    0    0  501    0  0.00000000000E+00 -0.00000000000E+00 -0.82027442797E+03  0.82027442797E+03  0.00000000000E+00 0. -1.
         25    2    1    2    0    0  0.11047355134E+03  0.10634220214E+03 -0.37105834445E+03  0.42053659134E+03  0.12511458816E+03 0.  0.
          5    1    3    3  502    0  0.73985250962E+02  0.27947064305E-02 -0.22028794797E+03  0.23241787751E+03  0.41800000000E+01 0.  1.
         -5    1    3    3    0  502  0.36488300382E+02  0.10633940743E+03 -0.15077039649E+03  0.18811871383E+03  0.41800000000E+01 0.  1.
        -11    1    1    2    0    0 -0.62157193434E+02 -0.11315190755E+03 -0.30877842071E+03  0.33468042066E+03  0.00000000000E+00 0. -1.
         11    1    1    2    0    0 -0.48316357910E+02  0.68097054075E+01 -0.96954596454E+02  0.10854048232E+03  0.00000000000E+00 0.  1.
</event>
<event>
 7    1  0.1538147E-010  0.1295675E+03  0.7561462E-02  0.1228099E+00
         -3   -1    0    0    0  501 -0.00000000000E+00  0.00000000000E+00  0.66649288593E+02  0.66649288593E+02  0.00000000000E+00 0.  1.
          3   -1    0    0  501    0  0.00000000000E+00 -0.00000000000E+00 -0.37243811661E+03  0.37243811661E+03  0.00000000000E+00 0. -1.
         25    2    1    2    0    0 -0.18064407914E+02  0.97193432095E+02 -0.23893389844E+03  0.28726758280E+03  0.12514140094E+03 0.  0.
          5    1    3    3  502    0  0.62057983398E+01 -0.15599808289E+02 -0.12099940091E+03  0.12223008374E+03  0.41800000000E+01 0.  1.
         -5    1    3    3    0  502 -0.24270206253E+02  0.11279324038E+03 -0.11793449754E+03  0.16503749906E+03  0.41800000000E+01 0.  1.
        -11    1    1    2    0    0  0.43907490669E+02 -0.26906855780E+02 -0.95908366415E-01  0.51496172899E+02  0.00000000000E+00 0. -1.
         11    1    1    2    0    0 -0.25843082756E+02 -0.70286576315E+02 -0.66759021209E+02  0.10032364950E+03  0.00000000000E+00 0.  1.
</event>
<event>
 6    1  0.1538147E-010  0.1144452E+03  0.7561462E-02  0.1252553E+00
          1   -1    0    0  501    0  0.00000000000E+00  0.00000000000E+00  0.41299559202E+03  0.41299559202E+03  0.00000000000E+00 0. -1.
         -1   -1    0    0    0  501 -0.00000000000E+00 -0.00000000000E+00 -0.56705162310E+02  0.56705162310E+02  0.00000000000E+00 0.  1.
          5    1    1    2  502    0  0.18430204471E+02  0.45821384762E+01  0.21498002072E+03  0.21585770809E+03  0.41800000000E+01 0. -1.
         -5    1    1    2    0  502  0.83452676136E+02  0.40390774858E+02  0.76771892835E+02  0.12044567148E+03  0.41800000000E+01 0. -1.
        -11    1    1    2    0    0 -0.75358398089E+02 -0.15407572414E+02  0.45271919180E+02  0.89251488036E+02  0.00000000000E+00 0. -1.
         11    1    1    2    0    0 -0.26524482518E+02 -0.29565340920E+02  0.19266596972E+02  0.44145886733E+02  0.00000000000E+00 0.  1.
</event>
<event>
 7    1  0.1538147E-010  0.8203488E+02  0.7561462E-02  0.1323374E+00
          2   -1    0    0  501    0  0.00000000000E+00  0.00000000000E+00  0.21467836839E+03  0.21467836839E+03  0.00000000000E+00 0. -1.
         -2   -1    0    0    0  501 -0.00000000000E+00 -0.00000000000E+00 -0.67949169927E+02  0.67949169927E+02  0.00000000000E+00 0.  1.
         25    2    1    2    0    0 -0.63412476907E+01 -0.19196225391E+02  0.89932102632E+02  0.15540486694E+03  0.12511667792E+03 0.  0.
          5    1    3    3  502    0  0.61344821100E+01 -0.54403249671E+02  0.10207591740E+03  0.11590647419E+03  0.41800000000E+01 0.  1.
         -5    1    3    3    0  502 -0.12475729801E+02  0.35207024280E+02 -0.12143814772E+02  0.39498392751E+02  0.41800000000E+01 0.  1.
        -11    1    1    2    0    0  0.35377828937E+02  0.23140660880E+02  0.79575563234E+02  0.90107442702E+02  0.00000000000E+00 0. -1.
         11    1    1    2    0    0 -0.29036581247E+02 -0.39444354883E+01 -0.22778467406E+02  0.37115228669E+02  0.00000000000E+00 0.  1.
</event>
<event>
 7    1  0.1538147E-010  0.9876694E+02  0.7561462E-02  0.1282910E+00
         -1   -1    0    0    0  501 -0.00000000000E+00  0.00000000000E+00  0.16623222562E+02  0.16623222562E+02  0.00000000000E+00 0.  1.
          1   -1    0    0  501    0  0.00000000000E+00 -0.00000000000E+00 -0.71403039933E+03  0.71403039933E+03  0.00000000000E+00 0. -1.
         25    2    1    2    0    0  0.70717069190E+01  0.40197112656E+01 -0.38878969318E+03  0.40850887803E+03  0.12512358207E+03 0.  0.
          5    1    3    3  502    0 -0.20668556863E+02 -0.50137446976E+02 -0.26481747144E+03  0.27034555371E+03  0.41800000000E+01 0.  1.
         -5    1    3    3    0  502  0.27740263782E+02  0.54157158241E+02 -0.12397222174E+03  0.13816332432E+03  0.41800000000E+01 0.  1.
        -11    1    1    2    0    0 -0.83994923145E+01  0.38603553623E+02 -0.76044344834E+02  0.85694388409E+02  0.00000000000E+00 0.  1.
         11    1    1    2    0    0  0.13277853956E+01 -0.42623264889E+02 -0.23257313876E+03  0.23645035546E+03  0.00000000000E+00 0. -1.
</event>
<event>
 6    1  0.1538147E-010  0.1007372E+03  0.7561462E-02  0.1278753E+00
          1   -1    0    0  501    0  0.00000000000E+00  0.00000000000E+00  0.10815197186E+03  0.10815197186E+03  0.00000000000E+00 0. -1.
         -1   -1    0    0    0  501 -0.00000000000E+00 -0.00000000000E+00 -0.14570447746E+03  0.14570447746E+03  0.00000000000E+00 0.  1.
          5    1    1    2  502    0 -0.20250807703E+02  0.43692503402E+02 -0.53123461776E+02  0.71824123087E+02  0.41800000000E+01 0.  1.
         -5    1    1    2    0  502  0.53561823107E+02  0.12645462336E+02  0.42757215467E+02  0.69817107407E+02  0.41800000000E+01 0.  1.
        -11    1    1    2    0    0  0.21613411359E+02 -0.30145320288E+02 -0.34835565386E+02  0.50886113052E+02  0.00000000000E+00 0.  1.
         11    1    1    2    0    0 -0.54924426762E+02 -0.26192645450E+02  0.76493060903E+01  0.61329105770E+02  0.00000000000E+00 0. -1.
</event>
<event>
 6    1  0.1538147E-010  0.2270439E+03  0.7561462E-02  0.1128738E+00
          2   -1    0    0  501    0  0.00000000000E+00  0.00000000000E+00  0.24321484670E+04  0.24321484670E+04  0.00000000000E+00 0. -1.
         -2   -1    0    0    0  501 -0.00000000000E+00 -0.00000000000E+00 -0.22567074228E+02  0.22567074228E+02  0.00000000000E+00 0.  1.
          5    1    1    2  502    0 -0.11600303986E+03 -0.11978997187E+03  0.10086476183E+04  0.10223472174E+04  0.41800000000E+01 0. -1.
         -5    1    1    2    0  502  0.14064985560E+02 -0.60424714317E+02  0.17427607286E+03  0.18503673120E+03  0.41800000000E+01 0. -1.
        -11    1    1    2    0    0 -0.15062230996E+02  0.38430864125E+02  0.18184236278E+03  0.18646835394E+03  0.00000000000E+00 0.  1.
         11    1    1    2    0    0  0.11700028529E+03  0.14178382207E+03  0.10448153388E+04  0.10608632387E+04  0.00000000000E+00 0. -1.
</event>
<event>
 7    1  0.1538147E-010  0.2217642E+03  0.7561462E-02  0.1132575E+00
          2   -1    0    0  501    0  0.00000000000E+00  0.00000000000E+00  0.13453701330E+04  0.13453701330E+04  0.00000000000E+00 0. -1.
         -2   -1    0    0    0  501 -0.00000000000E+00 -0.00000000000E+00 -0.43016329593E+02  0.43016329593E+02  0.00000000000E+00 0.  1.
         25    2    1    2    0    0 -0.17865846113E+03 -0.92434264285E+02  0.45855482813E+03  0.51611693588E+03  0.12506487178E+03 0.  0.
          5    1    3    3  502    0 -0.19042344795E+03 -0.10633719588E+03  0.42468710902E+03  0.47743617555E+03  0.41800000000E+01 0.  1.
         -5    1    3    3    0  502  0.11764986825E+02  0.13902931591E+02  0.33867719107E+02  0.38680760326E+02  0.41800000000E+01 0.  1.
        -11    1    1    2    0    0  0.38297823229E+02 -0.60576412291E+00  0.64771027299E+02  0.75248762060E+02  0.00000000000E+00 0.  1.
         11    1    1    2    0    0  0.14036063790E+03  0.93040028407E+02  0.77902794795E+03  0.79702076463E+03  0.00000000000E+00 0. -1.
</event>
<event>
 7    1  0.1538147E-010  0.9170665E+02  0.7561462E-02  0.1298771E+00
          2   -1    0    0  501    0  0.00000000000E+00  0.00000000000E+00  0.11557249029E+03  0.11557249029E+03  0.00000000000E+00 0. -1.
         -2   -1    0    0    0  501 -0.00000000000E+00 -0.00000000000E+00 -0.14257806083E+03  0.14257806083E+03  0.00000000000E+00 0.  1.
         25    2    1    2    0    0 -0.10394588002E+02 -0.63521876176E+02 -0.40358856181E+02  0.14633090348E+03  0.12506326330E+03 0.  0.
          5    1    3    3  502    0  0.11342996941E+02 -0.39013683107E+02  0.41398585546E+02  0.58155363763E+02  0.41800000000E+01 0. -1.
         -5    1    3    3    0  502 -0.21737584943E+02 -0.24508193069E+02 -0.81757441726E+02  0.88175539716E+02  0.41800000000E+01 0. -1.
        -11    1    1    2    0    0 -0.18733162313E+02  0.75692754299E+02  0.17681645680E+02  0.79956019270E+02  0.00000000000E+00 0. -1.
         11    1    1    2    0    0  0.29127750314E+02 -0.12170878122E+02 -0.43283600416E+01  0.31863628376E+02  0.00000000000E+00 0.  1.
</event>
<event>
 6    1  0.1538147E-010  0.1123717E+03  0.7561462E-02  0.1256240E+00
          2   -1    0    0  501    0  0.00000000000E+00  0.00000000000E+00  0.59812340397E+03  0.59812340397E+03  0.00000000000E+00 0. -1.
         -2   -1    0    0    0  501 -0.00000000000E+00 -0.00000000000E+00 -0.26772761950E+02  0.26772761950E+02  0.00000000000E+00 0.  1.
          5    1    1    2  502    0 -0.67057597563E+01 -0.40394749121E+02  0.83857844478E+02  0.93414738938E+02  0.41800000000E+01 0.  1.
         -5    1    1    2    0  502  0.40300100848E+01  0.85142275926E+02  0.35175308228E+03  0.36195738896E+03  0.41800000000E+01 0.  1.
        -11    1    1    2    0    0  0.29527316801E+02 -0.60350932934E+02  0.11129113671E+03  0.12999928713E+03  0.00000000000E+00 0. -1.
         11    1    1    2    0    0 -0.26851567129E+02  0.15603406129E+02  0.24448578560E+02  0.39524750900E+02  0.00000000000E+00 0.  1.
</event>
<event>
 7    1  0.1538147E-010  0.1289797E+03  0.7561462E-02  0.1228978E+00
          2   -1    0    0  501    0  0.00000000000E+00  0.00000000000E+00  0.10175918935E+04  0.10175918935E+04  0.00000000000E+00 0. -1.
         -2   -1    0    0    0  501 -0.00000000000E+00 -0.00000000000E+00 -0.19789485257E+02  0.19789485257E+02  0.00000000000E+00 0.  1.
         25    2    1    2    0    0 -0.32575205774E+02  0.80137356247E+02  0.48045768267E+03  0.50394231198E+03  0.12504050972E+03 0.  0.
          5    1    3    3  502    0  0.56590635940E+01 -0.19931269985E+02  0.14068647467E+02  0.25390544805E+02  0.41800000000E+01 0. -1.
         -5    1    3    3    0  502 -0.38234269368E+02  0.10006862623E+03  0.46638903520E+03  0.47855176718E+03  0.41800000000E+01 0. -1.
        -11    1    1    2    0    0  0.57333176492E+02 -0.14028576201E+02  0.21421004045E+03  0.22219323911E+03  0.00000000000E+00 0. -1.
         11    1    1    2    0    0 -0.24757970718E+02 -0.66108780046E+02  0.30313468509E+03  0.31124582763E+03  0.00000000000E+00 0.  1.
</event>
<event>
 6    1  0.1538147E-010  0.1098290E+03  0.7561462E-02  0.1260887E+00
         -1   -1    0    0    0  501 -0.00000000000E+00  0.00000000000E+00  0.12176988098E+03  0.12176988098E+03  0.00000000000E+00 0.  1.
          1   -1    0    0  501    0  0.00000000000E+00 -0.00000000000E+00 -0.19630289313E+03  0.19630289313E+03  0.00000000000E+00 0. -1.
          5    1    1    2  502    0 -0.33072736623E+02  0.42258745732E+02 -0.93247603700E+02  0.10766705854E+03  0.41800000000E+01 0.  1.
         -5    1    1    2    0  502 -0.31899728713E+02  0.45116735091E+02  0.38006921003E+02  0.67194575089E+02  0.41800000000E+01 0.  1.
        -11    1    1    2    0    0  0.32906160528E+02 -0.59217235172E+02  0.33296255424E+02  0.75486005109E+02  0.00000000000E+00 0.  1.
         11    1    1    2    0    0  0.32066304809E+02 -0.28158245652E+02 -0.52588584877E+02  0.67725135376E+02  0.00000000000E+00 0. -1.
</event>
<event>
 7    1  0.1538147E-010  0.1630722E+03  0.7561462E-02  0.1185271E+00
         -3   -1    0    0    0  501 -0.00000000000E+00  0.00000000000E+00  0.13226742819E+03  0.13226742819E+03  0.00000000000E+00 0.  1.
          3   -1    0    0  501    0  0.00000000000E+00 -0.00000000000E+00 -0.23969964078E+03  0.23969964078E+03  0.00000000000E+00 0. -1.
         25    2    1    2    0    0  0.78260749291E+02  0.83518568668E+02 -0.12106044869E+03  0.20830997918E+03  0.12504926627E+03 0.  0.
          5    1    3    3  502    0  0.12824853241E+02 -0.30942918962E+02 -0.44283025942E+02  0.55681234551E+02  0.41800000000E+01 0.  1.
         -5    1    3    3    0  502  0.65435896050E+02  0.11446148763E+03 -0.76777422752E+02  0.15262874463E+03  0.41800000000E+01 0.  1.
        -11    1    1    2    0    0 -0.12841635327E+01  0.26319746376E+02  0.13329398809E+02  0.29530509611E+02  0.00000000000E+00 0.  1.
         11    1    1    2    0    0 -0.76976585758E+02 -0.10983831504E+03  0.29883729604E+00  0.13412658018E+03  0.00000000000E+00 0. -1.
</event>
<event>
 6    1  0.1538147E-010  0.8045424E+02  0.7561462E-02  0.1327767E+00
         -1   -1    0    0    0  501 -0.00000000000E+00  0.00000000000E+00  0.13027009646E+03  0.13027009646E+03  0.00000000000E+00 0.  1.
          1   -1    0    0  501    0  0.00000000000E+00 -0.00000000000E+00 -0.10108458171E+03  0.10108458171E+03  0.00000000000E+00 0. -1.
          5    1    1    2  502    0 -0.24186817890E+02 -0.47612993290E+02 -0.41498014054E+02  0.67761027590E+02  0.41800000000E+01 0.  1.
         -5    1    1    2    0  502  0.27610220749E+02  0.33825271444E+02  0.38116348456E+02  0.58110254669E+02  0.41800000000E+01 0.  1.
        -11    1    1    2    0    0 -0.29561057669E+02 -0.66487348611E+01  0.56814395396E+02  0.64388953477E+02  0.00000000000E+00 0.  1.
         11    1    1    2    0    0  0.26137654809E+02  0.20436456707E+02 -0.24247215048E+02  0.41094442437E+02  0.00000000000E+00 0. -1.
</event>
<event>
 6    1  0.1538147E-010  0.8992487E+02  0.7561462E-02  0.1303034E+00
         -2   -1    0    0    0  501 -0.00000000000E+00  0.00000000000E+00  0.75395408782E+02  0.75395408782E+02  0.00000000000E+00 0.  1.
          2   -1    0    0  501    0  0.00000000000E+00 -0.00000000000E+00 -0.30978177439E+03  0.30978177439E+03  0.00000000000E+00 0. -1.
          5    1    1    2  502    0 -0.22670097802E+02  0.25641088651E+02  0.50274876195E+02  0.60962565054E+02  0.41800000000E+01 0.  1.
         -5    1    1    2    0  502  0.15899809672E+02  0.39332679976E+02 -0.69483440751E+02  0.81518615054E+02  0.41800000000E+01 0.  1.
        -11    1    1    2    0    0  0.44634078399E+01 -0.83726511802E+02 -0.20443605641E+03  0.22096187895E+03  0.00000000000E+00 0. -1.
         11    1    1    2    0    0  0.23068802899E+01  0.18752743176E+02 -0.10741744649E+02  0.21734124123E+02  0.00000000000E+00 0.  1.
</event>
<event>
 7    1  0.1538147E-010  0.1046986E+03  0.7561462E-02  0.1270715E+00
         -1   -1    0    0    0  501 -0.00000000000E+00  0.00000000000E+00  0.59020912493E+02  0.59020912493E+02  0.00000000000E+00 0.  1.
          1   -1    0    0  501    0  0.00000000000E+00 -0.00000000000E+00 -0.31868964056E+03  0.31868964056E+03  0.00000000000E+00 0. -1.
         25    2    1    2    0    0 -0.58615879498E+02  0.56284532692E+02 -0.15931751500E+03  0.21827487885E+03  0.12513225885E+03 0.  0.
          5    1    3    3  502    0 -0.34997326523E+01  0.48723258712E+02  0.46843385737E+00  0.49029541079E+02  0.41800000000E+01 0.  1.
         -5    1    3    3    0  502 -0.55116146846E+02  0.75612739800E+01 -0.15978594885E+03  0.16924533777E+03  0.41800000000E+01 0.  1.
        -11    1    1    2    0    0  0.44889226748E+02  0.17713419777E+01 -0.27018584172E+01  0.45005337121E+02  0.00000000000E+00 0.  1.
         11    1    1    2    0    0  0.13726652749E+02 -0.58055874670E+02 -0.97649354652E+02  0.11443033708E+03  0.00000000000E+00 0. -1.
</event>
<event>
 7    1  0.1538147E-010  0.9484608E+02  0.7561462E-02  0.1291523E+00
          1   -1    0    0  501    0  0.00000000000E+00  0.00000000000E+00  0.35290960116E+03  0.35290960116E+03  0.00000000000E+00 0. -1.
         -1   -1    0    0    0  501 -0.00000000000E+00 -0.00000000000E+00 -0.41040593189E+02  0.41040593189E+02  0.00000000000E+00 0.  1.
         25    2    1    2    0    0  0.47861591345E+02  0.88072354867E+01  0.20409243602E+03  0.24429586722E+03  0.12513372437E+03 0.  0.
          5    1    3    3  502    0 -0.20842354364E+02 -0.13575862523E+02 -0.25433715601E+01  0.25350521052E+02  0.41800000000E+01 0. -1.
         -5    1    3    3    0  502  0.68703945709E+02  0.22383098010E+02  0.20663580758E+03  0.21894534617E+03  0.41800000000E+01 0. -1.
        -11    1    1    2    0    0  0.17087823466E+02  0.15176646211E+02  0.63459210088E+02  0.67449207897E+02  0.00000000000E+00 0. -1.
         11    1    1    2    0    0 -0.64949414811E+02 -0.23983881697E+02  0.44317361857E+02  0.82205119230E+02  0.00000000000E+00 0.  1.
</event>
<event>
 7    1  0.1538147E-010  0.5759672E+02  0.7561462E-02  0.1408203E+00
         -2   -1    0    0    0  501 -0.00000000000E+00  0.00000000000E+00  0.10877574760E+03  0.10877574760E+03  0.00000000000E+00 0. -1.
          2   -1    0    0  501    0  0.00000000000E+00 -0.00000000000E+00 -0.11198653994E+03  0.11198653994E+03  0.00000000000E+00 0.  1.
         25    2    1    2    0    0 -0.29348123906E+01 -0.74243430087E+01 -0.22361913121E+02  0.12727392779E+03  0.12503944795E+03 0.  0.
          5    1    3    3  502    0  0.24559195535E+02  0.14453005835E+02 -0.65457336614E+02  0.71513486698E+02  0.41800000000E+01 0. -1.
         -5    1    3    3    0  502 -0.27494007926E+02 -0.21877348844E+02  0.43095423494E+02  0.55760441088E+02  0.41800000000E+01 0. -1.
        -11    1    1    2    0    0  0.26662243901E+02  0.53196728352E+01  0.48553732086E+02  0.55647453387E+02  0.00000000000E+00 0. -1.
         11    1    1    2    0    0 -0.23727431510E+02  0.21046701735E+01 -0.29402611309E+02  0.37840906364E+02  0.00000000000E+00 0.  1.
</event>
<event>
 6    1  0.1538147E-010  0.5779094E+02  0.7561462E-02  0.1407343E+00
          1   -1    0    0  501    0  0.00000000000E+00  0.00000000000E+00  0.10105515879E+04  0.10105515879E+04  0.00000000000E+00 0. -1.
         -1   -1    0    0    0  501 -0.00000000000E+00 -0.00000000000E+00 -0.16373844959E+02  0.16373844959E+02  0.00000000000E+00 0.  1.
          5    1    1    2  502    0  0.21339256203E+02 -0.96457651262E+01  0.82373450353E+03  0.82407791461E+03  0.41800000000E+01 0.  1.
         -5    1    1    2    0  502 -0.80337119271E+01  0.58777421736E+01  0.17047472310E+01  0.10930093481E+02  0.41800000000E+01 0.  1.
        -11    1    1    2    0    0  0.12656193821E+02 -0.33367257996E+02  0.12077060525E+03  0.12593288784E+03  0.00000000000E+00 0. -1.
         11    1    1    2    0    0 -0.25961738097E+02  0.37135280948E+02  0.47967886910E+02  0.65984536906E+02  0.00000000000E+00 0.  1.
</event>
<event>
 6    1  0.1538147E-010  0.1233216E+03  0.7561462E-02  0.1237716E+00
          2   -1    0    0  501    0  0.00000000000E+00  0.00000000000E+00  0.32533003354E+03  0.32533003354E+03  0.00000000000E+00 0. -1.
         -2   -1    0    0    0  501 -0.00000000000E+00 -0.00000000000E+00 -0.57851780056E+02  0.57851780056E+02  0.00000000000E+00 0.  1.
          5    1    1    2  502    0  0.24009386606E+02  0.25748636069E+02  0.51978970644E+02  0.62918428889E+02  0.41800000000E+01 0. -1.
         -5    1    1    2    0  502 -0.36735348012E+02 -0.10659704300E+03  0.11424214303E+03  0.16056511145E+03  0.41800000000E+01 0. -1.
        -11    1    1    2    0    0 -0.19305918437E+02  0.12830684148E+02  0.77437163323E+02  0.80832290614E+02  0.00000000000E+00 0. -1.
         11    1    1    2    0    0  0.32031879843E+02  0.68017722784E+02  0.23819976488E+02  0.78865982647E+02  0.00000000000E+00 0.  1.
</event>
<event>
 7    1  0.1538147E-010  0.1463069E+03  0.7561462E-02  0.1205086E+00
         -1   -1    0    0    0  501 -0.00000000000E+00  0.00000000000E+00  0.19655416078E+03  0.19655416078E+03  0.00000000000E+00 0.  1.
          1   -1    0    0  501    0  0.00000000000E+00 -0.00000000000E+00 -0.15672789257E+03  0.15672789257E+03  0.00000000000E+00 0. -1.
         25    2    1    2    0    0  0.66195458824E+02  0.11816276076E+03  0.45266328543E+02  0.18982857873E+03  0.12506627046E+03 0.  0.
          5    1    3    3  502    0  0.66780117581E+02  0.50055522311E+02  0.77853092544E+02  0.11420908824E+03  0.41800000000E+01 0.  1.
         -5    1    3    3    0  502 -0.58465875664E+00  0.68107238445E+02 -0.32586764001E+02  0.75619490493E+02  0.41800000000E+01 0.  1.
        -11    1    1    2    0    0 -0.24741080034E+02 -0.82501187619E+02  0.37485794392E+02  0.93934827306E+02  0.00000000000E+00 0.  1.
         11    1    1    2    0    0 -0.41454378790E+02 -0.35661573137E+02 -0.42925854732E+02  0.69518647311E+02  0.00000000000E+00 0. -1.
</event>
<event>
 7    1  0.1538147E-010  0.2073021E+03  0.7561462E-02  0.1143720E+00
         -2   -1    0    0    0  501 -0.00000000000E+00  0.00000000000E+00  0.55604018461E+02  0.55604018461E+02  0.00000000000E+00 0.  1.
          2   -1    0    0  501    0  0.00000000000E+00 -0.00000000000E+00 -0.84461011740E+03  0.84461011740E+03  0.00000000000E+00 0. -1.
         25    2    1    2    0    0  0.17120837534E+03  0.70870611305E+02 -0.35749743032E+03  0.42165438826E+03  0.12511218615E+03 0.  0.
          5    1    3    3  502    0  0.15699902772E+02 -0.32346070925E+02 -0.46557017255E+02  0.58972735285E+02  0.41800000000E+01 0.  1.
         -5    1    3    3    0  502  0.15550847256E+03  0.10321668223E+03 -0.31094041306E+03  0.36268165297E+03  0.41800000000E+01 0.  1.
        -11    1    1    2    0    0 -0.14644205191E+03 -0.39365726758E+02 -0.24768219205E+03  0.29041591429E+03  0.00000000000E+00 0.  1.
         11    1    1    2    0    0 -0.24766323428E+02 -0.31504884547E+02 -0.18382647657E+03  0.18814383331E+03  0.00000000000E+00 0. -1.
</event>
<event>
 6    1  0.1538147E-010  0.2817766E+03  0.7561462E-02  0.1094723E+00
         -2   -1    0    0    0  501 -0.00000000000E+00  0.00000000000E+00  0.12060511399E+03  0.12060511399E+03  0.00000000000E+00 0.  1.
          2   -1    0    0  501    0  0.00000000000E+00 -0.00000000000E+00 -0.11083028929E+04  0.11083028929E+04  0.00000000000E+00 0. -1.
          5    1    1    2  502    0  0.41578250097E+02 -0.76343548355E+02 -0.26883480522E+03  0.28257160712E+03  0.41800000000E+01 0.  1.
         -5    1    1    2    0  502  0.20079660768E+03 -0.18430311060E+02 -0.62170094452E+03  0.65359658111E+03  0.41800000000E+01 0.  1.
        -11    1    1    2    0    0 -0.18502299149E+03  0.28519413471E+02 -0.79287568331E+02  0.20330613079E+03  0.00000000000E+00 0. -1.
         11    1    1    2    0    0 -0.57351866292E+02  0.66254445943E+02 -0.17874460840E+02  0.89433687863E+02  0.00000000000E+00 0.  1.
</event>
<event>
 6    1  0.1538147E-010  0.1089090E+03  0.7561462E-02  0.1262604E+00
          2   -1    0    0  501    0  0.00000000000E+00  0.00000000000E+00  0.33396588524E+03  0.33396588524E+03  0.00000000000E+00 0. -1.
         -2   -1    0    0    0  501 -0.00000000000E+00 -0.00000000000E+00 -0.43565404087E+02  0.43565404087E+02  0.00000000000E+00 0.  1.
          5    1    1    2  502    0 -0.50172278749E+00  0.62871414984E+02  0.39632057835E+02  0.74439498629E+02  0.41800000000E+01 0.  1.
         -5    1    1    2    0  502  0.67725112599E+02 -0.23206978643E+02  0.14616483592E+03  0.16280935598E+03  0.41800000000E+01 0.  1.
        -11    1    1    2    0    0 -0.18988993811E+02 -0.27377472758E+02  0.12493111904E+02  0.35583503841E+02  0.00000000000E+00 0.  1.
         11    1    1    2    0    0 -0.48234396001E+02 -0.12286963584E+02  0.92110475494E+02  0.10469893088E+03  0.00000000000E+00 0. -1.
</event>
<event>
 7    1  0.1538147E-010  0.1766311E+03  0.7561462E-02  0.1171104E+00
         -2   -1    0    0    0  501 -0.00000000000E+00  0.00000000000E+00  0.12795014857E+03  0.12795014857E+03  0.00000000000E+00 0.  1.
          2   -1    0    0  501    0  0.00000000000E+00 -0.00000000000E+00 -0.34496040240E+03  0.34496040240E+03  0.00000000000E+00 0. -1.
         25    2    1    2    0    0 -0.33409012995E+02  0.15903502807E+03 -0.27952105158E+02  0.20693723438E+03  0.12503358144E+03 0.  0.
          5    1    3    3  502    0 -0.43578844566E+02  0.49009114021E+02 -0.62905525947E+02  0.90970250882E+02  0.41800000000E+01 0.  1.
         -5    1    3    3    0  502  0.10169831571E+02  0.11002591405E+03  0.34953420789E+02  0.11596698350E+03  0.41800000000E+01 0.  1.
        -11    1    1    2    0    0  0.32496872402E+02 -0.20473436390E+02 -0.10236298061E+02  0.39749089443E+02  0.00000000000E+00 0.  1.
         11    1    1    2    0    0  0.91214059303E+00 -0.13856159168E+03 -0.17882185061E+03  0.22622422714E+03  0.00000000000E+00 0. -1.
</event>
<event>
 7    1  0.1538147E-010  0.1468468E+03  0.7561462E-02  0.1204402E+00
         -1   -1    0    0    0  501 -0.00000000000E+00  0.00000000000E+00  0.80276571482E+03  0.80276571482E+03  0.00000000000E+00 0.  1.
          1   -1    0    0  501    0  0.00000000000E+00 -0.00000000000E+00 -0.40372205830E+02  0.40372205830E+02  0.00000000000E+00 0. -1.
         25    2    1    2    0    0  0.11044702323E+03  0.52451785565E+02  0.57423971523E+03  0.60028607770E+03  0.12506953979E+03 0.  0.
          5    1    3    3  502    0  0.40581039695E+02 -0.38829425429E+02  0.24946039674E+03  0.25573913858E+03  0.41800000000E+01 0.  1.
         -5    1    3    3    0  502  0.69865983532E+02  0.91281210995E+02  0.32477931849E+03  0.34454693912E+03  0.41800000000E+01 0.  1.
        -11    1    1    2    0    0 -0.64367323666E+02 -0.32942245635E+02  0.32358189360E+02  0.79217399112E+02  0.00000000000E+00 0. -1.
         11    1    1    2    0    0 -0.46079699561E+02 -0.19509539930E+02  0.15579560440E+03  0.16363444384E+03  0.00000000000E+00 0.  1.
</event>
<event>
 7    1  0.1538147E-010  0.1246243E+03  0.7561462E-02  0.1235658E+00
          1   -1    0    0  501    0  0.00000000000E+00  0.00000000000E+00  0.11279319322E+03  0.11279319322E+03  0.00000000000E+00 0. -1.
         -1   -1    0    0    0  501 -0.00000000000E+00 -0.00000000000E+00 -0.21197473277E+03  0.21197473277E+03  0.00000000000E+00 0.  1.
         25    2    1    2    0    0 -0.87586496384E+02 -0.55064003384E+02 -0.14835705274E+02  0.16302646656E+03  0.12511631320E+03 0.  0.
          5    1    3    3  502    0 -0.11040815349E+02 -0.38680777867E+02 -0.60149358157E+02  0.72481169048E+02  0.41800000000E+01 0.  1.
         -5    1    3    3    0  502 -0.76545681034E+02 -0.16383225517E+02  0.45313652882E+02  0.90545297508E+02  0.41800000000E+01 0.  1.
        -11    1    1    2    0    0  0.57789601836E+02  0.74912928433E+02 -0.83086743619E+02  0.12591660689E+03  0.00000000000E+00 0.  1.
         11    1    1    2    0    0  0.29796894548E+02 -0.19848925049E+02 -0.12590906543E+01  0.35824852541E+02  0.00000000000E+00 0. -1.
</event>
<event>
 7    1  0.1538147E-010  0.1148681E+03  0.7561462E-02  0.1251812E+00
         -1   -1    0    0    0  501 -0.00000000000E+00  0.00000000000E+00  0.10754990805E+03  0.10754990805E+03  0.00000000000E+00 0.  1.
          1   -1    0    0  501    0  0.00000000000E+00 -0.00000000000E+00 -0.16483841966E+03  0.16483841966E+03  0.00000000000E+00 0. -1.
         25    2    1    2    0    0 -0.73269436120E+02  0.21415159991E+02 -0.40531223592E+02  0.15206863757E+03  0.12512022658E+03 0.  0.
          5    1    3    3  502    0 -0.20388646641E+02  0.64810684582E+02  0.73477037491E+01  0.68465925089E+02  0.41800000000E+01 0. -1.
         -5    1    3    3    0  502 -0.52880789478E+02 -0.43395524592E+02 -0.47878927341E+02  0.83602712479E+02  0.41800000000E+01 0. -1.
        -11    1    1    2    0    0  0.29372745222E+01 -0.22598587384E+02 -0.40169697477E+02  0.46183637025E+02  0.00000000000E+00 0. -1.
         11    1    1    2    0    0  0.70332161597E+02  0.11834273939E+01  0.23412409462E+02  0.74136053120E+02  0.00000000000E+00 0.  1.
</event>
<event>
 7    1  0.1538147E-010  0.1644213E+03  0.7561462E-02  0.1183794E+00
          1   -1    0    0  501    0  0.00000000000E+00  0.00000000000E+00  0.59491868153E+03  0.59491868153E+03  0.00000000000E+00 0. -1.
         -1   -1    0    0    0  501 -0.00000000000E+00 -0.00000000000E+00 -0.61103644224E+02  0.61103644224E+02  0.00000000000E+00 0.  1.
         25    2    1    2    0    0 -0.11920766490E+03 -0.10140890626E+03  0.28243678948E+03  0.34627410901E+03  0.12506392316E+03 0.  0.
          5    1    3    3  502    0 -0.90357594119E+02 -0.96309713706E+02  0.11177105407E+03  0.17306154020E+03  0.41800000000E+01 0. -1.
         -5    1    3    3    0  502 -0.28850070781E+02 -0.50991925512E+01  0.17066573541E+03  0.17321256881E+03  0.41800000000E+01 0. -1.
        -11    1    1    2    0    0  0.43040923843E+02  0.36524272119E+01  0.20722758711E+02  0.47909227487E+02  0.00000000000E+00 0.  1.
         11    1    1    2    0    0  0.76166741057E+02  0.97756479045E+02  0.23065548912E+03  0.26183898926E+03  0.00000000000E+00 0. -1.
</event>
<event>
 7    1  0.1538147E-010  0.7801643E+02  0.7561462E-02  0.1334777E+00
          1   -1    0    0  501    0  0.00000000000E+00  0.00000000000E+00  0.39303531379E+03  0.39303531379E+03  0.00000000000E+00 0. -1.
         -1   -1    0    0    0  501 -0.00000000000E+00 -0.00000000000E+00 -0.35049362026E+02  0.35049362026E+02  0.00000000000E+00 0.  1.
         25    2    1    2    0    0 -0.19287028085E+02 -0.39625826554E+02  0.19167619318E+03  0.23309914987E+03  0.12511296917E+03 0.  0.
          5    1    3    3  502    0  0.24530685571E+02  0.46230330393E+01 -0.58242352031E+01  0.25971543750E+02  0.41800000000E+01 0.  1.
         -5    1    3    3    0  502 -0.43817713656E+02 -0.44248859593E+02  0.19750042838E+03  0.20712760612E+03  0.41800000000E+01 0.  1.
        -11    1    1    2    0    0  0.27013471296E+02 -0.92480038022E+00  0.14690695138E+03  0.14937280626E+03  0.00000000000E+00 0. -1.
         11    1    1    2    0    0 -0.77264432113E+01  0.40550626934E+02  0.19402807203E+02  0.45612719683E+02  0.00000000000E+00 0.  1.
</event>
<event>
 7    1  0.1538147E-010  0.1087210E+03  0.7561462E-02  0.1262957E+00
          2   -1    0    0  501    0  0.00000000000E+00  0.00000000000E+00  0.12275174015E+03  0.12275174015E+03  0.00000000000E+00 0.  1.
         -2   -1    0    0    0  501 -0.00000000000E+00 -0.00000000000E+00 -0.13886018228E+03  0.13886018228E+03  0.00000000000E+00 0. -1.
         25    2    1    2    0    0  0.35940328492E+02  0.58723432116E+02 -0.30995552984E+02  0.14615323549E+03  0.12513950315E+03 0.  0.
          5    1    3    3  502    0 -0.21330764329E+01  0.91383323976E+02 -0.28153691742E+02  0.95736955638E+02  0.41800000000E+01 0. -1.
         -5    1    3    3    0  502  0.38073404925E+02 -0.32659891861E+02 -0.28418612419E+01  0.50416279853E+02  0.41800000000E+01 0. -1.
        -11    1    1    2    0    0 -0.29220566624E+02 -0.17982157197E+02  0.50417554639E+02  0.60984664523E+02  0.00000000000E+00 0.  1.
         11    1    1    2    0    0 -0.67197618684E+01 -0.40741274919E+02 -0.35530443785E+02  0.54474022407E+02  0.00000000000E+00 0. -1.
</event>
<event>
 7    1  0.1538147E-010  0.2014404E+03  0.7561462E-02  0.1148529E+00
          2   -1    0    0  501    0  0.00000000000E+00  0.00000000000E+00  0.49580253216E+03  0.49580253216E+03  0.00000000000E+00 0. -1.
         -2   -1    0    0    0  501 -0.00000000000E+00 -0.00000000000E+00 -0.89848324275E+02  0.89848324275E+02  0.00000000000E+00 0.  1.
         25    2    1    2    0    0 -0.14064433649E+03 -0.11038659572E+03  0.24717317816E+03  0.32971811135E+03  0.12511364053E+03 0.  0.
          5    1    3    3  502    0 -0.11897758807E+03 -0.12802015634E+03  0.15611833586E+03  0.23438266593E+03  0.41800000000E+01 0. -1.
         -5    1    3    3    0  502 -0.21666748412E+02  0.17633560623E+02  0.91054842299E+02  0.95335445418E+02  0.41800000000E+01 0. -1.
        -11    1    1    2    0    0 -0.12565189681E+02  0.36329027862E+01  0.49124625376E+01  0.13971909768E+02  0.00000000000E+00 0.  1.
         11    1    1    2    0    0  0.15320952617E+03  0.10675369294E+03  0.15386856719E+03  0.24196083533E+03  0.00000000000E+00 0. -1.
</event>
<event>
 6    1  0.1538147E-010  0.2383851E+03  0.7561462E-02  0.1120873E+00
         -2   -1    0    0    0  501 -0.00000000000E+00  0.00000000000E+00  0.33432899399E+03  0.33432899399E+03  0.00000000000E+00 0.  1.
          2   -1    0    0  501    0  0.00000000000E+00 -0.00000000000E+00 -0.26524854397E+03  0.26524854397E+03  0.00000000000E+00 0. -1.
          5    1    1    2  502    0 -0.12470925812E+03  0.81231224552E+02 -0.12773418133E+03  0.19617442337E+03  0.41800000000E+01 0.  1.
         -5    1    1    2    0  502 -0.73957065912E+02  0.50189777870E+02  0.23302302900E+02  0.92461511568E+02  0.41800000000E+01 0.  1.
        -11    1    1    2    0    0  0.13107476614E+03 -0.81090223596E+02  0.51207084880E+02  0.16241423652E+03  0.00000000000E+00 0.  1.
         11    1    1    2    0    0  0.67591557890E+02 -0.50330778825E+02  0.12230524357E+03  0.14852736650E+03  0.00000000000E+00 0. -1.
</event>
<event>
 6    1  0.1538147E-010  0.1042905E+03  0.7561462E-02  0.1271524E+00
         -3   -1    0    0    0  501 -0.00000000000E+00  0.00000000000E+00  0.10467826910E+03  0.10467826910E+03  0.00000000000E+00 0.  1.
          3   -1    0    0  501    0  0.00000000000E+00 -0.00000000000E+00 -0.23377065839E+03  0.23377065839E+03  0.00000000000E+00 0. -1.
          5    1    1    2  502    0 -0.56088001528E+02  0.24642809949E+02  0.18835927877E+02  0.64229250163E+02  0.41800000000E+01 0. -1.
         -5    1    1    2    0  502  0.69214401642E+02  0.24075286672E+02  0.21419822450E+02  0.76462631505E+02  0.41800000000E+01 0. -1.
        -11    1    1    2    0    0 -0.34162834447E+02 -0.27056780847E+02 -0.24909794876E+02  0.50196280021E+02  0.00000000000E+00 0.  1.
         11    1    1    2    0    0  0.21036434332E+02 -0.21661315773E+02 -0.14443834474E+03  0.14756076580E+03  0.00000000000E+00 0. -1.
</event>
<event>
 7    1  0.1538147E-010  0.8566675E+02  0.7561462E-02  0.1313698E+00
         -2   -1    0    0    0  501 -0.00000000000E+00  0.00000000000E+00  0.23893620488E+02  0.23893620488E+02  0.00000000000E+00 0.  1.
          2   -1    0    0  501    0  0.00000000000E+00 -0.00000000000E+00 -0.79058533194E+03  0.79058533194E+03  0.00000000000E+00 0. -1.
         25    2    1    2    0    0 -0.57146974947E+02  0.25480991587E+02 -0.59058254309E+03  0.60692598512E+03  0.12512535127E+03 0.  0.
          5    1    3    3  502    0 -0.28736575675E+02 -0.24733079078E+01 -0.20967440651E+02  0.35902841127E+02  0.41800000000E+01 0. -1.
         -5    1    3    3    0  502 -0.28410399273E+02  0.27954299495E+02 -0.56961510244E+03  0.57102314399E+03  0.41800000000E+01 0. -1.
        -11    1    1    2    0    0  0.74360926092E+02 -0.38382774375E+01 -0.15751977414E+03  0.17423191139E+03  0.00000000000E+00 0. -1.
         11    1    1    2    0    0 -0.17213951144E+02 -0.21642714149E+02 -0.18589394220E+02  0.33321055914E+02  0.00000000000E+00 0.  1.
</event>
<event>
 7    1  0.1538147E-010  0.1704769E+03  0.7561462E-02  0.1177351E+00
         -1   -1    0    0    0  501 -0.00000000000E+00  0.00000000000E+00  0.93641671232E+02  0.93641671232E+02  0.00000000000E+00 0.  1.
          1   -1    0    0  501    0  0.00000000000E+00 -0.00000000000E+00 -0.39232544701E+03  0.39232544701E+03  0.00000000000E+00 0. -1.
         25    2    1    2    0    0 -0.48093171135E+00 -0.15591473168E+03 -0.11998594673E+03  0.23311112584E+03  0.12503813310E+03 0.  0.
          5    1    3    3  502    0 -0.11805365677E+02 -0.15380145640E+03 -0.50219723752E+02  0.16227676267E+03  0.41800000000E+01 0. -1.
         -5    1    3    3    0  502  0.11324433966E+02 -0.21132752801E+01 -0.69766222980E+02  0.70834363172E+02  0.41800000000E+01 0. -1.
        -11    1    1    2    0    0  0.38214054918E+02  0.98821876042E+02 -0.80045131095E+02  0.13279043712E+03  0.00000000000E+00 0. -1.
         11    1    1    2    0    0 -0.37733123206E+02  0.57092855639E+02 -0.98652697952E+02  0.12006555528E+03  0.00000000000E+00 0.  1.
</event>
<event>
 6    1  0.1538147E-010  0.6758599E+02  0.7561462E-02  0.1368500E+00
         -2   -1    0    0    0  501 -0.00000000000E+00  0.00000000000E+00  0.34942902889E+02  0.34942902889E+02  0.00000000000E+00 0.  1.
          2   -1    0    0  501    0  0.00000000000E+00 -0.00000000000E+00 -0.52425757016E+03  0.52425757016E+03  0.00000000000E+00 0. -1.
          5    1    1    2  502    0 -0.29922146331E+02 -0.28785442982E+02 -0.29362841472E+02  0.51025341038E+02  0.41800000000E+01 0.  1.
         -5    1    1    2    0  502  0.28814570562E+01 -0.23206008580E+02 -0.35886796544E+03  0.35965332008E+03  0.41800000000E+01 0.  1.
        -11    1    1    2    0    0  0.30447689491E+02  0.17683753560E+02 -0.10779354106E+03  0.11339852040E+03  0.00000000000E+00 0. -1.
         11    1    1    2    0    0 -0.34070002163E+01  0.34307698002E+02  0.67096806974E+01  0.35123291528E+02  0.00000000000E+00 0.  1.
</event>
<event>
 6    1  0.1538147E-010  0.1441479E+03  0.7561462E-02  0.1207854E+00
          2   -1    0    0  501    0  0.00000000000E+00  0.00000000000E+00  0.18154349846E+04  0.18154349846E+04  0.00000000000E+00 0.  1.
         -2   -1    0    0    0  501 -0.00000000000E+00 -0.00000000000E+00 -0.14459170407E+02  0.14459170407E+02  0.00000000000E+00 0. -1.
          5    1    1    2  502    0  0.94679527953E+02 -0.73369686971E+02  0.83335716531E+03  0.84193168449E+03  0.41800000000E+01 0.  1.
         -5    1    1    2    0  502 -0.33804516020E+02 -0.90479012741E+01  0.48882420980E+03  0.49009304250E+03  0.41800000000E+01 0.  1.
        -11    1    1    2    0    0 -0.13632653389E+02 -0.17790654261E+02  0.12954961929E+03  0.13147418178E+03  0.00000000000E+00 0.  1.
         11    1    1    2    0    0 -0.47242358543E+02  0.10020824251E+03  0.34924481976E+03  0.36639524620E+03  0.00000000000E+00 0. -1.
</event>
<event>
 6    1  0.1538147E-010  0.1519348E+03  0.7561462E-02  0.1198115E+00
         -2   -1    0    0    0  501 -0.00000000000E+00  0.00000000000E+00  0.34114083640E+02  0.34114083640E+02  0.00000000000E+00 0.  1.
          2   -1    0    0  501    0  0.00000000000E+00 -0.00000000000E+00 -0.11377968850E+04  0.11377968850E+04  0.00000000000E+00 0. -1.
          5    1    1    2  502    0 -0.73360751450E+02  0.33697551574E+02 -0.64586544847E+03  0.65090473555E+03  0.41800000000E+01 0.  1.
         -5    1    1    2    0  502 -0.65168174976E+02  0.28412307943E+02 -0.11760800352E+03  0.13748914562E+03  0.41800000000E+01 0.  1.
        -11    1    1    2    0    0  0.89738033601E+02 -0.39956142166E+02 -0.30235000853E+03  0.31790711792E+03  0.00000000000E+00 0. -1.
         11    1    1    2    0    0  0.48790892825E+02 -0.22153717351E+02 -0.37859340867E+02  0.65609969563E+02  0.00000000000E+00 0.  1.
</event>
<event>
 7    1  0.1538147E-010  0.9673326E+02  0.7561462E-02  0.1287319E+00
          1   -1    0    0  501    0  0.00000000000E+00  0.00000000000E+00  0.88717766020E+02  0.88717766020E+02  0.00000000000E+00 0. -1.
         -1   -1    0    0    0  501 -0.00000000000E+00 -0.00000000000E+00 -0.17515505554E+03  0.17515505554E+03  0.00000000000E+00 0.  1.
         25    2    1    2    0    0 -0.21537378359E+02 -0.86111422140E+01  0.11712158493E+02  0.12770687319E+03  0.12503543645E+03 0.  0.
          5    1    3    3  502    0 -0.23178988154E+02 -0.60084861266E+02 -0.19405759189E+02  0.67390740721E+02  0.41800000000E+01 0. -1.
         -5    1    3    3    0  502  0.16416097946E+01  0.51473719052E+02  0.31117917682E+02  0.60316132474E+02  0.41800000000E+01 0. -1.
        -11    1    1    2    0    0  0.46453565293E+02 -0.82437761107E+01 -0.94809272878E+02  0.10589944191E+03  0.00000000000E+00 0.  1.
         11    1    1    2    0    0 -0.24916186933E+02  0.16854918325E+02 -0.33401751320E+01  0.30266506454E+02  0.00000000000E+00 0. -1.
</event>
<event>
 6    1  0.1538147E-010  0.9951997E+02  0.7561462E-02  0.1281309E+00
         -2   -1    0    0    0  501 -0.00000000000E+00  0.00000000000E+00  0.52144903625E+03  0.52144903625E+03  0.00000000000E+00 0.  1.
          2   -1    0    0  501    0  0.00000000000E+00 -0.00000000000E+00 -0.30517453953E+02  0.30517453953E+02  0.00000000000E+00 0. -1.
          5    1    1    2  502    0 -0.15040910625E+02  0.35100272281E+02  0.22174880150E+03  0.22505168623E+03  0.41800000000E+01 0.  1.
         -5    1    1    2    0  502  0.64955161728E+02 -0.45356719517E+02  0.13550883949E+03  0.15702395683E+03  0.41800000000E+01 0.  1.
        -11    1    1    2    0    0  0.15222838192E+02 -0.69851263234E+00  0.88657319538E+02  0.89957451221E+02  0.00000000000E+00 0.  1.
         11    1    1    2    0    0 -0.65137089296E+02  0.10954959868E+02  0.45016621766E+02  0.79933395917E+02  0.00000000000E+00 0. -1.
</event>
<event>
 6    1  0.1538147E-010  0.7505803E+02  0.7561462E-02  0.1343691E+00
          1   -1    0    0  501    0  0.00000000000E+00  0.00000000000E+00  0.55371857386E+03  0.55371857386E+03  0.00000000000E+00 0. -1.
         -1   -1    0    0    0  501 -0.00000000000E+00 -0.00000000000E+00 -0.26445565179E+02  0.26445565179E+02  0.00000000000E+00 0.  1.
          5    1    1    2  502    0  0.22459957014E+02  0.19009964798E+02  0.38948111995E+01  0.29974495575E+02  0.41800000000E+01 0.  1.
         -5    1    1    2    0  502  0.10052461365E+02  0.22593629811E+02  0.32484019841E+03  0.32580692287E+03  0.41800000000E+01 0.  1.
        -11    1    1    2    0    0 -0.29011563452E+02  0.18955822544E+02  0.32110447508E+02  0.47244839521E+02  0.00000000000E+00 0.  1.
         11    1    1    2    0    0 -0.35008549281E+01 -0.60559417153E+02  0.16642755156E+03  0.17713788107E+03  0.00000000000E+00 0. -1.
</event>
<event>
 7    1  0.1538147E-010  0.9799786E+02  0.7561462E-02  0.1284563E+00
         -1   -1    0    0    0  501 -0.00000000000E+00  0.00000000000E+00  0.23996589817E+02  0.23996589817E+02  0.00000000000E+00 0.  1.
          1   -1    0    0  501    0  0.00000000000E+00 -0.00000000000E+00 -0.66273884469E+03  0.66273884469E+03  0.00000000000E+00 0. -1.
         25    2    1    2    0    0 -0.26047302187E+02  0.86338453752E+01 -0.53135329310E+03  0.54655533162E+03  0.12503360826E+03 0.  0.
          5    1    3    3  502    0  0.42037080863E+01 -0.53342357387E+02 -0.31185855147E+03  0.31644321257E+03  0.41800000000E+01 0. -1.
         -5    1    3    3    0  502 -0.30251010273E+02  0.61976202763E+02 -0.21949474163E+03  0.23011211905E+03  0.41800000000E+01 0. -1.
        -11    1    1    2    0    0  0.12462568773E+02 -0.38476352728E+02 -0.16719547733E+02  0.43764010512E+02  0.00000000000E+00 0.  1.
         11    1    1    2    0    0  0.13584733414E+02  0.29842507353E+02 -0.90669414037E+02  0.96416092375E+02  0.00000000000E+00 0. -1.
</event>
<event>
 6    1  0.1538147E-010  0.1285241E+03  0.7561462E-02  0.1229662E+00
         -1   -1    0    0    0  501 -0.00000000000E+00  0.00000000000E+00  0.94177499391E+02  0.94177499391E+02  0.00000000000E+00 0.  1.
          1   -1    0    0  501    0  0.00000000000E+00 -0.00000000000E+00 -0.23166193407E+03  0.23166193407E+03  0.00000000000E+00 0. -1.
          5    1    1    2  502    0  0.59319243722E+02  0.30131639893E+02 -0.11247675917E+02  0.67606737918E+02  0.41800000000E+01 0.  1.
         -5    1    1    2    0  502  0.21186477750E+02 -0.86998325320E+02 -0.53264619370E+02  0.10426968651E+03  0.41800000000E+01 0.  1.
        -11    1    1    2    0    0 -0.15277884067E+02  0.21996532503E+02 -0.75343109082E+02  0.79961523684E+02  0.00000000000E+00 0. -1.
         11    1    1    2    0    0 -0.65227837405E+02  0.34870152925E+02  0.23709696850E+01  0.74001485355E+02  0.00000000000E+00 0.  1.
</event>
<event>
 6    1  0.1538147E-010  0.1069751E+03  0.7561462E-02  0.1266276E+00
         -2   -1    0    0    0  501 -0.00000000000E+00  0.00000000000E+00  0.18203443889E+02  0.18203443889E+02  0.00000000000E+00 0.  1.
          2   -1    0    0  501    0  0.00000000000E+00 -0.00000000000E+00 -0.82892116164E+03  0.82892116164E+03  0.00000000000E+00 0. -1.
          5    1    1    2  502    0  0.74918951620E+02  0.10958392957E+02 -0.47879956269E+03  0.48476739713E+03  0.41800000000E+01 0. -1.
         -5    1    1    2    0  502 -0.29914833450E+02  0.19355722897E+02 -0.51926906952E+02  0.63114319570E+02  0.41800000000E+01 0. -1.
        -11    1    1    2    0    0  0.25509036825E+02 -0.16528242030E+02 -0.52372673832E+02  0.60554031316E+02  0.00000000000E+00 0.  1.
         11    1    1    2    0    0 -0.70513154995E+02 -0.13785873824E+02 -0.22761857429E+03  0.23868885752E+03  0.00000000000E+00 0. -1.
</event>
<event>
 7    1  0.1538147E-010  0.2337737E+03  0.7561462E-02  0.1124011E+00
         -1   -1    0    0    0  501 -0.00000000000E+00  0.00000000000E+00  0.21780301449E+03  0.21780301449E+03  0.00000000000E+00 0.  1.
          1   -1    0    0  501    0  0.00000000000E+00 -0.00000000000E+00 -0.32034583180E+03  0.32034583180E+03  0.00000000000E+00 0. -1.
         25    2    1    2    0    0 -0.22624227567E+03 -0.22025039397E+02  0.27501645150E+02  0.26094021221E+03  0.12515104555E+03 0.  0.
          5    1    3    3  502    0 -0.13714176711E+02  0.49964450942E+01  0.43490723841E+02  0.46064721498E+02  0.41800000000E+01 0. -1.
         -5    1    3    3    0  502 -0.21252809896E+03 -0.27021484492E+02 -0.15989078692E+02  0.21487549071E+03  0.41800000000E+01 0. -1.
        -11    1    1    2    0    0  0.18220628756E+03 -0.11754692428E+02 -0.70267581728E+02  0.19563955905E+03  0.00000000000E+00 0.  1.
         11    1    1    2    0    0  0.44035988107E+02  0.33779731825E+02 -0.59776880732E+02  0.81569075027E+02  0.00000000000E+00 0. -1.
</event>
<event>
 6    1  0.1538147E-010  0.1132944E+03  0.7561462E-02  0.1254588E+00
         -1   -1    0    0    0  501 -0.00000000000E+00  0.00000000000E+00  0.24652205960E+02  0.24652205960E+02  0.00000000000E+00 0.  1.
          1   -1    0    0  501    0  0.00000000000E+00 -0.00000000000E+00 -0.61724917552E+03  0.61724917552E+03  0.00000000000E+00 0. -1.
          5    1    1    2  502    0 -0.31040070449E+02 -0.65669546433E+02 -0.10604788248E+03  0.12860638040E+03  0.41800000000E+01 0. -1.
         -5    1    1    2    0  502 -0.14432673929E+02  0.55995284981E+02 -0.13417885773E+03  0.14616843804E+03  0.41800000000E+01 0. -1.
        -11    1    1    2    0    0  0.30787492614E+02 -0.36297628431E+02 -0.10779386708E+03  0.11783422810E+03  0.00000000000E+00 0.  1.
         11    1    1    2    0    0  0.14685251764E+02  0.45971889883E+02 -0.24457636227E+03  0.24929233494E+03  0.00000000000E+00 0. -1.
</event>
<event>
 7    1  0.1538147E-010  0.7669783E+02  0.7561462E-02  0.1338693E+00
          1   -1    0    0  501    0  0.00000000000E+00  0.00000000000E+00  0.33652130151E+03  0.33652130151E+03  0.00000000000E+00 0. -1.
         -1   -1    0    0    0  501 -0.00000000000E+00 -0.00000000000E+00 -0.50132123774E+02  0.50132123774E+02  0.00000000000E+00 0.  1.
         25    2    1    2    0    0 -0.83502732064E+01 -0.22891166358E+02  0.58253696753E+02  0.14008136312E+03  0.12504224305E+03 0.  0.
          5    1    3    3  502    0  0.31217049187E+01 -0.44763746769E+02 -0.26105387954E+02  0.52081683408E+02  0.41800000000E+01 0. -1.
         -5    1    3    3    0  502 -0.11471978125E+02  0.21872580411E+02  0.84359084707E+02  0.87999679707E+02  0.41800000000E+01 0. -1.
        -11    1    1    2    0    0  0.30652664301E+02  0.43297660423E+02  0.84366164249E+02  0.99659033193E+02  0.00000000000E+00 0.  1.
         11    1    1    2    0    0 -0.22302391094E+02 -0.20406494065E+02  0.14376931673E+03  0.14691302897E+03  0.00000000000E+00 0. -1.
</event>
<event>
 7    1  0.1538147E-010  0.8329109E+02  0.7561462E-02  0.1319963E+00
          2   -1    0    0  501    0  0.00000000000E+00  0.00000000000E+00  0.28127836438E+03  0.28127836438E+03  0.00000000000E+00 0. -1.
         -2   -1    0    0    0  501 -0.00000000000E+00 -0.00000000000E+00 -0.50521148389E+02  0.50521148389E+02  0.00000000000E+00 0.  1.
         25    2    1    2    0    0 -0.38393038471E+02  0.62202258455E+01  0.17395375576E+03  0.21777545078E+03  0.12511403281E+03 0.  0.
          5    1    3    3  502    0 -0.34523942349E+02  0.40692205597E+02  0.17481398563E+03  0.18282549101E+03  0.41800000000E+01 0.  1.
         -5    1    3    3    0  502 -0.38690961214E+01 -0.34471979752E+02 -0.86022986456E+00  0.34949959774E+02  0.41800000000E+01 0.  1.
        -11    1    1    2    0    0 -0.77395281862E+01 -0.26584069816E+02  0.57251186301E+02  0.63594900718E+02  0.00000000000E+00 0. -1.
         11    1    1    2    0    0  0.46132566657E+02  0.20363843971E+02 -0.44772607176E+00  0.50429161269E+02  0.00000000000E+00 0.  1.
</event>
<event>
 7    1  0.1538147E-010  0.1192346E+03  0.7561462E-02  0.1244365E+00
         -1   -1    0    0    0  501 -0.00000000000E+00  0.00000000000E+00  0.83175323405E+02  0.83175323405E+02  0.00000000000E+00 0.  1.
          1   -1    0    0  501    0  0.00000000000E+00 -0.00000000000E+00 -0.26669855569E+03  0.26669855569E+03  0.00000000000E+00 0. -1.
         25    2    1    2    0    0  0.23273529624E+02 -0.88385479756E+02 -0.15411850281E+03  0.21850112971E+03  0.12504631368E+03 0.  0.
          5    1    3    3  502    0 -0.21359584408E+02 -0.26882710617E+02 -0.13591617288E+03  0.14024831702E+03  0.41800000000E+01 0.  1.
         -5    1    3    3    0  502  0.44633114032E+02 -0.61502769140E+02 -0.18202329936E+02  0.78252812698E+02  0.41800000000E+01 0.  1.
        -11    1    1    2    0    0  0.34454437585E+02  0.30325718481E+02 -0.14638636564E+02  0.48177247235E+02  0.00000000000E+00 0. -1.
         11    1    1    2    0    0 -0.57727967208E+02  0.58059761275E+02 -0.14766092906E+02  0.83195502144E+02  0.00000000000E+00 0.  1.
</event>
<event>
 7    1  0.1538147E-010  0.1201614E+03  0.7561462E-02  0.1242831E+00
          2   -1    0    0  501    0  0.00000000000E+00  0.00000000000E+00  0.42994713130E+03  0.42994713130E+03  0.00000000000E+00 0.  1.
         -2   -1    0    0    0  501 -0.00000000000E+00 -0.00000000000E+00 -0.51187247547E+02  0.51187247547E+02  0.00000000000E+00 0. -1.
         25    2    1    2    0    0  0.76733545276E+02  0.30619427508E+01  0.31021037512E+03  0.34317282097E+03  0.12505876921E+03 0.  0.
          5    1    3    3  502    0  0.12119587958E+02  0.49603991021E+02  0.20414538992E+03  0.21047625273E+03  0.41800000000E+01 0.  1.
         -5    1    3    3    0  502  0.64613957318E+02 -0.46542048270E+02  0.10606498520E+03  0.13269656824E+03  0.41800000000E+01 0.  1.
        -11    1    1    2    0    0 -0.35928618757E+02 -0.40381209430E+02  0.62039630932E+02  0.82282583376E+02  0.00000000000E+00 0.  1.
         11    1    1    2    0    0 -0.40804926519E+02  0.37319266680E+02  0.65098777012E+01  0.55678974500E+02  0.00000000000E+00 0. -1.
</event>
<event>
 6    1  0.1538147E-010  0.1804456E+03  0.7561462E-02  0.1167373E+00
          1   -1    0    0  501    0  0.00000000000E+00  0.00000000000E+00  0.16364237939E+03  0.16364237939E+03  0.00000000000E+00 0. -1.
         -1   -1    0    0    0  501 -0.00000000000E+00 -0.00000000000E+00 -0.22285877389E+03  0.22285877389E+03  0.00000000000E+00 0.  1.
          5    1    1    2  502    0 -0.11944980251E+03  0.10799139359E+03 -0.13744171149E+02  0.16166870770E+03  0.41800000000E+01 0. -1.
         -5    1    1    2    0  502 -0.18048985990E+02 -0.33015852985E+02 -0.15097001906E+02  0.40757874210E+02  0.41800000000E+01 0. -1.
        -11    1    1    2    0    0  0.11727897117E+03 -0.44629611601E+02 -0.58085379423E+02  0.13827534348E+03  0.00000000000E+00 0.  1.
         11    1    1    2    0    0  0.20219817323E+02 -0.30345929004E+02  0.27710157982E+02  0.45799227888E+02  0.00000000000E+00 0. -1.
</event>
<event>
 7    1  0.1538147E-010  0.1123848E+03  0.7561462E-02  0.1256216E+00
         -2   -1    0    0    0  501 -0.00000000000E+00  0.00000000000E+00  0.69855337623E+02  0.69855337623E+02  0.00000000000E+00 0. -1.
          2   -1    0    0  501    0  0.00000000000E+00 -0.00000000000E+00 -0.23121393405E+03  0.23121393405E+03  0.00000000000E+00 0.  1.
         25    2    1    2    0    0  0.27156472300E+02  0.53125716311E+02 -0.57584260214E+02  0.15003900763E+03  0.12504375660E+03 0.  0.
          5    1    3    3  502    0  0.70815656655E+02  0.35147923292E+01 -0.40046747353E+02  0.81537876880E+02  0.41800000000E+01 0. -1.
         -5    1    3    3    0  502 -0.43659184355E+02  0.49610923982E+02 -0.17537512861E+02  0.68501130751E+02  0.41800000000E+01 0. -1.
        -11    1    1    2    0    0 -0.32408066399E+02 -0.66051523785E+02 -0.11261115078E+03  0.13451526992E+03  0.00000000000E+00 0.  1.
         11    1    1    2    0    0  0.52515940990E+01  0.12925807474E+02  0.88368145600E+01  0.16514994127E+02  0.00000000000E+00 0. -1.
</event>
<event>
 7    1  0.1538147E-010  0.1231479E+03  0.7561462E-02  0.1237992E+00
         -4   -1    0    0    0  501 -0.00000000000E+00  0.00000000000E+00  0.14006473266E+03  0.14006473266E+03  0.00000000000E+00 0.  1.
          4   -1    0    0  501    0  0.00000000000E+00 -0.00000000000E+00 -0.14855746009E+03  0.14855746009E+03  0.00000000000E+00 0. -1.
         25    2    1    2    0    0 -0.17253470512E+02 -0.91968538931E+02 -0.19929079107E+02  0.15751461816E+03  0.12513110061E+03 0.  0.
          5    1    3    3  502    0 -0.40238837896E+02  0.87001445441E+00  0.29210670759E+02  0.49906479405E+02  0.41800000000E+01 0.  1.
         -5    1    3    3    0  502  0.22985367384E+02 -0.92838553386E+02 -0.49139749866E+02  0.10760813875E+03  0.41800000000E+01 0.  1.
        -11    1    1    2    0    0  0.38556316945E+02  0.51136870810E+02  0.41311552769E+02  0.76211636413E+02  0.00000000000E+00 0.  1.
         11    1    1    2    0    0 -0.21302846433E+02  0.40831668121E+02 -0.29875201097E+02  0.54895938176E+02  0.00000000000E+00 0. -1.
</event>
<event>
 7    1  0.1538147E-010  0.2041551E+03  0.7561462E-02  0.1146280E+00
         -4   -1    0    0    0  501 -0.00000000000E+00  0.00000000000E+00  0.94795628509E+02  0.94795628509E+02  0.00000000000E+00 0.  1.
          4   -1    0    0  501    0  0.00000000000E+00 -0.00000000000E+00 -0.50569127306E+03  0.50569127306E+03  0.00000000000E+00 0. -1.
         25    2    1    2    0    0 -0.13757692919E+03  0.12374067421E+03 -0.27084155961E+03  0.35107411357E+03  0.12513479494E+03 0.  0.
          5    1    3    3  502    0 -0.96126692204E+02  0.40393444088E+01 -0.10751271573E+03  0.14433680647E+03  0.41800000000E+01 0. -1.
         -5    1    3    3    0  502 -0.41450236982E+02  0.11970132981E+03 -0.16332884388E+03  0.20673730710E+03  0.41800000000E+01 0. -1.
        -11    1    1    2    0    0  0.66601777522E+02 -0.53771782582E+02 -0.12056227397E+03  0.14785960664E+03  0.00000000000E+00 0. -1.
         11    1    1    2    0    0  0.70975151665E+02 -0.69968891632E+02 -0.19491810970E+02  0.10155318136E+03  0.00000000000E+00 0.  1.
</event>
<event>
 7    1  0.1538147E-010  0.9753021E+02  0.7561462E-02  0.1285577E+00
         -2   -1    0    0    0  501 -0.00000000000E+00  0.00000000000E+00  0.13457878161E+03  0.13457878161E+03  0.00000000000E+00 0.  1.
          2   -1    0    0  501    0  0.00000000000E+00 -0.00000000000E+00 -0.88842413175E+02  0.88842413175E+02  0.00000000000E+00 0. -1.
         25    2    1    2    0    0  0.20846363975E+02  0.18065739396E+02  0.88461107839E+01  0.12835308225E+03  0.12504126605E+03 0.  0.
          5    1    3    3  502    0 -0.29015166892E+02 -0.28782602820E+02 -0.28779629819E+02  0.50160319251E+02  0.41800000000E+01 0. -1.
         -5    1    3    3    0  502  0.49861530867E+02  0.46848342215E+02  0.37625740603E+02  0.78192762994E+02  0.41800000000E+01 0. -1.
        -11    1    1    2    0    0 -0.50726513919E+02 -0.22005520216E+02  0.13500951407E+02  0.56918343469E+02  0.00000000000E+00 0.  1.
         11    1    1    2    0    0  0.29880149943E+02  0.39397808208E+01  0.23389306243E+02  0.38149769070E+02  0.00000000000E+00 0. -1.
</event>
<event>
 6    1  0.1538147E-010  0.2061948E+03  0.7561462E-02  0.1144615E+00
         -2   -1    0    0    0  501 -0.00000000000E+00  0.00000000000E+00  0.34613777836E+02  0.34613777836E+02  0.00000000000E+00 0.  1.
          2   -1    0    0  501    0  0.00000000000E+00 -0.00000000000E+00 -0.12340426607E+04  0.12340426607E+04  0.00000000000E+00 0. -1.
          5    1    1    2  502    0 -0.49472387659E+02 -0.31054868567E+02 -0.18415193337E+03  0.19323904618E+03  0.41800000000E+01 0.  1.
         -5    1    1    2    0  502  0.60614709558E+02 -0.14399915371E+03 -0.41536293003E+03  0.44379469953E+03  0.41800000000E+01 0.  1.
        -11    1    1    2    0    0 -0.51278040538E+02  0.10296800550E+03 -0.34067996925E+03  0.35957570698E+03  0.00000000000E+00 0. -1.
         11    1    1    2    0    0  0.40135718639E+02  0.72086016783E+02 -0.25923405022E+03  0.27204698587E+03  0.00000000000E+00 0.  1.
</event>
<event>
 6    1  0.1538147E-010  0.1692754E+03  0.7561462E-02  0.1178606E+00
          1   -1    0    0  501    0  0.00000000000E+00  0.00000000000E+00  0.10611486187E+04  0.10611486187E+04  0.00000000000E+00 0. -1.
         -1   -1    0    0    0  501 -0.00000000000E+00 -0.00000000000E+00 -0.32655332894E+02  0.32655332894E+02  0.00000000000E+00 0.  1.
          5    1    1    2  502    0  0.46785881815E+02  0.12188861895E+03  0.36668434870E+03  0.38925651972E+03  0.41800000000E+01 0. -1.
         -5    1    1    2    0  502 -0.48705572019E+02  0.25289059323E+02  0.29420062859E+03  0.29930461327E+03  0.41800000000E+01 0. -1.
        -11    1    1    2    0    0 -0.16442621987E+02 -0.29401480859E+02  0.17887520802E+03  0.18201963339E+03  0.00000000000E+00 0.  1.
         11    1    1    2    0    0  0.18362312191E+02 -0.11777619742E+03  0.18873310047E+03  0.22322318517E+03  0.00000000000E+00 0. -1.
</event>
<event>
 6    1  0.1538147E-010  0.1042673E+03  0.7561462E-02  0.1271570E+00
         -4   -1    0    0    0  501 -0.00000000000E+00  0.00000000000E+00  0.47658046118E+02  0.47658046118E+02  0.00000000000E+00 0. -1.
          4   -1    0    0  501    0  0.00000000000E+00 -0.00000000000E+00 -0.27611561979E+03  0.27611561979E+03  0.00000000000E+00 0.  1.
          5    1    1    2  502    0  0.55984686847E+02  0.24898131642E+02 -0.13431849941E+03  0.14769270058E+03  0.41800000000E+01 0.  1.
         -5    1    1    2    0  502 -0.25227070998E+02 -0.43102534792E+02 -0.19900917583E+02  0.53923580531E+02  0.41800000000E+01 0.  1.
        -11    1    1    2    0    0  0.18736926297E+02 -0.25043061902E+02 -0.24634244345E+02  0.39812979679E+02  0.00000000000E+00 0.  1.
         11    1    1    2    0    0 -0.49494542146E+02  0.43247465052E+02 -0.49603912334E+02  0.82344405120E+02  0.00000000000E+00 0. -1.
</event>
<event>
 6    1  0.1538147E-010  0.5341167E+03  0.7561462E-02  0.1005239E+00
          2   -1    0    0  501    0  0.00000000000E+00  0.00000000000E+00  0.10052121574E+04  0.10052121574E+04  0.00000000000E+00 0. -1.
         -2   -1    0    0    0  501 -0.00000000000E+00 -0.00000000000E+00 -0.28898844670E+03  0.28898844670E+03  0.00000000000E+00 0.  1.
          5    1    1    2  502    0  0.81741633663E+01 -0.79373039903E+01  0.28076380844E+01  0.12456844423E+02  0.41800000000E+01 0. -1.
         -5    1    1    2    0  502  0.31407810342E+03  0.42501197362E+03  0.37716989171E+03  0.64927254091E+03  0.41800000000E+01 0. -1.
        -11    1    1    2    0    0 -0.24143217088E+03 -0.32889415866E+03  0.30336223172E+03  0.50841863103E+03  0.00000000000E+00 0.  1.
         11    1    1    2    0    0 -0.80820095909E+02 -0.88180510972E+02  0.32883949237E+02  0.12405258778E+03  0.00000000000E+00 0. -1.
</event>
<event>
 7    1  0.1538147E-010  0.7072932E+02  0.7561462E-02  0.1357630E+00
          1   -1    0    0  501    0  0.00000000000E+00  0.00000000000E+00  0.33236083383E+03  0.33236083383E+03  0.00000000000E+00 0. -1.
         -1   -1    0    0    0  501 -0.00000000000E+00 -0.00000000000E+00 -0.42012694321E+02  0.42012694321E+02  0.00000000000E+00 0.  1.
         25    2    1    2    0    0  0.37009494087E+02 -0.22348977016E+02  0.13617939041E+03  0.18992425298E+03  0.12512879792E+03 0.  0.
          5    1    3    3  502    0  0.29441778080E+01  0.86820667379E+01 -0.22491284039E+02  0.24645014172E+02  0.41800000000E+01 0. -1.
         -5    1    3    3    0  502  0.34065316279E+02 -0.31031043753E+02  0.15867067445E+03  0.16527923880E+03  0.41800000000E+01 0. -1.
        -11    1    1    2    0    0  0.82273110880E+00  0.42323981830E+02  0.12675749572E+03  0.13363928706E+03  0.00000000000E+00 0. -1.
         11    1    1    2    0    0 -0.37832225196E+02 -0.19975004814E+02  0.27411253377E+02  0.50809988115E+02  0.00000000000E+00 0.  1.
</event>
<event>
 7    1  0.1538147E-010  0.1094624E+03  0.7561462E-02  0.1261569E+00
          2   -1    0    0  501    0  0.00000000000E+00  0.00000000000E+00  0.32772457599E+03  0.32772457599E+03  0.00000000000E+00 0. -1.
         -2   -1    0    0    0  501 -0.00000000000E+00 -0.00000000000E+00 -0.56151314413E+02  0.56151314413E+02  0.00000000000E+00 0.  1.
         25    2    1    2    0    0  0.71979953178E+02  0.36901615518E+02  0.15178351522E+03  0.21265728782E+03  0.12506815615E+03 0.  0.
          5    1    3    3  502    0  0.58219693589E+02 -0.10607039362E+02  0.71641488841E+01  0.59756501193E+02  0.41800000000E+01 0.  1.
         -5    1    3    3    0  502  0.13760259589E+02  0.47508654879E+02  0.14461936634E+03  0.15290078663E+03  0.41800000000E+01 0.  1.
        -11    1    1    2    0    0 -0.65311477759E+02 -0.58300841283E+02  0.56798262936E+02  0.10435813286E+03  0.00000000000E+00 0.  1.
         11    1    1    2    0    0 -0.66684754192E+01  0.21399225765E+02  0.62991483426E+02  0.66860469726E+02  0.00000000000E+00 0. -1.
</event>
<event>
 7    1  0.1538147E-010  0.1071790E+03  0.7561462E-02  0.1265885E+00
         -1   -1    0    0    0  501 -0.00000000000E+00  0.00000000000E+00  0.43316303561E+02  0.43316303561E+02  0.00000000000E+00 0.  1.
          1   -1    0    0  501    0  0.00000000000E+00 -0.00000000000E+00 -0.44439038782E+03  0.44439038782E+03  0.00000000000E+00 0. -1.
         25    2    1    2    0    0  0.34668501237E+02  0.80196316078E+02 -0.20062595037E+03  0.25202823336E+03  0.12503641212E+03 0.  0.
          5    1    3    3  502    0 -0.19127445843E+02  0.18857650208E+01  0.91566741695E+01  0.21696367808E+02  0.41800000000E+01 0.  1.
         -5    1    3    3    0  502  0.53795947080E+02  0.78310551057E+02 -0.20978262454E+03  0.23033186555E+03  0.41800000000E+01 0.  1.
        -11    1    1    2    0    0 -0.34312957294E+02 -0.20663348937E+02 -0.15686065015E+03  0.16189384360E+03  0.00000000000E+00 0. -1.
         11    1    1    2    0    0 -0.35554394248E+00 -0.59532967141E+02 -0.43587483740E+02  0.73784614432E+02  0.00000000000E+00 0.  1.
</event>
<event>
 7    1  0.1538147E-010  0.1007236E+03  0.7561462E-02  0.1278782E+00
         -2   -1    0    0    0  501 -0.00000000000E+00  0.00000000000E+00  0.10899882596E+03  0.10899882596E+03  0.00000000000E+00 0.  1.
          2   -1    0    0  501    0  0.00000000000E+00 -0.00000000000E+00 -0.20998872907E+03  0.20998872907E+03  0.00000000000E+00 0. -1.
         25    2    1    2    0    0 -0.53684089518E+02 -0.31683943882E+02  0.35754394218E+02  0.14430962420E+03  0.12514406563E+03 0.  0.
          5    1    3    3  502    0 -0.75090186572E+02 -0.38083719612E+02 -0.17776171266E+02  0.86153180347E+02  0.41800000000E+01 0.  1.
         -5    1    3    3    0  502  0.21406097054E+02  0.63997757307E+01  0.53530565485E+02  0.58156443853E+02  0.41800000000E+01 0.  1.
        -11    1    1    2    0    0  0.71254677474E+02  0.27327075376E+02 -0.63647983339E+02  0.99373356055E+02  0.00000000000E+00 0.  1.
         11    1    1    2    0    0 -0.17570587956E+02  0.43568685056E+01 -0.73096313984E+02  0.75304574777E+02  0.00000000000E+00 0. -1.
</event>
<event>
 6    1  0.1538147E-010  0.1565889E+03  0.7561462E-02  0.1192603E+00
          1   -1    0    0  501    0  0.00000000000E+00  0.00000000000E+00  0.35966388928E+03  0.35966388928E+03  0.00000000000E+00 0. -1.
         -1   -1    0    0    0  501 -0.00000000000E+00 -0.00000000000E+00 -0.10536399369E+03  0.10536399369E+03  0.00000000000E+00 0.  1.
          5    1    1    2  502    0  0.64675885438E+02 -0.34606467005E+01 -0.29743785617E+02  0.71394057285E+02  0.41800000000E+01 0. -1.
         -5    1    1    2    0  502  0.45784190080E+02  0.87807553256E+02  0.66302219129E+02  0.11924686634E+03  0.41800000000E+01 0. -1.
        -11    1    1    2    0    0 -0.36849823256E+01 -0.28356131705E+02  0.38453550637E+01  0.28851967967E+02  0.00000000000E+00 0.  1.
         11    1    1    2    0    0 -0.10677509319E+03 -0.55990774851E+02  0.21389610702E+03  0.24553499138E+03  0.00000000000E+00 0. -1.
</event>
<event>
 7    1  0.1538147E-010  0.8353618E+02  0.7561462E-02  0.1319306E+00
          1   -1    0    0  501    0  0.00000000000E+00  0.00000000000E+00  0.89194790730E+02  0.89194790730E+02  0.00000000000E+00 0. -1.
         -1   -1    0    0    0  501 -0.00000000000E+00 -0.00000000000E+00 -0.15607195549E+03  0.15607195549E+03  0.00000000000E+00 0.  1.
         25    2    1    2    0    0 -0.22432964496E+02  0.40412780985E+02 -0.43983228165E+02  0.14044176392E+03  0.12511168583E+03 0.  0.
          5    1    3    3  502    0 -0.24663584532E+02 -0.26528009951E+02 -0.61129166056E+02  0.71177770804E+02  0.41800000000E+01 0. -1.
         -5    1    3    3    0  502  0.22306200363E+01  0.66940790936E+02  0.17145937891E+02  0.69263993120E+02  0.41800000000E+01 0. -1.
        -11    1    1    2    0    0  0.64204699571E+01 -0.46073094046E+02  0.25842218207E+02  0.53214402856E+02  0.00000000000E+00 0. -1.
         11    1    1    2    0    0  0.16012494539E+02  0.56603130608E+01 -0.48736154807E+02  0.51610579445E+02  0.00000000000E+00 0.  1.
</event>
<event>
 7    1  0.1538147E-010  0.9596872E+02  0.7561462E-02  0.1289009E+00
          2   -1    0    0  501    0  0.00000000000E+00  0.00000000000E+00  0.40685331545E+03  0.40685331545E+03  0.00000000000E+00 0. -1.
         -2   -1    0    0    0  501 -0.00000000000E+00 -0.00000000000E+00 -0.38552919854E+02  0.38552919854E+02  0.00000000000E+00 0.  1.
         25    2    1    2    0    0  0.42424556826E+02  0.43659908496E+02  0.15162415792E+03  0.20574015885E+03  0.12503238408E+03 0.  0.
          5    1    3    3  502    0  0.62951604380E+02  0.51419279640E+02  0.16185727722E+03  0.18116869873E+03  0.41800000000E+01 0. -1.
         -5    1    3    3    0  502 -0.20527047554E+02 -0.77593711436E+01 -0.10233119297E+02  0.24571460119E+02  0.41800000000E+01 0. -1.
        -11    1    1    2    0    0  0.17080613088E+02 -0.83075366760E+01  0.95064490369E+01  0.21239940734E+02  0.00000000000E+00 0.  1.
         11    1    1    2    0    0 -0.59505169914E+02 -0.35352371820E+02  0.20716978864E+03  0.21842613572E+03  0.00000000000E+00 0. -1.
</event>
<event>
 7    1  0.1538147E-010  0.1871142E+03  0.7561462E-02  0.1161090E+00
         -2   -1    0    0    0  501 -0.00000000000E+00  0.00000000000E+00  0.62109639352E+02  0.62109639352E+02  0.00000000000E+00 0. -1.
          2   -1    0    0  501    0  0.00000000000E+00 -0.00000000000E+00 -0.72847423602E+03  0.72847423602E+03  0.00000000000E+00 0.  1.
         25    2    1    2    0    0  0.10560238364E+03 -0.12514779507E+03 -0.49730390924E+03  0.53831032036E+03  0.12511190519E+03 0.  0.
          5    1    3    3  502    0  0.11950099157E+03 -0.77663050409E+02 -0.43980413195E+03  0.46233881869E+03  0.41800000000E+01 0.  1.
         -5    1    3    3    0  502 -0.13898607932E+02 -0.47484744658E+02 -0.57499777285E+02  0.75971501666E+02  0.41800000000E+01 0.  1.
        -11    1    1    2    0    0 -0.32311714092E+01  0.61211674912E+02 -0.86596195504E+02  0.10609529061E+03  0.00000000000E+00 0.  1.
         11    1    1    2    0    0 -0.10237121223E+03  0.63936120154E+02 -0.82464491921E+02  0.14617826440E+03  0.00000000000E+00 0. -1.
</event>
<event>
 7    1  0.1538147E-010  0.1039717E+03  0.7561462E-02  0.1272159E+00
         -2   -1    0    0    0  501 -0.00000000000E+00  0.00000000000E+00  0.42793448834E+02  0.42793448834E+02  0.00000000000E+00 0.  1.
          2   -1    0    0  501    0  0.00000000000E+00 -0.00000000000E+00 -0.31008014979E+03  0.31008014979E+03  0.00000000000E+00 0. -1.
         25    2    1    2    0    0 -0.12681102561E+02  0.27781201065E+02 -0.11406672664E+03  0.17198456756E+03  0.12503946520E+03 0.  0.
          5    1    3    3  502    0 -0.17546306703E+02 -0.39941058777E+02 -0.59208848961E+01  0.44223187731E+02  0.41800000000E+01 0. -1.
         -5    1    3    3    0  502  0.48652041418E+01  0.67722259842E+02 -0.10814584174E+03  0.12776137983E+03  0.41800000000E+01 0. -1.
        -11    1    1    2    0    0 -0.36635748084E+02 -0.29056805345E+02 -0.71499823815E+02  0.85432434005E+02  0.00000000000E+00 0.  1.
         11    1    1    2    0    0  0.49316850645E+02  0.12756042803E+01 -0.81720150498E+02  0.95456597055E+02  0.00000000000E+00 0. -1.
</event>
<event>
 6    1  0.1538147E-010  0.8042724E+02  0.7561462E-02  0.1327843E+00
          1   -1    0    0  501    0  0.00000000000E+00  0.00000000000E+00  0.33654636433E+03  0.33654636433E+03  0.00000000000E+00 0. -1.
         -1   -1    0    0    0  501 -0.00000000000E+00 -0.00000000000E+00 -0.58045718040E+02  0.58045718040E+02  0.00000000000E+00 0.  1.
          5    1    1    2  502    0  0.41194662276E+02  0.21770910260E+02  0.26723985362E+03  0.27130349149E+03  0.41800000000E+01 0.  1.
         -5    1    1    2    0  502  0.76361034571E+01 -0.12403887180E+02 -0.10503669128E+02  0.18438165808E+02  0.41800000000E+01 0.  1.
        -11    1    1    2    0    0 -0.21392474239E+02 -0.47410782334E+02 -0.24332453314E+01  0.52070537912E+02  0.00000000000E+00 0.  1.
         11    1    1    2    0    0 -0.27438291494E+02  0.38043759254E+02  0.24197707134E+02  0.52779887162E+02  0.00000000000E+00 0. -1.
</event>
<event>
 7    1  0.1538147E-010  0.8129431E+02  0.7561462E-02  0.1325418E+00
          1   -1    0    0  501    0  0.00000000000E+00  0.00000000000E+00  0.46279036177E+02  0.46279036177E+02  0.00000000000E+00 0. -1.
         -1   -1    0    0    0  501 -0.00000000000E+00 -0.00000000000E+00 -0.26766864940E+03  0.26766864940E+03  0.00000000000E+00 0.  1.
         25    2    1    2    0    0 -0.12820049116E+02 -0.13874738399E+02 -0.10072995226E+03  0.16168948423E+03  0.12506040142E+03 0.  0.
          5    1    3    3  502    0  0.19108354136E+02 -0.28487048459E+02 -0.11755561494E+03  0.12252932764E+03  0.41800000000E+01 0.  1.
         -5    1    3    3    0  502 -0.31928403252E+02  0.14612310060E+02  0.16825662682E+02  0.39160156590E+02  0.41800000000E+01 0.  1.
        -11    1    1    2    0    0  0.13790559102E+02 -0.38186925534E+02 -0.48025842874E+02  0.62888014644E+02  0.00000000000E+00 0.  1.
         11    1    1    2    0    0 -0.97050998582E+00  0.52061663933E+02 -0.72633818091E+02  0.89370186705E+02  0.00000000000E+00 0. -1.
</event>
<event>
 6    1  0.1538147E-010  0.1007263E+03  0.7561462E-02  0.1278776E+00
          1   -1    0    0  501    0  0.00000000000E+00  0.00000000000E+00  0.82082605330E+02  0.82082605330E+02  0.00000000000E+00 0. -1.
         -1   -1    0    0    0  501 -0.00000000000E+00 -0.00000000000E+00 -0.24242710938E+03  0.24242710938E+03  0.00000000000E+00 0.  1.
          5    1    1    2  502    0 -0.93415040307E+00  0.47732718036E+02 -0.85064008749E+02  0.97635254865E+02  0.41800000000E+01 0.  1.
         -5    1    1    2    0  502 -0.10954429482E+02 -0.79638123573E+02 -0.98443410667E+02  0.12716449094E+03  0.41800000000E+01 0.  1.
        -11    1    1    2    0    0 -0.14185452093E+02 -0.14195110323E+02 -0.22235453635E+02  0.29952355609E+02  0.00000000000E+00 0.  1.
         11    1    1    2    0    0  0.26074031978E+02  0.46100515860E+02  0.45398368998E+02  0.69757613303E+02  0.00000000000E+00 0. -1.
</event>
<event>
 7    1  0.1538147E-010  0.8368811E+02  0.7561462E-02  0.1318899E+00
          2   -1    0    0  501    0  0.00000000000E+00  0.00000000000E+00  0.22770437634E+03  0.22770437634E+03  0.00000000000E+00 0.  1.
         -2   -1    0    0    0  501 -0.00000000000E+00 -0.00000000000E+00 -0.13874760691E+03  0.13874760691E+03  0.00000000000E+00 0. -1.
         25    2    1    2    0    0 -0.45501174419E+02  0.13815976057E+02 -0.87017257476E+02  0.15965159935E+03  0.12512150898E+03 0.  0.
          5    1    3    3  502    0 -0.54998745588E+02  0.24938415019E+02 -0.11377295202E+03  0.12887413849E+03  0.41800000000E+01 0.  1.
         -5    1    3    3    0  502  0.94975711690E+01 -0.11122438962E+02  0.26755694545E+02  0.30777460863E+02  0.41800000000E+01 0.  1.
        -11    1    1    2    0    0 -0.53150799211E+01 -0.35851625321E+02  0.12956678494E+03  0.13454048042E+03  0.00000000000E+00 0.  1.
         11    1    1    2    0    0  0.50816254340E+02  0.22035649264E+02  0.46407241969E+02  0.72259903479E+02  0.00000000000E+00 0. -1.
</event>
<event>
 6    1  0.1538147E-010  0.1070328E+03  0.7561462E-02  0.1266166E+00
         -1   -1    0    0    0  501 -0.00000000000E+00  0.00000000000E+00  0.52092032698E+02  0.52092032698E+02  0.00000000000E+00 0.  1.
          1   -1    0    0  501    0  0.00000000000E+00 -0.00000000000E+00 -0.30077994635E+03  0.30077994635E+03  0.00000000000E+00 0. -1.
          5    1    1    2  502    0  0.26295303393E+02 -0.90164529767E+02 -0.12445460704E+03  0.15597277654E+03  0.41800000000E+01 0. -1.
         -5    1    1    2    0  502 -0.23728323117E+02  0.27075145345E+02 -0.82475704441E+01  0.37169767710E+02  0.41800000000E+01 0. -1.
        -11    1    1    2    0    0 -0.21266650449E+02  0.61463282304E+02 -0.29830529186E+02  0.71553238671E+02  0.00000000000E+00 0.  1.
         11    1    1    2    0    0  0.18699670173E+02  0.16261021187E+01 -0.86155206984E+02  0.88176196126E+02  0.00000000000E+00 0. -1.
</event>
<event>
 7    1  0.1538147E-010  0.2376959E+03  0.7561462E-02  0.1121337E+00
         -1   -1    0    0    0  501 -0.00000000000E+00  0.00000000000E+00  0.12380555486E+04  0.12380555486E+04  0.00000000000E+00 0.  1.
          1   -1    0    0  501    0  0.00000000000E+00 -0.00000000000E+00 -0.49413976579E+02  0.49413976579E+02  0.00000000000E+00 0. -1.
         25    2    1    2    0    0 -0.70207495653E+02  0.20752318243E+03  0.69891260939E+03  0.74304399009E+03  0.12506227233E+03 0.  0.
          5    1    3    3  502    0  0.17561593474E+02  0.13121779641E+03  0.43236814013E+03  0.45220150449E+03  0.41800000000E+01 0.  1.
         -5    1    3    3    0  502 -0.87769089128E+02  0.76305386020E+02  0.26654446926E+03  0.29084248561E+03  0.41800000000E+01 0.  1.
        -11    1    1    2    0    0 -0.86042520091E+01 -0.46463672598E+02  0.18421940333E+03  0.19018331837E+03  0.00000000000E+00 0.  1.
         11    1    1    2    0    0  0.78811747662E+02 -0.16105950983E+03  0.30550955931E+03  0.35424221672E+03  0.00000000000E+00 0. -1.
</event>
<event>
 7    1  0.1538147E-010  0.9442639E+02  0.7561462E-02  0.1292473E+00
          1   -1    0    0  501    0  0.00000000000E+00  0.00000000000E+00  0.46507341710E+03  0.46507341710E+03  0.00000000000E+00 0. -1.
         -1   -1    0    0    0  501 -0.00000000000E+00 -0.00000000000E+00 -0.33242769308E+02  0.33242769308E+02  0.00000000000E+00 0.  1.
         25    2    1    2    0    0 -0.98663056220E+01 -0.36179961126E+02  0.33351478614E+03  0.35815980313E+03  0.12505997932E+03 0.  0.
          5    1    3    3  502    0  0.19894476473E+02 -0.64610635679E+02  0.98558494041E+02  0.11958918674E+03  0.41800000000E+01 0.  1.
         -5    1    3    3    0  502 -0.29760782095E+02  0.28430674552E+02  0.23495629210E+03  0.23857061639E+03  0.41800000000E+01 0.  1.
        -11    1    1    2    0    0  0.40463665978E+02  0.21238630455E+02  0.95644453242E+02  0.10600117511E+03  0.00000000000E+00 0. -1.
         11    1    1    2    0    0 -0.30597360356E+02  0.14941330671E+02  0.26714084147E+01  0.34155208181E+02  0.00000000000E+00 0.  1.
</event>
<event>
 6    1  0.1538147E-010  0.1282643E+03  0.7561462E-02  0.1230054E+00
          2   -1    0    0  501    0  0.00000000000E+00  0.00000000000E+00  0.51459424019E+02  0.51459424019E+02  0.00000000000E+00 0.  1.
         -2   -1    0    0    0  501 -0.00000000000E+00 -0.00000000000E+00 -0.33406768344E+03  0.33406768344E+03  0.00000000000E+00 0. -1.
          5    1    1    2  502    0 -0.34405594980E+02  0.61931178005E+02 -0.95225681527E+02  0.11876286708E+03  0.41800000000E+01 0.  1.
         -5    1    1    2    0  502  0.71913692632E+02 -0.32900277354E+01 -0.99563693867E+02  0.12293414907E+03  0.41800000000E+01 0.  1.
        -11    1    1    2    0    0 -0.66344696762E+02 -0.30022525660E+02 -0.62455109507E+02  0.95935455067E+02  0.00000000000E+00 0.  1.
         11    1    1    2    0    0  0.28836599111E+02 -0.28618624610E+02 -0.25363774516E+02  0.47894636239E+02  0.00000000000E+00 0. -1.
</event>
<event>
 6    1  0.1538147E-010  0.1986154E+03  0.7561462E-02  0.1150912E+00
          2   -1    0    0  501    0  0.00000000000E+00  0.00000000000E+00  0.20552584158E+03  0.20552584158E+03  0.00000000000E+00 0.  1.
         -2   -1    0    0    0  501 -0.00000000000E+00 -0.00000000000E+00 -0.24981175582E+03  0.24981175582E+03  0.00000000000E+00 0. -1.
          5    1    1    2  502    0  0.57183967573E+02 -0.10215856423E+03 -0.11728501048E+03  0.16576979362E+03  0.41800000000E+01 0.  1.
         -5    1    1    2    0  502 -0.45860812939E+01 -0.73724203574E+02  0.20827724568E+02  0.76860632608E+02  0.41800000000E+01 0.  1.
        -11    1    1    2    0    0 -0.77767833434E+02  0.10348456937E+03  0.29362883185E+02  0.13273684840E+03  0.00000000000E+00 0. -1.
         11    1    1    2    0    0  0.25169947154E+02  0.72398198433E+02  0.22808488486E+02  0.79970322765E+02  0.00000000000E+00 0.  1.
</event>
<event>
 7    1  0.1538147E-010  0.1153107E+03  0.7561462E-02  0.1251040E+00
         -1   -1    0    0    0  501 -0.00000000000E+00  0.00000000000E+00  0.12523495083E+03  0.12523495083E+03  0.00000000000E+00 0.  1.
          1   -1    0    0  501    0  0.00000000000E+00 -0.00000000000E+00 -0.11278324852E+03  0.11278324852E+03  0.00000000000E+00 0. -1.
         25    2    1    2    0    0 -0.35010836048E+02  0.23987206397E+02 -0.89594045784E+01  0.13242793326E+03  0.12512290704E+03 0.  0.
          5    1    3    3  502    0  0.42951861286E+02  0.30325313006E+02  0.45493578852E+01  0.52940117624E+02  0.41800000000E+01 0. -1.
         -5    1    3    3    0  502 -0.77962697334E+02 -0.63381066089E+01 -0.13508762464E+02  0.79487815634E+02  0.41800000000E+01 0. -1.
        -11    1    1    2    0    0  0.37943621220E+02 -0.55865498528E+02  0.27652008092E+02  0.72974693344E+02  0.00000000000E+00 0.  1.
         11    1    1    2    0    0 -0.29327851720E+01  0.31878292131E+02 -0.62409011987E+01  0.32615572751E+02  0.00000000000E+00 0. -1.
</event>
<event>
 7    1  0.1538147E-010  0.1349506E+03  0.7561462E-02  0.1220289E+00
          2   -1    0    0  501    0  0.00000000000E+00  0.00000000000E+00  0.22128096262E+03  0.22128096262E+03  0.00000000000E+00 0.  1.
         -2   -1    0    0    0  501 -0.00000000000E+00 -0.00000000000E+00 -0.82789995491E+02  0.82789995491E+02  0.00000000000E+00 0. -1.
         25    2    1    2    0    0 -0.80024574534E+02 -0.21059295823E+01  0.65270808455E+02  0.16224544158E+03  0.12511969232E+03 0.  0.
          5    1    3    3  502    0  0.27904067779E+02 -0.25419925522E+02  0.14651185629E+02  0.40705518699E+02  0.41800000000E+01 0.  1.
         -5    1    3    3    0  502 -0.10792864231E+03  0.23313995940E+02  0.50619622826E+02  0.12153992288E+03  0.41800000000E+01 0.  1.
        -11    1    1    2    0    0 -0.14284428188E+02  0.20849160451E+02  0.16663040727E+02  0.30271922741E+02  0.00000000000E+00 0.  1.
         11    1    1    2    0    0  0.94309002722E+02 -0.18743230869E+02  0.56557117948E+02  0.11155359379E+03  0.00000000000E+00 0. -1.
</event>
<event>
 6    1  0.1538147E-010  0.1632671E+03  0.7561462E-02  0.1185057E+00
         -2   -1    0    0    0  501 -0.00000000000E+00  0.00000000000E+00  0.45671885732E+02  0.45671885732E+02  0.00000000000E+00 0.  1.
          2   -1    0    0  501    0  0.00000000000E+00 -0.00000000000E+00 -0.81169061595E+03  0.81169061595E+03  0.00000000000E+00 0. -1.
          5    1    1    2  502    0  0.65879162414E+02 -0.84040570282E+02 -0.83677976711E+02  0.13572898615E+03  0.41800000000E+01 0. -1.
         -5    1    1    2    0  502  0.52398248360E+02 -0.12088103066E+02 -0.21891910507E+03  0.22546561963E+03  0.41800000000E+01 0. -1.
        -11    1    1    2    0    0 -0.26535609042E+02 -0.72569484134E+01 -0.16515749924E+03  0.16743297586E+03  0.00000000000E+00 0. -1.
         11    1    1    2    0    0 -0.91741801732E+02  0.10338562176E+03 -0.29826414919E+03  0.32873492005E+03  0.00000000000E+00 0.  1.
</event>
<event>
 7    1  0.1538147E-010  0.1633770E+03  0.7561462E-02  0.1184936E+00
         -3   -1    0    0    0  501 -0.00000000000E+00  0.00000000000E+00  0.15672950994E+03  0.15672950994E+03  0.00000000000E+00 0.  1.
          3   -1    0    0  501    0  0.00000000000E+00 -0.00000000000E+00 -0.19577065166E+03  0.19577065166E+03  0.00000000000E+00 0. -1.
         25    2    1    2    0    0  0.76872934821E+02  0.10542988899E+03  0.20878371860E+02  0.18193791263E+03  0.12506233663E+03 0.  0.
          5    1    3    3  502    0  0.68887496444E+02  0.13377065554E+03  0.12508708302E+02  0.15104309198E+03  0.41800000000E+01 0.  1.
         -5    1    3    3    0  502  0.79854383765E+01 -0.28340766559E+02  0.83696635579E+01  0.30894820655E+02  0.41800000000E+01 0.  1.
        -11    1    1    2    0    0 -0.16318795582E+02  0.77986660848E+01  0.13573972732E+02  0.22613602492E+02  0.00000000000E+00 0.  1.
         11    1    1    2    0    0 -0.60554139239E+02 -0.11322855507E+03 -0.73493486309E+02  0.14794864647E+03  0.00000000000E+00 0. -1.
</event>
<event>
 7    1  0.1741482E-010  0.9900416E+02  0.7561462E-02  0.1282404E+00
         -1   -1    0    0    0  501 -0.00000000000E+00  0.00000000000E+00  0.29580317217E+02  0.29580317217E+02  0.00000000000E+00 0.  1.
          1   -1    0    0  501    0  0.00000000000E+00 -0.00000000000E+00 -0.48332053072E+03  0.48332053072E+03  0.00000000000E+00 0. -1.
         25    2    1    2    0    0  0.35599613952E+02 -0.80821742418E+00 -0.18058035329E+03  0.22252871402E+03  0.12506709735E+03 0.  0.
          5    1    3    3  502    0 -0.27588205304E+02  0.41630985156E+02 -0.46894605176E+02  0.68635445592E+02  0.41800000000E+01 0. -1.
         -5    1    3    3    0  502  0.63187819256E+02 -0.42439202581E+02 -0.13368574811E+03  0.15389326842E+03  0.41800000000E+01 0. -1.
        -11    1    1    2    0    0  0.73562795999E+01  0.22403917733E+02 -0.15393961452E+02  0.28160689418E+02  0.00000000000E+00 0.  1.
         11    1    1    2    0    0 -0.42955893552E+02 -0.21595700309E+02 -0.25776589876E+03  0.26221144450E+03  0.00000000000E+00 0. -1.
</event>
<event>
 6    1  0.1538147E-010  0.1131708E+03  0.7561462E-02  0.1254808E+00
          2   -1    0    0  501    0  0.00000000000E+00  0.00000000000E+00  0.75673504240E+03  0.75673504240E+03  0.00000000000E+00 0. -1.
         -2   -1    0    0    0  501 -0.00000000000E+00 -0.00000000000E+00 -0.29877853180E+02  0.29877853180E+02  0.00000000000E+00 0.  1.
          5    1    1    2  502    0  0.59209852532E+01  0.17464075698E+02  0.85525891684E+01  0.20752618819E+02  0.41800000000E+01 0.  1.
         -5    1    1    2    0  502 -0.91980864488E+02 -0.57026345583E+02  0.49508940297E+03  0.50679726998E+03  0.41800000000E+01 0.  1.
        -11    1    1    2    0    0  0.36601188746E+02  0.32915850481E+02  0.26074828556E+02  0.55704550216E+02  0.00000000000E+00 0.  1.
         11    1    1    2    0    0  0.49458690489E+02  0.66464194044E+01  0.19714036853E+03  0.20335845657E+03  0.00000000000E+00 0. -1.
</event>
<event>
 6    1  0.1538147E-010  0.1222276E+03  0.7561462E-02  0.1239467E+00
         -2   -1    0    0    0  501 -0.00000000000E+00  0.00000000000E+00  0.17860135563E+03  0.17860135563E+03  0.00000000000E+00 0. -1.
          2   -1    0    0  501    0  0.00000000000E+00 -0.00000000000E+00 -0.10692788835E+03  0.10692788835E+03  0.00000000000E+00 0.  1.
          5    1    1    2  502    0 -0.52976126840E+02  0.53581839192E+01  0.61620854900E+02  0.81546197388E+02  0.41800000000E+01 0.  1.
         -5    1    1    2    0  502  0.67004690667E+01  0.66789286462E+02 -0.29443934375E+02  0.73417455304E+02  0.41800000000E+01 0.  1.
        -11    1    1    2    0    0  0.69140419296E+02 -0.29034298999E+02  0.30436551503E+02  0.80930660235E+02  0.00000000000E+00 0. -1.
         11    1    1    2    0    0 -0.22864761523E+02 -0.43113171382E+02  0.90599952560E+01  0.49634931048E+02  0.00000000000E+00 0.  1.
</event>
<event>
 7    1  0.1538147E-010  0.1080742E+03  0.7561462E-02  0.1264178E+00
          1   -1    0    0  501    0  0.00000000000E+00  0.00000000000E+00  0.26266143841E+02  0.26266143841E+02  0.00000000000E+00 0. -1.
         -1   -1    0    0    0  501 -0.00000000000E+00 -0.00000000000E+00 -0.61325424968E+03  0.61325424968E+03  0.00000000000E+00 0.  1.
         25    2    1    2    0    0  0.49098639706E+02 -0.33597944021E+02 -0.26225499733E+03  0.29660015347E+03  0.12511782109E+03 0.  0.
          5    1    3    3  502    0 -0.39816559653E+02 -0.26448102741E+02 -0.11142104084E+03  0.12131356603E+03  0.41800000000E+01 0.  1.
         -5    1    3    3    0  502  0.88915199358E+02 -0.71498412805E+01 -0.15083395649E+03  0.17528658744E+03  0.41800000000E+01 0.  1.
        -11    1    1    2    0    0 -0.41269368280E+02  0.47491862058E+02 -0.32022475937E+03  0.32634726019E+03  0.00000000000E+00 0.  1.
         11    1    1    2    0    0 -0.78292714257E+01 -0.13893918036E+02 -0.45083491414E+01  0.16572979860E+02  0.00000000000E+00 0. -1.
</event>
<event>
 7    1  0.1538147E-010  0.8675697E+02  0.7561462E-02  0.1310901E+00
          1   -1    0    0  501    0  0.00000000000E+00  0.00000000000E+00  0.43118484575E+03  0.43118484575E+03  0.00000000000E+00 0. -1.
         -1   -1    0    0    0  501 -0.00000000000E+00 -0.00000000000E+00 -0.33752477088E+02  0.33752477088E+02  0.00000000000E+00 0.  1.
         25    2    1    2    0    0 -0.22948206166E+02  0.40407795567E+02  0.17743162353E+03  0.22199393746E+03  0.12505965429E+03 0.  0.
          5    1    3    3  502    0 -0.66695267222E+02  0.30716742660E+02  0.15531928513E+03  0.17185263944E+03  0.41800000000E+01 0.  1.
         -5    1    3    3    0  502  0.43747061056E+02  0.96910529074E+01  0.22112338398E+02  0.50141298018E+02  0.41800000000E+01 0.  1.
        -11    1    1    2    0    0  0.56190537935E+01 -0.36846990797E+02  0.22202939856E+03  0.22513624391E+03  0.00000000000E+00 0. -1.
         11    1    1    2    0    0  0.17329152372E+02 -0.35608047696E+01 -0.20286534282E+01  0.17807141468E+02  0.00000000000E+00 0.  1.
</event>
<event>
 6    1  0.1538147E-010  0.1142854E+03  0.7561462E-02  0.1252834E+00
         -1   -1    0    0    0  501 -0.00000000000E+00  0.00000000000E+00  0.52661844449E+02  0.52661844449E+02  0.00000000000E+00 0.  1.
          1   -1    0    0  501    0  0.00000000000E+00 -0.00000000000E+00 -0.29903737744E+03  0.29903737744E+03  0.00000000000E+00 0. -1.
          5    1    1    2  502    0  0.69230998461E+02 -0.20045741556E+02 -0.12835767159E+03  0.14726821503E+03  0.41800000000E+01 0.  1.
         -5    1    1    2    0  502 -0.36280067142E+02  0.46296159234E+02 -0.70312797336E+02  0.91765677139E+02  0.41800000000E+01 0.  1.
        -11    1    1    2    0    0 -0.49060035626E+02  0.16470711336E+02 -0.42006438313E+02  0.66653674222E+02  0.00000000000E+00 0. -1.
         11    1    1    2    0    0  0.16109104306E+02 -0.42721129013E+02 -0.56986257471E+01  0.46011655492E+02  0.00000000000E+00 0.  1.
</event>
<event>
 6    1  0.1538147E-010  0.1494721E+03  0.7561462E-02  0.1201123E+00
         -1   -1    0    0    0  501 -0.00000000000E+00  0.00000000000E+00  0.12419356693E+03  0.12419356693E+03  0.00000000000E+00 0.  1.
          1   -1    0    0  501    0  0.00000000000E+00 -0.00000000000E+00 -0.19236115519E+03  0.19236115519E+03  0.00000000000E+00 0. -1.
          5    1    1    2  502    0 -0.75592934136E+02  0.10092767756E+03 -0.30758717391E+02  0.12986246141E+03  0.41800000000E+01 0.  1.
         -5    1    1    2    0  502 -0.87937032787E+01 -0.32375774439E+02  0.13074261125E+02  0.36248154324E+02  0.41800000000E+01 0.  1.
        -11    1    1    2    0    0  0.10206695292E+03 -0.64785243221E+02 -0.53351728078E+02  0.13214082453E+03  0.00000000000E+00 0. -1.
         11    1    1    2    0    0 -0.17680315508E+02 -0.37666598993E+01  0.28685960786E+01  0.18303281856E+02  0.00000000000E+00 0.  1.
</event>
<event>
 6    1  0.1538147E-010  0.1661322E+03  0.7561462E-02  0.1181942E+00
         -1   -1    0    0    0  501 -0.00000000000E+00  0.00000000000E+00  0.26473610213E+03  0.26473610213E+03  0.00000000000E+00 0.  1.
          1   -1    0    0  501    0  0.00000000000E+00 -0.00000000000E+00 -0.15414515022E+03  0.15414515022E+03  0.00000000000E+00 0. -1.
          5    1    1    2  502    0  0.96651260163E+02  0.13737532487E+02  0.60233439594E+02  0.11478556327E+03  0.41800000000E+01 0.  1.
         -5    1    1    2    0  502  0.22800226586E+01  0.90480971904E+02  0.92175985807E+02  0.12925126514E+03  0.41800000000E+01 0.  1.
        -11    1    1    2    0    0 -0.61650195854E+02 -0.58905573316E+02  0.22090838138E+02  0.88083019624E+02  0.00000000000E+00 0.  1.
         11    1    1    2    0    0 -0.37281086968E+02 -0.45312931075E+02 -0.63909311628E+02  0.86761404327E+02  0.00000000000E+00 0. -1.
</event>
<event>
 7    1  0.1538147E-010  0.2637242E+03  0.7561462E-02  0.1104926E+00
         -2   -1    0    0    0  501 -0.00000000000E+00  0.00000000000E+00  0.33597976337E+03  0.33597976337E+03  0.00000000000E+00 0.  1.
          2   -1    0    0  501    0  0.00000000000E+00 -0.00000000000E+00 -0.21542471073E+03  0.21542471073E+03  0.00000000000E+00 0. -1.
         25    2    1    2    0    0  0.24593282888E+03 -0.16063702738E+02  0.66162467785E+02  0.28420432103E+03  0.12511444792E+03 0.  0.
          5    1    3    3  502    0  0.22723118914E+02  0.36961838685E+02 -0.52139921285E+01  0.43899610090E+02  0.41800000000E+01 0.  1.
         -5    1    3    3    0  502  0.22320970997E+03 -0.53025541422E+02  0.71376459913E+02  0.24030471094E+03  0.41800000000E+01 0.  1.
        -11    1    1    2    0    0 -0.20681092348E+03 -0.10556479487E+02  0.68006137350E+02  0.21796107920E+03  0.00000000000E+00 0.  1.
         11    1    1    2    0    0 -0.39121905404E+02  0.26620182224E+02 -0.13613552497E+02  0.49239073872E+02  0.00000000000E+00 0. -1.
</event>
<event>
 7    1  0.1538147E-010  0.1088805E+03  0.7561462E-02  0.1262657E+00
         -1   -1    0    0    0  501 -0.00000000000E+00  0.00000000000E+00  0.27073901757E+03  0.27073901757E+03  0.00000000000E+00 0.  1.
          1   -1    0    0  501    0  0.00000000000E+00 -0.00000000000E+00 -0.54143365999E+02  0.54143365999E+02  0.00000000000E+00 0. -1.
         25    2    1    2    0    0 -0.26258830819E+02 -0.49048644498E+02  0.12997060782E+03  0.18878679098E+03  0.12511114191E+03 0.  0.
          5    1    3    3  502    0  0.40372513416E+02  0.13376906060E+02  0.60068444143E+02  0.73719548541E+02  0.41800000000E+01 0. -1.
         -5    1    3    3    0  502 -0.66631344235E+02 -0.62425550559E+02  0.69902163673E+02  0.11506724244E+03  0.41800000000E+01 0. -1.
        -11    1    1    2    0    0 -0.20694888604E+02  0.16905070464E+02  0.72783845155E+02  0.77534172707E+02  0.00000000000E+00 0.  1.
         11    1    1    2    0    0  0.46953719423E+02  0.32143574034E+02  0.13841198597E+02  0.58561419876E+02  0.00000000000E+00 0. -1.
</event>
<event>
 7    1  0.1538147E-010  0.7599406E+02  0.7561462E-02  0.1340820E+00
          2   -1    0    0  501    0  0.00000000000E+00  0.00000000000E+00  0.14034221644E+03  0.14034221644E+03  0.00000000000E+00 0. -1.
         -2   -1    0    0    0  501 -0.00000000000E+00 -0.00000000000E+00 -0.84782035491E+02  0.84782035491E+02  0.00000000000E+00 0.  1.
         25    2    1    2    0    0  0.13635833844E+02 -0.22471485184E+02  0.42591053478E+02  0.13476830209E+03  0.12513030728E+03 0.  0.
          5    1    3    3  502    0  0.46502004667E+02 -0.53251515302E+01  0.72879264327E+02  0.86715934208E+02  0.41800000000E+01 0. -1.
         -5    1    3    3    0  502 -0.32866170823E+02 -0.17146333654E+02 -0.30288210848E+02  0.48052367878E+02  0.41800000000E+01 0. -1.
        -11    1    1    2    0    0 -0.18702580359E+02  0.42817353420E+02  0.36167443604E+02  0.59086345655E+02  0.00000000000E+00 0. -1.
         11    1    1    2    0    0  0.50667465152E+01 -0.20345868236E+02 -0.23198316135E+02  0.31269604187E+02  0.00000000000E+00 0.  1.
</event>
<event>
 7    1  0.1538147E-010  0.1381862E+03  0.7561462E-02  0.1215791E+00
         -1   -1    0    0    0  501 -0.00000000000E+00  0.00000000000E+00  0.10545996483E+03  0.10545996483E+03  0.00000000000E+00 0.  1.
          1   -1    0    0  501    0  0.00000000000E+00 -0.00000000000E+00 -0.25782869365E+03  0.25782869365E+03  0.00000000000E+00 0. -1.
         25    2    1    2    0    0 -0.11644318962E+03 -0.23997208862E+02 -0.12197756736E+03  0.21134873887E+03  0.12511946307E+03 0.  0.
          5    1    3    3  502    0 -0.79301373240E+02  0.32035865752E+02 -0.18062719210E+02  0.87514220087E+02  0.41800000000E+01 0.  1.
         -5    1    3    3    0  502 -0.37141816383E+02 -0.56033074614E+02 -0.10391484815E+03  0.12383451878E+03  0.41800000000E+01 0.  1.
        -11    1    1    2    0    0  0.61406671597E+01  0.10632372042E+02 -0.38621527257E+02  0.40526256872E+02  0.00000000000E+00 0. -1.
         11    1    1    2    0    0  0.11030252246E+03  0.13364836820E+02  0.82303657901E+01  0.11141366274E+03  0.00000000000E+00 0.  1.
</event>
<event>
 7    1  0.1538147E-010  0.1164313E+03  0.7561462E-02  0.1249103E+00
         -2   -1    0    0    0  501 -0.00000000000E+00  0.00000000000E+00  0.22515934405E+02  0.22515934405E+02  0.00000000000E+00 0. -1.
          2   -1    0    0  501    0  0.00000000000E+00 -0.00000000000E+00 -0.64544258842E+03  0.64544258842E+03  0.00000000000E+00 0.  1.
         25    2    1    2    0    0  0.52801294846E+02  0.11851657072E+02 -0.28621413041E+03  0.31703080644E+03  0.12514617562E+03 0.  0.
          5    1    3    3  502    0 -0.10509835235E+02  0.55809220340E+02 -0.15033204367E+03  0.16075547103E+03  0.41800000000E+01 0. -1.
         -5    1    3    3    0  502  0.63311130082E+02 -0.43957563268E+02 -0.13588208674E+03  0.15627533541E+03  0.41800000000E+01 0. -1.
        -11    1    1    2    0    0 -0.74485873927E+02 -0.17091950903E+02 -0.26812327291E+03  0.27880166727E+03  0.00000000000E+00 0.  1.
         11    1    1    2    0    0  0.21684579081E+02  0.52402938312E+01 -0.68589250702E+02  0.72126049117E+02  0.00000000000E+00 0. -1.
</event>
<event>
 7    1  0.1538147E-010  0.9338866E+02  0.7561462E-02  0.1294847E+00
          2   -1    0    0  501    0  0.00000000000E+00  0.00000000000E+00  0.30118980954E+03  0.30118980954E+03  0.00000000000E+00 0.  1.
         -2   -1    0    0    0  501 -0.00000000000E+00 -0.00000000000E+00 -0.14211903048E+03  0.14211903048E+03  0.00000000000E+00 0. -1.
         25    2    1    2    0    0  0.42518985107E+01  0.50616624124E+02  0.25322153423E+03  0.28698714994E+03  0.12514135028E+03 0.  0.
          5    1    3    3  502    0  0.33089141521E+02  0.22290549415E+02  0.24133553493E+03  0.24464683260E+03  0.41800000000E+01 0.  1.
         -5    1    3    3    0  502 -0.28837243011E+02  0.28326074709E+02  0.11885999300E+02  0.42340317337E+02  0.41800000000E+01 0.  1.
        -11    1    1    2    0    0 -0.39438182643E+02 -0.57935553895E+02 -0.18372866107E+02  0.72453163246E+02  0.00000000000E+00 0.  1.
         11    1    1    2    0    0  0.35186284132E+02  0.73189297713E+01 -0.75777889057E+02  0.83868526838E+02  0.00000000000E+00 0. -1.
</event>
<event>
 7    1  0.1538147E-010  0.9834628E+02  0.7561462E-02  0.1283812E+00
         -2   -1    0    0    0  501 -0.00000000000E+00  0.00000000000E+00  0.77306094345E+02  0.77306094345E+02  0.00000000000E+00 0. -1.
          2   -1    0    0  501    0  0.00000000000E+00 -0.00000000000E+00 -0.26809770790E+03  0.26809770790E+03  0.00000000000E+00 0.  1.
         25    2    1    2    0    0  0.24249318480E+01 -0.75588875275E+02 -0.37033576697E+02  0.15081071293E+03  0.12511125838E+03 0.  0.
          5    1    3    3  502    0  0.28449524519E+02 -0.87393135846E+02  0.13123052095E+02  0.92933430662E+02  0.41800000000E+01 0.  1.
         -5    1    3    3    0  502 -0.26024592671E+02  0.11804260571E+02 -0.50156628793E+02  0.57877282272E+02  0.41800000000E+01 0.  1.
        -11    1    1    2    0    0 -0.35464483080E+01  0.30286091775E+02  0.37249413438E+01  0.30719697892E+02  0.00000000000E+00 0. -1.
         11    1    1    2    0    0  0.11215164599E+01  0.45302783501E+02 -0.15748297820E+03  0.16387339142E+03  0.00000000000E+00 0.  1.
</event>
<event>
 7    1  0.1538147E-010  0.1486151E+03  0.7561462E-02  0.1202185E+00
          1   -1    0    0  501    0  0.00000000000E+00  0.00000000000E+00  0.14605885893E+04  0.14605885893E+04  0.00000000000E+00 0. -1.
         -1   -1    0    0    0  501 -0.00000000000E+00 -0.00000000000E+00 -0.25530319937E+02  0.25530319937E+02  0.00000000000E+00 0.  1.
         25    2    1    2    0    0 -0.29929240175E+02 -0.10315927395E+03  0.11920773322E+04  0.12034280684E+04  0.12511256749E+03 0.  0.
          5    1    3    3  502    0 -0.13763518565E+01  0.28863658764E+02  0.17645681968E+03  0.17885605037E+03  0.41800000000E+01 0. -1.
         -5    1    3    3    0  502 -0.28552888319E+02 -0.13202293271E+03  0.10156205126E+04  0.10245720180E+04  0.41800000000E+01 0. -1.
        -11    1    1    2    0    0  0.33468230768E+02  0.11539778621E+03  0.16747720586E+03  0.20611983411E+03  0.00000000000E+00 0.  1.
         11    1    1    2    0    0 -0.35389905925E+01 -0.12238512258E+02  0.75503731302E+02  0.76571006766E+02  0.00000000000E+00 0. -1.
</event>
<event>
 7    1  0.1538147E-010  0.7175591E+02  0.7561462E-02  0.1354222E+00
         -1   -1    0    0    0  501 -0.00000000000E+00  0.00000000000E+00  0.63321542004E+02  0.63321542004E+02  0.00000000000E+00 0.  1.
          1   -1    0    0  501    0  0.00000000000E+00 -0.00000000000E+00 -0.20767746943E+03  0.20767746943E+03  0.00000000000E+00 0. -1.
         25    2    1    2    0    0 -0.83163731467E+01  0.19281809576E+02 -0.99759372261E+02  0.16134863540E+03  0.12506198283E+03 0.  0.
          5    1    3    3  502    0 -0.44369552817E+02  0.35532161412E+02 -0.33910682511E+01  0.57097841077E+02  0.41800000000E+01 0.  1.
         -5    1    3    3    0  502  0.36053179670E+02 -0.16250351835E+02 -0.96368304010E+02  0.10425079432E+03  0.41800000000E+01 0.  1.
        -11    1    1    2    0    0  0.18368089659E+02  0.61754129289E+01  0.26866148399E+02  0.33125705613E+02  0.00000000000E+00 0.  1.
         11    1    1    2    0    0 -0.10051716512E+02 -0.25457222505E+02 -0.71462703562E+02  0.76524670421E+02  0.00000000000E+00 0. -1.
</event>
<event>
 6    1  0.1538147E-010  0.1382182E+03  0.7561462E-02  0.1215747E+00
          2   -1    0    0  501    0  0.00000000000E+00  0.00000000000E+00  0.19851816282E+04  0.19851816282E+04  0.00000000000E+00 0. -1.
         -2   -1    0    0    0  501 -0.00000000000E+00 -0.00000000000E+00 -0.15596062779E+02  0.15596062779E+02  0.00000000000E+00 0.  1.
          5    1    1    2  502    0  0.55303414231E+01  0.69216493024E+02  0.60791964099E+03  0.61188664790E+03  0.41800000000E+01 0. -1.
         -5    1    1    2    0  502 -0.82401173631E+02 -0.17284549356E+02  0.10174231175E+04  0.10209093894E+04  0.41800000000E+01 0. -1.
        -11    1    1    2    0    0  0.41329911331E+02  0.17260092793E+02  0.71559479356E+02  0.84420563014E+02  0.00000000000E+00 0.  1.
         11    1    1    2    0    0  0.35540920876E+02 -0.69192036461E+02  0.27268332760E+03  0.28356109063E+03  0.00000000000E+00 0. -1.
</event>
<event>
 7    1  0.1538147E-010  0.1081831E+03  0.7561462E-02  0.1263972E+00
         -2   -1    0    0    0  501 -0.00000000000E+00  0.00000000000E+00  0.49532825214E+02  0.49532825214E+02  0.00000000000E+00 0.  1.
          2   -1    0    0  501    0  0.00000000000E+00 -0.00000000000E+00 -0.31039199401E+03  0.31039199401E+03  0.00000000000E+00 0. -1.
         25    2    1    2    0    0 -0.17281757257E+02  0.56441214450E+02 -0.14571151431E+03  0.20092757995E+03  0.12512304807E+03 0.  0.
          5    1    3    3  502    0 -0.88597304122E+01 -0.40008522703E+02 -0.49095812036E+02  0.64086253372E+02  0.41800000000E+01 0. -1.
         -5    1    3    3    0  502 -0.84220268447E+01  0.96449737152E+02 -0.96615702275E+02  0.13684132658E+03  0.41800000000E+01 0. -1.
        -11    1    1    2    0    0  0.35137321448E+02 -0.44874272889E+02 -0.12359787871E+03  0.13610572121E+03  0.00000000000E+00 0. -1.
         11    1    1    2    0    0 -0.17855564191E+02 -0.11566941561E+02  0.84502242247E+01  0.22891518060E+02  0.00000000000E+00 0.  1.
</event>
<event>
 6    1  0.1538147E-010  0.7536178E+02  0.7561462E-02  0.1342754E+00
         -1   -1    0    0    0  501 -0.00000000000E+00  0.00000000000E+00  0.10123194477E+03  0.10123194477E+03  0.00000000000E+00 0.  1.
          1   -1    0    0  501    0  0.00000000000E+00 -0.00000000000E+00 -0.25830445050E+03  0.25830445050E+03  0.00000000000E+00 0. -1.
          5    1    1    2  502    0  0.81892077792E+01  0.60770633166E+02 -0.17282121824E+03  0.18342513147E+03  0.41800000000E+01 0. -1.
         -5    1    1    2    0  502 -0.36515389877E+02 -0.36839116961E+02 -0.37880135973E+02  0.64365140702E+02  0.41800000000E+01 0. -1.
        -11    1    1    2    0    0  0.14889327550E+02 -0.14681597627E+02  0.78924000481E+02  0.81647040581E+02  0.00000000000E+00 0.  1.
         11    1    1    2    0    0  0.13436854547E+02 -0.92499185782E+01 -0.25295151991E+02  0.30099082512E+02  0.00000000000E+00 0. -1.
</event>
<event>
 6    1  0.1538147E-010  0.7732403E+02  0.7561462E-02  0.1336822E+00
         -3   -1    0    0    0  501 -0.00000000000E+00  0.00000000000E+00  0.58192524647E+02  0.58192524647E+02  0.00000000000E+00 0.  1.
          3   -1    0    0  501    0  0.00000000000E+00 -0.00000000000E+00 -0.26044476068E+03  0.26044476068E+03  0.00000000000E+00 0. -1.
          5    1    1    2  502    0 -0.29338455150E+02 -0.59019164210E+02 -0.14706030989E+03  0.16120860349E+03  0.41800000000E+01 0.  1.
         -5    1    1    2    0  502 -0.80272165676E+01  0.14318283503E+02  0.20223376783E+02  0.26380045807E+02  0.41800000000E+01 0.  1.
        -11    1    1    2    0    0 -0.87126832973E+01  0.13327807703E+02 -0.73569869158E+02  0.75273281823E+02  0.00000000000E+00 0. -1.
         11    1    1    2    0    0  0.46078355015E+02  0.31373073005E+02 -0.18454337655E+01  0.55775354203E+02  0.00000000000E+00 0.  1.
</event>
<event>
 7    1  0.1538147E-010  0.1221465E+03  0.7561462E-02  0.1239597E+00
         -1   -1    0    0    0  501 -0.00000000000E+00  0.00000000000E+00  0.10463523392E+03  0.10463523392E+03  0.00000000000E+00 0.  1.
          1   -1    0    0  501    0  0.00000000000E+00 -0.00000000000E+00 -0.17660083605E+03  0.17660083605E+03  0.00000000000E+00 0. -1.
         25    2    1    2    0    0 -0.49060457851E+02  0.93763540233E+01 -0.40394875357E+02  0.14065306252E+03  0.12512670979E+03 0.  0.
          5    1    3    3  502    0  0.33378013952E+02 -0.28326566793E+02 -0.12711884311E+02  0.45777184321E+02  0.41800000000E+01 0.  1.
         -5    1    3    3    0  502 -0.82438471803E+02  0.37702920816E+02 -0.27682991047E+02  0.94875878201E+02  0.41800000000E+01 0.  1.
        -11    1    1    2    0    0 -0.29502813998E+02 -0.95349929582E+01  0.28165582205E+02  0.41888329466E+02  0.00000000000E+00 0.  1.
         11    1    1    2    0    0  0.78563271849E+02  0.15863893498E+00 -0.59736308978E+02  0.98694677973E+02  0.00000000000E+00 0. -1.
</event>
<event>
 7    1  0.1538147E-010  0.1066221E+03  0.7561462E-02  0.1266956E+00
         -2   -1    0    0    0  501 -0.00000000000E+00  0.00000000000E+00  0.32551991983E+02  0.32551991983E+02  0.00000000000E+00 0.  1.
          2   -1    0    0  501    0  0.00000000000E+00 -0.00000000000E+00 -0.61142108481E+03  0.61142108481E+03  0.00000000000E+00 0. -1.
         25    2    1    2    0    0  0.34582874579E+02 -0.60197932504E+02 -0.44714668984E+03  0.46946395947E+03  0.12504591440E+03 0.  0.
          5    1    3    3  502    0  0.51218559764E+02 -0.84692970716E+02 -0.40988694356E+03  0.42168829608E+03  0.41800000000E+01 0.  1.
         -5    1    3    3    0  502 -0.16635685185E+02  0.24495038212E+02 -0.37259746284E+02  0.47775663383E+02  0.41800000000E+01 0.  1.
        -11    1    1    2    0    0 -0.44641512678E+02  0.33699735050E+02 -0.20244047488E+02  0.59484100862E+02  0.00000000000E+00 0.  1.
         11    1    1    2    0    0  0.10058638099E+02  0.26498197454E+02 -0.11147835550E+03  0.11502501647E+03  0.00000000000E+00 0. -1.
</event>
<event>
 7    1  0.1538147E-010  0.1334662E+03  0.7561462E-02  0.1222401E+00
          2   -1    0    0  501    0  0.00000000000E+00  0.00000000000E+00  0.66314101271E+02  0.66314101271E+02  0.00000000000E+00 0. -1.
         -2   -1    0    0    0  501 -0.00000000000E+00 -0.00000000000E+00 -0.37447438370E+03  0.37447438370E+03  0.00000000000E+00 0.  1.
         25    2    1    2    0    0 -0.67505625929E+02 -0.90533691368E+02 -0.18554547785E+03  0.25066590252E+03  0.12511159631E+03 0.  0.
          5    1    3    3  502    0  0.29027525400E+01  0.18123474824E+02  0.57073366346E+01  0.19670597436E+02  0.41800000000E+01 0. -1.
         -5    1    3    3    0  502 -0.70408378469E+02 -0.10865716619E+03 -0.19125281449E+03  0.23099530509E+03  0.41800000000E+01 0. -1.
        -11    1    1    2    0    0  0.67099909698E+02  0.66303544895E+02 -0.37310273681E+02  0.10144266592E+03  0.00000000000E+00 0. -1.
         11    1    1    2    0    0  0.40571623130E+00  0.24230146473E+02 -0.85304530893E+02  0.88679916524E+02  0.00000000000E+00 0.  1.
</event>
<event>
 6    1  0.1538147E-010  0.1091685E+03  0.7561462E-02  0.1262118E+00
          1   -1    0    0  501    0  0.00000000000E+00  0.00000000000E+00  0.17858910025E+03  0.17858910025E+03  0.00000000000E+00 0. -1.
         -1   -1    0    0    0  501 -0.00000000000E+00 -0.00000000000E+00 -0.77123917184E+02  0.77123917184E+02  0.00000000000E+00 0.  1.
          5    1    1    2  502    0 -0.17974076586E+02 -0.49267467743E+02  0.49639306188E+02  0.72331762911E+02  0.41800000000E+01 0.  1.
         -5    1    1    2    0  502  0.55292948340E+02  0.49524557660E+02  0.27712982405E+02  0.79344021459E+02  0.41800000000E+01 0.  1.
        -11    1    1    2    0    0  0.26866826596E+02 -0.36015420384E+01  0.28854064878E+02  0.39589828699E+02  0.00000000000E+00 0. -1.
         11    1    1    2    0    0 -0.64185698350E+02  0.33444521217E+01 -0.47411704056E+01  0.64447404366E+02  0.00000000000E+00 0.  1.
</event>
<event>
 7    1  0.1538147E-010  0.1245443E+03  0.7561462E-02  0.1235783E+00
          3   -1    0    0  501    0  0.00000000000E+00  0.00000000000E+00  0.61939124806E+03  0.61939124806E+03  0.00000000000E+00 0. -1.
         -3   -1    0    0    0  501 -0.00000000000E+00 -0.00000000000E+00 -0.44437791837E+02  0.44437791837E+02  0.00000000000E+00 0.  1.
         25    2    1    2    0    0 -0.31287004734E+02  0.11155792387E+03  0.36318625710E+03  0.40123109853E+03  0.12513229013E+03 0.  0.
          5    1    3    3  502    0 -0.50782171936E+02  0.76733960391E+02  0.34516206457E+03  0.35724116908E+03  0.41800000000E+01 0. -1.
         -5    1    3    3    0  502  0.19495167202E+02  0.34823963480E+02  0.18024192530E+02  0.43989929450E+02  0.41800000000E+01 0. -1.
        -11    1    1    2    0    0  0.30653152588E+02 -0.86267823078E+02  0.61673918825E+02  0.11038761400E+03  0.00000000000E+00 0.  1.
         11    1    1    2    0    0  0.63385214680E+00 -0.25290100793E+02  0.15009328029E+03  0.15221032736E+03  0.00000000000E+00 0. -1.
</event>
<event>
 7    1  0.1538147E-010  0.9739850E+02  0.7561462E-02  0.1285864E+00
         -1   -1    0    0    0  501 -0.00000000000E+00  0.00000000000E+00  0.54410921433E+02  0.54410921433E+02  0.00000000000E+00 0.  1.
          1   -1    0    0  501    0  0.00000000000E+00 -0.00000000000E+00 -0.22221759001E+03  0.22221759001E+03  0.00000000000E+00 0. -1.
         25    2    1    2    0    0 -0.18841565272E+01 -0.24630896310E+02 -0.86478487152E+02  0.15403583809E+03  0.12505310703E+03 0.  0.
          5    1    3    3  502    0 -0.23406469435E+02 -0.69924680953E+02 -0.68108041711E+02  0.10046642008E+03  0.41800000000E+01 0. -1.
         -5    1    3    3    0  502  0.21522312908E+02  0.45293784643E+02 -0.18370445441E+02  0.53569418010E+02  0.41800000000E+01 0. -1.
        -11    1    1    2    0    0 -0.16743426153E+02  0.41960188612E+02 -0.91942828337E+01  0.46103520306E+02  0.00000000000E+00 0.  1.
         11    1    1    2    0    0  0.18627582681E+02 -0.17329292302E+02 -0.72133898590E+02  0.76489153048E+02  0.00000000000E+00 0. -1.
</event>
<event>
 7    1  0.1538147E-010  0.1043122E+03  0.7561462E-02  0.1271481E+00
         -2   -1    0    0    0  501 -0.00000000000E+00  0.00000000000E+00  0.31606604664E+02  0.31606604664E+02  0.00000000000E+00 0.  1.
          2   -1    0    0  501    0  0.00000000000E+00 -0.00000000000E+00 -0.57762857726E+03  0.57762857726E+03  0.00000000000E+00 0. -1.
         25    2    1    2    0    0 -0.71415400865E+02 -0.80178229728E+01 -0.37186052938E+03  0.39884721274E+03  0.12503759769E+03 0.  0.
          5    1    3    3  502    0 -0.20422551441E+02 -0.58999643642E+02 -0.24501499327E+03  0.25287913691E+03  0.41800000000E+01 0.  1.
         -5    1    3    3    0  502 -0.50992849424E+02  0.50981820669E+02 -0.12684553611E+03  0.14596807583E+03  0.41800000000E+01 0.  1.
        -11    1    1    2    0    0  0.34356482397E+02 -0.46244634086E+01 -0.29899076214E+01  0.34795015334E+02  0.00000000000E+00 0.  1.
         11    1    1    2    0    0  0.37058918468E+02  0.12642286381E+02 -0.17117153560E+03  0.17559295385E+03  0.00000000000E+00 0. -1.
</event>
<event>
 6    1  0.1538147E-010  0.2134417E+03  0.7561462E-02  0.1138869E+00
         -1   -1    0    0    0  501 -0.00000000000E+00  0.00000000000E+00  0.82971207108E+02  0.82971207108E+02  0.00000000000E+00 0.  1.
          1   -1    0    0  501    0  0.00000000000E+00 -0.00000000000E+00 -0.72523235513E+03  0.72523235513E+03  0.00000000000E+00 0. -1.
          5    1    1    2  502    0  0.91717263436E+02 -0.14312107851E+03 -0.83835478225E+02  0.18958259238E+03  0.41800000000E+01 0.  1.
         -5    1    1    2    0  502  0.48040921373E+02  0.38826949759E+01 -0.87697540882E+02  0.10015656006E+03  0.41800000000E+01 0.  1.
        -11    1    1    2    0    0 -0.31719243238E+02  0.78174878709E+02 -0.26601300965E+03  0.27907049890E+03  0.00000000000E+00 0.  1.
         11    1    1    2    0    0 -0.10803894157E+03  0.61063504825E+02 -0.20471511926E+03  0.23939391089E+03  0.00000000000E+00 0. -1.
</event>
<event>
 7    1  0.1538147E-010  0.9014912E+02  0.7561462E-02  0.1302491E+00
         -2   -1    0    0    0  501 -0.00000000000E+00  0.00000000000E+00  0.37736969872E+02  0.37736969872E+02  0.00000000000E+00 0.  1.
          2   -1    0    0  501    0  0.00000000000E+00 -0.00000000000E+00 -0.90588221072E+03  0.90588221072E+03  0.00000000000E+00 0. -1.
         25    2    1    2    0    0 -0.59707799009E+02  0.91606112091E+01 -0.80709965717E+03  0.81897049167E+03  0.12511543295E+03 0.  0.
          5    1    3    3  502    0 -0.53046040857E+02  0.49633770955E+02 -0.70667676422E+03  0.71041320030E+03  0.41800000000E+01 0. -1.
         -5    1    3    3    0  502 -0.66617581521E+01 -0.40473159746E+02 -0.10042289295E+03  0.10855729137E+03  0.41800000000E+01 0. -1.
        -11    1    1    2    0    0  0.34779306059E+02 -0.18847333489E+02  0.16319097225E+02  0.42791763738E+02  0.00000000000E+00 0.  1.
         11    1    1    2    0    0  0.24928492950E+02  0.96867222795E+01 -0.77364680902E+02  0.81856925182E+02  0.00000000000E+00 0. -1.
</event>
<event>
 6    1  0.1538147E-010  0.1118378E+03  0.7561462E-02  0.1257204E+00
         -1   -1    0    0    0  501 -0.00000000000E+00  0.00000000000E+00  0.38695432206E+02  0.38695432206E+02  0.00000000000E+00 0.  1.
          1   -1    0    0  501    0  0.00000000000E+00 -0.00000000000E+00 -0.46593276780E+03  0.46593276780E+03  0.00000000000E+00 0. -1.
          5    1    1    2  502    0 -0.21908008880E+01  0.68453932459E+02 -0.21737672734E+03  0.22794923660E+03  0.41800000000E+01 0. -1.
         -5    1    1    2    0  502  0.55906372837E+02 -0.21930673796E+02 -0.60501977514E+02  0.85348923016E+02  0.41800000000E+01 0. -1.
        -11    1    1    2    0    0  0.71782583195E+01 -0.31272095540E+02 -0.11577045162E+03  0.12013437817E+03  0.00000000000E+00 0. -1.
         11    1    1    2    0    0 -0.60893830268E+02 -0.15251163124E+02 -0.33588179123E+02  0.71195662215E+02  0.00000000000E+00 0.  1.
</event>
<event>
 7    1  0.1538147E-010  0.1349805E+03  0.7561462E-02  0.1220247E+00
          2   -1    0    0  501    0  0.00000000000E+00  0.00000000000E+00  0.94157300576E+03  0.94157300576E+03  0.00000000000E+00 0. -1.
         -2   -1    0    0    0  501 -0.00000000000E+00 -0.00000000000E+00 -0.25134721633E+02  0.25134721633E+02  0.00000000000E+00 0.  1.
         25    2    1    2    0    0  0.40697587000E+02  0.99273302556E+02  0.52287058409E+03  0.54823419000E+03  0.12512232889E+03 0.  0.
          5    1    3    3  502    0  0.48328790868E+02  0.23257203060E+02  0.66697244858E+02  0.85688764681E+02  0.41800000000E+01 0. -1.
         -5    1    3    3    0  502 -0.76312038673E+01  0.76016099496E+02  0.45617333923E+03  0.46254542531E+03  0.41800000000E+01 0. -1.
        -11    1    1    2    0    0 -0.69459569925E+02 -0.70014244724E+02  0.23890259484E+03  0.25845904151E+03  0.00000000000E+00 0.  1.
         11    1    1    2    0    0  0.28761982925E+02 -0.29259057832E+02  0.15466510521E+03  0.16001449589E+03  0.00000000000E+00 0. -1.
</event>
<event>
 7    1  0.1538147E-010  0.9953895E+02  0.7561462E-02  0.1281268E+00
         -2   -1    0    0    0  501 -0.00000000000E+00  0.00000000000E+00  0.52957900286E+02  0.52957900286E+02  0.00000000000E+00 0.  1.
          2   -1    0    0  501    0  0.00000000000E+00 -0.00000000000E+00 -0.26850407335E+03  0.26850407335E+03  0.00000000000E+00 0. -1.
         25    2    1    2    0    0  0.24719993063E+02  0.40836306970E+02 -0.10590526763E+03  0.17073206010E+03  0.12511925755E+03 0.  0.
          5    1    3    3  502    0  0.53383355416E+02  0.72309989280E+02 -0.81964961660E+02  0.12171378116E+03  0.41800000000E+01 0. -1.
         -5    1    3    3    0  502 -0.28663362353E+02 -0.31473682310E+02 -0.23940305970E+02  0.49018278932E+02  0.41800000000E+01 0. -1.
        -11    1    1    2    0    0 -0.38152758896E+02 -0.25258390981E+02 -0.72908159086E+01  0.46333306842E+02  0.00000000000E+00 0.  1.
         11    1    1    2    0    0  0.13432765833E+02 -0.15577915988E+02 -0.10235008952E+03  0.10439660670E+03  0.00000000000E+00 0. -1.
</event>
<event>
 7    1  0.1538147E-010  0.1315546E+03  0.7561462E-02  0.1225167E+00
         -1   -1    0    0    0  501 -0.00000000000E+00  0.00000000000E+00  0.24317654421E+02  0.24317654421E+02  0.00000000000E+00 0.  1.
          1   -1    0    0  501    0  0.00000000000E+00 -0.00000000000E+00 -0.71578980274E+03  0.71578980274E+03  0.00000000000E+00 0. -1.
         25    2    1    2    0    0  0.73021850072E+02 -0.16006450132E+02 -0.35544407539E+03  0.38416478377E+03  0.12511472066E+03 0.  0.
          5    1    3    3  502    0 -0.23173307486E+02  0.30730585801E+02 -0.95349859917E+02  0.10290985992E+03  0.41800000000E+01 0.  1.
         -5    1    3    3    0  502  0.96195157558E+02 -0.46737035933E+02 -0.26009421548E+03  0.28125492385E+03  0.41800000000E+01 0.  1.
        -11    1    1    2    0    0 -0.74840360201E+02  0.45650864911E+02 -0.24777212155E+03  0.26282333458E+03  0.00000000000E+00 0. -1.
         11    1    1    2    0    0  0.18185101292E+01 -0.29644414779E+02 -0.88255951373E+02  0.93119338804E+02  0.00000000000E+00 0.  1.
</event>
<event>
 7    1  0.1538147E-010  0.1019905E+03  0.7561462E-02  0.1276165E+00
         -2   -1    0    0    0  501 -0.00000000000E+00  0.00000000000E+00  0.14437631002E+02  0.14437631002E+02  0.00000000000E+00 0. -1.
          2   -1    0    0  501    0  0.00000000000E+00 -0.00000000000E+00 -0.14111724627E+04  0.14111724627E+04  0.00000000000E+00 0.  1.
         25    2    1    2    0    0  0.33618912630E+02 -0.64580564606E+02 -0.10923424673E+04  0.11018937956E+04  0.12512789588E+03 0.  0.
          5    1    3    3  502    0 -0.13598061895E+02 -0.50891274553E+02 -0.94567000510E+03  0.94714521593E+03  0.41800000000E+01 0.  1.
         -5    1    3    3    0  502  0.47216974525E+02 -0.13689290053E+02 -0.14667246221E+03  0.15474857969E+03  0.41800000000E+01 0.  1.
        -11    1    1    2    0    0  0.22287832439E+02  0.23754937051E+02 -0.16376786664E+03  0.16697592238E+03  0.00000000000E+00 0.  1.
         11    1    1    2    0    0 -0.55906745069E+02  0.40825627555E+02 -0.14062449774E+03  0.15674037570E+03  0.00000000000E+00 0. -1.
</event>
<event>
 7    1  0.1538147E-010  0.2528172E+03  0.7561462E-02  0.1111537E+00
          1   -1    0    0  501    0  0.00000000000E+00  0.00000000000E+00  0.48238812008E+03  0.48238812008E+03  0.00000000000E+00 0. -1.
         -1   -1    0    0    0  501 -0.00000000000E+00 -0.00000000000E+00 -0.14060750963E+03  0.14060750963E+03  0.00000000000E+00 0.  1.
         25    2    1    2    0    0  0.19129837808E+03 -0.13778839931E+03  0.20197258224E+03  0.33470416656E+03  0.12511291979E+03 0.  0.
          5    1    3    3  502    0  0.15305140732E+03 -0.16061665071E+03  0.17346607226E+03  0.28165651492E+03  0.41800000000E+01 0. -1.
         -5    1    3    3    0  502  0.38246970755E+02  0.22828251403E+02  0.28506509972E+02  0.53047651643E+02  0.41800000000E+01 0. -1.
        -11    1    1    2    0    0 -0.87276015423E+02  0.87020553116E+02  0.25990521355E+02  0.12595708290E+03  0.00000000000E+00 0.  1.
         11    1    1    2    0    0 -0.10402236266E+03  0.50767846193E+02  0.11381750686E+03  0.16233438024E+03  0.00000000000E+00 0. -1.
</event>
<event>
 7    1  0.1538147E-010  0.1241570E+03  0.7561462E-02  0.1236393E+00
         -2   -1    0    0    0  501 -0.00000000000E+00  0.00000000000E+00  0.23331973785E+02  0.23331973785E+02  0.00000000000E+00 0.  1.
          2   -1    0    0  501    0  0.00000000000E+00 -0.00000000000E+00 -0.87807212735E+03  0.87807212735E+03  0.00000000000E+00 0. -1.
         25    2    1    2    0    0  0.75206562179E+02 -0.22467816768E+02 -0.62645970122E+03  0.64363900356E+03  0.12513424736E+03 0.  0.
          5    1    3    3  502    0  0.32948631503E+02  0.51796301196E+02 -0.29196618680E+03  0.29837928174E+03  0.41800000000E+01 0.  1.
         -5    1    3    3    0  502  0.42257930676E+02 -0.74264117964E+02 -0.33449351442E+03  0.34525972182E+03  0.41800000000E+01 0.  1.
        -11    1    1    2    0    0 -0.94497877333E+00  0.26830250819E+02 -0.12677624539E+02  0.29689686894E+02  0.00000000000E+00 0.  1.
         11    1    1    2    0    0 -0.74261583405E+02 -0.43624340506E+01 -0.21560282781E+03  0.22807541069E+03  0.00000000000E+00 0. -1.
</event>
<event>
 6    1  0.1538147E-010  0.2363725E+03  0.7561462E-02  0.1122233E+00
          2   -1    0    0  501    0  0.00000000000E+00  0.00000000000E+00  0.12042062397E+04  0.12042062397E+04  0.00000000000E+00 0. -1.
         -2   -1    0    0    0  501 -0.00000000000E+00 -0.00000000000E+00 -0.48474613740E+02  0.48474613740E+02  0.00000000000E+00 0.  1.
          5    1    1    2  502    0  0.10289888314E+03 -0.17355427356E+03  0.48941751300E+03  0.52939233131E+03  0.41800000000E+01 0.  1.
         -5    1    1    2    0  502 -0.34808250813E+02 -0.31033230659E+02  0.93298577042E+02  0.10438760754E+03  0.41800000000E+01 0.  1.
        -11    1    1    2    0    0 -0.29221018772E+02  0.16870210968E+03  0.50166935450E+03  0.53008151354E+03  0.00000000000E+00 0.  1.
         11    1    1    2    0    0 -0.38869613551E+02  0.35885394539E+02  0.71346181388E+02  0.88819401019E+02  0.00000000000E+00 0. -1.
</event>
<event>
 7    1  0.1538147E-010  0.1512869E+03  0.7561462E-02  0.1198901E+00
         -2   -1    0    0    0  501 -0.00000000000E+00  0.00000000000E+00  0.18842454650E+02  0.18842454650E+02  0.00000000000E+00 0.  1.
          2   -1    0    0  501    0  0.00000000000E+00 -0.00000000000E+00 -0.19184311324E+04  0.19184311324E+04  0.00000000000E+00 0. -1.
         25    2    1    2    0    0  0.84222088122E+02 -0.87820843378E+02 -0.14888449085E+04  0.14990415854E+04  0.12514252858E+03 0.  0.
          5    1    3    3  502    0  0.43442203548E+02 -0.10353753452E+03 -0.13130025296E+04  0.13178013360E+04  0.41800000000E+01 0. -1.
         -5    1    3    3    0  502  0.40779884574E+02  0.15716691140E+02 -0.17584237892E+03  0.18124024937E+03  0.41800000000E+01 0. -1.
        -11    1    1    2    0    0 -0.29705768896E+02 -0.12425449101E+02 -0.46715487819E+02  0.56737653223E+02  0.00000000000E+00 0.  1.
         11    1    1    2    0    0 -0.54516319226E+02  0.10024629248E+03 -0.36402828138E+03  0.38149434840E+03  0.00000000000E+00 0. -1.
</event>
<event>
 6    1  0.1538147E-010  0.8895605E+02  0.7561462E-02  0.1305400E+00
          1   -1    0    0  501    0  0.00000000000E+00  0.00000000000E+00  0.30301037638E+02  0.30301037638E+02  0.00000000000E+00 0. -1.
         -1   -1    0    0    0  501 -0.00000000000E+00 -0.00000000000E+00 -0.50522792906E+03  0.50522792906E+03  0.00000000000E+00 0.  1.
          5    1    1    2  502    0  0.11001389049E+02 -0.44364220096E+01  0.13464875362E+02  0.18425191173E+02  0.41800000000E+01 0.  1.
         -5    1    1    2    0  502  0.18072925089E+02  0.57509379161E+02 -0.23706814687E+03  0.24464819225E+03  0.41800000000E+01 0.  1.
        -11    1    1    2    0    0 -0.29915550080E+02 -0.76150042395E+02 -0.20411835003E+03  0.21990468369E+03  0.00000000000E+00 0.  1.
         11    1    1    2    0    0  0.84123594204E+00  0.23077085244E+02 -0.47205269885E+02  0.52550899575E+02  0.00000000000E+00 0. -1.
</event>
<event>
 7    1  0.1538147E-010  0.1051642E+03  0.7561462E-02  0.1269796E+00
         -3   -1    0    0    0  501 -0.00000000000E+00  0.00000000000E+00  0.17649648862E+03  0.17649648862E+03  0.00000000000E+00 0.  1.
          3   -1    0    0  501    0  0.00000000000E+00 -0.00000000000E+00 -0.66733324642E+02  0.66733324642E+02  0.00000000000E+00 0. -1.
         25    2    1    2    0    0 -0.19290369107E+02 -0.51592967054E+01  0.66901768822E+02  0.14323577203E+03  0.12506759386E+03 0.  0.
          5    1    3    3  502    0  0.20267854762E+02  0.49347583081E+02  0.50972196824E+02  0.73902686972E+02  0.41800000000E+01 0.  1.
         -5    1    3    3    0  502 -0.39558223868E+02 -0.54506879787E+02  0.15929571998E+02  0.69333085058E+02  0.41800000000E+01 0.  1.
        -11    1    1    2    0    0  0.44576285217E+02 -0.24094687572E+02  0.16882252029E+02  0.53409826872E+02  0.00000000000E+00 0.  1.
         11    1    1    2    0    0 -0.25285916111E+02  0.29253984277E+02  0.25979143122E+02  0.46584214354E+02  0.00000000000E+00 0. -1.
</event>
<event>
 6    1  0.1538147E-010  0.1205730E+03  0.7561462E-02  0.1242155E+00
         -1   -1    0    0    0  501 -0.00000000000E+00  0.00000000000E+00  0.49863825219E+03  0.49863825219E+03  0.00000000000E+00 0.  1.
          1   -1    0    0  501    0  0.00000000000E+00 -0.00000000000E+00 -0.43285975792E+02  0.43285975792E+02  0.00000000000E+00 0. -1.
          5    1    1    2  502    0 -0.16883056630E+02  0.37409819165E+02  0.91528340313E-01  0.41255459621E+02  0.41800000000E+01 0.  1.
         -5    1    1    2    0  502 -0.74163534274E+02 -0.16077107842E+02  0.19238217153E+03  0.20685036991E+03  0.41800000000E+01 0.  1.
        -11    1    1    2    0    0  0.10555252708E+03 -0.25895821808E+02  0.18578518450E+03  0.21523955106E+03  0.00000000000E+00 0. -1.
         11    1    1    2    0    0 -0.14505936179E+02  0.45631104855E+01  0.77093392026E+02  0.78578847381E+02  0.00000000000E+00 0.  1.
</event>
<event>
 6    1  0.1538147E-010  0.1171491E+03  0.7561462E-02  0.1247876E+00
          2   -1    0    0  501    0  0.00000000000E+00  0.00000000000E+00  0.69814384175E+03  0.69814384175E+03  0.00000000000E+00 0.  1.
         -2   -1    0    0    0  501 -0.00000000000E+00 -0.00000000000E+00 -0.30221635340E+02  0.30221635340E+02  0.00000000000E+00 0. -1.
          5    1    1    2  502    0 -0.54377499870E+02 -0.52770564503E+02  0.16836152572E+03  0.18467463473E+03  0.41800000000E+01 0. -1.
         -5    1    1    2    0  502  0.49058336300E+02 -0.23503848381E+02  0.33813014119E+03  0.34250345404E+03  0.41800000000E+01 0. -1.
        -11    1    1    2    0    0 -0.18132947852E+02 -0.53647723206E+01  0.84489782802E+02  0.86580066861E+02  0.00000000000E+00 0.  1.
         11    1    1    2    0    0  0.23452111422E+02  0.81639185204E+02  0.76940756709E+02  0.11460732147E+03  0.00000000000E+00 0. -1.
</event>
<event>
 7    1  0.1538147E-010  0.1146176E+03  0.7561462E-02  0.1252250E+00
          1   -1    0    0  501    0  0.00000000000E+00  0.00000000000E+00  0.24656888975E+02  0.24656888975E+02  0.00000000000E+00 0. -1.
         -1   -1    0    0    0  501 -0.00000000000E+00 -0.00000000000E+00 -0.68964575274E+03  0.68964575274E+03  0.00000000000E+00 0.  1.
         25    2    1    2    0    0  0.78688204981E+01 -0.68043737442E+02 -0.42266938339E+03  0.44607503961E+03  0.12506664129E+03 0.  0.
          5    1    3    3  502    0 -0.42970948912E+02 -0.59939069181E+02 -0.34485958784E+03  0.35268229640E+03  0.41800000000E+01 0.  1.
         -5    1    3    3    0  502  0.50839769410E+02 -0.81046682617E+01 -0.77809795550E+02  0.93392743213E+02  0.41800000000E+01 0.  1.
        -11    1    1    2    0    0 -0.43064873413E+02  0.36504008046E+02 -0.18767014946E+03  0.19597757761E+03  0.00000000000E+00 0.  1.
         11    1    1    2    0    0  0.35196052915E+02  0.31539729396E+02 -0.54649330911E+02  0.72250024500E+02  0.00000000000E+00 0. -1.
</event>
<event>
 7    1  0.1538147E-010  0.1115721E+03  0.7561462E-02  0.1257686E+00
         -2   -1    0    0    0  501 -0.00000000000E+00  0.00000000000E+00  0.40630779804E+02  0.40630779804E+02  0.00000000000E+00 0.  1.
          2   -1    0    0  501    0  0.00000000000E+00 -0.00000000000E+00 -0.39973064675E+03  0.39973064675E+03  0.00000000000E+00 0. -1.
         25    2    1    2    0    0 -0.15367689511E+02 -0.63583455578E+02 -0.22648056418E+03  0.26685619846E+03  0.12505903807E+03 0.  0.
          5    1    3    3  502    0 -0.61096709608E+02 -0.61637542514E+02 -0.10104237994E+03  0.13326300880E+03  0.41800000000E+01 0. -1.
         -5    1    3    3    0  502  0.45729020098E+02 -0.19459130644E+01 -0.12543818424E+03  0.13359318966E+03  0.41800000000E+01 0. -1.
        -11    1    1    2    0    0  0.13692195596E+02  0.76274845857E+02 -0.55469471244E+02  0.95300527653E+02  0.00000000000E+00 0.  1.
         11    1    1    2    0    0  0.16754939152E+01 -0.12691390279E+02 -0.77149831524E+02  0.78204700442E+02  0.00000000000E+00 0. -1.
</event>
<event>
 6    1  0.1538147E-010  0.8961545E+02  0.7561462E-02  0.1303786E+00
         -1   -1    0    0    0  501 -0.00000000000E+00  0.00000000000E+00  0.11055521304E+03  0.11055521304E+03  0.00000000000E+00 0.  1.
          1   -1    0    0  501    0  0.00000000000E+00 -0.00000000000E+00 -0.12327705883E+03  0.12327705883E+03  0.00000000000E+00 0. -1.
          5    1    1    2  502    0  0.10487442771E+02  0.57154705091E+02  0.46241236330E+02  0.74379910642E+02  0.41800000000E+01 0. -1.
         -5    1    1    2    0  502  0.16383979857E+02 -0.19835881435E+02 -0.52842957209E+02  0.58921536936E+02  0.41800000000E+01 0. -1.
        -11    1    1    2    0    0 -0.15384729717E+02  0.26186442294E+02  0.13271821827E+02  0.33144545903E+02  0.00000000000E+00 0.  1.
         11    1    1    2    0    0 -0.11486692910E+02 -0.63505265949E+02 -0.19391946743E+02  0.67386278394E+02  0.00000000000E+00 0. -1.
</event>
<event>
 6    1  0.1538147E-010  0.4726044E+02  0.7561462E-02  0.1460704E+00
         -1   -1    0    0    0  501 -0.00000000000E+00  0.00000000000E+00  0.37609963668E+02  0.37609963668E+02  0.00000000000E+00 0. -1.
          1   -1    0    0  501    0  0.00000000000E+00 -0.00000000000E+00 -0.34909518518E+03  0.34909518518E+03  0.00000000000E+00 0.  1.
          5    1    1    2  502    0 -0.95852803606E-01 -0.22933145211E+01 -0.20528153027E+03  0.20533691229E+03  0.41800000000E+01 0. -1.
         -5    1    1    2    0  502 -0.33794086456E+02  0.70293899673E+00  0.38060805173E+01  0.34270877601E+02  0.41800000000E+01 0. -1.
        -11    1    1    2    0    0  0.31761577582E+01 -0.18644449923E+02 -0.10865861473E+03  0.11029232995E+03  0.00000000000E+00 0.  1.
         11    1    1    2    0    0  0.30713781501E+02  0.20234825447E+02 -0.13511570325E+01  0.36805029008E+02  0.00000000000E+00 0. -1.
</event>
<event>
 7    1  0.1538147E-010  0.1041213E+03  0.7561462E-02  0.1271861E+00
         -2   -1    0    0    0  501 -0.00000000000E+00  0.00000000000E+00  0.17008659659E+02  0.17008659659E+02  0.00000000000E+00 0.  1.
          2   -1    0    0  501    0  0.00000000000E+00 -0.00000000000E+00 -0.78579085661E+03  0.78579085661E+03  0.00000000000E+00 0. -1.
         25    2    1    2    0    0 -0.19987426405E+02 -0.40748215409E+02 -0.42653327415E+03  0.44681552420E+03  0.12511420558E+03 0.  0.
          5    1    3    3  502    0 -0.55844781088E+02 -0.49072396645E+02 -0.38054431171E+03  0.38776047408E+03  0.41800000000E+01 0.  1.
         -5    1    3    3    0  502  0.35857354683E+02  0.83241812359E+01 -0.45988962440E+02  0.59055050118E+02  0.41800000000E+01 0.  1.
        -11    1    1    2    0    0  0.27726014813E+02 -0.20826408947E+02 -0.15046730576E+03  0.15441140278E+03  0.00000000000E+00 0.  1.
         11    1    1    2    0    0 -0.77385884078E+01  0.61574624356E+02 -0.19178161704E+03  0.20157258928E+03  0.00000000000E+00 0. -1.
</event>
<event>
 6    1  0.1538147E-010  0.1632327E+03  0.7561462E-02  0.1185095E+00
          3   -1    0    0  501    0  0.00000000000E+00  0.00000000000E+00  0.57038075348E+03  0.57038075348E+03  0.00000000000E+00 0. -1.
         -3   -1    0    0    0  501 -0.00000000000E+00 -0.00000000000E+00 -0.69113024462E+02  0.69113024462E+02  0.00000000000E+00 0.  1.
          5    1    1    2  502    0 -0.23979377473E+02 -0.33832163780E+02  0.24338787137E+03  0.24693066675E+03  0.41800000000E+01 0.  1.
         -5    1    1    2    0  502 -0.11615775981E+03  0.13316398425E+02  0.15764921337E+03  0.19631785071E+03  0.41800000000E+01 0.  1.
        -11    1    1    2    0    0  0.11540875062E+03 -0.23060266774E+02  0.60678577671E+02  0.13241165134E+03  0.00000000000E+00 0. -1.
         11    1    1    2    0    0  0.24728386665E+02  0.43576032130E+02  0.39552066600E+02  0.63833609138E+02  0.00000000000E+00 0.  1.
</event>
<event>
 6    1  0.1538147E-010  0.1483781E+03  0.7561462E-02  0.1202480E+00
          2   -1    0    0  501    0  0.00000000000E+00  0.00000000000E+00  0.26453492670E+03  0.26453492670E+03  0.00000000000E+00 0. -1.
         -2   -1    0    0    0  501 -0.00000000000E+00 -0.00000000000E+00 -0.13768628526E+03  0.13768628526E+03  0.00000000000E+00 0.  1.
          5    1    1    2  502    0 -0.47300132779E+02 -0.62653482881E+02 -0.60959902824E+02  0.99480368065E+02  0.41800000000E+01 0.  1.
         -5    1    1    2    0  502 -0.73189957562E+02  0.11481895223E+02  0.37630357915E+02  0.83199279099E+02  0.41800000000E+01 0.  1.
        -11    1    1    2    0    0  0.11525549547E+03  0.62751352698E+02  0.15739593646E+03  0.20492691945E+03  0.00000000000E+00 0. -1.
         11    1    1    2    0    0  0.52345948681E+01 -0.11579765040E+02 -0.72177501084E+01  0.14614645341E+02  0.00000000000E+00 0.  1.
</event>
<event>
 7    1  0.1538147E-010  0.1142646E+03  0.7561462E-02  0.1252870E+00
          2   -1    0    0  501    0  0.00000000000E+00  0.00000000000E+00  0.16588084853E+04  0.16588084853E+04  0.00000000000E+00 0. -1.
         -2   -1    0    0    0  501 -0.00000000000E+00 -0.00000000000E+00 -0.10567247188E+02  0.10567247188E+02  0.00000000000E+00 0.  1.
         25    2    1    2    0    0  0.15723056511E+02  0.30278889035E+02  0.13152561132E+04  0.13216367600E+04  0.12514414239E+03 0.  0.
          5    1    3    3  502    0  0.34724478775E+02  0.73234902432E+02  0.73481493219E+03  0.73928316451E+03  0.41800000000E+01 0. -1.
         -5    1    3    3    0  502 -0.19001422263E+02 -0.42956013398E+02  0.58044118106E+03  0.58235359551E+03  0.41800000000E+01 0. -1.
        -11    1    1    2    0    0 -0.53408590023E+02 -0.26281009564E+01  0.17864916245E+03  0.18648031437E+03  0.00000000000E+00 0.  1.
         11    1    1    2    0    0  0.37685533512E+02 -0.27650788078E+02  0.15433596243E+03  0.16125865811E+03  0.00000000000E+00 0. -1.
</event>
<event>
 7    1  0.1538147E-010  0.1444501E+03  0.7561462E-02  0.1207463E+00
         -1   -1    0    0    0  501 -0.00000000000E+00  0.00000000000E+00  0.35570954387E+03  0.35570954387E+03  0.00000000000E+00 0.  1.
          1   -1    0    0  501    0  0.00000000000E+00 -0.00000000000E+00 -0.80928360667E+02  0.80928360667E+02  0.00000000000E+00 0. -1.
         25    2    1    2    0    0  0.58393033876E+02  0.11484571597E+03  0.17076368929E+03  0.24781490992E+03  0.12511077938E+03 0.  0.
          5    1    3    3  502    0  0.69752468573E+01  0.37563985972E+02 -0.14079288390E+02  0.40931722079E+02  0.41800000000E+01 0.  1.
         -5    1    3    3    0  502  0.51417787018E+02  0.77281730003E+02  0.18484297768E+03  0.20688318784E+03  0.41800000000E+01 0.  1.
        -11    1    1    2    0    0 -0.43803631355E+02 -0.20909732162E+01  0.30905359961E+02  0.53649525284E+02  0.00000000000E+00 0.  1.
         11    1    1    2    0    0 -0.14589402520E+02 -0.11275474276E+03  0.73112133953E+02  0.13517346933E+03  0.00000000000E+00 0. -1.
</event>
<event>
 6    1  0.1538147E-010  0.1330105E+03  0.7561462E-02  0.1223056E+00
          1   -1    0    0  501    0  0.00000000000E+00  0.00000000000E+00  0.40991056801E+03  0.40991056801E+03  0.00000000000E+00 0. -1.
         -1   -1    0    0    0  501 -0.00000000000E+00 -0.00000000000E+00 -0.71156451216E+02  0.71156451216E+02  0.00000000000E+00 0.  1.
          5    1    1    2  502    0 -0.89411377390E+01  0.64028819365E+01  0.13727131989E+03  0.13777455681E+03  0.41800000000E+01 0.  1.
         -5    1    1    2    0  502 -0.30519674989E+02  0.11603493422E+03  0.81018117474E+02  0.14483426487E+03  0.41800000000E+01 0.  1.
        -11    1    1    2    0    0  0.45709216231E+02 -0.87602217506E+02  0.12856702444E+03  0.16215104296E+03  0.00000000000E+00 0. -1.
         11    1    1    2    0    0 -0.62484035030E+01 -0.34835598649E+02 -0.81023450056E+01  0.36307154587E+02  0.00000000000E+00 0.  1.
</event>
<event>
 7    1  0.1538147E-010  0.7218240E+02  0.7561462E-02  0.1352825E+00
          1   -1    0    0  501    0  0.00000000000E+00  0.00000000000E+00  0.31837750710E+03  0.31837750710E+03  0.00000000000E+00 0. -1.
         -1   -1    0    0    0  501 -0.00000000000E+00 -0.00000000000E+00 -0.45388311950E+02  0.45388311950E+02  0.00000000000E+00 0.  1.
         25    2    1    2    0    0  0.19535803229E+02 -0.28645998162E+01  0.23639120739E+03  0.26815160347E+03  0.12503849796E+03 0.  0.
          5    1    3    3  502    0 -0.11903635251E+02 -0.17846800050E+02  0.23173940923E+03  0.23276776193E+03  0.41800000000E+01 0. -1.
         -5    1    3    3    0  502  0.31439438480E+02  0.14982200234E+02  0.46517981590E+01  0.35383841537E+02  0.41800000000E+01 0. -1.
        -11    1    1    2    0    0 -0.44365441053E+02 -0.24337154153E+02  0.27848512541E+02  0.57759233745E+02  0.00000000000E+00 0. -1.
         11    1    1    2    0    0  0.24829637824E+02  0.27201753969E+02  0.87494752237E+01  0.37854981841E+02  0.00000000000E+00 0.  1.
</event>
<event>
 7    1  0.1538147E-010  0.1483789E+03  0.7561462E-02  0.1202479E+00
          2   -1    0    0  501    0  0.00000000000E+00  0.00000000000E+00  0.37290376017E+03  0.37290376017E+03  0.00000000000E+00 0. -1.
         -2   -1    0    0    0  501 -0.00000000000E+00 -0.00000000000E+00 -0.65467446386E+02  0.65467446386E+02  0.00000000000E+00 0.  1.
         25    2    1    2    0    0 -0.82194255676E+02  0.61185033750E+02  0.23324414596E+03  0.28379915428E+03  0.12505848361E+03 0.  0.
          5    1    3    3  502    0 -0.10639312991E+03  0.12845739531E+02  0.14800488525E+03  0.18277699411E+03  0.41800000000E+01 0.  1.
         -5    1    3    3    0  502  0.24198874234E+02  0.48339294220E+02  0.85239260705E+02  0.10102216017E+03  0.41800000000E+01 0.  1.
        -11    1    1    2    0    0  0.55668988694E+02  0.12432779227E+02  0.36477171523E+02  0.67706678724E+02  0.00000000000E+00 0.  1.
         11    1    1    2    0    0  0.26525266983E+02 -0.73617812978E+02  0.37714996299E+02  0.86865373550E+02  0.00000000000E+00 0. -1.
</event>
<event>
 7    1  0.1538147E-010  0.6811367E+02  0.7561462E-02  0.1366628E+00
          2   -1    0    0  501    0  0.00000000000E+00  0.00000000000E+00  0.37910021173E+02  0.37910021173E+02  0.00000000000E+00 0.  1.
         -2   -1    0    0    0  501 -0.00000000000E+00 -0.00000000000E+00 -0.38279343460E+03  0.38279343460E+03  0.00000000000E+00 0. -1.
         25    2    1    2    0    0 -0.39942636983E+02 -0.16009170145E+02 -0.24370411429E+03  0.27731856529E+03  0.12514864584E+03 0.  0.
          5    1    3    3  502    0 -0.12438105435E+02 -0.21295992780E+02  0.62358178269E+01  0.25779518988E+02  0.41800000000E+01 0.  1.
         -5    1    3    3    0  502 -0.27504531548E+02  0.52868226348E+01 -0.24993993212E+03  0.25153904630E+03  0.41800000000E+01 0.  1.
        -11    1    1    2    0    0 -0.56818241665E+00 -0.25142701579E+02 -0.76604752377E+02  0.80627330111E+02  0.00000000000E+00 0. -1.
         11    1    1    2    0    0  0.40510819400E+02  0.41151871724E+02 -0.24574546759E+02  0.62757560367E+02  0.00000000000E+00 0.  1.
</event>
<event>
 7    1  0.1538147E-010  0.1086777E+03  0.7561462E-02  0.1263038E+00
          1   -1    0    0  501    0  0.00000000000E+00  0.00000000000E+00  0.40521399627E+03  0.40521399627E+03  0.00000000000E+00 0. -1.
         -1   -1    0    0    0  501 -0.00000000000E+00 -0.00000000000E+00 -0.36733090118E+02  0.36733090118E+02  0.00000000000E+00 0.  1.
         25    2    1    2    0    0 -0.43596513277E+02 -0.64066518505E+01  0.14616377829E+03  0.19735140329E+03  0.12506808202E+03 0.  0.
          5    1    3    3  502    0  0.16091878811E+02 -0.52865824583E+02  0.47707399729E+02  0.73124635804E+02  0.41800000000E+01 0.  1.
         -5    1    3    3    0  502 -0.59688392088E+02  0.46459172733E+02  0.98456378565E+02  0.12422676749E+03  0.41800000000E+01 0.  1.
        -11    1    1    2    0    0  0.33100849262E+02  0.39459067362E+02  0.19115742464E+03  0.19797435494E+03  0.00000000000E+00 0. -1.
         11    1    1    2    0    0  0.10495664014E+02 -0.33052415511E+02  0.31159703219E+02  0.46621328155E+02  0.00000000000E+00 0.  1.
</event>
<event>
 7    1  0.1538147E-010  0.1247832E+03  0.7561462E-02  0.1235408E+00
         -1   -1    0    0    0  501 -0.00000000000E+00  0.00000000000E+00  0.95713184780E+02  0.95713184780E+02  0.00000000000E+00 0.  1.
          1   -1    0    0  501    0  0.00000000000E+00 -0.00000000000E+00 -0.21602661572E+03  0.21602661572E+03  0.00000000000E+00 0. -1.
         25    2    1    2    0    0 -0.56529021139E+02 -0.72381354197E+02 -0.77239485852E+02  0.17336776980E+03  0.12512335819E+03 0.  0.
          5    1    3    3  502    0  0.31470856527E+02 -0.57729043584E+02 -0.34133270622E+02  0.74199796813E+02  0.41800000000E+01 0.  1.
         -5    1    3    3    0  502 -0.87999877666E+02 -0.14652310613E+02 -0.43106215230E+02  0.99167972990E+02  0.41800000000E+01 0.  1.
        -11    1    1    2    0    0  0.39200326230E+02  0.32606219918E+02  0.25667095998E+02  0.57084419686E+02  0.00000000000E+00 0.  1.
         11    1    1    2    0    0  0.17328694909E+02  0.39775134279E+02 -0.68741041084E+02  0.81287611009E+02  0.00000000000E+00 0. -1.
</event>
<event>
 7    1  0.1538147E-010  0.1146157E+03  0.7561462E-02  0.1252253E+00
         -1   -1    0    0    0  501 -0.00000000000E+00  0.00000000000E+00  0.51634325491E+02  0.51634325491E+02  0.00000000000E+00 0.  1.
          1   -1    0    0  501    0  0.00000000000E+00 -0.00000000000E+00 -0.27633174256E+03  0.27633174256E+03  0.00000000000E+00 0. -1.
         25    2    1    2    0    0  0.12624392141E+02  0.19910512825E+02 -0.90082858727E+02  0.15592347832E+03  0.12506560621E+03 0.  0.
          5    1    3    3  502    0 -0.47997153646E+02 -0.17911680579E+02 -0.57966061739E+02  0.77473168083E+02  0.41800000000E+01 0. -1.
         -5    1    3    3    0  502  0.60621545787E+02  0.37822193404E+02 -0.32116796988E+02  0.78450310237E+02  0.41800000000E+01 0. -1.
        -11    1    1    2    0    0  0.15310613075E+02  0.38541714005E+02 -0.63504982435E+02  0.75846960291E+02  0.00000000000E+00 0.  1.
         11    1    1    2    0    0 -0.27935005216E+02 -0.58452226830E+02 -0.71109575908E+02  0.96195629441E+02  0.00000000000E+00 0. -1.
</event>
<event>
 6    1  0.1538147E-010  0.1003841E+03  0.7561462E-02  0.1279490E+00
          1   -1    0    0  501    0  0.00000000000E+00  0.00000000000E+00  0.87863696517E+02  0.87863696517E+02  0.00000000000E+00 0. -1.
         -1   -1    0    0    0  501 -0.00000000000E+00 -0.00000000000E+00 -0.19638514046E+03  0.19638514046E+03  0.00000000000E+00 0.  1.
          5    1    1    2  502    0  0.25679188108E+02 -0.36876255325E+02 -0.12934057573E+02  0.46947216680E+02  0.41800000000E+01 0. -1.
         -5    1    1    2    0  502 -0.24089812783E+01  0.92420461326E+02 -0.12869038500E+01  0.92555245038E+02  0.41800000000E+01 0. -1.
        -11    1    1    2    0    0 -0.18966714754E+02 -0.21068408985E+02 -0.10470811518E+03  0.10847766365E+03  0.00000000000E+00 0.  1.
         11    1    1    2    0    0 -0.43034920763E+01 -0.34475797016E+02  0.10407632666E+02  0.36268711607E+02  0.00000000000E+00 0. -1.
</event>
<event>
 6    1  0.1538147E-010  0.3419977E+03  0.7561462E-02  0.1065948E+00
          1   -1    0    0  501    0  0.00000000000E+00  0.00000000000E+00  0.17206905754E+04  0.17206905754E+04  0.00000000000E+00 0. -1.
         -1   -1    0    0    0  501 -0.00000000000E+00 -0.00000000000E+00 -0.77391548236E+02  0.77391548236E+02  0.00000000000E+00 0.  1.
          5    1    1    2  502    0 -0.13459115284E+03  0.28152211755E+03  0.77452182012E+03  0.83502754645E+03  0.41800000000E+01 0. -1.
         -5    1    1    2    0  502 -0.22804657110E+02  0.19892337073E+02  0.24646681751E+03  0.24835281757E+03  0.41800000000E+01 0. -1.
        -11    1    1    2    0    0  0.13516554231E+03 -0.23213911905E+03  0.40900103232E+03  0.48932620905E+03  0.00000000000E+00 0.  1.
         11    1    1    2    0    0  0.22230267640E+02 -0.69275335569E+02  0.21330935718E+03  0.22537555053E+03  0.00000000000E+00 0. -1.
</event>
<event>
 7    1  0.1538147E-010  0.1290255E+03  0.7561462E-02  0.1228909E+00
          1   -1    0    0  501    0  0.00000000000E+00  0.00000000000E+00  0.10137227565E+04  0.10137227565E+04  0.00000000000E+00 0. -1.
         -1   -1    0    0    0  501 -0.00000000000E+00 -0.00000000000E+00 -0.24380631527E+02  0.24380631527E+02  0.00000000000E+00 0.  1.
         25    2    1    2    0    0 -0.17662637144E+02 -0.90544805546E+02  0.75055896553E+03  0.76649294618E+03  0.12514929181E+03 0.  0.
          5    1    3    3  502    0 -0.63349474121E+02 -0.23015338786E+02  0.23500912672E+03  0.24451916844E+03  0.41800000000E+01 0.  1.
         -5    1    3    3    0  502  0.45686836978E+02 -0.67529466761E+02  0.51554983881E+03  0.52197377774E+03  0.41800000000E+01 0.  1.
        -11    1    1    2    0    0  0.33340335284E+02  0.25501007759E+02  0.17211241376E+03  0.17715688619E+03  0.00000000000E+00 0. -1.
         11    1    1    2    0    0 -0.15677698140E+02  0.65043797787E+02  0.66670745730E+02  0.94453555707E+02  0.00000000000E+00 0.  1.
</event>
<event>
 7    1  0.1538147E-010  0.2179310E+03  0.7561462E-02  0.1135435E+00
         -1   -1    0    0    0  501 -0.00000000000E+00  0.00000000000E+00  0.11484545248E+03  0.11484545248E+03  0.00000000000E+00 0.  1.
          1   -1    0    0  501    0  0.00000000000E+00 -0.00000000000E+00 -0.44268040986E+03  0.44268040986E+03  0.00000000000E+00 0. -1.
         25    2    1    2    0    0  0.86035451239E+02 -0.17739951897E+03 -0.18415821974E+03  0.29736693940E+03  0.12506061950E+03 0.  0.
          5    1    3    3  502    0 -0.27752596629E+02 -0.65302494040E+02 -0.36950370176E+02  0.80108829748E+02  0.41800000000E+01 0. -1.
         -5    1    3    3    0  502  0.11378804787E+03 -0.11209702493E+03 -0.14720784956E+03  0.21725810965E+03  0.41800000000E+01 0. -1.
        -11    1    1    2    0    0 -0.28967557163E+02  0.12226234405E+03 -0.44838946929E+02  0.13340813807E+03  0.00000000000E+00 0.  1.
         11    1    1    2    0    0 -0.57067894077E+02  0.55137174923E+02 -0.98837790713E+02  0.12675078487E+03  0.00000000000E+00 0. -1.
</event>
<event>
 7    1  0.1538147E-010  0.1046911E+03  0.7561462E-02  0.1270729E+00
          2   -1    0    0  501    0  0.00000000000E+00  0.00000000000E+00  0.10303296001E+04  0.10303296001E+04  0.00000000000E+00 0. -1.
         -2   -1    0    0    0  501 -0.00000000000E+00 -0.00000000000E+00 -0.14728167973E+02  0.14728167973E+02  0.00000000000E+00 0.  1.
         25    2    1    2    0    0 -0.19411311841E+02  0.54612856014E+02  0.61354870411E+03  0.62884282010E+03  0.12506764972E+03 0.  0.
          5    1    3    3  502    0  0.22168856887E+02 -0.17854581403E+02  0.37405272202E+03  0.37515750764E+03  0.41800000000E+01 0. -1.
         -5    1    3    3    0  502 -0.41580168728E+02  0.72467437417E+02  0.23949598209E+03  0.25368531245E+03  0.41800000000E+01 0. -1.
        -11    1    1    2    0    0 -0.25317587848E+02 -0.44349755884E+02  0.30004461268E+03  0.30435941041E+03  0.00000000000E+00 0. -1.
         11    1    1    2    0    0  0.44728899689E+02 -0.10263100130E+02  0.10200811537E+03  0.11185553760E+03  0.00000000000E+00 0.  1.
</event>
<event>
 6    1  0.1538147E-010  0.1177734E+03  0.7561462E-02  0.1246816E+00
         -2   -1    0    0    0  501 -0.00000000000E+00  0.00000000000E+00  0.42391019028E+02  0.42391019028E+02  0.00000000000E+00 0.  1.
          2   -1    0    0  501    0  0.00000000000E+00 -0.00000000000E+00 -0.46500162721E+03  0.46500162721E+03  0.00000000000E+00 0. -1.
          5    1    1    2  502    0 -0.11230325053E+03  0.17183773563E+02 -0.16413256686E+03  0.19966039682E+03  0.41800000000E+01 0. -1.
         -5    1    1    2    0  502  0.26354928629E+02 -0.23412393294E+02 -0.27075495030E+02  0.44646133695E+02  0.41800000000E+01 0. -1.
        -11    1    1    2    0    0  0.47872734126E+02  0.62942686046E+01 -0.21711307545E+03  0.22241740943E+03  0.00000000000E+00 0. -1.
         11    1    1    2    0    0  0.38075587775E+02 -0.65648873400E-01 -0.14289470843E+02  0.40668706288E+02  0.00000000000E+00 0.  1.
</event>
<event>
 7    1  0.1538147E-010  0.2722029E+03  0.7561462E-02  0.1100025E+00
         -1   -1    0    0    0  501 -0.00000000000E+00  0.00000000000E+00  0.12940999885E+03  0.12940999885E+03  0.00000000000E+00 0.  1.
          1   -1    0    0  501    0  0.00000000000E+00 -0.00000000000E+00 -0.63430700625E+03  0.63430700625E+03  0.00000000000E+00 0. -1.
         25    2    1    2    0    0 -0.88269989158E+02 -0.24650001253E+03 -0.30188769954E+03  0.41874083266E+03  0.12511536531E+03 0.  0.
          5    1    3    3  502    0 -0.82641500135E+02 -0.14973264075E+03 -0.10906318753E+03  0.20288354425E+03  0.41800000000E+01 0.  1.
         -5    1    3    3    0  502 -0.56284890228E+01 -0.96767371776E+02 -0.19282451200E+03  0.21585728841E+03  0.41800000000E+01 0.  1.
        -11    1    1    2    0    0  0.77837835460E+02  0.88076619065E+02 -0.63359445887E+02  0.13353141517E+03  0.00000000000E+00 0. -1.
         11    1    1    2    0    0  0.10432153697E+02  0.15842339346E+03 -0.13964986198E+03  0.21144475727E+03  0.00000000000E+00 0.  1.
</event>
<event>
 6    1  0.1538147E-010  0.9579898E+02  0.7561462E-02  0.1289387E+00
          2   -1    0    0  501    0  0.00000000000E+00  0.00000000000E+00  0.52478347262E+02  0.52478347262E+02  0.00000000000E+00 0. -1.
         -2   -1    0    0    0  501 -0.00000000000E+00 -0.00000000000E+00 -0.26086645559E+03  0.26086645559E+03  0.00000000000E+00 0.  1.
          5    1    1    2  502    0 -0.82265896668E+02  0.10255928782E+02 -0.14524767539E+03  0.16729381769E+03  0.41800000000E+01 0. -1.
         -5    1    1    2    0  502  0.37823765712E+02  0.43006508451E+01 -0.14463823003E+02  0.40936626952E+02  0.41800000000E+01 0. -1.
        -11    1    1    2    0    0  0.26353907661E+02 -0.34470816475E+02  0.63598736250E+01  0.43854459637E+02  0.00000000000E+00 0. -1.
         11    1    1    2    0    0  0.18088223295E+02  0.19914236848E+02 -0.55036483562E+02  0.61259898580E+02  0.00000000000E+00 0.  1.
</event>
<event>
 7    1  0.1538147E-010  0.1081201E+03  0.7561462E-02  0.1264091E+00
         -1   -1    0    0    0  501 -0.00000000000E+00  0.00000000000E+00  0.15079869546E+03  0.15079869546E+03  0.00000000000E+00 0.  1.
          1   -1    0    0  501    0  0.00000000000E+00 -0.00000000000E+00 -0.85219043601E+02  0.85219043601E+02  0.00000000000E+00 0. -1.
         25    2    1    2    0    0 -0.23432073397E+02 -0.13740775507E+02  0.10521734623E+02  0.12840491510E+03  0.12505696441E+03 0.  0.
          5    1    3    3  502    0 -0.45832237581E+02 -0.59723402832E+02 -0.25697454863E+01  0.75442394179E+02  0.41800000000E+01 0.  1.
         -5    1    3    3    0  502  0.22400164184E+02  0.45982627325E+02  0.13091480110E+02  0.52962520924E+02  0.41800000000E+01 0.  1.
        -11    1    1    2    0    0 -0.19030457983E+02  0.36633779515E+02  0.38943335622E+02  0.56751876814E+02  0.00000000000E+00 0. -1.
         11    1    1    2    0    0  0.42462531380E+02 -0.22893004008E+02  0.16114581612E+02  0.50860947143E+02  0.00000000000E+00 0.  1.
</event>
<event>
 7    1  0.1538147E-010  0.8586061E+02  0.7561462E-02  0.1313197E+00
          3   -1    0    0  501    0  0.00000000000E+00  0.00000000000E+00  0.49056713562E+03  0.49056713562E+03  0.00000000000E+00 0. -1.
         -3   -1    0    0    0  501 -0.00000000000E+00 -0.00000000000E+00 -0.29930256453E+02  0.29930256453E+02  0.00000000000E+00 0.  1.
         25    2    1    2    0    0  0.13870339302E+02  0.24362269365E+01  0.37311435674E+03  0.39375899841E+03  0.12503401181E+03 0.  0.
          5    1    3    3  502    0 -0.34883694013E+01  0.62620474483E+02  0.17583233440E+03  0.18672968367E+03  0.41800000000E+01 0. -1.
         -5    1    3    3    0  502  0.17358708704E+02 -0.60184247546E+02  0.19728202235E+03  0.20702931474E+03  0.41800000000E+01 0. -1.
        -11    1    1    2    0    0 -0.13632436263E+02 -0.22346176098E+02 -0.93839790793E+01  0.27807444472E+02  0.00000000000E+00 0.  1.
         11    1    1    2    0    0 -0.23790303965E+00  0.19909949162E+02  0.96906501508E+02  0.98930949191E+02  0.00000000000E+00 0. -1.
</event>
<event>
 7    1  0.1538147E-010  0.5771129E+02  0.7561462E-02  0.1407695E+00
          2   -1    0    0  501    0  0.00000000000E+00  0.00000000000E+00  0.13892041854E+02  0.13892041854E+02  0.00000000000E+00 0. -1.
         -2   -1    0    0    0  501 -0.00000000000E+00 -0.00000000000E+00 -0.92717040611E+03  0.92717040611E+03  0.00000000000E+00 0.  1.
         25    2    1    2    0    0  0.10025031723E+02  0.23114157323E+02 -0.64135017915E+03  0.65392488970E+03  0.12511172423E+03 0.  0.
          5    1    3    3  502    0  0.25394796705E+02  0.10386840243E+02 -0.62995910857E+03  0.63057016502E+03  0.41800000000E+01 0.  1.
         -5    1    3    3    0  502 -0.15369764982E+02  0.12727317079E+02 -0.11391070583E+02  0.23354724676E+02  0.41800000000E+01 0.  1.
        -11    1    1    2    0    0 -0.13081548920E+02  0.20087248196E+02 -0.19164796299E+02  0.30690615494E+02  0.00000000000E+00 0. -1.
         11    1    1    2    0    0  0.30565171969E+01 -0.43201405518E+02 -0.25276338881E+03  0.25644694277E+03  0.00000000000E+00 0.  1.
</event>
<event>
 7    1  0.1538147E-010  0.1476332E+03  0.7561462E-02  0.1203412E+00
          1   -1    0    0  501    0  0.00000000000E+00  0.00000000000E+00  0.92072452346E+03  0.92072452346E+03  0.00000000000E+00 0. -1.
         -1   -1    0    0    0  501 -0.00000000000E+00 -0.00000000000E+00 -0.34497525313E+02  0.34497525313E+02  0.00000000000E+00 0.  1.
         25    2    1    2    0    0 -0.10746294308E+03 -0.87565751889E+02  0.39759095628E+03  0.43924254159E+03  0.12505757389E+03 0.  0.
          5    1    3    3  502    0 -0.10014270654E+03 -0.70256727234E+02  0.40137333346E+03  0.41962196630E+03  0.41800000000E+01 0. -1.
         -5    1    3    3    0  502 -0.73202365317E+01 -0.17309024654E+02 -0.37823771756E+01  0.19620575284E+02  0.41800000000E+01 0. -1.
        -11    1    1    2    0    0  0.86775667821E+02  0.28988354578E+02  0.18910246708E+03  0.21007161703E+03  0.00000000000E+00 0.  1.
         11    1    1    2    0    0  0.20687275255E+02  0.58577397311E+02  0.29953357479E+03  0.30590789015E+03  0.00000000000E+00 0. -1.
</event>
<event>
 7    1  0.1538147E-010  0.1034849E+03  0.7561462E-02  0.1273134E+00
         -1   -1    0    0    0  501 -0.00000000000E+00  0.00000000000E+00  0.95959781564E+02  0.95959781564E+02  0.00000000000E+00 0.  1.
          1   -1    0    0  501    0  0.00000000000E+00 -0.00000000000E+00 -0.16090987308E+03  0.16090987308E+03  0.00000000000E+00 0. -1.
         25    2    1    2    0    0 -0.36938751269E+02  0.26321156775E+02  0.12105027055E+01  0.13309281052E+03  0.12511976764E+03 0.  0.
          5    1    3    3  502    0 -0.77731455897E+02 -0.57072178006E+01 -0.13063550565E+02  0.79138361900E+02  0.41800000000E+01 0. -1.
         -5    1    3    3    0  502  0.40792704629E+02  0.32028374575E+02  0.14274053270E+02  0.53954448617E+02  0.41800000000E+01 0. -1.
        -11    1    1    2    0    0  0.28116474816E+02  0.16878582914E+02  0.11267114654E+02  0.34675215787E+02  0.00000000000E+00 0.  1.
         11    1    1    2    0    0  0.88222764531E+01 -0.43199739689E+02 -0.77427708878E+02  0.89101628341E+02  0.00000000000E+00 0. -1.
</event>
<event>
 7    1  0.1538147E-010  0.1051493E+03  0.7561462E-02  0.1269826E+00
         -1   -1    0    0    0  501 -0.00000000000E+00  0.00000000000E+00  0.25914469067E+03  0.25914469067E+03  0.00000000000E+00 0.  1.
          1   -1    0    0  501    0  0.00000000000E+00 -0.00000000000E+00 -0.54264717774E+02  0.54264717774E+02  0.00000000000E+00 0. -1.
         25    2    1    2    0    0 -0.14929288126E+02  0.27371464892E+02  0.17316070289E+03  0.21589805085E+03  0.12512097586E+03 0.  0.
          5    1    3    3  502    0 -0.23438591984E+02  0.75127275942E+02  0.12227294515E+03  0.14547034303E+03  0.41800000000E+01 0.  1.
         -5    1    3    3    0  502  0.85093038579E+01 -0.47755811050E+02  0.50887757737E+02  0.70427707819E+02  0.41800000000E+01 0.  1.
        -11    1    1    2    0    0 -0.27496683775E+01 -0.52227261486E+02  0.40072292134E+02  0.65886539713E+02  0.00000000000E+00 0.  1.
         11    1    1    2    0    0  0.17678956503E+02  0.24855796594E+02 -0.83530221277E+01  0.31624817881E+02  0.00000000000E+00 0. -1.
</event>
<event>
 7    1  0.1538147E-010  0.9910149E+02  0.7561462E-02  0.1282197E+00
         -2   -1    0    0    0  501 -0.00000000000E+00  0.00000000000E+00  0.50880336525E+02  0.50880336525E+02  0.00000000000E+00 0.  1.
          2   -1    0    0  501    0  0.00000000000E+00 -0.00000000000E+00 -0.24956586662E+03  0.24956586662E+03  0.00000000000E+00 0. -1.
         25    2    1    2    0    0 -0.35685681545E+01 -0.18831524943E+02 -0.10307664830E+03  0.16316992352E+03  0.12502906664E+03 0.  0.
          5    1    3    3  502    0 -0.43647958941E+02  0.29953072649E+02 -0.15863543010E+02  0.55420711631E+02  0.41800000000E+01 0. -1.
         -5    1    3    3    0  502  0.40079390787E+02 -0.48784597591E+02 -0.87213105288E+02  0.10774921189E+03  0.41800000000E+01 0. -1.
        -11    1    1    2    0    0  0.37978499937E+02  0.26828617118E+02 -0.14337721946E+02  0.48659135057E+02  0.00000000000E+00 0.  1.
         11    1    1    2    0    0 -0.34409931783E+02 -0.79970921750E+01 -0.81271159850E+02  0.88617144571E+02  0.00000000000E+00 0. -1.
</event>
<event>
 7    1  0.1538147E-010  0.1077070E+03  0.7561462E-02  0.1264876E+00
         -2   -1    0    0    0  501 -0.00000000000E+00  0.00000000000E+00  0.36784777175E+03  0.36784777175E+03  0.00000000000E+00 0.  1.
          2   -1    0    0  501    0  0.00000000000E+00 -0.00000000000E+00 -0.56237433121E+02  0.56237433121E+02  0.00000000000E+00 0. -1.
         25    2    1    2    0    0 -0.78391322603E+02  0.37914003767E+02  0.14560532730E+03  0.21081096355E+03  0.12513065122E+03 0.  0.
          5    1    3    3  502    0 -0.29284723155E+02 -0.27456399829E+02  0.11752496788E+03  0.12426197881E+03  0.41800000000E+01 0. -1.
         -5    1    3    3    0  502 -0.49106599448E+02  0.65370403597E+02  0.28080359420E+02  0.86548984748E+02  0.41800000000E+01 0. -1.
        -11    1    1    2    0    0  0.39186091094E+02 -0.37116097843E+02  0.16547750384E+03  0.17405734323E+03  0.00000000000E+00 0.  1.
         11    1    1    2    0    0  0.39205231509E+02 -0.79790592444E+00  0.52750748919E+00  0.39216898089E+02  0.00000000000E+00 0. -1.
</event>
<event>
 7    1  0.1538147E-010  0.1435471E+03  0.7561462E-02  0.1208634E+00
         -2   -1    0    0    0  501 -0.00000000000E+00  0.00000000000E+00  0.19128842613E+02  0.19128842613E+02  0.00000000000E+00 0. -1.
          2   -1    0    0  501    0  0.00000000000E+00 -0.00000000000E+00 -0.15721551166E+04  0.15721551166E+04  0.00000000000E+00 0.  1.
         25    2    1    2    0    0 -0.15348896059E+02 -0.11885929178E+03 -0.11057497220E+04  0.11192317343E+04  0.12503642459E+03 0.  0.
          5    1    3    3  502    0 -0.44406292018E+02  0.63300889022E-01 -0.18149069465E+03  0.18689105763E+03  0.41800000000E+01 0. -1.
         -5    1    3    3    0  502  0.29057395959E+02 -0.11892259266E+03 -0.92425902734E+03  0.93234067665E+03  0.41800000000E+01 0. -1.
        -11    1    1    2    0    0  0.10374334313E+02  0.98328722024E+02 -0.43792859197E+03  0.44895168566E+03  0.00000000000E+00 0.  1.
         11    1    1    2    0    0  0.49745617460E+01  0.20530569752E+02 -0.93479600403E+01  0.23100539297E+02  0.00000000000E+00 0. -1.
</event>
<event>
 7    1  0.1538147E-010  0.1507479E+03  0.7561462E-02  0.1199557E+00
          2   -1    0    0  501    0  0.00000000000E+00  0.00000000000E+00  0.17560938475E+03  0.17560938475E+03  0.00000000000E+00 0. -1.
         -2   -1    0    0    0  501 -0.00000000000E+00 -0.00000000000E+00 -0.16353002562E+03  0.16353002562E+03  0.00000000000E+00 0.  1.
         25    2    1    2    0    0  0.11995754817E+03 -0.32826211796E+02 -0.32477195025E+02  0.17938394431E+03  0.12512576768E+03 0.  0.
          5    1    3    3  502    0 -0.16370669671E+02  0.18723584417E+02 -0.21538140799E+02  0.33165273223E+02  0.41800000000E+01 0.  1.
         -5    1    3    3    0  502  0.13632821784E+03 -0.51549796213E+02 -0.10939054227E+02  0.14621867109E+03  0.41800000000E+01 0.  1.
        -11    1    1    2    0    0 -0.68918233623E+02 -0.15410731899E+01  0.65168721581E+02  0.94863375994E+02  0.00000000000E+00 0. -1.
         11    1    1    2    0    0 -0.51039314542E+02  0.34367284986E+02 -0.20612167426E+02  0.64892090059E+02  0.00000000000E+00 0.  1.
</event>
<event>
 7    1  0.1538147E-010  0.1782775E+03  0.7561462E-02  0.1169481E+00
         -2   -1    0    0    0  501 -0.00000000000E+00  0.00000000000E+00  0.47842871098E+02  0.47842871098E+02  0.00000000000E+00 0.  1.
          2   -1    0    0  501    0  0.00000000000E+00 -0.00000000000E+00 -0.92259391650E+03  0.92259391650E+03  0.00000000000E+00 0. -1.
         25    2    1    2    0    0  0.16442387526E+03  0.15219065288E+02 -0.29531741208E+03  0.36074800548E+03  0.12513959754E+03 0.  0.
          5    1    3    3  502    0  0.72432792550E+02  0.54497287769E+02 -0.21163085110E+03  0.23026409479E+03  0.41800000000E+01 0.  1.
         -5    1    3    3    0  502  0.91991082710E+02 -0.39278222481E+02 -0.83686560980E+02  0.13048391069E+03  0.41800000000E+01 0.  1.
        -11    1    1    2    0    0 -0.24924077692E+02  0.26362590613E+01 -0.17867777434E+02  0.30780139393E+02  0.00000000000E+00 0.  1.
         11    1    1    2    0    0 -0.13949979757E+03 -0.17855324350E+02 -0.56156585589E+03  0.57890864273E+03  0.00000000000E+00 0. -1.
</event>
<event>
 7    1  0.1538147E-010  0.2807025E+03  0.7561462E-02  0.1095306E+00
         -1   -1    0    0    0  501 -0.00000000000E+00  0.00000000000E+00  0.48281688898E+02  0.48281688898E+02  0.00000000000E+00 0.  1.
          1   -1    0    0  501    0  0.00000000000E+00 -0.00000000000E+00 -0.19148180933E+04  0.19148180933E+04  0.00000000000E+00 0. -1.
         25    2    1    2    0    0 -0.77249558073E+02 -0.25534447905E+03 -0.12619511531E+04  0.12958901269E+04  0.12506882456E+03 0.  0.
          5    1    3    3  502    0 -0.57245451914E+02 -0.26561846740E+03 -0.11672547130E+04  0.11984703791E+04  0.41800000000E+01 0. -1.
         -5    1    3    3    0  502 -0.20004106159E+02  0.10273988348E+02 -0.94696440068E+02  0.97419747800E+02  0.41800000000E+01 0. -1.
        -11    1    1    2    0    0  0.20126823134E+02  0.63341163692E+02 -0.26254122484E+03  0.27082298050E+03  0.00000000000E+00 0.  1.
         11    1    1    2    0    0  0.57122734939E+02  0.19200331536E+03 -0.34204402649E+03  0.39638667487E+03  0.00000000000E+00 0. -1.
</event>
<event>
 6    1  0.1538147E-010  0.8711095E+02  0.7561462E-02  0.1310003E+00
          2   -1    0    0  501    0  0.00000000000E+00  0.00000000000E+00  0.43454725595E+03  0.43454725595E+03  0.00000000000E+00 0. -1.
         -2   -1    0    0    0  501 -0.00000000000E+00 -0.00000000000E+00 -0.34273914704E+02  0.34273914704E+02  0.00000000000E+00 0.  1.
          5    1    1    2  502    0 -0.13478986684E+02 -0.42807052389E+02  0.19246639456E+03  0.19767375205E+03  0.41800000000E+01 0. -1.
         -5    1    1    2    0  502  0.44623812678E+02  0.36119250938E+02  0.23942692089E+02  0.62342680811E+02  0.41800000000E+01 0. -1.
        -11    1    1    2    0    0 -0.44096124125E+02 -0.14786607070E+02  0.35960492182E+02  0.58790040904E+02  0.00000000000E+00 0.  1.
         11    1    1    2    0    0  0.12951298132E+02  0.21474408521E+02  0.14790376242E+03  0.15001469689E+03  0.00000000000E+00 0. -1.
</event>
<event>
 6    1  0.1538147E-010  0.9235608E+02  0.7561462E-02  0.1297244E+00
         -1   -1    0    0    0  501 -0.00000000000E+00  0.00000000000E+00  0.43312071925E+03  0.43312071925E+03  0.00000000000E+00 0.  1.
          1   -1    0    0  501    0  0.00000000000E+00 -0.00000000000E+00 -0.33402081887E+02  0.33402081887E+02  0.00000000000E+00 0. -1.
          5    1    1    2  502    0 -0.18427194550E+02 -0.68086796549E+02  0.13714330959E+03  0.15427615866E+03  0.41800000000E+01 0.  1.
         -5    1    1    2    0  502  0.40704224018E+02  0.38476936192E+02  0.17756888520E+03  0.18624040878E+03  0.41800000000E+01 0.  1.
        -11    1    1    2    0    0  0.13527084350E+02  0.11531988976E+02  0.84025470035E+02  0.85885088318E+02  0.00000000000E+00 0.  1.
         11    1    1    2    0    0 -0.35804113818E+02  0.18077871381E+02  0.98097253895E+00  0.40121145386E+02  0.00000000000E+00 0. -1.
</event>
<event>
 7    1  0.1538147E-010  0.2523005E+03  0.7561462E-02  0.1111860E+00
         -2   -1    0    0    0  501 -0.00000000000E+00  0.00000000000E+00  0.47053606222E+03  0.47053606222E+03  0.00000000000E+00 0.  1.
          2   -1    0    0  501    0  0.00000000000E+00 -0.00000000000E+00 -0.16599934752E+03  0.16599934752E+03  0.00000000000E+00 0. -1.
         25    2    1    2    0    0  0.45510962475E+02  0.24093262120E+03  0.24533710788E+03  0.36873353248E+03  0.12511732815E+03 0.  0.
          5    1    3    3  502    0  0.10427087221E+02  0.10121172707E+03  0.18764468343E+03  0.21349598934E+03  0.41800000000E+01 0. -1.
         -5    1    3    3    0  502  0.35083875254E+02  0.13972089414E+03  0.57692424454E+02  0.15523754314E+03  0.41800000000E+01 0. -1.
        -11    1    1    2    0    0 -0.66898094718E+02 -0.13605151927E+03  0.16289936867E+02  0.15248191045E+03  0.00000000000E+00 0.  1.
         11    1    1    2    0    0  0.21387132242E+02 -0.10488110194E+03  0.42909669953E+02  0.11531996681E+03  0.00000000000E+00 0. -1.
</event>
<event>
 6    1  0.1538147E-010  0.7979338E+02  0.7561462E-02  0.1329639E+00
         -1   -1    0    0    0  501 -0.00000000000E+00  0.00000000000E+00  0.30098337737E+02  0.30098337737E+02  0.00000000000E+00 0.  1.
          1   -1    0    0  501    0  0.00000000000E+00 -0.00000000000E+00 -0.50245673347E+03  0.50245673347E+03  0.00000000000E+00 0. -1.
          5    1    1    2  502    0 -0.19457300807E+02  0.20159191047E+01 -0.23248401432E+03  0.23334296603E+03  0.41800000000E+01 0.  1.
         -5    1    1    2    0  502  0.66429726188E+02 -0.20256060574E+02 -0.74247952561E+02  0.10175189124E+03  0.41800000000E+01 0.  1.
        -11    1    1    2    0    0  0.10179202475E+02  0.60126712823E+00  0.85457003752E+01  0.13304385746E+02  0.00000000000E+00 0.  1.
         11    1    1    2    0    0 -0.57151627856E+02  0.17638874341E+02 -0.17417212924E+03  0.18415582819E+03  0.00000000000E+00 0. -1.
</event>
<event>
 7    1  0.1538147E-010  0.1094849E+03  0.7561462E-02  0.1261527E+00
          2   -1    0    0  501    0  0.00000000000E+00  0.00000000000E+00  0.34896080094E+02  0.34896080094E+02  0.00000000000E+00 0. -1.
         -2   -1    0    0    0  501 -0.00000000000E+00 -0.00000000000E+00 -0.45696551635E+03  0.45696551635E+03  0.00000000000E+00 0.  1.
         25    2    1    2    0    0 -0.30378360607E+02 -0.41194410902E+02 -0.32166485999E+03  0.34889602161E+03  0.12506129479E+03 0.  0.
          5    1    3    3  502    0  0.30789978082E+02  0.26243803513E+02 -0.13786249554E+03  0.14373691262E+03  0.41800000000E+01 0. -1.
         -5    1    3    3    0  502 -0.61168338689E+02 -0.67438214415E+02 -0.18380236445E+03  0.20515910899E+03  0.41800000000E+01 0. -1.
        -11    1    1    2    0    0  0.53588799269E+02  0.28246945972E+02 -0.29772180930E+02  0.67498386063E+02  0.00000000000E+00 0. -1.
         11    1    1    2    0    0 -0.23210438662E+02  0.12947464930E+02 -0.70632395328E+02  0.75467188770E+02  0.00000000000E+00 0.  1.
</event>
<event>
 7    1  0.1538147E-010  0.1043029E+03  0.7561462E-02  0.1271499E+00
          2   -1    0    0  501    0  0.00000000000E+00  0.00000000000E+00  0.44406114244E+03  0.44406114244E+03  0.00000000000E+00 0. -1.
         -2   -1    0    0    0  501 -0.00000000000E+00 -0.00000000000E+00 -0.30113059290E+02  0.30113059290E+02  0.00000000000E+00 0.  1.
         25    2    1    2    0    0  0.35678175221E+02 -0.17141724871E+02  0.24003536920E+03  0.27356646489E+03  0.12511938829E+03 0.  0.
          5    1    3    3  502    0  0.69153765838E+02  0.44375264858E+01  0.68904333354E+02  0.97812138949E+02  0.41800000000E+01 0. -1.
         -5    1    3    3    0  502 -0.33475590616E+02 -0.21579251357E+02  0.17113103585E+03  0.17575432594E+03  0.41800000000E+01 0. -1.
        -11    1    1    2    0    0 -0.92719720942E+01 -0.37403753669E+02  0.55185090180E+02  0.67308279084E+02  0.00000000000E+00 0.  1.
         11    1    1    2    0    0 -0.26406203127E+02  0.54545478540E+02  0.11872762377E+03  0.13329945775E+03  0.00000000000E+00 0. -1.
</event>
<event>
 7    1  0.1538147E-010  0.8477216E+02  0.7561462E-02  0.1316029E+00
         -2   -1    0    0    0  501 -0.00000000000E+00  0.00000000000E+00  0.22813764031E+03  0.22813764031E+03  0.00000000000E+00 0.  1.
          2   -1    0    0  501    0  0.00000000000E+00 -0.00000000000E+00 -0.71978307322E+02  0.71978307322E+02  0.00000000000E+00 0. -1.
         25    2    1    2    0    0 -0.31004123467E+02 -0.47939175343E+02  0.42932174682E+02  0.14403048268E+03  0.12506873356E+03 0.  0.
          5    1    3    3  502    0 -0.20422177082E+01 -0.46441082550E+02 -0.36574408579E+02  0.59296750033E+02  0.41800000000E+01 0.  1.
         -5    1    3    3    0  502 -0.28961905759E+02 -0.14980927936E+01  0.79506583261E+02  0.84733732651E+02  0.41800000000E+01 0.  1.
        -11    1    1    2    0    0 -0.24316942725E+02  0.20565774242E+02  0.79737704100E+02  0.85862484409E+02  0.00000000000E+00 0.  1.
         11    1    1    2    0    0  0.55321066191E+02  0.27373401102E+02  0.33489454201E+02  0.70222980534E+02  0.00000000000E+00 0. -1.
</event>
<event>
 6    1  0.1538147E-010  0.1632986E+03  0.7561462E-02  0.1185022E+00
          2   -1    0    0  501    0  0.00000000000E+00  0.00000000000E+00  0.97382708437E+03  0.97382708437E+03  0.00000000000E+00 0. -1.
         -2   -1    0    0    0  501 -0.00000000000E+00 -0.00000000000E+00 -0.36762408584E+02  0.36762408584E+02  0.00000000000E+00 0.  1.
          5    1    1    2  502    0  0.17871915646E+02  0.26476540660E+02  0.15218622203E+02  0.35629923322E+02  0.41800000000E+01 0. -1.
         -5    1    1    2    0  502 -0.10434484876E+03  0.60092092479E+02  0.33163227331E+03  0.35284039471E+03  0.41800000000E+01 0. -1.
        -11    1    1    2    0    0  0.11829748772E+03 -0.74822761175E+02  0.55817503326E+03  0.57545817306E+03  0.00000000000E+00 0. -1.
         11    1    1    2    0    0 -0.31824554606E+02 -0.11745871964E+02  0.32038747016E+02  0.46661001858E+02  0.00000000000E+00 0.  1.
</event>
<event>
 6    1  0.1538147E-010  0.1969812E+03  0.7561462E-02  0.1152311E+00
          2   -1    0    0  501    0  0.00000000000E+00  0.00000000000E+00  0.87947839495E+03  0.87947839495E+03  0.00000000000E+00 0. -1.
         -2   -1    0    0    0  501 -0.00000000000E+00 -0.00000000000E+00 -0.10887013229E+03  0.10887013229E+03  0.00000000000E+00 0.  1.
          5    1    1    2  502    0  0.25660404380E+02 -0.49797294571E+01  0.14429499381E+02  0.30148580576E+02  0.41800000000E+01 0. -1.
         -5    1    1    2    0  502  0.15759113995E+03 -0.32623609960E+02  0.73163279505E+03  0.74913502555E+03  0.41800000000E+01 0. -1.
        -11    1    1    2    0    0 -0.14678257629E+03 -0.93170590815E+01  0.27231816207E+02  0.14957775271E+03  0.00000000000E+00 0.  1.
         11    1    1    2    0    0 -0.36468968039E+02  0.46920398498E+02 -0.26858479796E+01  0.59487168402E+02  0.00000000000E+00 0. -1.
</event>
<event>
 7    1  0.1538147E-010  0.1094841E+03  0.7561462E-02  0.1261528E+00
         -2   -1    0    0    0  501 -0.00000000000E+00  0.00000000000E+00  0.15986897088E+03  0.15986897088E+03  0.00000000000E+00 0.  1.
          2   -1    0    0  501    0  0.00000000000E+00 -0.00000000000E+00 -0.13620291204E+03  0.13620291204E+03  0.00000000000E+00 0. -1.
         25    2    1    2    0    0  0.91935990510E+02  0.19715006173E+02  0.40806713802E+02  0.16169478139E+03  0.12505641374E+03 0.  0.
          5    1    3    3  502    0  0.77856542913E+02 -0.29052469906E+01 -0.31789726035E+02  0.84250464781E+02  0.41800000000E+01 0.  1.
         -5    1    3    3    0  502  0.14079447597E+02  0.22620253163E+02  0.72596439836E+02  0.77444316607E+02  0.41800000000E+01 0.  1.
        -11    1    1    2    0    0 -0.54806854808E+02 -0.43422035621E+02 -0.44158460001E+02  0.82699662037E+02  0.00000000000E+00 0. -1.
         11    1    1    2    0    0 -0.37129135702E+02  0.23707029448E+02  0.27017805048E+02  0.51677439496E+02  0.00000000000E+00 0.  1.
</event>
<event>
 7    1  0.1538147E-010  0.7022296E+02  0.7561462E-02  0.1359337E+00
         -1   -1    0    0    0  501 -0.00000000000E+00  0.00000000000E+00  0.14956846915E+03  0.14956846915E+03  0.00000000000E+00 0.  1.
          1   -1    0    0  501    0  0.00000000000E+00 -0.00000000000E+00 -0.86735025210E+02  0.86735025210E+02  0.00000000000E+00 0. -1.
         25    2    1    2    0    0  0.11327580244E+02  0.34651385014E+02  0.41895886625E+02  0.13681629541E+03  0.12503759761E+03 0.  0.
          5    1    3    3  502    0  0.25809806282E+02  0.39362860461E+02 -0.34688632224E+02  0.58620427238E+02  0.41800000000E+01 0.  1.
         -5    1    3    3    0  502 -0.14482226038E+02 -0.47114754467E+01  0.76584518849E+02  0.78195868173E+02  0.41800000000E+01 0.  1.
        -11    1    1    2    0    0 -0.11969401847E+02  0.19695580868E+02  0.36307627469E+02  0.43004956676E+02  0.00000000000E+00 0.  1.
         11    1    1    2    0    0  0.64182160383E+00 -0.54346965882E+02 -0.15370070154E+02  0.56482242273E+02  0.00000000000E+00 0. -1.
</event>
<event>
 7    1  0.1538147E-010  0.1965473E+03  0.7561462E-02  0.1152685E+00
         -2   -1    0    0    0  501 -0.00000000000E+00  0.00000000000E+00  0.48411283276E+03  0.48411283276E+03  0.00000000000E+00 0. -1.
          2   -1    0    0  501    0  0.00000000000E+00 -0.00000000000E+00 -0.10275410428E+03  0.10275410428E+03  0.00000000000E+00 0.  1.
         25    2    1    2    0    0 -0.10315457709E+03  0.14751634291E+03  0.99198360189E+02  0.24061402608E+03  0.12511137710E+03 0.  0.
          5    1    3    3  502    0 -0.57352061906E+02  0.24744430595E+02 -0.17599814943E+02  0.65029006884E+02  0.41800000000E+01 0. -1.
         -5    1    3    3    0  502 -0.45802515181E+02  0.12277191232E+03  0.11679817513E+03  0.17558501919E+03  0.41800000000E+01 0. -1.
        -11    1    1    2    0    0  0.76944527667E+02 -0.36212135708E+02  0.14008730610E+03  0.16387871259E+03  0.00000000000E+00 0.  1.
         11    1    1    2    0    0  0.26210049420E+02 -0.11130420720E+03  0.14207306219E+03  0.18237419837E+03  0.00000000000E+00 0. -1.
</event>
<event>
 7    1  0.1538147E-010  0.2013794E+03  0.7561462E-02  0.1148580E+00
          2   -1    0    0  501    0  0.00000000000E+00  0.00000000000E+00  0.90904708174E+03  0.90904708174E+03  0.00000000000E+00 0. -1.
         -2   -1    0    0    0  501 -0.00000000000E+00 -0.00000000000E+00 -0.64841584695E+02  0.64841584695E+02  0.00000000000E+00 0.  1.
         25    2    1    2    0    0  0.46181727321E+02  0.18607214573E+03  0.63501897799E+03  0.67502827005E+03  0.12513379883E+03 0.  0.
          5    1    3    3  502    0 -0.98390542835E+01  0.47306223675E+02  0.34751321045E+03  0.35088116169E+03  0.41800000000E+01 0. -1.
         -5    1    3    3    0  502  0.56020781605E+02  0.13876592206E+03  0.28750576754E+03  0.32414710837E+03  0.41800000000E+01 0. -1.
        -11    1    1    2    0    0 -0.62848030942E+02 -0.11009536218E+03  0.16913684694E+03  0.21137203401E+03  0.00000000000E+00 0.  1.
         11    1    1    2    0    0  0.16666303621E+02 -0.75976783546E+02  0.40049672115E+02  0.87488362374E+02  0.00000000000E+00 0. -1.
</event>
<event>
 6    1  0.1538147E-010  0.7975225E+02  0.7561462E-02  0.1329756E+00
         -2   -1    0    0    0  501 -0.00000000000E+00  0.00000000000E+00  0.36585520463E+02  0.36585520463E+02  0.00000000000E+00 0.  1.
          2   -1    0    0  501    0  0.00000000000E+00 -0.00000000000E+00 -0.38870957865E+03  0.38870957865E+03  0.00000000000E+00 0. -1.
          5    1    1    2  502    0 -0.27513966851E+02 -0.70824125964E+01  0.18627738244E+01  0.28777096212E+02  0.41800000000E+01 0.  1.
         -5    1    1    2    0  502  0.72481035833E+02 -0.12139077296E+02 -0.17849402603E+03  0.19307627374E+03  0.41800000000E+01 0.  1.
        -11    1    1    2    0    0 -0.18663263181E+02 -0.70986644543E+01  0.38018729038E+01  0.20326403203E+02  0.00000000000E+00 0.  1.
         11    1    1    2    0    0 -0.26303805801E+02  0.26320154347E+02 -0.17929467888E+03  0.18311532595E+03  0.00000000000E+00 0. -1.
</event>
<event>
 6    1  0.1538147E-010  0.7399843E+02  0.7561462E-02  0.1347001E+00
         -1   -1    0    0    0  501 -0.00000000000E+00  0.00000000000E+00  0.65736238623E+03  0.65736238623E+03  0.00000000000E+00 0.  1.
          1   -1    0    0  501    0  0.00000000000E+00 -0.00000000000E+00 -0.30580673829E+02  0.30580673829E+02  0.00000000000E+00 0. -1.
          5    1    1    2  502    0  0.86431784054E+01  0.44381909119E+02  0.62905647473E+02  0.77582544905E+02  0.41800000000E+01 0.  1.
         -5    1    1    2    0  502 -0.21247561640E+02 -0.11722007459E+02  0.47992865166E+03  0.48055993114E+03  0.41800000000E+01 0.  1.
        -11    1    1    2    0    0 -0.18193611197E+02  0.13372512626E+02 -0.67173518122E+01  0.23557470104E+02  0.00000000000E+00 0. -1.
         11    1    1    2    0    0  0.30797994432E+02 -0.46032414286E+02  0.90664765078E+02  0.10624311391E+03  0.00000000000E+00 0.  1.
</event>
<event>
 7    1  0.1538147E-010  0.8751149E+02  0.7561462E-02  0.1308992E+00
         -1   -1    0    0    0  501 -0.00000000000E+00  0.00000000000E+00  0.67624235184E+02  0.67624235184E+02  0.00000000000E+00 0.  1.
          1   -1    0    0  501    0  0.00000000000E+00 -0.00000000000E+00 -0.20193221201E+03  0.20193221201E+03  0.00000000000E+00 0. -1.
         25    2    1    2    0    0  0.16109958500E+02  0.37107097076E+02 -0.56844074729E+02  0.14319373570E+03  0.12504690998E+03 0.  0.
          5    1    3    3  502    0  0.20319820011E+02  0.82248497605E+02 -0.28135671086E+02  0.89368891852E+02  0.41800000000E+01 0. -1.
         -5    1    3    3    0  502 -0.42098615116E+01 -0.45141400529E+02 -0.28708403643E+02  0.53824843849E+02  0.41800000000E+01 0. -1.
        -11    1    1    2    0    0 -0.15264193668E+02 -0.11660643010E+02  0.18746642678E+02  0.26840320703E+02  0.00000000000E+00 0.  1.
         11    1    1    2    0    0 -0.84576483119E+00 -0.25446454066E+02 -0.96210544773E+02  0.99522390788E+02  0.00000000000E+00 0. -1.
</event>
<event>
 6    1  0.1538147E-010  0.9133168E+02  0.7561462E-02  0.1299659E+00
         -1   -1    0    0    0  501 -0.00000000000E+00  0.00000000000E+00  0.49133814429E+02  0.49133814429E+02  0.00000000000E+00 0.  1.
          1   -1    0    0  501    0  0.00000000000E+00 -0.00000000000E+00 -0.29777238483E+03  0.29777238483E+03  0.00000000000E+00 0. -1.
          5    1    1    2  502    0 -0.68535251404E+02 -0.39753870489E+02 -0.16075507164E+03  0.17926828041E+03  0.41800000000E+01 0.  1.
         -5    1    1    2    0  502  0.37265708237E+02  0.31562185054E+01 -0.12312632106E+02  0.39595050638E+02  0.41800000000E+01 0.  1.
        -11    1    1    2    0    0  0.13555901588E+01 -0.10123415030E+02  0.17168364689E+02  0.19976834149E+02  0.00000000000E+00 0.  1.
         11    1    1    2    0    0  0.29913953008E+02  0.46721067013E+02 -0.92739231345E+02  0.10806603406E+03  0.00000000000E+00 0. -1.
</event>
<event>
 6    1  0.1538147E-010  0.1581958E+03  0.7561462E-02  0.1190749E+00
         -1   -1    0    0    0  501 -0.00000000000E+00  0.00000000000E+00  0.63020920954E+02  0.63020920954E+02  0.00000000000E+00 0.  1.
          1   -1    0    0  501    0  0.00000000000E+00 -0.00000000000E+00 -0.41215446004E+03  0.41215446004E+03  0.00000000000E+00 0. -1.
          5    1    1    2  502    0  0.77801360909E+02  0.35998958069E+02 -0.10808546621E+03  0.13801781460E+03  0.41800000000E+01 0. -1.
         -5    1    1    2    0  502 -0.40716667389E+02  0.74817239235E+02 -0.11175122759E+03  0.14057480414E+03  0.41800000000E+01 0. -1.
        -11    1    1    2    0    0  0.23051185351E+02 -0.67061886087E+02 -0.82173176602E+02  0.10854070510E+03  0.00000000000E+00 0. -1.
         11    1    1    2    0    0 -0.60135878872E+02 -0.43754311217E+02 -0.47123668685E+02  0.88042057155E+02  0.00000000000E+00 0.  1.
</event>
<event>
 7    1  0.1538147E-010  0.2539011E+03  0.7561462E-02  0.1110864E+00
         -3   -1    0    0    0  501 -0.00000000000E+00  0.00000000000E+00  0.80904135499E+02  0.80904135499E+02  0.00000000000E+00 0.  1.
          3   -1    0    0  501    0  0.00000000000E+00 -0.00000000000E+00 -0.10025422065E+04  0.10025422065E+04  0.00000000000E+00 0. -1.
         25    2    1    2    0    0 -0.18665997136E+03  0.13728522621E+03 -0.68754965667E+03  0.73625259210E+03  0.12511662855E+03 0.  0.
          5    1    3    3  502    0 -0.66052211787E+02  0.12354914008E+03 -0.32622483969E+03  0.35505971769E+03  0.41800000000E+01 0. -1.
         -5    1    3    3    0  502 -0.12060775958E+03  0.13736086130E+02 -0.36132481698E+03  0.38119287441E+03  0.41800000000E+01 0. -1.
        -11    1    1    2    0    0  0.16977838621E+03 -0.82318344875E+02 -0.21624193813E+03  0.28698708357E+03  0.00000000000E+00 0.  1.
         11    1    1    2    0    0  0.16881585150E+02 -0.54966881339E+02 -0.17846476240E+02  0.60206666371E+02  0.00000000000E+00 0. -1.
</event>
<event>
 7    1  0.1538147E-010  0.2710865E+03  0.7561462E-02  0.1100659E+00
          1   -1    0    0  501    0  0.00000000000E+00  0.00000000000E+00  0.81971840436E+03  0.81971840436E+03  0.00000000000E+00 0. -1.
         -1   -1    0    0    0  501 -0.00000000000E+00 -0.00000000000E+00 -0.14211609376E+03  0.14211609376E+03  0.00000000000E+00 0.  1.
         25    2    1    2    0    0 -0.98126173180E+02 -0.23806444864E+03  0.61937824039E+03  0.68233063834E+03  0.12506905208E+03 0.  0.
          5    1    3    3  502    0 -0.12492570835E+03 -0.16694278766E+03  0.42031259860E+03  0.46920835447E+03  0.41800000000E+01 0. -1.
         -5    1    3    3    0  502  0.26799535168E+02 -0.71121660987E+02  0.19906564178E+03  0.21312228388E+03  0.41800000000E+01 0. -1.
        -11    1    1    2    0    0  0.62446323608E+02  0.15415875777E+03 -0.84636985209E+01  0.16654158676E+03  0.00000000000E+00 0.  1.
         11    1    1    2    0    0  0.35679849572E+02  0.83905690878E+02  0.66687768728E+02  0.11296227302E+03  0.00000000000E+00 0. -1.
</event>
<event>
 7    1  0.1538147E-010  0.9131955E+02  0.7561462E-02  0.1299687E+00
         -3   -1    0    0    0  501 -0.00000000000E+00  0.00000000000E+00  0.36515172962E+03  0.36515172962E+03  0.00000000000E+00 0.  1.
          3   -1    0    0  501    0  0.00000000000E+00 -0.00000000000E+00 -0.41354027265E+02  0.41354027265E+02  0.00000000000E+00 0. -1.
         25    2    1    2    0    0  0.25105896300E+02  0.48936514017E+02  0.18393518813E+03  0.22915480922E+03  0.12511868255E+03 0.  0.
          5    1    3    3  502    0  0.18393409910E+02  0.70836121074E+02  0.19119485579E+03  0.20476576584E+03  0.41800000000E+01 0. -1.
         -5    1    3    3    0  502  0.67124863907E+01 -0.21899607058E+02 -0.72596676576E+01  0.24389043387E+02  0.41800000000E+01 0. -1.
        -11    1    1    2    0    0  0.19880577672E+02 -0.32612632526E+02  0.11929794738E+03  0.12526300897E+03  0.00000000000E+00 0.  1.
         11    1    1    2    0    0 -0.44986473972E+02 -0.16323881491E+02  0.20564566844E+02  0.52087938689E+02  0.00000000000E+00 0. -1.
</event>
<event>
 6    1  0.1538147E-010  0.1182186E+03  0.7561462E-02  0.1246065E+00
          1   -1    0    0  501    0  0.00000000000E+00  0.00000000000E+00  0.89261307480E+03  0.89261307480E+03  0.00000000000E+00 0. -1.
         -1   -1    0    0    0  501 -0.00000000000E+00 -0.00000000000E+00 -0.16029391109E+02  0.16029391109E+02  0.00000000000E+00 0.  1.
          5    1    1    2  502    0 -0.96407243599E+01 -0.69759728037E+02  0.25713204608E+03  0.26663406523E+03  0.41800000000E+01 0. -1.
         -5    1    1    2    0  502  0.42907143254E+02  0.43104183787E+02  0.28649796153E+03  0.29291218473E+03  0.41800000000E+01 0. -1.
        -11    1    1    2    0    0  0.17642071938E+02  0.46925503144E+02  0.15837204667E+03  0.16611728000E+03  0.00000000000E+00 0.  1.
         11    1    1    2    0    0 -0.50908490832E+02 -0.20269958894E+02  0.17458162941E+03  0.18297893594E+03  0.00000000000E+00 0. -1.
</event>
<event>
 7    1  0.1538147E-010  0.1010586E+03  0.7561462E-02  0.1278085E+00
         -1   -1    0    0    0  501 -0.00000000000E+00  0.00000000000E+00  0.68611270624E+02  0.68611270624E+02  0.00000000000E+00 0.  1.
          1   -1    0    0  501    0  0.00000000000E+00 -0.00000000000E+00 -0.29333950685E+03  0.29333950685E+03  0.00000000000E+00 0. -1.
         25    2    1    2    0    0 -0.47567525953E+02  0.59161808672E+02 -0.18876905952E+03  0.23881727610E+03  0.12504856817E+03 0.  0.
          5    1    3    3  502    0 -0.25862111219E+02 -0.21509608027E+02 -0.13544210470E+03  0.13961929724E+03  0.41800000000E+01 0.  1.
         -5    1    3    3    0  502 -0.21705414734E+02  0.80671416699E+02 -0.53326954812E+02  0.99197978862E+02  0.41800000000E+01 0.  1.
        -11    1    1    2    0    0  0.32183071185E+02 -0.61111811572E+02 -0.62007291631E+02  0.92818682386E+02  0.00000000000E+00 0. -1.
         11    1    1    2    0    0  0.15384454768E+02  0.19500029009E+01  0.26048114917E+02  0.30314818992E+02  0.00000000000E+00 0.  1.
</event>
<event>
 6    1  0.1538147E-010  0.1216528E+03  0.7561462E-02  0.1240395E+00
         -2   -1    0    0    0  501 -0.00000000000E+00  0.00000000000E+00  0.10272200114E+02  0.10272200114E+02  0.00000000000E+00 0.  1.
          2   -1    0    0  501    0  0.00000000000E+00 -0.00000000000E+00 -0.20568797940E+04  0.20568797940E+04  0.00000000000E+00 0. -1.
          5    1    1    2  502    0 -0.23348779859E+02  0.67184216597E+01 -0.86589933961E+03  0.86625021873E+03  0.41800000000E+01 0. -1.
         -5    1    1    2    0  502  0.54032283243E+02  0.75380804468E+02 -0.53173307492E+03  0.53977707313E+03  0.41800000000E+01 0. -1.
        -11    1    1    2    0    0 -0.12642886417E+02  0.19162030973E+02 -0.13860708554E+03  0.14049537420E+03  0.00000000000E+00 0. -1.
         11    1    1    2    0    0 -0.18040616968E+02 -0.10126125710E+03 -0.51036809376E+03  0.52062932801E+03  0.00000000000E+00 0.  1.
</event>
<event>
 7    1  0.1538147E-010  0.1949480E+03  0.7561462E-02  0.1154073E+00
         -1   -1    0    0    0  501 -0.00000000000E+00  0.00000000000E+00  0.11319947670E+03  0.11319947670E+03  0.00000000000E+00 0.  1.
          1   -1    0    0  501    0  0.00000000000E+00 -0.00000000000E+00 -0.53688257768E+03  0.53688257768E+03  0.00000000000E+00 0. -1.
         25    2    1    2    0    0  0.13581097743E+03  0.88636407501E+02 -0.41546225464E+03  0.46321144973E+03  0.12511965396E+03 0.  0.
          5    1    3    3  502    0  0.19740148592E+02  0.84833783119E+02 -0.15154060588E+03  0.17483841642E+03  0.41800000000E+01 0.  1.
         -5    1    3    3    0  502  0.11607082884E+03  0.38026243828E+01 -0.26392164876E+03  0.28837303332E+03  0.41800000000E+01 0.  1.
        -11    1    1    2    0    0 -0.11167279519E+03 -0.19635226732E+02 -0.92438069163E+01  0.11376204675E+03  0.00000000000E+00 0. -1.
         11    1    1    2    0    0 -0.24138182242E+02 -0.69001180769E+02  0.10229605765E+01  0.73108557897E+02  0.00000000000E+00 0.  1.
</event>
<event>
 7    1  0.1538147E-010  0.8680764E+02  0.7561462E-02  0.1310772E+00
         -4   -1    0    0    0  501 -0.00000000000E+00  0.00000000000E+00  0.25862878996E+02  0.25862878996E+02  0.00000000000E+00 0.  1.
          4   -1    0    0  501    0  0.00000000000E+00 -0.00000000000E+00 -0.46540077465E+03  0.46540077465E+03  0.00000000000E+00 0. -1.
         25    2    1    2    0    0  0.24845867074E+00 -0.11775799820E+02 -0.27069879681E+03  0.29842261826E+03  0.12505794377E+03 0.  0.
          5    1    3    3  502    0  0.23265900489E+02  0.30814505650E+02 -0.21220891197E+02  0.44256462887E+02  0.41800000000E+01 0. -1.
         -5    1    3    3    0  502 -0.23017441818E+02 -0.42590305470E+02 -0.24947790561E+03  0.25416615537E+03  0.41800000000E+01 0. -1.
        -11    1    1    2    0    0 -0.41548880065E+02  0.16314230729E+02 -0.12361927471E+03  0.13143130768E+03  0.00000000000E+00 0.  1.
         11    1    1    2    0    0  0.41300421394E+02 -0.45384309089E+01 -0.45219824138E+02  0.61409727711E+02  0.00000000000E+00 0. -1.
</event>
<event>
 7    1  0.1538147E-010  0.1118154E+03  0.7561462E-02  0.1257245E+00
          1   -1    0    0  501    0  0.00000000000E+00  0.00000000000E+00  0.41409867488E+03  0.41409867488E+03  0.00000000000E+00 0. -1.
         -1   -1    0    0    0  501 -0.00000000000E+00 -0.00000000000E+00 -0.33161966007E+02  0.33161966007E+02  0.00000000000E+00 0.  1.
         25    2    1    2    0    0 -0.13019287634E+02 -0.37811432243E+02  0.25801272769E+03  0.28950219224E+03  0.12506696366E+03 0.  0.
          5    1    3    3  502    0 -0.66200479110E+02 -0.23900751767E+02  0.18524615627E+03  0.19821039373E+03  0.41800000000E+01 0. -1.
         -5    1    3    3    0  502  0.53181191476E+02 -0.13910680476E+02  0.72766571416E+02  0.91291798502E+02  0.41800000000E+01 0. -1.
        -11    1    1    2    0    0 -0.31977115452E+02  0.42018227111E+02  0.55644614948E+02  0.76709780960E+02  0.00000000000E+00 0.  1.
         11    1    1    2    0    0  0.44996403086E+02 -0.42067948683E+01  0.67279366231E+02  0.81048667689E+02  0.00000000000E+00 0. -1.
</event>
<event>
 7    1  0.1538147E-010  0.1144512E+03  0.7561462E-02  0.1252542E+00
         -1   -1    0    0    0  501 -0.00000000000E+00  0.00000000000E+00  0.10735862998E+03  0.10735862998E+03  0.00000000000E+00 0.  1.
          1   -1    0    0  501    0  0.00000000000E+00 -0.00000000000E+00 -0.22482334755E+03  0.22482334755E+03  0.00000000000E+00 0. -1.
         25    2    1    2    0    0  0.79248452700E+02 -0.20697723787E+02 -0.14351235689E+03  0.20727264873E+03  0.12512969794E+03 0.  0.
          5    1    3    3  502    0  0.90855421090E+02 -0.24085219730E+02 -0.38785615818E+02  0.10176739038E+03  0.41800000000E+01 0. -1.
         -5    1    3    3    0  502 -0.11606968390E+02  0.33874959427E+01 -0.10472674107E+03  0.10550525835E+03  0.41800000000E+01 0. -1.
        -11    1    1    2    0    0 -0.71115209243E+02 -0.25170986276E+02  0.13185065959E+02  0.76581965893E+02  0.00000000000E+00 0. -1.
         11    1    1    2    0    0 -0.81332434578E+01  0.45868710063E+02  0.12862573353E+02  0.48327362904E+02  0.00000000000E+00 0.  1.
</event>
<event>
 7    1  0.1538147E-010  0.1934129E+03  0.7561462E-02  0.1155419E+00
          2   -1    0    0  501    0  0.00000000000E+00  0.00000000000E+00  0.43530936597E+03  0.43530936597E+03  0.00000000000E+00 0.  1.
         -2   -1    0    0    0  501 -0.00000000000E+00 -0.00000000000E+00 -0.11237526927E+03  0.11237526927E+03  0.00000000000E+00 0. -1.
         25    2    1    2    0    0  0.13288520428E+03  0.12386239466E+03  0.24356853183E+03  0.32860253794E+03  0.12511445924E+03 0.  0.
          5    1    3    3  502    0 -0.57410109606E+01  0.15714302030E+02 -0.10059267982E+02  0.19963961718E+02  0.41800000000E+01 0. -1.
         -5    1    3    3    0  502  0.13862621524E+03  0.10814809263E+03  0.25362779982E+03  0.30863857622E+03  0.41800000000E+01 0. -1.
        -11    1    1    2    0    0 -0.12399265418E+03 -0.76878245916E+02  0.88162559194E+02  0.17046137342E+03  0.00000000000E+00 0.  1.
         11    1    1    2    0    0 -0.88925501079E+01 -0.46984148748E+02 -0.87969943292E+01  0.48620723876E+02  0.00000000000E+00 0. -1.
</event>
<event>
 7    1  0.1538147E-010  0.1298004E+03  0.7561462E-02  0.1227752E+00
         -2   -1    0    0    0  501 -0.00000000000E+00  0.00000000000E+00  0.62035188184E+03  0.62035188184E+03  0.00000000000E+00 0.  1.
          2   -1    0    0  501    0  0.00000000000E+00 -0.00000000000E+00 -0.33089659555E+02  0.33089659555E+02  0.00000000000E+00 0. -1.
         25    2    1    2    0    0 -0.37704142351E+02  0.85042395769E+02  0.33035021576E+03  0.36527459388E+03  0.12506179454E+03 0.  0.
          5    1    3    3  502    0  0.47311044214E+01 -0.30534432517E+02  0.88965801315E+02  0.94271528691E+02  0.41800000000E+01 0.  1.
         -5    1    3    3    0  502 -0.42435246772E+02  0.11557682829E+03  0.24138441444E+03  0.27100306519E+03  0.41800000000E+01 0.  1.
        -11    1    1    2    0    0  0.45941952760E+02 -0.44862253612E+02  0.62973140376E+02  0.89938319038E+02  0.00000000000E+00 0. -1.
         11    1    1    2    0    0 -0.82378104088E+01 -0.40180142157E+02  0.19393886616E+03  0.19822862848E+03  0.00000000000E+00 0.  1.
</event>
<event>
 6    1  0.1538147E-010  0.8310531E+02  0.7561462E-02  0.1320463E+00
         -2   -1    0    0    0  501 -0.00000000000E+00  0.00000000000E+00  0.60654856367E+03  0.60654856367E+03  0.00000000000E+00 0.  1.
          2   -1    0    0  501    0  0.00000000000E+00 -0.00000000000E+00 -0.32386050481E+02  0.32386050481E+02  0.00000000000E+00 0. -1.
          5    1    1    2  502    0 -0.37023272228E+02 -0.25243057516E+02  0.34165515549E+02  0.56503889176E+02  0.41800000000E+01 0. -1.
         -5    1    1    2    0  502 -0.10322194740E+02 -0.27948789394E+02  0.39487730535E+03  0.39602176861E+03  0.41800000000E+01 0. -1.
        -11    1    1    2    0    0  0.15972177378E+02  0.57295176044E+02  0.14278977693E+03  0.15468279815E+03  0.00000000000E+00 0.  1.
         11    1    1    2    0    0  0.31373289591E+02 -0.41033291343E+01  0.23299153665E+01  0.31726158219E+02  0.00000000000E+00 0. -1.
</event>
<event>
 7    1  0.1538147E-010  0.8999687E+02  0.7561462E-02  0.1302859E+00
          2   -1    0    0  501    0  0.00000000000E+00  0.00000000000E+00  0.14853511901E+03  0.14853511901E+03  0.00000000000E+00 0. -1.
         -2   -1    0    0    0  501 -0.00000000000E+00 -0.00000000000E+00 -0.92974628206E+02  0.92974628206E+02  0.00000000000E+00 0.  1.
         25    2    1    2    0    0  0.14341292149E+02 -0.42734875510E+02  0.33241481018E+02  0.13701283309E+03  0.12504230534E+03 0.  0.
          5    1    3    3  502    0 -0.27087574714E+02 -0.65704320832E+02 -0.11029412607E+02  0.72041063445E+02  0.41800000000E+01 0. -1.
         -5    1    3    3    0  502  0.41428866863E+02  0.22969445321E+02  0.44270893626E+02  0.64971769641E+02  0.41800000000E+01 0. -1.
        -11    1    1    2    0    0  0.12476435878E+02  0.27987420974E+02  0.52962147222E+02  0.61187794725E+02  0.00000000000E+00 0. -1.
         11    1    1    2    0    0 -0.26817728027E+02  0.14747454537E+02 -0.30643137435E+02  0.43309119406E+02  0.00000000000E+00 0.  1.
</event>
<event>
 7    1  0.1538147E-010  0.4372865E+03  0.7561462E-02  0.1031583E+00
         -1   -1    0    0    0  501 -0.00000000000E+00  0.00000000000E+00  0.35940128362E+03  0.35940128362E+03  0.00000000000E+00 0.  1.
          1   -1    0    0  501    0  0.00000000000E+00 -0.00000000000E+00 -0.63714302026E+03  0.63714302026E+03  0.00000000000E+00 0. -1.
         25    2    1    2    0    0  0.42334912531E+03  0.62338308946E+02 -0.33158898910E+03  0.55562936548E+03  0.12514866129E+03 0.  0.
          5    1    3    3  502    0  0.19584135435E+03 -0.21332714770E+02 -0.10266251783E+03  0.22218457588E+03  0.41800000000E+01 0.  1.
         -5    1    3    3    0  502  0.22750777096E+03  0.83671023717E+02 -0.22892647128E+03  0.33344478960E+03  0.41800000000E+01 0.  1.
        -11    1    1    2    0    0 -0.24007673442E+03  0.41894552686E+01  0.53218829184E+02  0.24594030520E+03  0.00000000000E+00 0.  1.
         11    1    1    2    0    0 -0.18327239089E+03 -0.66527764215E+02  0.62842328352E+00  0.19497463320E+03  0.00000000000E+00 0. -1.
</event>
<event>
 7    1  0.1538147E-010  0.7158991E+02  0.7561462E-02  0.1354768E+00
         -1   -1    0    0    0  501 -0.00000000000E+00  0.00000000000E+00  0.65872613409E+02  0.65872613409E+02  0.00000000000E+00 0.  1.
          1   -1    0    0  501    0  0.00000000000E+00 -0.00000000000E+00 -0.22745964733E+03  0.22745964733E+03  0.00000000000E+00 0. -1.
         25    2    1    2    0    0 -0.14106226564E+02  0.54508309521E+02 -0.81060560106E+02  0.15930515937E+03  0.12504870236E+03 0.  0.
          5    1    3    3  502    0 -0.21499499829E+01  0.18985740676E+02 -0.11002684942E+03  0.11175178132E+03  0.41800000000E+01 0.  1.
         -5    1    3    3    0  502 -0.11956276582E+02  0.35522568845E+02  0.28966289317E+02  0.47553378049E+02  0.41800000000E+01 0.  1.
        -11    1    1    2    0    0  0.38551014703E+02 -0.46014609574E+02 -0.12599185857E+02  0.61337301156E+02  0.00000000000E+00 0.  1.
         11    1    1    2    0    0 -0.24444788139E+02 -0.84936999478E+01 -0.67927287964E+02  0.72689800220E+02  0.00000000000E+00 0. -1.
</event>
<event>
 7    1  0.1538147E-010  0.9647155E+02  0.7561462E-02  0.1287896E+00
          2   -1    0    0  501    0  0.00000000000E+00  0.00000000000E+00  0.64848535658E+03  0.64848535658E+03  0.00000000000E+00 0. -1.
         -2   -1    0    0    0  501 -0.00000000000E+00 -0.00000000000E+00 -0.18978757495E+02  0.18978757495E+02  0.00000000000E+00 0.  1.
         25    2    1    2    0    0  0.23594171198E+02  0.12493218517E+02  0.33481314777E+03  0.35842133126E+03  0.12511291445E+03 0.  0.
          5    1    3    3  502    0 -0.37493560918E+02  0.18514328135E+02  0.25075596211E+03  0.25425296929E+03  0.41800000000E+01 0.  1.
         -5    1    3    3    0  502  0.61087732116E+02 -0.60211096189E+01  0.84057185661E+02  0.10416836198E+03  0.41800000000E+01 0.  1.
        -11    1    1    2    0    0  0.32066641006E+02  0.11405233991E+01  0.67573934679E+02  0.74805126209E+02  0.00000000000E+00 0.  1.
         11    1    1    2    0    0 -0.55660812205E+02 -0.13633741916E+02  0.22711951664E+03  0.23423765660E+03  0.00000000000E+00 0. -1.
</event>
<event>
 7    1  0.1569953E-010  0.1098833E+03  0.7561462E-02  0.1260786E+00
         -1   -1    0    0    0  501 -0.00000000000E+00  0.00000000000E+00  0.12007677610E+03  0.12007677610E+03  0.00000000000E+00 0.  1.
          1   -1    0    0  501    0  0.00000000000E+00 -0.00000000000E+00 -0.11460037860E+03  0.11460037860E+03  0.00000000000E+00 0. -1.
         25    2    1    2    0    0 -0.38617908058E+02 -0.30164139549E+01  0.27179209546E+02  0.13376976281E+03  0.12512073543E+03 0.  0.
          5    1    3    3  502    0 -0.53990894360E+02 -0.49373642427E+02  0.39468176094E+02  0.83234503450E+02  0.41800000000E+01 0. -1.
         -5    1    3    3    0  502  0.15372986302E+02  0.46357228472E+02 -0.12288966548E+02  0.50535259357E+02  0.41800000000E+01 0. -1.
        -11    1    1    2    0    0 -0.50703086481E+01 -0.37524725969E+02 -0.12204072792E+01  0.37885386137E+02  0.00000000000E+00 0.  1.
         11    1    1    2    0    0  0.43688216706E+02  0.40541139924E+02 -0.20482404762E+02  0.63022005761E+02  0.00000000000E+00 0. -1.
</event>
<event>
 7    1  0.1538147E-010  0.1830515E+03  0.7561462E-02  0.1164882E+00
         -1   -1    0    0    0  501 -0.00000000000E+00  0.00000000000E+00  0.90631051781E+02  0.90631051781E+02  0.00000000000E+00 0.  1.
          1   -1    0    0  501    0  0.00000000000E+00 -0.00000000000E+00 -0.46178967958E+03  0.46178967958E+03  0.00000000000E+00 0. -1.
         25    2    1    2    0    0 -0.13086402112E+02 -0.15038778737E+03 -0.79994423438E+02  0.21176848873E+03  0.12513610402E+03 0.  0.
          5    1    3    3  502    0 -0.65430462557E+02 -0.60403534637E+02 -0.54580167145E+02  0.10452846250E+03  0.41800000000E+01 0. -1.
         -5    1    3    3    0  502  0.52344060445E+02 -0.89984252733E+02 -0.25414256293E+02  0.10724002623E+03  0.41800000000E+01 0. -1.
        -11    1    1    2    0    0 -0.35588530989E+02  0.75301278819E+02 -0.17684334618E+03  0.19547479433E+03  0.00000000000E+00 0.  1.
         11    1    1    2    0    0  0.48674933101E+02  0.75086508550E+02 -0.11432085818E+03  0.14517744829E+03  0.00000000000E+00 0. -1.
</event>
<event>
 6    1  0.1538147E-010  0.1108773E+03  0.7561462E-02  0.1258954E+00
         -1   -1    0    0    0  501 -0.00000000000E+00  0.00000000000E+00  0.30909361725E+03  0.30909361725E+03  0.00000000000E+00 0.  1.
          1   -1    0    0  501    0  0.00000000000E+00 -0.00000000000E+00 -0.41270987346E+02  0.41270987346E+02  0.00000000000E+00 0. -1.
          5    1    1    2  502    0 -0.21264628352E+02  0.49869634754E+02  0.58958463899E+02  0.80204349974E+02  0.41800000000E+01 0.  1.
         -5    1    1    2    0  502  0.55476543931E+02 -0.50688819367E+02  0.92648356572E+02  0.11936579791E+03  0.41800000000E+01 0.  1.
        -11    1    1    2    0    0  0.43197141718E+01 -0.37515943662E+02  0.69618692418E+02  0.79201441233E+02  0.00000000000E+00 0.  1.
         11    1    1    2    0    0 -0.38531629751E+02  0.38335128275E+02  0.46597117013E+02  0.71593015477E+02  0.00000000000E+00 0. -1.
</event>
<event>
 7    1  0.1538147E-010  0.8733877E+02  0.7561462E-02  0.1309427E+00
          3   -1    0    0  501    0  0.00000000000E+00  0.00000000000E+00  0.41098051897E+02  0.41098051897E+02  0.00000000000E+00 0. -1.
         -3   -1    0    0    0  501 -0.00000000000E+00 -0.00000000000E+00 -0.42935922758E+03  0.42935922758E+03  0.00000000000E+00 0.  1.
         25    2    1    2    0    0 -0.48912943544E+02 -0.13622654083E+02 -0.35212151990E+03  0.37712148455E+03  0.12511193621E+03 0.  0.
          5    1    3    3  502    0 -0.21823516803E+02 -0.57975192013E+02 -0.86765407336E+02  0.10669159800E+03  0.41800000000E+01 0. -1.
         -5    1    3    3    0  502 -0.27089426742E+02  0.44352537930E+02 -0.26535611256E+03  0.27042988654E+03  0.41800000000E+01 0. -1.
        -11    1    1    2    0    0  0.29157185749E+02 -0.89063296219E+01 -0.51360539000E+02  0.59727457292E+02  0.00000000000E+00 0.  1.
         11    1    1    2    0    0  0.19755757796E+02  0.22528983705E+02  0.15220883215E+02  0.33608337637E+02  0.00000000000E+00 0. -1.
</event>
<event>
 7    1  0.1538147E-010  0.9758051E+02  0.7561462E-02  0.1285468E+00
          1   -1    0    0  501    0  0.00000000000E+00  0.00000000000E+00  0.10451057677E+03  0.10451057677E+03  0.00000000000E+00 0. -1.
         -1   -1    0    0    0  501 -0.00000000000E+00 -0.00000000000E+00 -0.12297997073E+03  0.12297997073E+03  0.00000000000E+00 0.  1.
         25    2    1    2    0    0  0.24778759613E+02  0.21981396216E+02 -0.77530909283E+01  0.12960992503E+03  0.12506579684E+03 0.  0.
          5    1    3    3  502    0  0.33557130670E+02  0.65631040786E+02 -0.29962728119E+02  0.79679056281E+02  0.41800000000E+01 0.  1.
         -5    1    3    3    0  502 -0.87783710572E+01 -0.43649644570E+02  0.22209637191E+02  0.49930868745E+02  0.41800000000E+01 0.  1.
        -11    1    1    2    0    0  0.94811140258E+01 -0.37731167322E+02 -0.35574793541E+02  0.52717155141E+02  0.00000000000E+00 0.  1.
         11    1    1    2    0    0 -0.34259873639E+02  0.15749771106E+02  0.24858490509E+02  0.45163467338E+02  0.00000000000E+00 0. -1.
</event>
<event>
 6    1  0.1538147E-010  0.7887276E+02  0.7561462E-02  0.1332281E+00
         -2   -1    0    0    0  501 -0.00000000000E+00  0.00000000000E+00  0.84381812428E+02  0.84381812428E+02  0.00000000000E+00 0. -1.
          2   -1    0    0  501    0  0.00000000000E+00 -0.00000000000E+00 -0.14200952280E+03  0.14200952280E+03  0.00000000000E+00 0.  1.
          5    1    1    2  502    0 -0.11374135099E+02  0.41557576482E+02 -0.52465334773E+02  0.68018283315E+02  0.41800000000E+01 0.  1.
         -5    1    1    2    0  502  0.34649655300E+02 -0.23063116776E+02  0.43688838548E+02  0.60487130710E+02  0.41800000000E+01 0.  1.
        -11    1    1    2    0    0 -0.43938104148E+00  0.24201314036E+02 -0.42692064286E+02  0.49076562734E+02  0.00000000000E+00 0.  1.
         11    1    1    2    0    0 -0.22836139160E+02 -0.42695773742E+02 -0.61591498599E+01  0.48809358469E+02  0.00000000000E+00 0. -1.
</event>
<event>
 6    1  0.1538147E-010  0.1433539E+03  0.7561462E-02  0.1208886E+00
          1   -1    0    0  501    0  0.00000000000E+00  0.00000000000E+00  0.21740877571E+03  0.21740877571E+03  0.00000000000E+00 0. -1.
         -1   -1    0    0    0  501 -0.00000000000E+00 -0.00000000000E+00 -0.11477304645E+03  0.11477304645E+03  0.00000000000E+00 0.  1.
          5    1    1    2  502    0  0.10196198907E+03  0.42093804171E+02  0.35358184401E+01  0.11044505411E+03  0.41800000000E+01 0.  1.
         -5    1    1    2    0  502  0.10205728811E+02 -0.28132392545E+02  0.64657065988E+02  0.71369440190E+02  0.41800000000E+01 0.  1.
        -11    1    1    2    0    0 -0.19887329873E+02  0.36027641184E+02  0.13814121912E+02  0.43408833006E+02  0.00000000000E+00 0.  1.
         11    1    1    2    0    0 -0.92280388012E+02 -0.49989052810E+02  0.20628722916E+02  0.10695849486E+03  0.00000000000E+00 0. -1.
</event>
<event>
 6    1  0.1538147E-010  0.8831021E+02  0.7561462E-02  0.1306996E+00
         -2   -1    0    0    0  501 -0.00000000000E+00  0.00000000000E+00  0.61139532186E+02  0.61139532186E+02  0.00000000000E+00 0.  1.
          2   -1    0    0  501    0  0.00000000000E+00 -0.00000000000E+00 -0.19392571877E+03  0.19392571877E+03  0.00000000000E+00 0. -1.
          5    1    1    2  502    0 -0.24105002582E+02  0.55758349973E+02 -0.12619363347E+02  0.62183321498E+02  0.41800000000E+01 0. -1.
         -5    1    1    2    0  502  0.27421450225E+02 -0.45030202702E+02 -0.71329628756E+02  0.88797767012E+02  0.41800000000E+01 0. -1.
        -11    1    1    2    0    0 -0.15273745542E+02  0.22689076211E+02 -0.60768717696E+02  0.66640217081E+02  0.00000000000E+00 0. -1.
         11    1    1    2    0    0  0.11957297899E+02 -0.33417223482E+02  0.11931523214E+02  0.37443945365E+02  0.00000000000E+00 0.  1.
</event>
<event>
 7    1  0.1538147E-010  0.8644265E+02  0.7561462E-02  0.1311702E+00
         -2   -1    0    0    0  501 -0.00000000000E+00  0.00000000000E+00  0.27481205981E+02  0.27481205981E+02  0.00000000000E+00 0.  1.
          2   -1    0    0  501    0  0.00000000000E+00 -0.00000000000E+00 -0.62223206280E+03  0.62223206280E+03  0.00000000000E+00 0. -1.
         25    2    1    2    0    0  0.67293386628E+02 -0.22108806958E+02 -0.31194902752E+03  0.34348708844E+03  0.12511588599E+03 0.  0.
          5    1    3    3  502    0  0.66345922853E+02 -0.42853400368E+02 -0.87138768862E+02  0.11768106407E+03  0.41800000000E+01 0. -1.
         -5    1    3    3    0  502  0.94746377516E+00  0.20744593410E+02 -0.22481025866E+03  0.22580602437E+03  0.41800000000E+01 0. -1.
        -11    1    1    2    0    0 -0.49645202424E+02  0.23461534659E+02 -0.28324734791E+03  0.28852062288E+03  0.00000000000E+00 0. -1.
         11    1    1    2    0    0 -0.17648184204E+02 -0.13527277014E+01  0.44551861151E+00  0.17705557455E+02  0.00000000000E+00 0.  1.
</event>
<event>
 7    1  0.1538147E-010  0.1021974E+03  0.7561462E-02  0.1275742E+00
         -2   -1    0    0    0  501 -0.00000000000E+00  0.00000000000E+00  0.16808104334E+03  0.16808104334E+03  0.00000000000E+00 0.  1.
          2   -1    0    0  501    0  0.00000000000E+00 -0.00000000000E+00 -0.13987761114E+03  0.13987761114E+03  0.00000000000E+00 0. -1.
         25    2    1    2    0    0  0.77061538343E+01  0.46653279734E+02  0.11288136035E+03  0.17503321822E+03  0.12513397880E+03 0.  0.
          5    1    3    3  502    0  0.37889117998E+02  0.78199713684E+02  0.57045048762E+02  0.10403071888E+03  0.41800000000E+01 0. -1.
         -5    1    3    3    0  502 -0.30182964164E+02 -0.31546433949E+02  0.55836311589E+02  0.71002499340E+02  0.41800000000E+01 0. -1.
        -11    1    1    2    0    0 -0.18336538695E+02  0.64079310276E+01  0.11496619312E+02  0.22571275705E+02  0.00000000000E+00 0.  1.
         11    1    1    2    0    0  0.10630384860E+02 -0.53061210762E+02 -0.96174547465E+02  0.11035416055E+03  0.00000000000E+00 0. -1.
</event>
<event>
 7    1  0.1538147E-010  0.2448529E+03  0.7561462E-02  0.1116602E+00
         -4   -1    0    0    0  501 -0.00000000000E+00  0.00000000000E+00  0.81474362717E+02  0.81474362717E+02  0.00000000000E+00 0.  1.
          4   -1    0    0  501    0  0.00000000000E+00 -0.00000000000E+00 -0.95944278047E+03  0.95944278047E+03  0.00000000000E+00 0. -1.
         25    2    1    2    0    0  0.22159537666E+03  0.64266724007E+02 -0.66137998696E+03  0.71154624499E+03  0.12505938126E+03 0.  0.
          5    1    3    3  502    0  0.12268841374E+03  0.73100623566E+02 -0.24637178782E+03  0.28480287616E+03  0.41800000000E+01 0. -1.
         -5    1    3    3    0  502  0.98906962915E+02 -0.88338995593E+01 -0.41500819914E+03  0.42674336884E+03  0.41800000000E+01 0. -1.
        -11    1    1    2    0    0  0.17221669819E+01  0.11493985093E+02 -0.16030706008E+02  0.19800532507E+02  0.00000000000E+00 0.  1.
         11    1    1    2    0    0 -0.22331754364E+03 -0.75760709099E+02 -0.20055772478E+03  0.30957036569E+03  0.00000000000E+00 0. -1.
</event>
<event>
 7    1  0.1538147E-010  0.9856614E+02  0.7561462E-02  0.1283340E+00
          3   -1    0    0  501    0  0.00000000000E+00  0.00000000000E+00  0.18363470372E+03  0.18363470372E+03  0.00000000000E+00 0. -1.
         -3   -1    0    0    0  501 -0.00000000000E+00 -0.00000000000E+00 -0.66330824820E+02  0.66330824820E+02  0.00000000000E+00 0.  1.
         25    2    1    2    0    0  0.20200632016E+02  0.69812881384E+01  0.83929211790E+02  0.15211307933E+03  0.12504987962E+03 0.  0.
          5    1    3    3  502    0  0.72163104437E+02  0.14994315376E+02  0.43785689241E+02  0.85831242085E+02  0.41800000000E+01 0. -1.
         -5    1    3    3    0  502 -0.51962472421E+02 -0.80130272373E+01  0.40143522549E+02  0.66281837242E+02  0.41800000000E+01 0. -1.
        -11    1    1    2    0    0 -0.34643634518E+02  0.19971629575E+02  0.49216454439E+02  0.63413774434E+02  0.00000000000E+00 0. -1.
         11    1    1    2    0    0  0.14443002501E+02 -0.26952917713E+02 -0.15841787331E+02  0.34438674776E+02  0.00000000000E+00 0.  1.
</event>
<event>
 7    1  0.1538147E-010  0.1429771E+03  0.7561462E-02  0.1209378E+00
         -2   -1    0    0    0  501 -0.00000000000E+00  0.00000000000E+00  0.42056965549E+02  0.42056965549E+02  0.00000000000E+00 0.  1.
          2   -1    0    0  501    0  0.00000000000E+00 -0.00000000000E+00 -0.58540676113E+03  0.58540676113E+03  0.00000000000E+00 0. -1.
         25    2    1    2    0    0  0.84519026116E+02  0.63230608809E+02 -0.37112310050E+03  0.40562512519E+03  0.12513117435E+03 0.  0.
          5    1    3    3  502    0 -0.24211390181E+02  0.17875348596E+02 -0.16839175507E+03  0.17111100221E+03  0.41800000000E+01 0.  1.
         -5    1    3    3    0  502  0.10873041630E+03  0.45355260213E+02 -0.20273134543E+03  0.23451412298E+03  0.41800000000E+01 0.  1.
        -11    1    1    2    0    0 -0.10339336837E+03 -0.54722273121E+02 -0.15851260250E+03  0.19700497697E+03  0.00000000000E+00 0. -1.
         11    1    1    2    0    0  0.18874342249E+02 -0.85083356877E+01 -0.13714092572E+02  0.24833624515E+02  0.00000000000E+00 0.  1.
</event>
<event>
 7    1  0.1538147E-010  0.1080313E+03  0.7561462E-02  0.1264260E+00
         -3   -1    0    0    0  501 -0.00000000000E+00  0.00000000000E+00  0.69076834444E+02  0.69076834444E+02  0.00000000000E+00 0.  1.
          3   -1    0    0  501    0  0.00000000000E+00 -0.00000000000E+00 -0.31205689604E+03  0.31205689604E+03  0.00000000000E+00 0. -1.
         25    2    1    2    0    0  0.48282110927E+02  0.57541375037E+02 -0.48601508474E+02  0.15377318317E+03  0.12506763434E+03 0.  0.
          5    1    3    3  502    0  0.76588974048E+02  0.56639598230E+02  0.22966020093E+01  0.95376421689E+02  0.41800000000E+01 0.  1.
         -5    1    3    3    0  502 -0.28306863121E+02  0.90177680638E+00 -0.50898110483E+02  0.58396761485E+02  0.41800000000E+01 0.  1.
        -11    1    1    2    0    0 -0.28505805016E+01 -0.44814855088E+02 -0.24711553824E+02  0.51255808824E+02  0.00000000000E+00 0.  1.
         11    1    1    2    0    0 -0.45431530425E+02 -0.12726519948E+02 -0.16966699930E+03  0.17610473848E+03  0.00000000000E+00 0. -1.
</event>
<event>
 6    1  0.1538147E-010  0.2851298E+03  0.7561462E-02  0.1092920E+00
          2   -1    0    0  501    0  0.00000000000E+00  0.00000000000E+00  0.93573726587E+03  0.93573726587E+03  0.00000000000E+00 0. -1.
         -2   -1    0    0    0  501 -0.00000000000E+00 -0.00000000000E+00 -0.12926570215E+03  0.12926570215E+03  0.00000000000E+00 0.  1.
          5    1    1    2  502    0 -0.22184361709E+03  0.29437548392E+02  0.15943698219E+03  0.27480681103E+03  0.41800000000E+01 0. -1.
         -5    1    1    2    0  502 -0.51415914326E+02  0.32399302115E+02 -0.17383081491E+02  0.63347888250E+02  0.41800000000E+01 0. -1.
        -11    1    1    2    0    0  0.16720164306E+03 -0.10085073128E+02  0.29744294141E+03  0.34136549553E+03  0.00000000000E+00 0.  1.
         11    1    1    2    0    0  0.10605788836E+03 -0.51751777379E+02  0.36697472160E+03  0.38548277321E+03  0.00000000000E+00 0. -1.
</event>
<event>
 6    1  0.1538147E-010  0.1086784E+03  0.7561462E-02  0.1263037E+00
          1   -1    0    0  501    0  0.00000000000E+00  0.00000000000E+00  0.36882496129E+03  0.36882496129E+03  0.00000000000E+00 0. -1.
         -1   -1    0    0    0  501 -0.00000000000E+00 -0.00000000000E+00 -0.59508108547E+02  0.59508108547E+02  0.00000000000E+00 0.  1.
          5    1    1    2  502    0 -0.86144178160E+02 -0.36247341043E+01  0.15014135297E+03  0.17318734480E+03  0.41800000000E+01 0.  1.
         -5    1    1    2    0  502 -0.10953877522E+02 -0.12385187241E+02 -0.24230437706E+02  0.29630504674E+02  0.41800000000E+01 0.  1.
        -11    1    1    2    0    0  0.72109421219E+02 -0.15508539285E+02  0.16607606505E+03  0.18171830618E+03  0.00000000000E+00 0. -1.
         11    1    1    2    0    0  0.24988634463E+02  0.31518460630E+02  0.17329872424E+02  0.43796914173E+02  0.00000000000E+00 0.  1.
</event>
<event>
 6    1  0.1538147E-010  0.8460300E+02  0.7561462E-02  0.1316474E+00
          3   -1    0    0  501    0  0.00000000000E+00  0.00000000000E+00  0.25995211862E+02  0.25995211862E+02  0.00000000000E+00 0.  1.
         -3   -1    0    0    0  501 -0.00000000000E+00 -0.00000000000E+00 -0.61011937811E+03  0.61011937811E+03  0.00000000000E+00 0. -1.
          5    1    1    2  502    0 -0.31184887562E+02 -0.24342855152E+02 -0.36252003530E+03  0.36469620262E+03  0.41800000000E+01 0. -1.
         -5    1    1    2    0  502 -0.14696909424E+02 -0.12124851905E+02  0.36210762066E+01  0.19839248303E+02  0.41800000000E+01 0. -1.
        -11    1    1    2    0    0  0.33120293222E+02  0.68145108157E+02 -0.13069624744E+03  0.15107024420E+03  0.00000000000E+00 0.  1.
         11    1    1    2    0    0  0.12761503764E+02 -0.31677401100E+02 -0.94528959722E+02  0.10050889485E+03  0.00000000000E+00 0. -1.
</event>
<event>
 6    1  0.1538147E-010  0.1056298E+03  0.7561462E-02  0.1268884E+00
          2   -1    0    0  501    0  0.00000000000E+00  0.00000000000E+00  0.26505822115E+03  0.26505822115E+03  0.00000000000E+00 0. -1.
         -2   -1    0    0    0  501 -0.00000000000E+00 -0.00000000000E+00 -0.52319832393E+02  0.52319832393E+02  0.00000000000E+00 0.  1.
          5    1    1    2  502    0 -0.82156408054E+00  0.43830619562E+02  0.96392295881E+02  0.10597521070E+03  0.41800000000E+01 0.  1.
         -5    1    1    2    0  502 -0.35633253392E+02 -0.68034375581E+02  0.52342635885E+02  0.93035632633E+02  0.41800000000E+01 0.  1.
        -11    1    1    2    0    0  0.48665046204E+02  0.44941631611E+02  0.66877169012E+02  0.94130721388E+02  0.00000000000E+00 0. -1.
         11    1    1    2    0    0 -0.12210228731E+02 -0.20737875591E+02 -0.28737120156E+01  0.24236488823E+02  0.00000000000E+00 0.  1.
</event>
<event>
 7    1  0.1538147E-010  0.1138930E+03  0.7561462E-02  0.1253526E+00
         -3   -1    0    0    0  501 -0.00000000000E+00  0.00000000000E+00  0.29734465534E+02  0.29734465534E+02  0.00000000000E+00 0.  1.
          3   -1    0    0  501    0  0.00000000000E+00 -0.00000000000E+00 -0.64922458221E+03  0.64922458221E+03  0.00000000000E+00 0. -1.
         25    2    1    2    0    0  0.38987421573E+02 -0.77764814757E+02 -0.34580039497E+03  0.37789707656E+03  0.12514352503E+03 0.  0.
          5    1    3    3  502    0  0.16291802487E+02 -0.10428890815E+03 -0.31090652209E+03  0.32836250863E+03  0.41800000000E+01 0.  1.
         -5    1    3    3    0  502  0.22695619087E+02  0.26524093393E+02 -0.34893872877E+02  0.49534567934E+02  0.41800000000E+01 0.  1.
        -11    1    1    2    0    0 -0.18222458301E+02  0.36728960174E+02 -0.24712097921E+02  0.47872354085E+02  0.00000000000E+00 0.  1.
         11    1    1    2    0    0 -0.20764963272E+02  0.41035854583E+02 -0.24897762378E+03  0.25318961709E+03  0.00000000000E+00 0. -1.
</event>
<event>
 7    1  0.1538147E-010  0.9178505E+02  0.7561462E-02  0.1298586E+00
         -1   -1    0    0    0  501 -0.00000000000E+00  0.00000000000E+00  0.31552918375E+03  0.31552918375E+03  0.00000000000E+00 0.  1.
          1   -1    0    0  501    0  0.00000000000E+00 -0.00000000000E+00 -0.68644159129E+02  0.68644159129E+02  0.00000000000E+00 0. -1.
         25    2    1    2    0    0 -0.62033805697E+01 -0.52007742756E+02  0.24481523402E+03  0.27984363608E+03  0.12503869245E+03 0.  0.
          5    1    3    3  502    0 -0.43708979060E+02 -0.70052145979E+02  0.20906264054E+03  0.22481645419E+03  0.41800000000E+01 0.  1.
         -5    1    3    3    0  502  0.37505598490E+02  0.18044403223E+02  0.35752593479E+02  0.55027181886E+02  0.41800000000E+01 0.  1.
        -11    1    1    2    0    0  0.10909507982E+02  0.53150954709E+01 -0.39694252221E+02  0.41507845808E+02  0.00000000000E+00 0. -1.
         11    1    1    2    0    0 -0.47061274126E+01  0.46692647285E+02  0.41764042829E+02  0.62821860997E+02  0.00000000000E+00 0.  1.
</event>
<event>
 7    1  0.1538147E-010  0.2137189E+03  0.7561462E-02  0.1138654E+00
          2   -1    0    0  501    0  0.00000000000E+00  0.00000000000E+00  0.16810965538E+03  0.16810965538E+03  0.00000000000E+00 0. -1.
         -2   -1    0    0    0  501 -0.00000000000E+00 -0.00000000000E+00 -0.29391698288E+03  0.29391698288E+03  0.00000000000E+00 0.  1.
         25    2    1    2    0    0  0.18275814876E+03 -0.61403527560E+02 -0.74386077814E+02  0.24157332336E+03  0.12511373967E+03 0.  0.
          5    1    3    3  502    0  0.52038569976E+02  0.25277665597E+02  0.16425927124E+02  0.60284795970E+02  0.41800000000E+01 0. -1.
         -5    1    3    3    0  502  0.13071957878E+03 -0.86681193158E+02 -0.90812004938E+02  0.18128852739E+03  0.41800000000E+01 0. -1.
        -11    1    1    2    0    0 -0.62484257801E+02  0.67654095898E+02 -0.36632394101E+02  0.99112519201E+02  0.00000000000E+00 0.  1.
         11    1    1    2    0    0 -0.12027389096E+03 -0.62505683379E+01 -0.14788855590E+02  0.12134079570E+03  0.00000000000E+00 0. -1.
</event>
<event>
 7    1  0.1538147E-010  0.1714922E+03  0.7561462E-02  0.1176301E+00
          1   -1    0    0  501    0  0.00000000000E+00  0.00000000000E+00  0.29786331413E+03  0.29786331413E+03  0.00000000000E+00 0. -1.
         -1   -1    0    0    0  501 -0.00000000000E+00 -0.00000000000E+00 -0.10972965185E+03  0.10972965185E+03  0.00000000000E+00 0.  1.
         25    2    1    2    0    0  0.13166497016E+03  0.20890134196E+02  0.16133020329E+03  0.24379799026E+03  0.12505184320E+03 0.  0.
          5    1    3    3  502    0  0.37623838563E+02 -0.50875738821E+02  0.68686035531E+02  0.93483356304E+02  0.41800000000E+01 0.  1.
         -5    1    3    3    0  502  0.94041131594E+02  0.71765873017E+02  0.92644167754E+02  0.15031463395E+03  0.41800000000E+01 0.  1.
        -11    1    1    2    0    0 -0.58853487341E+02 -0.55218137340E+02  0.19085395644E+02  0.82927848099E+02  0.00000000000E+00 0.  1.
         11    1    1    2    0    0 -0.72811482816E+02  0.34328003144E+02  0.77180633489E+01  0.80867127633E+02  0.00000000000E+00 0. -1.
</event>
<event>
 7    1  0.1538147E-010  0.9913905E+02  0.7561462E-02  0.1282117E+00
         -1   -1    0    0    0  501 -0.00000000000E+00  0.00000000000E+00  0.66557686412E+03  0.66557686412E+03  0.00000000000E+00 0.  1.
          1   -1    0    0  501    0  0.00000000000E+00 -0.00000000000E+00 -0.88119525014E+02  0.88119525014E+02  0.00000000000E+00 0. -1.
         25    2    1    2    0    0 -0.22675227713E+02  0.49829043046E+01  0.63329378778E+03  0.64595104685E+03  0.12511090279E+03 0.  0.
          5    1    3    3  502    0 -0.36633824064E+02  0.51352868880E+02  0.19550261447E+03  0.20546994640E+03  0.41800000000E+01 0.  1.
         -5    1    3    3    0  502  0.13958596351E+02 -0.46369964576E+02  0.43779117331E+03  0.44048110045E+03  0.41800000000E+01 0.  1.
        -11    1    1    2    0    0  0.28341925680E+02  0.35584791206E+02 -0.47828422920E+02  0.66008333985E+02  0.00000000000E+00 0. -1.
         11    1    1    2    0    0 -0.56666979677E+01 -0.40567695511E+02 -0.80080257598E+01  0.41737008296E+02  0.00000000000E+00 0.  1.
</event>
<event>
 7    1  0.1538147E-010  0.1650673E+03  0.7561462E-02  0.1183092E+00
         -4   -1    0    0    0  501 -0.00000000000E+00  0.00000000000E+00  0.45529161379E+02  0.45529161379E+02  0.00000000000E+00 0.  1.
          4   -1    0    0  501    0  0.00000000000E+00 -0.00000000000E+00 -0.62824239528E+03  0.62824239528E+03  0.00000000000E+00 0. -1.
         25    2    1    2    0    0 -0.82699059740E+02  0.96279528320E+02 -0.35953650979E+03  0.40125906000E+03  0.12503379265E+03 0.  0.
          5    1    3    3  502    0 -0.16702430883E+02  0.10605046438E+03 -0.17929783058E+03  0.20902357916E+03  0.41800000000E+01 0.  1.
         -5    1    3    3    0  502 -0.65996628857E+02 -0.97709360566E+01 -0.18023867921E+03  0.19223548084E+03  0.41800000000E+01 0.  1.
        -11    1    1    2    0    0  0.94233541315E+02 -0.47126968273E+02 -0.14008541772E+03  0.17528501278E+03  0.00000000000E+00 0.  1.
         11    1    1    2    0    0 -0.11534481575E+02 -0.49152560046E+02 -0.83091306384E+02  0.97227483876E+02  0.00000000000E+00 0. -1.
</event>
<event>
 6    1  0.1538147E-010  0.1189920E+03  0.7561462E-02  0.1244769E+00
         -2   -1    0    0    0  501 -0.00000000000E+00  0.00000000000E+00  0.18404237843E+02  0.18404237843E+02  0.00000000000E+00 0.  1.
          2   -1    0    0  501    0  0.00000000000E+00 -0.00000000000E+00 -0.79454829827E+03  0.79454829827E+03  0.00000000000E+00 0. -1.
          5    1    1    2  502    0  0.71923504683E+02 -0.38468876690E+02 -0.28323193957E+03  0.29477219848E+03  0.41800000000E+01 0.  1.
         -5    1    1    2    0  502 -0.52541451026E+02 -0.11220287667E+02 -0.15990211793E+03  0.16873843264E+03  0.41800000000E+01 0.  1.
        -11    1    1    2    0    0 -0.42665553647E+02  0.62632771092E+02 -0.20193389511E+03  0.21568614113E+03  0.00000000000E+00 0.  1.
         11    1    1    2    0    0  0.23283499991E+02 -0.12943606735E+02 -0.13107610782E+03  0.13375576387E+03  0.00000000000E+00 0. -1.
</event>
<event>
 7    1  0.1538147E-010  0.1258658E+03  0.7561462E-02  0.1233722E+00
         -2   -1    0    0    0  501 -0.00000000000E+00  0.00000000000E+00  0.86290582579E+02  0.86290582579E+02  0.00000000000E+00 0. -1.
          2   -1    0    0  501    0  0.00000000000E+00 -0.00000000000E+00 -0.32098613778E+03  0.32098613778E+03  0.00000000000E+00 0.  1.
         25    2    1    2    0    0  0.99674307173E+02  0.68689392854E+02 -0.83678016078E+02  0.19315502125E+03  0.12511455414E+03 0.  0.
          5    1    3    3  502    0  0.12569217608E+02 -0.57273359041E+01  0.29011114286E+02  0.32402233873E+02  0.41800000000E+01 0. -1.
         -5    1    3    3    0  502  0.87105089565E+02  0.74416728758E+02 -0.11268913036E+03  0.16075278738E+03  0.41800000000E+01 0. -1.
        -11    1    1    2    0    0 -0.42263615968E+02 -0.41139658131E+02 -0.13666019885E+03  0.14884453183E+03  0.00000000000E+00 0.  1.
         11    1    1    2    0    0 -0.57410691206E+02 -0.27549734723E+02 -0.14357340271E+02  0.65277167277E+02  0.00000000000E+00 0. -1.
</event>
<event>
 7    1  0.1538147E-010  0.1925674E+03  0.7561462E-02  0.1156166E+00
         -1   -1    0    0    0  501 -0.00000000000E+00  0.00000000000E+00  0.84299949308E+02  0.84299949308E+02  0.00000000000E+00 0.  1.
          1   -1    0    0  501    0  0.00000000000E+00 -0.00000000000E+00 -0.48628565149E+03  0.48628565149E+03  0.00000000000E+00 0. -1.
         25    2    1    2    0    0 -0.26326137982E+02 -0.15675896835E+03 -0.12300501289E+03  0.23671569125E+03  0.12505057212E+03 0.  0.
          5    1    3    3  502    0  0.18561667515E+02 -0.15546888864E+03 -0.10239504035E+03  0.18712917336E+03  0.41800000000E+01 0. -1.
         -5    1    3    3    0  502 -0.44887805497E+02 -0.12900797104E+01 -0.20609972547E+02  0.49586517889E+02  0.41800000000E+01 0. -1.
        -11    1    1    2    0    0 -0.30942083233E+02  0.25140769462E+02 -0.61493453685E+02  0.73286531164E+02  0.00000000000E+00 0. -1.
         11    1    1    2    0    0  0.57268221215E+02  0.13161819889E+03 -0.21748723561E+03  0.26058337839E+03  0.00000000000E+00 0.  1.
</event>
<event>
 7    1  0.1538147E-010  0.1088312E+03  0.7561462E-02  0.1262750E+00
         -1   -1    0    0    0  501 -0.00000000000E+00  0.00000000000E+00  0.99077763690E+02  0.99077763690E+02  0.00000000000E+00 0.  1.
          1   -1    0    0  501    0  0.00000000000E+00 -0.00000000000E+00 -0.19019495872E+03  0.19019495872E+03  0.00000000000E+00 0. -1.
         25    2    1    2    0    0 -0.61799253470E+02 -0.40640466950E+02 -0.50638306254E+02  0.15390901038E+03  0.12511175058E+03 0.  0.
          5    1    3    3  502    0  0.96231002797E+01  0.19682984451E+02 -0.55893763441E+02  0.60179806642E+02  0.41800000000E+01 0. -1.
         -5    1    3    3    0  502 -0.71422353750E+02 -0.60323451400E+02  0.52554571864E+01  0.93729203743E+02  0.41800000000E+01 0. -1.
        -11    1    1    2    0    0 -0.15750850673E+02  0.63392371905E+01 -0.47336649446E+02  0.50289497967E+02  0.00000000000E+00 0. -1.
         11    1    1    2    0    0  0.77550104143E+02  0.34301229759E+02  0.68577606743E+01  0.85074214055E+02  0.00000000000E+00 0.  1.
</event>
<event>
 7    1  0.1538147E-010  0.9901672E+02  0.7561462E-02  0.1282377E+00
         -1   -1    0    0    0  501 -0.00000000000E+00  0.00000000000E+00  0.11456291768E+03  0.11456291768E+03  0.00000000000E+00 0.  1.
          1   -1    0    0  501    0  0.00000000000E+00 -0.00000000000E+00 -0.11199988779E+03  0.11199988779E+03  0.00000000000E+00 0. -1.
         25    2    1    2    0    0 -0.35211757329E+02  0.21913465685E+01  0.43208301914E+01  0.13006613961E+03  0.12511539173E+03 0.  0.
          5    1    3    3  502    0  0.42531337251E+02 -0.21540396142E+02  0.83211829697E+01  0.48575897319E+02  0.41800000000E+01 0. -1.
         -5    1    3    3    0  502 -0.77743094581E+02  0.23731742711E+02 -0.40003527783E+01  0.81490242296E+02  0.41800000000E+01 0. -1.
        -11    1    1    2    0    0 -0.29953043368E+01 -0.24405090317E+02 -0.33879155473E+02  0.41861407729E+02  0.00000000000E+00 0. -1.
         11    1    1    2    0    0  0.38207061666E+02  0.22213743749E+02  0.32121355169E+02  0.54635258125E+02  0.00000000000E+00 0.  1.
</event>
<event>
 7    1  0.1538147E-010  0.1466689E+03  0.7561462E-02  0.1204627E+00
         -2   -1    0    0    0  501 -0.00000000000E+00  0.00000000000E+00  0.10544816577E+03  0.10544816577E+03  0.00000000000E+00 0. -1.
          2   -1    0    0  501    0  0.00000000000E+00 -0.00000000000E+00 -0.39639416782E+03  0.39639416782E+03  0.00000000000E+00 0.  1.
         25    2    1    2    0    0  0.69093781783E+02  0.99729954515E+02 -0.30182190314E+03  0.34852514896E+03  0.12511316373E+03 0.  0.
          5    1    3    3  502    0 -0.15515664359E+02  0.81297432748E+02 -0.18793695300E+03  0.20539663852E+03  0.41800000000E+01 0. -1.
         -5    1    3    3    0  502  0.84609446141E+02  0.18432521767E+02 -0.11388495014E+03  0.14312851045E+03  0.41800000000E+01 0. -1.
        -11    1    1    2    0    0 -0.14480260943E+02 -0.41432960429E+02 -0.39358157955E+02  0.58952801160E+02  0.00000000000E+00 0.  1.
         11    1    1    2    0    0 -0.54613520839E+02 -0.58296994085E+02  0.50234059042E+02  0.94364383459E+02  0.00000000000E+00 0. -1.
</event>
<event>
 6    1  0.1538147E-010  0.1189102E+03  0.7561462E-02  0.1244906E+00
         -1   -1    0    0    0  501 -0.00000000000E+00  0.00000000000E+00  0.19403082637E+03  0.19403082637E+03  0.00000000000E+00 0.  1.
          1   -1    0    0  501    0  0.00000000000E+00 -0.00000000000E+00 -0.10305731789E+03  0.10305731789E+03  0.00000000000E+00 0. -1.
          5    1    1    2  502    0 -0.52321741406E+02 -0.58640721195E+02  0.31653406729E+01  0.78764145318E+02  0.41800000000E+01 0. -1.
         -5    1    1    2    0  502 -0.21901407541E+01  0.52673276311E+02 -0.29021059712E+02  0.60323834930E+02  0.41800000000E+01 0. -1.
        -11    1    1    2    0    0  0.79947480373E+02 -0.66251148092E+00  0.91297914482E+02  0.12135628426E+03  0.00000000000E+00 0.  1.
         11    1    1    2    0    0 -0.25435598213E+02  0.66299563657E+01  0.25531313046E+02  0.36643879758E+02  0.00000000000E+00 0. -1.
</event>
<event>
 7    1  0.1538147E-010  0.1103180E+03  0.7561462E-02  0.1259982E+00
         -2   -1    0    0    0  501 -0.00000000000E+00  0.00000000000E+00  0.19405051825E+02  0.19405051825E+02  0.00000000000E+00 0.  1.
          2   -1    0    0  501    0  0.00000000000E+00 -0.00000000000E+00 -0.11652668974E+04  0.11652668974E+04  0.00000000000E+00 0. -1.
         25    2    1    2    0    0 -0.36513576393E+02  0.37627035117E+02 -0.96816588274E+03  0.97762615237E+03  0.12513465649E+03 0.  0.
          5    1    3    3  502    0 -0.71532434654E+02  0.50896026788E+02 -0.82184476146E+03  0.82653105150E+03  0.41800000000E+01 0.  1.
         -5    1    3    3    0  502  0.35018858260E+02 -0.13268991671E+02 -0.14632112128E+03  0.15109510087E+03  0.41800000000E+01 0.  1.
        -11    1    1    2    0    0 -0.13609609625E+02  0.16437063781E+02 -0.89914801674E+02  0.92412499695E+02  0.00000000000E+00 0. -1.
         11    1    1    2    0    0  0.50123186019E+02 -0.54064098898E+02 -0.87781161207E+02  0.11463329721E+03  0.00000000000E+00 0.  1.
</event>
<event>
 7    1  0.1538147E-010  0.9353029E+02  0.7561462E-02  0.1294521E+00
         -2   -1    0    0    0  501 -0.00000000000E+00  0.00000000000E+00  0.24577480300E+03  0.24577480300E+03  0.00000000000E+00 0.  1.
          2   -1    0    0  501    0  0.00000000000E+00 -0.00000000000E+00 -0.47519439343E+02  0.47519439343E+02  0.00000000000E+00 0. -1.
         25    2    1    2    0    0  0.58536508109E+01  0.85190882828E+01  0.11549266520E+03  0.17053305048E+03  0.12504449408E+03 0.  0.
          5    1    3    3  502    0  0.15255372572E+02  0.55221187633E+02  0.10772674165E+03  0.12208451671E+03  0.41800000000E+01 0. -1.
         -5    1    3    3    0  502 -0.94017217615E+01 -0.46702099350E+02  0.77659235501E+01  0.48448533769E+02  0.41800000000E+01 0. -1.
        -11    1    1    2    0    0 -0.37511312082E+02 -0.25992591680E+02  0.71618539980E+02  0.84923074751E+02  0.00000000000E+00 0.  1.
         11    1    1    2    0    0  0.31657661271E+02  0.17473503397E+02  0.11144158485E+02  0.37838117110E+02  0.00000000000E+00 0. -1.
</event>
<event>
 7    1  0.1538147E-010  0.3031330E+03  0.7561462E-02  0.1083685E+00
         -1   -1    0    0    0  501 -0.00000000000E+00  0.00000000000E+00  0.16030851038E+03  0.16030851038E+03  0.00000000000E+00 0.  1.
          1   -1    0    0  501    0  0.00000000000E+00 -0.00000000000E+00 -0.62343844700E+03  0.62343844700E+03  0.00000000000E+00 0. -1.
         25    2    1    2    0    0 -0.20510605268E+03  0.20967849998E+03 -0.18077911495E+03  0.36656937963E+03  0.12513375038E+03 0.  0.
          5    1    3    3  502    0  0.11613257725E+02  0.22906375155E+02 -0.39915558979E+02  0.47647602525E+02  0.41800000000E+01 0.  1.
         -5    1    3    3    0  502 -0.21671931041E+03  0.18677212482E+03 -0.14086355597E+03  0.31892177711E+03  0.41800000000E+01 0.  1.
        -11    1    1    2    0    0  0.59828333636E+02 -0.75753426114E+02 -0.15336153125E+03  0.18121194867E+03  0.00000000000E+00 0.  1.
         11    1    1    2    0    0  0.14527771904E+03 -0.13392507387E+03 -0.12898929042E+03  0.23596562907E+03  0.00000000000E+00 0. -1.
</event>
<event>
 6    1  0.1538147E-010  0.1252360E+03  0.7561462E-02  0.1234701E+00
         -2   -1    0    0    0  501 -0.00000000000E+00  0.00000000000E+00  0.41247780586E+02  0.41247780586E+02  0.00000000000E+00 0.  1.
          2   -1    0    0  501    0  0.00000000000E+00 -0.00000000000E+00 -0.66275997611E+03  0.66275997611E+03  0.00000000000E+00 0. -1.
          5    1    1    2  502    0 -0.25933231069E+02 -0.94293403691E+02 -0.27703650143E+03  0.29382047917E+03  0.41800000000E+01 0.  1.
         -5    1    1    2    0  502 -0.46668154051E+02  0.33711250126E+02 -0.21613585907E+03  0.22371085571E+03  0.41800000000E+01 0.  1.
        -11    1    1    2    0    0  0.44911725002E+02  0.32572477364E+02 -0.35217125207E+01  0.55591652101E+02  0.00000000000E+00 0.  1.
         11    1    1    2    0    0  0.27689660118E+02  0.28009676201E+02 -0.12481812251E+03  0.13088476972E+03  0.00000000000E+00 0. -1.
</event>
<event>
 7    1  0.1538147E-010  0.1193653E+03  0.7561462E-02  0.1244148E+00
         -4   -1    0    0    0  501 -0.00000000000E+00  0.00000000000E+00  0.22740345866E+03  0.22740345866E+03  0.00000000000E+00 0.  1.
          4   -1    0    0  501    0  0.00000000000E+00 -0.00000000000E+00 -0.73823013016E+02  0.73823013016E+02  0.00000000000E+00 0. -1.
         25    2    1    2    0    0  0.53192718715E+02  0.17533566333E+02  0.32994663772E+02  0.14099561562E+03  0.12511684344E+03 0.  0.
          5    1    3    3  502    0  0.92467612978E+02  0.12202935800E+02  0.74557315539E+01  0.93660191250E+02  0.41800000000E+01 0. -1.
         -5    1    3    3    0  502 -0.39274894263E+02  0.53306305325E+01  0.25538932218E+02  0.47335424367E+02  0.41800000000E+01 0. -1.
        -11    1    1    2    0    0 -0.44350802113E+02  0.32322213926E+02  0.62599751695E+02  0.83249312750E+02  0.00000000000E+00 0. -1.
         11    1    1    2    0    0 -0.88419166028E+01 -0.49855780259E+02  0.57986030182E+02  0.76981543312E+02  0.00000000000E+00 0.  1.
</event>
<event>
 7    1  0.1538147E-010  0.1058877E+03  0.7561462E-02  0.1268380E+00
         -1   -1    0    0    0  501 -0.00000000000E+00  0.00000000000E+00  0.11789037164E+03  0.11789037164E+03  0.00000000000E+00 0.  1.
          1   -1    0    0  501    0  0.00000000000E+00 -0.00000000000E+00 -0.37115963726E+03  0.37115963726E+03  0.00000000000E+00 0. -1.
         25    2    1    2    0    0  0.36510897769E+02  0.58928858399E+02 -0.32408682749E+03  0.35425430187E+03  0.12513266015E+03 0.  0.
          5    1    3    3  502    0 -0.21533941399E+02 -0.15496799557E+02 -0.14394931234E+02  0.30472083518E+02  0.41800000000E+01 0. -1.
         -5    1    3    3    0  502  0.58044839168E+02  0.74425657957E+02 -0.30969189626E+03  0.32378221835E+03  0.41800000000E+01 0. -1.
        -11    1    1    2    0    0  0.11542058000E+02  0.31242071210E+01 -0.14550162717E+02  0.18833135907E+02  0.00000000000E+00 0. -1.
         11    1    1    2    0    0 -0.48052955769E+02 -0.62053065520E+02  0.85367724595E+02  0.11596257112E+03  0.00000000000E+00 0.  1.
</event>
<event>
 7    1  0.1538147E-010  0.1270390E+03  0.7561462E-02  0.1231917E+00
          1   -1    0    0  501    0  0.00000000000E+00  0.00000000000E+00  0.64471463701E+03  0.64471463701E+03  0.00000000000E+00 0. -1.
         -1   -1    0    0    0  501 -0.00000000000E+00 -0.00000000000E+00 -0.35616976314E+02  0.35616976314E+02  0.00000000000E+00 0.  1.
         25    2    1    2    0    0  0.96004744774E+01 -0.97581697202E+02  0.40895701155E+03  0.43874712335E+03  0.12505536459E+03 0.  0.
          5    1    3    3  502    0 -0.30988816194E+02 -0.59072734900E+01  0.24104311462E+03  0.24313465017E+03  0.41800000000E+01 0.  1.
         -5    1    3    3    0  502  0.40589290672E+02 -0.91674423712E+02  0.16791389693E+03  0.19561247318E+03  0.41800000000E+01 0.  1.
        -11    1    1    2    0    0 -0.29260911852E+02  0.97969559771E+02  0.11359702413E+03  0.15283494200E+03  0.00000000000E+00 0.  1.
         11    1    1    2    0    0  0.19660437375E+02 -0.38786256899E+00  0.86543625017E+02  0.88749547977E+02  0.00000000000E+00 0. -1.
</event>
<event>
 7    1  0.1538147E-010  0.4983142E+02  0.7561462E-02  0.1446253E+00
         -1   -1    0    0    0  501 -0.00000000000E+00  0.00000000000E+00  0.35225563474E+03  0.35225563474E+03  0.00000000000E+00 0.  1.
          1   -1    0    0  501    0  0.00000000000E+00 -0.00000000000E+00 -0.29335301549E+02  0.29335301549E+02  0.00000000000E+00 0. -1.
         25    2    1    2    0    0  0.19333088438E+01 -0.23573328500E+02  0.20074684863E+03  0.23769836763E+03  0.12506709095E+03 0.  0.
          5    1    3    3  502    0  0.19162605893E+01 -0.14128338223E+02  0.21750557229E+03  0.21801245005E+03  0.41800000000E+01 0. -1.
         -5    1    3    3    0  502  0.17048254524E-01 -0.94449902769E+01 -0.16758723669E+02  0.19685917581E+02  0.41800000000E+01 0. -1.
        -11    1    1    2    0    0  0.32954980326E+02  0.10938089959E+01  0.40047065128E+02  0.51874797077E+02  0.00000000000E+00 0. -1.
         11    1    1    2    0    0 -0.34888289170E+02  0.22479519504E+02  0.82126419442E+02  0.92017771591E+02  0.00000000000E+00 0.  1.
</event>
<event>
 6    1  0.1538147E-010  0.1192613E+03  0.7561462E-02  0.1244321E+00
          2   -1    0    0  501    0  0.00000000000E+00  0.00000000000E+00  0.92961040290E+03  0.92961040290E+03  0.00000000000E+00 0. -1.
         -2   -1    0    0    0  501 -0.00000000000E+00 -0.00000000000E+00 -0.16825335350E+02  0.16825335350E+02  0.00000000000E+00 0.  1.
          5    1    1    2  502    0 -0.86080037802E+02 -0.42222940325E+02  0.44269933221E+03  0.45298203136E+03  0.41800000000E+01 0. -1.
         -5    1    1    2    0  502  0.36026964526E+02  0.11286534404E+02  0.98305717253E+02  0.10538887264E+03  0.41800000000E+01 0. -1.
        -11    1    1    2    0    0  0.64072397561E+02 -0.66856741710E+01  0.28859532778E+03  0.29569787551E+03  0.00000000000E+00 0.  1.
         11    1    1    2    0    0 -0.14019324285E+02  0.37622080092E+02  0.83184690318E+02  0.92366958742E+02  0.00000000000E+00 0. -1.
</event>
<event>
 7    1  0.1538147E-010  0.1121902E+03  0.7561462E-02  0.1256567E+00
          3   -1    0    0  501    0  0.00000000000E+00  0.00000000000E+00  0.34747295838E+03  0.34747295838E+03  0.00000000000E+00 0. -1.
         -3   -1    0    0    0  501 -0.00000000000E+00 -0.00000000000E+00 -0.39998072775E+02  0.39998072775E+02  0.00000000000E+00 0.  1.
         25    2    1    2    0    0 -0.39247035393E+02  0.17799235820E+02  0.17844737900E+03  0.22215878334E+03  0.12511560798E+03 0.  0.
          5    1    3    3  502    0 -0.26018391017E+02  0.66811167426E+02  0.61328030948E+02  0.94441985070E+02  0.41800000000E+01 0.  1.
         -5    1    3    3    0  502 -0.13228644376E+02 -0.49011931607E+02  0.11711934805E+03  0.12771679827E+03  0.41800000000E+01 0.  1.
        -11    1    1    2    0    0  0.67465379290E+02  0.14208388650E+01  0.99200696743E+02  0.11997655779E+03  0.00000000000E+00 0.  1.
         11    1    1    2    0    0 -0.28218343897E+02 -0.19220074684E+02  0.29826809860E+02  0.45335690020E+02  0.00000000000E+00 0. -1.
</event>
<event>
 6    1  0.1538147E-010  0.1572554E+03  0.7561462E-02  0.1191831E+00
         -3   -1    0    0    0  501 -0.00000000000E+00  0.00000000000E+00  0.25464795503E+03  0.25464795503E+03  0.00000000000E+00 0.  1.
          3   -1    0    0  501    0  0.00000000000E+00 -0.00000000000E+00 -0.22315044538E+03  0.22315044538E+03  0.00000000000E+00 0. -1.
          5    1    1    2  502    0 -0.13078580566E+03 -0.61343307594E+01  0.99830062899E+02  0.16469994182E+03  0.41800000000E+01 0. -1.
         -5    1    1    2    0  502  0.72465665129E+01  0.36159059639E+02  0.85694807690E+02  0.93386630656E+02  0.41800000000E+01 0. -1.
        -11    1    1    2    0    0  0.50363371833E+02 -0.49563058272E+02 -0.35564284950E+02  0.79106158620E+02  0.00000000000E+00 0.  1.
         11    1    1    2    0    0  0.73175867317E+02  0.19538329392E+02 -0.11846307598E+03  0.14060566932E+03  0.00000000000E+00 0. -1.
</event>
<event>
 7    1  0.1538147E-010  0.1701979E+03  0.7561462E-02  0.1177642E+00
          2   -1    0    0  501    0  0.00000000000E+00  0.00000000000E+00  0.89306260977E+03  0.89306260977E+03  0.00000000000E+00 0.  1.
         -2   -1    0    0    0  501 -0.00000000000E+00 -0.00000000000E+00 -0.37817784543E+02  0.37817784543E+02  0.00000000000E+00 0. -1.
         25    2    1    2    0    0 -0.12042548849E+03  0.73563478469E+02  0.33655892354E+03  0.38579939268E+03  0.12512145594E+03 0.  0.
          5    1    3    3  502    0 -0.13991650930E+03  0.61068486676E+02  0.22598423508E+03  0.27274958578E+03  0.41800000000E+01 0. -1.
         -5    1    3    3    0  502  0.19491020808E+02  0.12494991793E+02  0.11057468846E+03  0.11304980690E+03  0.41800000000E+01 0. -1.
        -11    1    1    2    0    0  0.98308229775E+02 -0.12372689941E+02  0.36453524224E+03  0.37776121338E+03  0.00000000000E+00 0.  1.
         11    1    1    2    0    0  0.22117258714E+02 -0.61190788528E+02  0.15415065944E+03  0.16731978825E+03  0.00000000000E+00 0. -1.
</event>
<event>
 7    1  0.1538147E-010  0.1283774E+03  0.7561462E-02  0.1229883E+00
         -1   -1    0    0    0  501 -0.00000000000E+00  0.00000000000E+00  0.66782559717E+03  0.66782559717E+03  0.00000000000E+00 0.  1.
          1   -1    0    0  501    0  0.00000000000E+00 -0.00000000000E+00 -0.59412789201E+02  0.59412789201E+02  0.00000000000E+00 0. -1.
         25    2    1    2    0    0  0.52249294439E+02 -0.60532259448E+02  0.58370089419E+03  0.60228019367E+03  0.12506220296E+03 0.  0.
          5    1    3    3  502    0  0.67349653902E+02  0.14948247575E+02  0.22440906300E+03  0.23481125600E+03  0.41800000000E+01 0. -1.
         -5    1    3    3    0  502 -0.15100359463E+02 -0.75480507023E+02  0.35929183119E+03  0.36746893767E+03  0.41800000000E+01 0. -1.
        -11    1    1    2    0    0  0.14257703957E+02 -0.68991420422E+01 -0.15410678975E+02  0.22099079382E+02  0.00000000000E+00 0. -1.
         11    1    1    2    0    0 -0.66506998396E+02  0.67431401490E+02  0.40122592751E+02  0.10285911331E+03  0.00000000000E+00 0.  1.
</event>
<event>
 7    1  0.1538147E-010  0.1188445E+03  0.7561462E-02  0.1245015E+00
         -1   -1    0    0    0  501 -0.00000000000E+00  0.00000000000E+00  0.28571405771E+02  0.28571405771E+02  0.00000000000E+00 0.  1.
          1   -1    0    0  501    0  0.00000000000E+00 -0.00000000000E+00 -0.67532758223E+03  0.67532758223E+03  0.00000000000E+00 0. -1.
         25    2    1    2    0    0  0.51841727069E+02  0.51226396409E+02 -0.23333372991E+03  0.27457032982E+03  0.12503010897E+03 0.  0.
          5    1    3    3  502    0  0.54048475973E+02 -0.25851917252E+02 -0.60397499567E+02  0.85175640500E+02  0.41800000000E+01 0. -1.
         -5    1    3    3    0  502 -0.22067489040E+01  0.77078313661E+02 -0.17293623034E+03  0.18939468932E+03  0.41800000000E+01 0. -1.
        -11    1    1    2    0    0 -0.14272797318E+02  0.17197104413E+02 -0.26755662531E+02  0.34861420237E+02  0.00000000000E+00 0.  1.
         11    1    1    2    0    0 -0.37568929751E+02 -0.68423500822E+02 -0.38666678402E+03  0.39446723795E+03  0.00000000000E+00 0. -1.
</event>
<event>
 6    1  0.1538147E-010  0.1031616E+03  0.7561462E-02  0.1273785E+00
          2   -1    0    0  501    0  0.00000000000E+00  0.00000000000E+00  0.67569830679E+03  0.67569830679E+03  0.00000000000E+00 0.  1.
         -2   -1    0    0    0  501 -0.00000000000E+00 -0.00000000000E+00 -0.24013707937E+02  0.24013707937E+02  0.00000000000E+00 0. -1.
          5    1    1    2  502    0  0.63592011410E+02 -0.11330255190E+02  0.22526915187E+03  0.23438426095E+03  0.41800000000E+01 0. -1.
         -5    1    1    2    0  502 -0.59885377386E+02 -0.14262818629E+02  0.30956148656E+03  0.31565087166E+03  0.41800000000E+01 0. -1.
        -11    1    1    2    0    0 -0.44236653067E+01 -0.26967008319E+02  0.74885079144E+01  0.28334891975E+02  0.00000000000E+00 0. -1.
         11    1    1    2    0    0  0.71703128341E+00  0.52560082139E+02  0.10936545250E+03  0.12134199013E+03  0.00000000000E+00 0.  1.
</event>
<event>
 7    1  0.1538147E-010  0.1235474E+03  0.7561462E-02  0.1237357E+00
         -1   -1    0    0    0  501 -0.00000000000E+00  0.00000000000E+00  0.21499281284E+02  0.21499281284E+02  0.00000000000E+00 0. -1.
          1   -1    0    0  501    0  0.00000000000E+00 -0.00000000000E+00 -0.93829108440E+03  0.93829108440E+03  0.00000000000E+00 0.  1.
         25    2    1    2    0    0 -0.72925795595E+02  0.39083052101E+01 -0.67457617591E+03  0.68994469635E+03  0.12504887208E+03 0.  0.
          5    1    3    3  502    0 -0.10470038040E+03 -0.14887223886E+02 -0.54328542426E+03  0.55349825989E+03  0.41800000000E+01 0.  1.
         -5    1    3    3    0  502  0.31774584809E+02  0.18795529096E+02 -0.13129075165E+03  0.13644643646E+03  0.41800000000E+01 0.  1.
        -11    1    1    2    0    0  0.39143050789E+02  0.35048232860E+02 -0.18723939150E+03  0.19447145492E+03  0.00000000000E+00 0.  1.
         11    1    1    2    0    0  0.33782744806E+02 -0.38956538070E+02 -0.54976235715E+02  0.75374214413E+02  0.00000000000E+00 0. -1.
</event>
<event>
 6    1  0.1538147E-010  0.1235820E+03  0.7561462E-02  0.1237302E+00
         -2   -1    0    0    0  501 -0.00000000000E+00  0.00000000000E+00  0.43697449472E+03  0.43697449472E+03  0.00000000000E+00 0. -1.
          2   -1    0    0  501    0  0.00000000000E+00 -0.00000000000E+00 -0.47619957250E+02  0.47619957250E+02  0.00000000000E+00 0.  1.
          5    1    1    2  502    0  0.55927606714E+02  0.47740010917E+02  0.12600922945E+03  0.14595480170E+03  0.41800000000E+01 0. -1.
         -5    1    1    2    0  502  0.36850175808E+02 -0.64294624904E+02  0.49909072590E+02  0.89443402079E+02  0.41800000000E+01 0. -1.
        -11    1    1    2    0    0 -0.45919450174E+02 -0.76437365305E+01  0.23641230790E+02  0.52210443454E+02  0.00000000000E+00 0. -1.
         11    1    1    2    0    0 -0.46858332348E+02  0.24198350518E+02  0.18979500464E+03  0.19698580473E+03  0.00000000000E+00 0.  1.
</event>
<event>
 6    1  0.1538147E-010  0.1040824E+03  0.7561462E-02  0.1271938E+00
         -1   -1    0    0    0  501 -0.00000000000E+00  0.00000000000E+00  0.47977410381E+02  0.47977410381E+02  0.00000000000E+00 0.  1.
          1   -1    0    0  501    0  0.00000000000E+00 -0.00000000000E+00 -0.34303008904E+03  0.34303008904E+03  0.00000000000E+00 0. -1.
          5    1    1    2  502    0  0.26011720834E+02 -0.15040568003E+02  0.21728016649E+01  0.30414170606E+02  0.41800000000E+01 0.  1.
         -5    1    1    2    0  502 -0.95289473511E+01  0.59535642714E+02 -0.19555535705E+03  0.20468185963E+03  0.41800000000E+01 0.  1.
        -11    1    1    2    0    0 -0.76725910654E+01  0.35800117495E+02 -0.40429046162E+02  0.54543788280E+02  0.00000000000E+00 0. -1.
         11    1    1    2    0    0 -0.88101824176E+01 -0.80295192207E+02 -0.61241077109E+02  0.10136768090E+03  0.00000000000E+00 0.  1.
</event>
<event>
 7    1  0.1538147E-010  0.1091796E+03  0.7561462E-02  0.1262097E+00
         -2   -1    0    0    0  501 -0.00000000000E+00  0.00000000000E+00  0.12561067734E+03  0.12561067734E+03  0.00000000000E+00 0.  1.
          2   -1    0    0  501    0  0.00000000000E+00 -0.00000000000E+00 -0.14900327728E+03  0.14900327728E+03  0.00000000000E+00 0. -1.
         25    2    1    2    0    0  0.24774399194E+02  0.78732695263E+02  0.68823115615E+01  0.14998659392E+03  0.12504400819E+03 0.  0.
          5    1    3    3  502    0 -0.46051229366E+01 -0.11402263840E+02  0.45662662267E+02  0.47473886540E+02  0.41800000000E+01 0.  1.
         -5    1    3    3    0  502  0.29379522130E+02  0.90134959103E+02 -0.38780350705E+02  0.10251270738E+03  0.41800000000E+01 0.  1.
        -11    1    1    2    0    0 -0.13709842642E+02  0.12513587903E+02  0.13370843182E+02  0.22876387715E+02  0.00000000000E+00 0.  1.
         11    1    1    2    0    0 -0.11064556552E+02 -0.91246283166E+02 -0.43645754682E+02  0.10175097299E+03  0.00000000000E+00 0. -1.
</event>
<event>
 7    1  0.1538147E-010  0.1227636E+03  0.7561462E-02  0.1238606E+00
          1   -1    0    0  501    0  0.00000000000E+00  0.00000000000E+00  0.40266665903E+03  0.40266665903E+03  0.00000000000E+00 0. -1.
         -1   -1    0    0    0  501 -0.00000000000E+00 -0.00000000000E+00 -0.47301934318E+02  0.47301934318E+02  0.00000000000E+00 0.  1.
         25    2    1    2    0    0 -0.77323685980E+02  0.29188834137E+02  0.15944534759E+03  0.21884734491E+03  0.12506158904E+03 0.  0.
          5    1    3    3  502    0 -0.48856658650E+02 -0.46046834719E+02  0.90886872911E+02  0.11307157092E+03  0.41800000000E+01 0. -1.
         -5    1    3    3    0  502 -0.28467027330E+02  0.75235668856E+02  0.68558474680E+02  0.10577577399E+03  0.41800000000E+01 0. -1.
        -11    1    1    2    0    0  0.49054563446E+01 -0.24669024665E+02  0.33981850779E+01  0.25380542581E+02  0.00000000000E+00 0.  1.
         11    1    1    2    0    0  0.72418229635E+02 -0.45198094725E+01  0.19252119204E+03  0.20574070586E+03  0.00000000000E+00 0. -1.
</event>
<event>
 6    1  0.1538147E-010  0.1395249E+03  0.7561462E-02  0.1213970E+00
         -1   -1    0    0    0  501 -0.00000000000E+00  0.00000000000E+00  0.46146278302E+02  0.46146278302E+02  0.00000000000E+00 0.  1.
          1   -1    0    0  501    0  0.00000000000E+00 -0.00000000000E+00 -0.52989386546E+03  0.52989386546E+03  0.00000000000E+00 0. -1.
          5    1    1    2  502    0  0.59228086660E+02 -0.56893594699E+01 -0.10299043028E+03  0.11901611735E+03  0.41800000000E+01 0. -1.
         -5    1    1    2    0  502 -0.12158367884E+02  0.10593746106E+03 -0.19348062217E+03  0.22095880865E+03  0.41800000000E+01 0. -1.
        -11    1    1    2    0    0 -0.20658629846E+02 -0.22355063296E+02  0.11597184874E+01  0.30461004399E+02  0.00000000000E+00 0.  1.
         11    1    1    2    0    0 -0.26411088931E+02 -0.77893038291E+02 -0.18843625320E+03  0.20560421336E+03  0.00000000000E+00 0. -1.
</event>
<event>
 6    1  0.1538147E-010  0.7040556E+02  0.7561462E-02  0.1358719E+00
          2   -1    0    0  501    0  0.00000000000E+00  0.00000000000E+00  0.11400488461E+04  0.11400488461E+04  0.00000000000E+00 0.  1.
         -2   -1    0    0    0  501 -0.00000000000E+00 -0.00000000000E+00 -0.12423710732E+02  0.12423710732E+02  0.00000000000E+00 0. -1.
          5    1    1    2  502    0  0.21616434336E+02  0.21906381612E+02  0.84812053161E+03  0.84868902923E+03  0.41800000000E+01 0.  1.
         -5    1    1    2    0  502 -0.15014858330E+02 -0.71269754968E+01  0.12687559788E+02  0.21323375056E+02  0.41800000000E+01 0.  1.
        -11    1    1    2    0    0  0.37954522202E+02 -0.26803227089E+02  0.13975156687E+03  0.14727341640E+03  0.00000000000E+00 0. -1.
         11    1    1    2    0    0 -0.44556098208E+02  0.12023820974E+02  0.12706547711E+03  0.13518673615E+03  0.00000000000E+00 0.  1.
</event>
<event>
 6    1  0.1538147E-010  0.2445176E+03  0.7561462E-02  0.1116819E+00
          1   -1    0    0  501    0  0.00000000000E+00  0.00000000000E+00  0.37454636500E+03  0.37454636500E+03  0.00000000000E+00 0. -1.
         -1   -1    0    0    0  501 -0.00000000000E+00 -0.00000000000E+00 -0.17738602334E+03  0.17738602334E+03  0.00000000000E+00 0.  1.
          5    1    1    2  502    0  0.28885471110E+02  0.15666428253E+02  0.61489727913E+02  0.69844587867E+02  0.41800000000E+01 0. -1.
         -5    1    1    2    0  502  0.76125600330E+02  0.19230255249E+03  0.24264979184E+02  0.20828259729E+03  0.41800000000E+01 0. -1.
        -11    1    1    2    0    0 -0.29589481583E+02 -0.15270225014E+03  0.81717042661E+02  0.17570199111E+03  0.00000000000E+00 0.  1.
         11    1    1    2    0    0 -0.75421589858E+02 -0.55266730601E+02  0.29688591899E+02  0.98103212062E+02  0.00000000000E+00 0. -1.
</event>
<event>
 6    1  0.1538147E-010  0.4807370E+02  0.7561462E-02  0.1456017E+00
         -2   -1    0    0    0  501 -0.00000000000E+00  0.00000000000E+00  0.49025318948E+02  0.49025318948E+02  0.00000000000E+00 0.  1.
          2   -1    0    0  501    0  0.00000000000E+00 -0.00000000000E+00 -0.23958025246E+03  0.23958025246E+03  0.00000000000E+00 0. -1.
          5    1    1    2  502    0  0.68398375465E+01  0.17298081120E+02 -0.14156761955E+03  0.14284561699E+03  0.41800000000E+01 0. -1.
         -5    1    1    2    0  502 -0.97638771375E+01 -0.13900408817E+02  0.23370092024E+02  0.29192263757E+02  0.41800000000E+01 0. -1.
        -11    1    1    2    0    0  0.38774006639E+01  0.27954422194E+02 -0.79532116285E+02  0.84391003530E+02  0.00000000000E+00 0. -1.
         11    1    1    2    0    0 -0.95336107296E+00 -0.31352094496E+02  0.71747103020E+01  0.32176687128E+02  0.00000000000E+00 0.  1.
</event>
<event>
 7    1  0.1538147E-010  0.8803548E+02  0.7561462E-02  0.1307680E+00
          1   -1    0    0  501    0  0.00000000000E+00  0.00000000000E+00  0.10069482391E+04  0.10069482391E+04  0.00000000000E+00 0. -1.
         -1   -1    0    0    0  501 -0.00000000000E+00 -0.00000000000E+00 -0.97785291691E+01  0.97785291691E+01  0.00000000000E+00 0.  1.
         25    2    1    2    0    0 -0.14912015077E+02 -0.14122692845E+02  0.63212923349E+03  0.64470561089E+03  0.12504454501E+03 0.  0.
          5    1    3    3  502    0 -0.59079334426E+02 -0.33066878278E+01  0.16480261729E+03  0.17515329573E+03  0.41800000000E+01 0. -1.
         -5    1    3    3    0  502  0.44167319349E+02 -0.10816005017E+02  0.46732661620E+03  0.46955231516E+03  0.41800000000E+01 0. -1.
        -11    1    1    2    0    0  0.39670662454E+02 -0.47528823889E+01  0.18011476177E+03  0.18449303173E+03  0.00000000000E+00 0. -1.
         11    1    1    2    0    0 -0.24758647377E+02  0.18875575234E+02  0.18492571464E+03  0.18752812561E+03  0.00000000000E+00 0.  1.
</event>
<event>
 7    1  0.1538147E-010  0.1052509E+03  0.7561462E-02  0.1269626E+00
          2   -1    0    0  501    0  0.00000000000E+00  0.00000000000E+00  0.12393837507E+04  0.12393837507E+04  0.00000000000E+00 0. -1.
         -2   -1    0    0    0  501 -0.00000000000E+00 -0.00000000000E+00 -0.12887945966E+02  0.12887945966E+02  0.00000000000E+00 0.  1.
         25    2    1    2    0    0 -0.55898897538E+02 -0.73110755522E+02  0.76966757725E+03  0.78517495191E+03  0.12506660755E+03 0.  0.
          5    1    3    3  502    0  0.14876072402E+02 -0.87836142348E+01  0.47529600394E+03  0.47562823000E+03  0.41800000000E+01 0. -1.
         -5    1    3    3    0  502 -0.70774969941E+02 -0.64327141287E+02  0.29437157331E+03  0.30954672191E+03  0.41800000000E+01 0. -1.
        -11    1    1    2    0    0  0.17180951661E+02  0.47659872426E+02  0.21721444783E+03  0.22304431149E+03  0.00000000000E+00 0. -1.
         11    1    1    2    0    0  0.38717945877E+02  0.25450883096E+02  0.23961377968E+03  0.24405243329E+03  0.00000000000E+00 0.  1.
</event>
<event>
 7    1  0.1538147E-010  0.9228397E+02  0.7561462E-02  0.1297413E+00
         -2   -1    0    0    0  501 -0.00000000000E+00  0.00000000000E+00  0.10624478791E+03  0.10624478791E+03  0.00000000000E+00 0.  1.
          2   -1    0    0  501    0  0.00000000000E+00 -0.00000000000E+00 -0.12645852267E+03  0.12645852267E+03  0.00000000000E+00 0. -1.
         25    2    1    2    0    0 -0.21532386486E+02 -0.36539868538E+02 -0.21454264660E+01  0.13206653045E+03  0.12505262872E+03 0.  0.
          5    1    3    3  502    0  0.33356444081E+02 -0.62451250166E+02  0.31566674409E+01  0.70994703735E+02  0.41800000000E+01 0. -1.
         -5    1    3    3    0  502 -0.54888830567E+02  0.25911381628E+02 -0.53020939069E+01  0.61071826718E+02  0.41800000000E+01 0. -1.
        -11    1    1    2    0    0  0.14569296208E+02 -0.10175444633E+01 -0.49223779002E+02  0.51344719378E+02  0.00000000000E+00 0. -1.
         11    1    1    2    0    0  0.69630902780E+01  0.37557413001E+02  0.31155470716E+02  0.49292060751E+02  0.00000000000E+00 0.  1.
</event>
<event>
 7    1  0.1538147E-010  0.8135760E+02  0.7561462E-02  0.1325242E+00
         -2   -1    0    0    0  501 -0.00000000000E+00  0.00000000000E+00  0.28004065696E+02  0.28004065696E+02  0.00000000000E+00 0.  1.
          2   -1    0    0  501    0  0.00000000000E+00 -0.00000000000E+00 -0.35938792242E+03  0.35938792242E+03  0.00000000000E+00 0. -1.
         25    2    1    2    0    0  0.46255143864E+01 -0.53483985799E+01 -0.24783993472E+03  0.27769685867E+03  0.12506362909E+03 0.  0.
          5    1    3    3  502    0 -0.43367727314E+01  0.42532879651E+02 -0.25309547362E+02  0.49858790968E+02  0.41800000000E+01 0.  1.
         -5    1    3    3    0  502  0.89622871177E+01 -0.47881278231E+02 -0.22253038736E+03  0.22783806770E+03  0.41800000000E+01 0.  1.
        -11    1    1    2    0    0 -0.35738734948E+02  0.14295804533E+02 -0.41046203001E+02  0.56270933737E+02  0.00000000000E+00 0. -1.
         11    1    1    2    0    0  0.31113220561E+02 -0.89474059528E+01 -0.42497719004E+02  0.53424195712E+02  0.00000000000E+00 0.  1.
</event>
<event>
 7    1  0.1538147E-010  0.8102476E+02  0.7561462E-02  0.1326168E+00
         -1   -1    0    0    0  501 -0.00000000000E+00  0.00000000000E+00  0.24325423789E+03  0.24325423789E+03  0.00000000000E+00 0.  1.
          1   -1    0    0  501    0  0.00000000000E+00 -0.00000000000E+00 -0.52785019636E+02  0.52785019636E+02  0.00000000000E+00 0. -1.
         25    2    1    2    0    0 -0.16459058300E+02 -0.84690423366E+01  0.72617362888E+02  0.14587011401E+03  0.12514864558E+03 0.  0.
          5    1    3    3  502    0  0.14178468202E+02 -0.30930873914E+02 -0.24080282947E+02  0.41893679099E+02  0.41800000000E+01 0. -1.
         -5    1    3    3    0  502 -0.30637526501E+02  0.22461831578E+02  0.96697645834E+02  0.10397643492E+03  0.41800000000E+01 0. -1.
        -11    1    1    2    0    0  0.50221944730E+02  0.19729423115E+02  0.50066036461E+02  0.73607756900E+02  0.00000000000E+00 0. -1.
         11    1    1    2    0    0 -0.33762886430E+02 -0.11260380779E+02  0.67785818908E+02  0.76561386615E+02  0.00000000000E+00 0.  1.
</event>
<event>
 6    1  0.1538147E-010  0.1075629E+03  0.7561462E-02  0.1265151E+00
         -2   -1    0    0    0  501 -0.00000000000E+00  0.00000000000E+00  0.18907908108E+02  0.18907908108E+02  0.00000000000E+00 0. -1.
          2   -1    0    0  501    0  0.00000000000E+00 -0.00000000000E+00 -0.71398930684E+03  0.71398930684E+03  0.00000000000E+00 0.  1.
          5    1    1    2  502    0 -0.61238149794E+02 -0.33255688393E+02 -0.22537956636E+03  0.23594379232E+03  0.41800000000E+01 0. -1.
         -5    1    1    2    0  502  0.28088758287E+02  0.54504036056E+02 -0.22739281258E+03  0.23555176056E+03  0.41800000000E+01 0. -1.
        -11    1    1    2    0    0  0.17112199380E+02  0.27582650149E+02 -0.34659777380E+02  0.47486104546E+02  0.00000000000E+00 0. -1.
         11    1    1    2    0    0  0.16037192126E+02 -0.48830997811E+02 -0.20764924241E+03  0.21391555753E+03  0.00000000000E+00 0.  1.
</event>
<event>
 7    1  0.1538147E-010  0.1180701E+03  0.7561462E-02  0.1246315E+00
          2   -1    0    0  501    0  0.00000000000E+00  0.00000000000E+00  0.27409888818E+03  0.27409888818E+03  0.00000000000E+00 0. -1.
         -2   -1    0    0    0  501 -0.00000000000E+00 -0.00000000000E+00 -0.54476032945E+02  0.54476032945E+02  0.00000000000E+00 0.  1.
         25    2    1    2    0    0 -0.49076210583E+02  0.25222850334E+02  0.11660104948E+03  0.17967154717E+03  0.12506555679E+03 0.  0.
          5    1    3    3  502    0 -0.47201106106E+02  0.71656745490E+02  0.95527004057E+02  0.12847378914E+03  0.41800000000E+01 0. -1.
         -5    1    3    3    0  502 -0.18751044778E+01 -0.46433895157E+02  0.21074045427E+02  0.51197758026E+02  0.41800000000E+01 0. -1.
        -11    1    1    2    0    0  0.22067699230E+01  0.30602283904E+02  0.13665178338E+02  0.33587299871E+02  0.00000000000E+00 0.  1.
         11    1    1    2    0    0  0.46869440660E+02 -0.55825134237E+02  0.89356627413E+02  0.11531607409E+03  0.00000000000E+00 0. -1.
</event>
<event>
 6    1  0.1538147E-010  0.1387277E+03  0.7561462E-02  0.1215051E+00
          2   -1    0    0  501    0  0.00000000000E+00  0.00000000000E+00  0.30043280137E+03  0.30043280137E+03  0.00000000000E+00 0. -1.
         -2   -1    0    0    0  501 -0.00000000000E+00 -0.00000000000E+00 -0.83616601711E+02  0.83616601711E+02  0.00000000000E+00 0.  1.
          5    1    1    2  502    0 -0.78587182300E+02 -0.20326864141E+02  0.44077478512E+02  0.92463090688E+02  0.41800000000E+01 0. -1.
         -5    1    1    2    0  502  0.44750934268E+02 -0.46264741280E+02  0.30181710279E+02  0.71214327483E+02  0.41800000000E+01 0. -1.
        -11    1    1    2    0    0  0.72300502257E+02  0.56900842482E+02  0.23612094260E+02  0.94987364934E+02  0.00000000000E+00 0.  1.
         11    1    1    2    0    0 -0.38464254225E+02  0.96907629379E+01  0.11894491661E+03  0.12538461997E+03  0.00000000000E+00 0. -1.
</event>
<event>
 7    1  0.1538147E-010  0.2498845E+03  0.7561462E-02  0.1113378E+00
         -2   -1    0    0    0  501 -0.00000000000E+00  0.00000000000E+00  0.55686974585E+02  0.55686974585E+02  0.00000000000E+00 0. -1.
          2   -1    0    0  501    0  0.00000000000E+00 -0.00000000000E+00 -0.11992262550E+04  0.11992262550E+04  0.00000000000E+00 0.  1.
         25    2    1    2    0    0 -0.22860137575E+03 -0.54229284939E+02 -0.67423123076E+03  0.72486369948E+03  0.12506088898E+03 0.  0.
          5    1    3    3  502    0 -0.23889683308E+03 -0.65861456198E+02 -0.60520474577E+03  0.65398752661E+03  0.41800000000E+01 0.  1.
         -5    1    3    3    0  502  0.10295457329E+02  0.11632171259E+02 -0.69026484989E+02  0.70876172863E+02  0.41800000000E+01 0.  1.
        -11    1    1    2    0    0  0.10651166806E+03  0.14774511067E+02 -0.29213079387E+03  0.31129314534E+03  0.00000000000E+00 0.  1.
         11    1    1    2    0    0  0.12208970769E+03  0.39454773871E+02 -0.17717725575E+03  0.21875638473E+03  0.00000000000E+00 0. -1.
</event>
<event>
 6    1  0.1538147E-010  0.1121239E+03  0.7561462E-02  0.1256687E+00
         -2   -1    0    0    0  501 -0.00000000000E+00  0.00000000000E+00  0.35062411660E+03  0.35062411660E+03  0.00000000000E+00 0.  1.
          2   -1    0    0  501    0  0.00000000000E+00 -0.00000000000E+00 -0.40791307713E+02  0.40791307713E+02  0.00000000000E+00 0. -1.
          5    1    1    2  502    0 -0.72114406463E+01  0.46461207358E+02  0.11294974339E+03  0.12241636164E+03  0.41800000000E+01 0.  1.
         -5    1    1    2    0  502 -0.45840881919E+02 -0.68852820524E+02  0.85120815679E+02  0.11876499068E+03  0.41800000000E+01 0.  1.
        -11    1    1    2    0    0 -0.69603956240E+01  0.32611132948E+02  0.16557749569E+02  0.37230258798E+02  0.00000000000E+00 0. -1.
         11    1    1    2    0    0  0.60012718189E+02 -0.10219519782E+02  0.95204500254E+02  0.11300381320E+03  0.00000000000E+00 0.  1.
</event>
<event>
 7    1  0.1538147E-010  0.1390777E+03  0.7561462E-02  0.1214575E+00
          1   -1    0    0  501    0  0.00000000000E+00  0.00000000000E+00  0.89032483145E+03  0.89032483145E+03  0.00000000000E+00 0. -1.
         -1   -1    0    0    0  501 -0.00000000000E+00 -0.00000000000E+00 -0.47835908112E+02  0.47835908112E+02  0.00000000000E+00 0.  1.
         25    2    1    2    0    0  0.84510545544E+02  0.90204258254E+02  0.72263765614E+03  0.74372312948E+03  0.12506026843E+03 0.  0.
          5    1    3    3  502    0 -0.11759068746E+02 -0.94076250774E+01  0.26740132509E+03  0.26785764908E+03  0.41800000000E+01 0. -1.
         -5    1    3    3    0  502  0.96269614290E+02  0.99611883331E+02  0.45523633104E+03  0.47586548040E+03  0.41800000000E+01 0. -1.
        -11    1    1    2    0    0 -0.60775005526E+02 -0.70551628827E+02  0.13180851442E+03  0.16138345052E+03  0.00000000000E+00 0. -1.
         11    1    1    2    0    0 -0.23735540018E+02 -0.19652629427E+02 -0.11957247222E+02  0.33054159563E+02  0.00000000000E+00 0.  1.
</event>
<event>
 7    1  0.1538147E-010  0.1229313E+03  0.7561462E-02  0.1238338E+00
          1   -1    0    0  501    0  0.00000000000E+00  0.00000000000E+00  0.34460340200E+02  0.34460340200E+02  0.00000000000E+00 0. -1.
         -1   -1    0    0    0  501 -0.00000000000E+00 -0.00000000000E+00 -0.48381292460E+03  0.48381292460E+03  0.00000000000E+00 0.  1.
         25    2    1    2    0    0 -0.81505960963E+01  0.55252332732E+01 -0.22574198828E+03  0.25828736732E+03  0.12512377244E+03 0.  0.
          5    1    3    3  502    0  0.52768024089E+02  0.25802884653E+00 -0.15944091567E+03  0.16799824086E+03  0.41800000000E+01 0. -1.
         -5    1    3    3    0  502 -0.60918620185E+02  0.52672044267E+01 -0.66301072609E+02  0.90289126460E+02  0.41800000000E+01 0. -1.
        -11    1    1    2    0    0 -0.55869713122E+02  0.24406637271E+02 -0.87867956021E+02  0.10694805507E+03  0.00000000000E+00 0. -1.
         11    1    1    2    0    0  0.64020309218E+02 -0.29931870545E+02 -0.13574264010E+03  0.15303784240E+03  0.00000000000E+00 0.  1.
</event>
<event>
 7    1  0.1538147E-010  0.1456868E+03  0.7561462E-02  0.1205875E+00
         -2   -1    0    0    0  501 -0.00000000000E+00  0.00000000000E+00  0.12421948177E+03  0.12421948177E+03  0.00000000000E+00 0. -1.
          2   -1    0    0  501    0  0.00000000000E+00 -0.00000000000E+00 -0.28617259975E+03  0.28617259975E+03  0.00000000000E+00 0.  1.
         25    2    1    2    0    0  0.48149727937E+02 -0.12102352199E+03 -0.17235594960E+03  0.24965790065E+03  0.12512955214E+03 0.  0.
          5    1    3    3  502    0  0.27047415750E+02  0.35251290150E+01 -0.10060156416E+03  0.10431747862E+03  0.41800000000E+01 0.  1.
         -5    1    3    3    0  502  0.21102312187E+02 -0.12454865100E+03 -0.71754385436E+02  0.14534042203E+03  0.41800000000E+01 0.  1.
        -11    1    1    2    0    0  0.46392571440E+01  0.42593680532E+02 -0.35497569802E+02  0.55640109543E+02  0.00000000000E+00 0.  1.
         11    1    1    2    0    0 -0.52788985081E+02  0.78429841458E+02  0.45900401424E+02  0.10509407133E+03  0.00000000000E+00 0. -1.
</event>
<event>
 6    1  0.1538147E-010  0.2145397E+03  0.7561462E-02  0.1138021E+00
          4   -1    0    0  501    0  0.00000000000E+00  0.00000000000E+00  0.99711350444E+03  0.99711350444E+03  0.00000000000E+00 0. -1.
         -4   -1    0    0    0  501 -0.00000000000E+00 -0.00000000000E+00 -0.61957963538E+02  0.61957963538E+02  0.00000000000E+00 0.  1.
          5    1    1    2  502    0  0.16725882278E+02  0.25382455251E+02 -0.24575256966E+01  0.30782072787E+02  0.41800000000E+01 0.  1.
         -5    1    1    2    0  502  0.30553795222E+01  0.18568352829E+03  0.33298984026E+03  0.38129701565E+03  0.41800000000E+01 0.  1.
        -11    1    1    2    0    0 -0.12476194130E+02 -0.54759893592E+02  0.29248874137E+03  0.29783210907E+03  0.00000000000E+00 0.  1.
         11    1    1    2    0    0 -0.73050676711E+01 -0.15630608995E+03  0.31213448497E+03  0.34916027047E+03  0.00000000000E+00 0. -1.
</event>
<event>
 7    1  0.1538147E-010  0.1315735E+03  0.7561462E-02  0.1225139E+00
          2   -1    0    0  501    0  0.00000000000E+00  0.00000000000E+00  0.23698040759E+03  0.23698040759E+03  0.00000000000E+00 0. -1.
         -2   -1    0    0    0  501 -0.00000000000E+00 -0.00000000000E+00 -0.76463135384E+02  0.76463135384E+02  0.00000000000E+00 0.  1.
         25    2    1    2    0    0 -0.64438952548E+02  0.43422512356E+02  0.68440074656E+02  0.16240499658E+03  0.12511373190E+03 0.  0.
          5    1    3    3  502    0 -0.23511136061E+02 -0.42492876919E+02  0.39820566420E+02  0.62940988376E+02  0.41800000000E+01 0. -1.
         -5    1    3    3    0  502 -0.40927816486E+02  0.85915389275E+02  0.28619508236E+02  0.99464008206E+02  0.41800000000E+01 0. -1.
        -11    1    1    2    0    0  0.71978032946E+02 -0.64569500734E+02  0.68624692528E+02  0.11857236641E+03  0.00000000000E+00 0. -1.
         11    1    1    2    0    0 -0.75390803981E+01  0.21146988377E+02  0.23452505019E+02  0.32466179978E+02  0.00000000000E+00 0.  1.
</event>
<event>
 7    1  0.1538147E-010  0.1213215E+03  0.7561462E-02  0.1240933E+00
          2   -1    0    0  501    0  0.00000000000E+00  0.00000000000E+00  0.94385856771E+02  0.94385856771E+02  0.00000000000E+00 0. -1.
         -2   -1    0    0    0  501 -0.00000000000E+00 -0.00000000000E+00 -0.24979449436E+03  0.24979449436E+03  0.00000000000E+00 0.  1.
         25    2    1    2    0    0  0.57313973856E+02  0.49637304069E+02 -0.16677983932E+03  0.22182489414E+03  0.12506804270E+03 0.  0.
          5    1    3    3  502    0  0.84905734675E+02  0.72039956954E+01 -0.62248439293E+02  0.10560881558E+03  0.41800000000E+01 0. -1.
         -5    1    3    3    0  502 -0.27591760819E+02  0.42433308373E+02 -0.10453140002E+03  0.11621607856E+03  0.41800000000E+01 0. -1.
        -11    1    1    2    0    0 -0.29098582314E+01 -0.52005258906E+02 -0.24073291694E+02  0.57380637865E+02  0.00000000000E+00 0.  1.
         11    1    1    2    0    0 -0.54404115624E+02  0.23679548374E+01  0.35444493417E+02  0.64974819127E+02  0.00000000000E+00 0. -1.
</event>
<event>
 6    1  0.1538147E-010  0.1339862E+03  0.7561462E-02  0.1221658E+00
         -2   -1    0    0    0  501 -0.00000000000E+00  0.00000000000E+00  0.43756408927E+02  0.43756408927E+02  0.00000000000E+00 0. -1.
          2   -1    0    0  501    0  0.00000000000E+00 -0.00000000000E+00 -0.53790462195E+03  0.53790462195E+03  0.00000000000E+00 0.  1.
          5    1    1    2  502    0 -0.36655771391E+02 -0.49879449156E+02 -0.19020663445E+03  0.20006909110E+03  0.41800000000E+01 0.  1.
         -5    1    1    2    0  502 -0.60920913463E+02  0.27124056817E+02 -0.31651688737E+02  0.73934930549E+02  0.41800000000E+01 0.  1.
        -11    1    1    2    0    0  0.73037105330E+02 -0.31520645573E+02 -0.19079427314E+03  0.20671338736E+03  0.00000000000E+00 0.  1.
         11    1    1    2    0    0  0.24539579524E+02  0.54276037912E+02 -0.81495616695E+02  0.10094362186E+03  0.00000000000E+00 0. -1.
</event>
<event>
 7    1  0.1538147E-010  0.1225783E+03  0.7561462E-02  0.1238903E+00
         -2   -1    0    0    0  501 -0.00000000000E+00  0.00000000000E+00  0.81963312667E+02  0.81963312667E+02  0.00000000000E+00 0.  1.
          2   -1    0    0  501    0  0.00000000000E+00 -0.00000000000E+00 -0.28476941685E+03  0.28476941685E+03  0.00000000000E+00 0. -1.
         25    2    1    2    0    0 -0.54922027936E+02  0.74244039098E+02 -0.17378165053E+03  0.23315858064E+03  0.12503701520E+03 0.  0.
          5    1    3    3  502    0  0.12764539832E+02  0.32604610430E+02  0.67161664217E+01  0.35896704442E+02  0.41800000000E+01 0.  1.
         -5    1    3    3    0  502 -0.67686567768E+02  0.41639428669E+02 -0.18049781695E+03  0.19726187620E+03  0.41800000000E+01 0.  1.
        -11    1    1    2    0    0 -0.16297082977E+02 -0.53808074626E+02 -0.14654349166E+02  0.58100376574E+02  0.00000000000E+00 0.  1.
         11    1    1    2    0    0  0.71219110914E+02 -0.20435964472E+02 -0.14370104490E+02  0.75473772307E+02  0.00000000000E+00 0. -1.
</event>
<event>
 7    1  0.1538147E-010  0.1177039E+03  0.7561462E-02  0.1246934E+00
         -3   -1    0    0    0  501 -0.00000000000E+00  0.00000000000E+00  0.32805660819E+02  0.32805660819E+02  0.00000000000E+00 0.  1.
          3   -1    0    0  501    0  0.00000000000E+00 -0.00000000000E+00 -0.42286445781E+03  0.42286445781E+03  0.00000000000E+00 0. -1.
         25    2    1    2    0    0 -0.21271537041E+02  0.38579612412E+02 -0.21715131598E+03  0.25446381080E+03  0.12512502626E+03 0.  0.
          5    1    3    3  502    0 -0.73850019336E+02  0.25693957823E+02 -0.13181680715E+03  0.15332040918E+03  0.41800000000E+01 0.  1.
         -5    1    3    3    0  502  0.52578482295E+02  0.12885654589E+02 -0.85334508831E+02  0.10114340162E+03  0.41800000000E+01 0.  1.
        -11    1    1    2    0    0  0.19374401745E+02  0.29177878471E+02 -0.55086436690E+02  0.65278109212E+02  0.00000000000E+00 0.  1.
         11    1    1    2    0    0  0.18971352955E+01 -0.67757490883E+02 -0.11782104433E+03  0.13592819862E+03  0.00000000000E+00 0. -1.
</event>
<event>
 7    1  0.1538147E-010  0.1438258E+03  0.7561462E-02  0.1208272E+00
         -2   -1    0    0    0  501 -0.00000000000E+00  0.00000000000E+00  0.29397947345E+02  0.29397947345E+02  0.00000000000E+00 0.  1.
          2   -1    0    0  501    0  0.00000000000E+00 -0.00000000000E+00 -0.88777453943E+03  0.88777453943E+03  0.00000000000E+00 0. -1.
         25    2    1    2    0    0  0.11795922581E+03  0.15086336801E+02 -0.46410805507E+03  0.49517045174E+03  0.12512199240E+03 0.  0.
          5    1    3    3  502    0  0.87824345230E+02 -0.46920755526E+02 -0.32369443257E+03  0.33868898859E+03  0.41800000000E+01 0.  1.
         -5    1    3    3    0  502  0.30134880578E+02  0.62007092327E+02 -0.14041362250E+03  0.15648146315E+03  0.41800000000E+01 0.  1.
        -11    1    1    2    0    0 -0.31852562787E+02 -0.37020210124E+01 -0.20012026567E+02  0.37799099499E+02  0.00000000000E+00 0.  1.
         11    1    1    2    0    0 -0.86106663021E+02 -0.11384315788E+02 -0.37425651045E+03  0.38420293554E+03  0.00000000000E+00 0. -1.
</event>
<event>
 7    1  0.1538147E-010  0.8288170E+02  0.7561462E-02  0.1321067E+00
         -3   -1    0    0    0  501 -0.00000000000E+00  0.00000000000E+00  0.72556330246E+02  0.72556330246E+02  0.00000000000E+00 0.  1.
          3   -1    0    0  501    0  0.00000000000E+00 -0.00000000000E+00 -0.19654799733E+03  0.19654799733E+03  0.00000000000E+00 0. -1.
         25    2    1    2    0    0  0.22806097809E+02  0.16455534463E+01 -0.11974473369E+03  0.17464916058E+03  0.12506279264E+03 0.  0.
          5    1    3    3  502    0  0.52307775897E+00  0.38678576152E+02  0.80044278584E+01  0.39722149096E+02  0.41800000000E+01 0. -1.
         -5    1    3    3    0  502  0.22283020050E+02 -0.37033022705E+02 -0.12774916154E+03  0.13492701149E+03  0.41800000000E+01 0. -1.
        -11    1    1    2    0    0 -0.31240311779E+02  0.34368915332E+02 -0.24259528644E+02  0.52399467089E+02  0.00000000000E+00 0. -1.
         11    1    1    2    0    0  0.84342139699E+01 -0.36014468778E+02  0.20012595241E+02  0.42055699911E+02  0.00000000000E+00 0.  1.
</event>
<event>
 7    1  0.1538147E-010  0.1049510E+03  0.7561462E-02  0.1270216E+00
         -1   -1    0    0    0  501 -0.00000000000E+00  0.00000000000E+00  0.86292465873E+02  0.86292465873E+02  0.00000000000E+00 0.  1.
          1   -1    0    0  501    0  0.00000000000E+00 -0.00000000000E+00 -0.15012280353E+03  0.15012280353E+03  0.00000000000E+00 0. -1.
         25    2    1    2    0    0  0.14300964637E+02  0.50662680076E+01 -0.26166259651E+01  0.12606401387E+03  0.12512035886E+03 0.  0.
          5    1    3    3  502    0  0.60088215889E+01 -0.55961789770E+02  0.20645369555E+02  0.60096019296E+02  0.41800000000E+01 0. -1.
         -5    1    3    3    0  502  0.82921430484E+01  0.61028057778E+02 -0.23261995520E+02  0.65967994573E+02  0.41800000000E+01 0. -1.
        -11    1    1    2    0    0  0.30895237712E+02 -0.27422439379E+02 -0.25230397703E+02  0.48405359859E+02  0.00000000000E+00 0.  1.
         11    1    1    2    0    0 -0.45196202349E+02  0.22356171371E+02 -0.35983313985E+02  0.61945895672E+02  0.00000000000E+00 0. -1.
</event>
<event>
 7    1  0.1538147E-010  0.1013376E+03  0.7561462E-02  0.1277508E+00
         -1   -1    0    0    0  501 -0.00000000000E+00  0.00000000000E+00  0.56075807372E+03  0.56075807372E+03  0.00000000000E+00 0.  1.
          1   -1    0    0  501    0  0.00000000000E+00 -0.00000000000E+00 -0.53209027801E+02  0.53209027801E+02  0.00000000000E+00 0. -1.
         25    2    1    2    0    0 -0.72756518123E+02  0.11160454413E+02  0.46496554548E+03  0.48708523215E+03  0.12506397649E+03 0.  0.
          5    1    3    3  502    0 -0.86814275774E+02  0.22782050230E+01  0.16391238695E+03  0.18554420414E+03  0.41800000000E+01 0. -1.
         -5    1    3    3    0  502  0.14057757651E+02  0.88822493895E+01  0.30105315854E+03  0.30154102800E+03  0.41800000000E+01 0. -1.
        -11    1    1    2    0    0  0.36434067324E+02  0.27417471215E+02  0.56006913942E+02  0.72221419253E+02  0.00000000000E+00 0.  1.
         11    1    1    2    0    0  0.36322450799E+02 -0.38577925627E+02 -0.13423413503E+02  0.54660450125E+02  0.00000000000E+00 0. -1.
</event>
<event>
 6    1  0.1538147E-010  0.1729305E+03  0.7561462E-02  0.1174826E+00
          3   -1    0    0  501    0  0.00000000000E+00  0.00000000000E+00  0.23333553931E+03  0.23333553931E+03  0.00000000000E+00 0. -1.
         -3   -1    0    0    0  501 -0.00000000000E+00 -0.00000000000E+00 -0.16791968136E+03  0.16791968136E+03  0.00000000000E+00 0.  1.
          5    1    1    2  502    0  0.59653564491E+02 -0.67260457817E+02 -0.16192049881E+02  0.91444911403E+02  0.41800000000E+01 0. -1.
         -5    1    1    2    0  502 -0.20645064371E+00 -0.78668568868E+02  0.98309478597E+02  0.12598020611E+03  0.41800000000E+01 0. -1.
        -11    1    1    2    0    0 -0.67151262871E+02  0.57756050113E+02  0.14963562426E+02  0.89827399107E+02  0.00000000000E+00 0.  1.
         11    1    1    2    0    0  0.77041490239E+01  0.88172976571E+02 -0.31665133186E+02  0.94002704053E+02  0.00000000000E+00 0. -1.
</event>
<event>
 7    1  0.1663509E-010  0.1392859E+03  0.7561462E-02  0.1214293E+00
          2   -1    0    0  501    0  0.00000000000E+00  0.00000000000E+00  0.53728754280E+03  0.53728754280E+03  0.00000000000E+00 0.  1.
         -2   -1    0    0    0  501 -0.00000000000E+00 -0.00000000000E+00 -0.54242898494E+02  0.54242898494E+02  0.00000000000E+00 0. -1.
         25    2    1    2    0    0  0.57080248783E+02 -0.98958757351E+02  0.36899860676E+03  0.40603534068E+03  0.12511488972E+03 0.  0.
          5    1    3    3  502    0  0.66599257274E+02 -0.45558453181E+02  0.86583699699E+02  0.11842821952E+03  0.41800000000E+01 0.  1.
         -5    1    3    3    0  502 -0.95190084911E+01 -0.53400304170E+02  0.28241490706E+03  0.28760712116E+03  0.41800000000E+01 0.  1.
        -11    1    1    2    0    0 -0.59368692503E+01  0.91491721754E+02  0.90050542133E+02  0.12851101783E+03  0.00000000000E+00 0.  1.
         11    1    1    2    0    0 -0.51143379532E+02  0.74670355975E+01  0.23995495410E+02  0.56984082783E+02  0.00000000000E+00 0. -1.
</event>
<event>
 6    1  0.1538147E-010  0.1200251E+03  0.7561462E-02  0.1243056E+00
          1   -1    0    0  501    0  0.00000000000E+00  0.00000000000E+00  0.33763607758E+02  0.33763607758E+02  0.00000000000E+00 0. -1.
         -1   -1    0    0    0  501 -0.00000000000E+00 -0.00000000000E+00 -0.55129035856E+03  0.55129035856E+03  0.00000000000E+00 0.  1.
          5    1    1    2  502    0 -0.20862204158E+01  0.71249734364E+02 -0.10484862938E+03  0.12685260914E+03  0.41800000000E+01 0.  1.
         -5    1    1    2    0  502 -0.37524099888E+02 -0.48397740426E+02 -0.77661480299E+02  0.98990793879E+02  0.41800000000E+01 0.  1.
        -11    1    1    2    0    0  0.41901276985E+02  0.31776691145E+02 -0.64486962370E+02  0.83210837208E+02  0.00000000000E+00 0. -1.
         11    1    1    2    0    0 -0.22909566813E+01 -0.54628685084E+02 -0.27052967875E+03  0.27599972609E+03  0.00000000000E+00 0.  1.
</event>
<event>
 6    1  0.1538147E-010  0.1435241E+03  0.7561462E-02  0.1208664E+00
         -1   -1    0    0    0  501 -0.00000000000E+00  0.00000000000E+00  0.35547888409E+02  0.35547888409E+02  0.00000000000E+00 0.  1.
          1   -1    0    0  501    0  0.00000000000E+00 -0.00000000000E+00 -0.66451198743E+03  0.66451198743E+03  0.00000000000E+00 0. -1.
          5    1    1    2  502    0  0.50992733841E+02 -0.11656440614E+03 -0.19199070361E+03  0.23035933312E+03  0.41800000000E+01 0.  1.
         -5    1    1    2    0  502  0.72347135364E+01  0.31584044098E+02 -0.78292704067E+02  0.84835799234E+02  0.41800000000E+01 0.  1.
        -11    1    1    2    0    0  0.67587398570E+01 -0.99542193168E+01 -0.51538755755E+01  0.13089288755E+02  0.00000000000E+00 0.  1.
         11    1    1    2    0    0 -0.64986187235E+02  0.94934581363E+02 -0.35352681577E+03  0.37177545473E+03  0.00000000000E+00 0. -1.
</event>
<event>
 7    1  0.1538147E-010  0.1229986E+03  0.7561462E-02  0.1238231E+00
         -1   -1    0    0    0  501 -0.00000000000E+00  0.00000000000E+00  0.33169566745E+02  0.33169566745E+02  0.00000000000E+00 0.  1.
          1   -1    0    0  501    0  0.00000000000E+00 -0.00000000000E+00 -0.57896009621E+03  0.57896009621E+03  0.00000000000E+00 0. -1.
         25    2    1    2    0    0 -0.43158064055E+02  0.57499530922E+02 -0.19160908706E+03  0.23987610730E+03  0.12513069191E+03 0.  0.
          5    1    3    3  502    0 -0.82271204696E+02  0.17123653453E+02 -0.14060556049E+03  0.16385715325E+03  0.41800000000E+01 0.  1.
         -5    1    3    3    0  502  0.39113140640E+02  0.40375877469E+02 -0.51003526572E+02  0.76018954051E+02  0.41800000000E+01 0.  1.
        -11    1    1    2    0    0  0.49446360610E+02 -0.18448843422E+01 -0.24033418030E+03  0.24537494655E+03  0.00000000000E+00 0.  1.
         11    1    1    2    0    0 -0.62882965543E+01 -0.55654646580E+02 -0.11384726211E+03  0.12687860911E+03  0.00000000000E+00 0. -1.
</event>
<event>
 7    1  0.1538147E-010  0.2674638E+03  0.7561462E-02  0.1102740E+00
         -2   -1    0    0    0  501 -0.00000000000E+00  0.00000000000E+00  0.52808656571E+02  0.52808656571E+02  0.00000000000E+00 0. -1.
          2   -1    0    0  501    0  0.00000000000E+00 -0.00000000000E+00 -0.16347145056E+04  0.16347145056E+04  0.00000000000E+00 0.  1.
         25    2    1    2    0    0  0.73910764933E+02  0.23339634333E+03 -0.11556065989E+04  0.11878627022E+04  0.12511807885E+03 0.  0.
          5    1    3    3  502    0  0.10898248050E+03  0.18330979381E+03 -0.92184116105E+03  0.94619673439E+03  0.41800000000E+01 0.  1.
         -5    1    3    3    0  502 -0.35071715563E+02  0.50086549526E+02 -0.23376543783E+03  0.24166596782E+03  0.41800000000E+01 0.  1.
        -11    1    1    2    0    0  0.15782414569E+01 -0.14107652504E+03 -0.24279445150E+03  0.28080994007E+03  0.00000000000E+00 0. -1.
         11    1    1    2    0    0 -0.75489006390E+02 -0.92319818290E+02 -0.18350479869E+03  0.21885051994E+03  0.00000000000E+00 0.  1.
</event>
<event>
 6    1  0.1538147E-010  0.8666371E+02  0.7561462E-02  0.1311138E+00
          2   -1    0    0  501    0  0.00000000000E+00  0.00000000000E+00  0.86056627420E+03  0.86056627420E+03  0.00000000000E+00 0. -1.
         -2   -1    0    0    0  501 -0.00000000000E+00 -0.00000000000E+00 -0.18014041836E+02  0.18014041836E+02  0.00000000000E+00 0.  1.
          5    1    1    2  502    0 -0.38993434363E+00 -0.20971557039E+02  0.45053051516E+03  0.45103788726E+03  0.41800000000E+01 0.  1.
         -5    1    1    2    0  502  0.18183077051E+02  0.62420335019E+02  0.14236597007E+03  0.15656456927E+03  0.41800000000E+01 0.  1.
        -11    1    1    2    0    0  0.29229730291E+02 -0.15654619342E+02  0.18019804996E+03  0.18322331033E+03  0.00000000000E+00 0. -1.
         11    1    1    2    0    0 -0.47022872998E+02 -0.25794158638E+02  0.69457697171E+02  0.87754549176E+02  0.00000000000E+00 0.  1.
</event>
<event>
 7    1  0.1538147E-010  0.1685217E+03  0.7561462E-02  0.1179398E+00
          2   -1    0    0  501    0  0.00000000000E+00  0.00000000000E+00  0.41968055045E+03  0.41968055045E+03  0.00000000000E+00 0. -1.
         -2   -1    0    0    0  501 -0.00000000000E+00 -0.00000000000E+00 -0.70352487424E+02  0.70352487424E+02  0.00000000000E+00 0.  1.
         25    2    1    2    0    0  0.13188263837E+03  0.98392844684E+01  0.21139094877E+03  0.27898812816E+03  0.12513353111E+03 0.  0.
          5    1    3    3  502    0  0.70207642568E+02 -0.54047605715E+02  0.13629927985E+03  0.16261987224E+03  0.41800000000E+01 0. -1.
         -5    1    3    3    0  502  0.61674995804E+02  0.63886890184E+02  0.75091668915E+02  0.11636825592E+03  0.41800000000E+01 0. -1.
        -11    1    1    2    0    0 -0.41144159487E+02  0.38747679593E+02  0.42952454822E+02  0.70986885472E+02  0.00000000000E+00 0.  1.
         11    1    1    2    0    0 -0.90738478885E+02 -0.48586964061E+02  0.94984659434E+02  0.14005802424E+03  0.00000000000E+00 0. -1.
</event>
<event>
 7    1  0.1538147E-010  0.1140506E+03  0.7561462E-02  0.1253247E+00
         -2   -1    0    0    0  501 -0.00000000000E+00  0.00000000000E+00  0.52096020403E+02  0.52096020403E+02  0.00000000000E+00 0.  1.
          2   -1    0    0  501    0  0.00000000000E+00 -0.00000000000E+00 -0.65185484179E+03  0.65185484179E+03  0.00000000000E+00 0. -1.
         25    2    1    2    0    0  0.35208861019E+02  0.52134020364E+02 -0.57013507425E+03  0.58708484623E+03  0.12512790983E+03 0.  0.
          5    1    3    3  502    0  0.65698131153E+02  0.95124755110E+01 -0.15547386260E+03  0.16910448244E+03  0.41800000000E+01 0. -1.
         -5    1    3    3    0  502 -0.30489270134E+02  0.42621544853E+02 -0.41466121164E+03  0.41798036380E+03  0.41800000000E+01 0. -1.
        -11    1    1    2    0    0  0.27973303337E+02 -0.32440790042E+02 -0.26997623487E+02  0.50633805230E+02  0.00000000000E+00 0.  1.
         11    1    1    2    0    0 -0.63182164356E+02 -0.19693230322E+02 -0.26261236595E+01  0.66232210734E+02  0.00000000000E+00 0. -1.
</event>
<event>
 6    1  0.1538147E-010  0.9472252E+02  0.7561462E-02  0.1291802E+00
         -2   -1    0    0    0  501 -0.00000000000E+00  0.00000000000E+00  0.27370315382E+03  0.27370315382E+03  0.00000000000E+00 0. -1.
          2   -1    0    0  501    0  0.00000000000E+00 -0.00000000000E+00 -0.49443820181E+02  0.49443820181E+02  0.00000000000E+00 0.  1.
          5    1    1    2  502    0  0.64450318437E+02  0.24916545927E+02  0.15050518175E+03  0.16566218622E+03  0.41800000000E+01 0. -1.
         -5    1    1    2    0  502 -0.25207045338E+02 -0.24002548927E+02  0.16182528864E+01  0.35094282043E+02  0.41800000000E+01 0. -1.
        -11    1    1    2    0    0  0.15358389810E+02  0.21262603402E+02 -0.35473724027E+01  0.26468137297E+02  0.00000000000E+00 0.  1.
         11    1    1    2    0    0 -0.54601662909E+02 -0.22176600402E+02  0.75683271399E+02  0.95922368442E+02  0.00000000000E+00 0. -1.
</event>
<event>
 7    1  0.1538147E-010  0.1238427E+03  0.7561462E-02  0.1236889E+00
         -2   -1    0    0    0  501 -0.00000000000E+00  0.00000000000E+00  0.65591586590E+02  0.65591586590E+02  0.00000000000E+00 0.  1.
          2   -1    0    0  501    0  0.00000000000E+00 -0.00000000000E+00 -0.39087970771E+03  0.39087970771E+03  0.00000000000E+00 0. -1.
         25    2    1    2    0    0 -0.22450585954E+02 -0.84718138136E+02 -0.62426701308E+02  0.16502123851E+03  0.12511484477E+03 0.  0.
          5    1    3    3  502    0 -0.49413264522E+02 -0.96327588097E+02 -0.15407103315E+02  0.10943274726E+03  0.41800000000E+01 0. -1.
         -5    1    3    3    0  502  0.26962678568E+02  0.11609449961E+02 -0.47019597993E+02  0.55588491249E+02  0.41800000000E+01 0. -1.
        -11    1    1    2    0    0  0.44522264107E+02  0.40130208589E+02 -0.69432816088E+02  0.91725577635E+02  0.00000000000E+00 0.  1.
         11    1    1    2    0    0 -0.22071678153E+02  0.44587929547E+02 -0.19342860372E+03  0.19972447816E+03  0.00000000000E+00 0. -1.
</event>
<event>
 6    1  0.1538147E-010  0.1044532E+03  0.7561462E-02  0.1271201E+00
          1   -1    0    0  501    0  0.00000000000E+00  0.00000000000E+00  0.70388241853E+02  0.70388241853E+02  0.00000000000E+00 0. -1.
         -1   -1    0    0    0  501 -0.00000000000E+00 -0.00000000000E+00 -0.20148351918E+03  0.20148351918E+03  0.00000000000E+00 0.  1.
          5    1    1    2  502    0 -0.24433441860E+02 -0.77918996848E+02 -0.93581124838E+02  0.12427092370E+03  0.41800000000E+01 0.  1.
         -5    1    1    2    0  502  0.30970440689E+02  0.35849146067E+02 -0.27684301550E+02  0.55029286952E+02  0.41800000000E+01 0.  1.
        -11    1    1    2    0    0 -0.30253040938E+02 -0.11577493915E+01 -0.26793859332E+02  0.40428922414E+02  0.00000000000E+00 0.  1.
         11    1    1    2    0    0  0.23716042109E+02  0.43227600173E+02  0.16964008398E+02  0.52142627964E+02  0.00000000000E+00 0. -1.
</event>
<event>
 7    1  0.1538147E-010  0.9943778E+02  0.7561462E-02  0.1281483E+00
         -1   -1    0    0    0  501 -0.00000000000E+00  0.00000000000E+00  0.10954774308E+03  0.10954774308E+03  0.00000000000E+00 0.  1.
          1   -1    0    0  501    0  0.00000000000E+00 -0.00000000000E+00 -0.14816218555E+03  0.14816218555E+03  0.00000000000E+00 0. -1.
         25    2    1    2    0    0 -0.90836861403E+00  0.58650442935E+02  0.31075915479E+02  0.14165993523E+03  0.12514441712E+03 0.  0.
          5    1    3    3  502    0  0.41792191830E+02  0.43810778542E+02 -0.28260304309E+02  0.66948404119E+02  0.41800000000E+01 0.  1.
         -5    1    3    3    0  502 -0.42700560444E+02  0.14839664393E+02  0.59336219788E+02  0.74711531107E+02  0.41800000000E+01 0.  1.
        -11    1    1    2    0    0  0.81586690523E+01 -0.74715854166E+02 -0.55812227038E+02  0.93616384417E+02  0.00000000000E+00 0.  1.
         11    1    1    2    0    0 -0.72503004383E+01  0.16065411231E+02 -0.13878130914E+02  0.22433608986E+02  0.00000000000E+00 0. -1.
</event>
<event>
 7    1  0.1538147E-010  0.9915995E+02  0.7561462E-02  0.1282072E+00
         -2   -1    0    0    0  501 -0.00000000000E+00  0.00000000000E+00  0.22988477152E+02  0.22988477152E+02  0.00000000000E+00 0. -1.
          2   -1    0    0  501    0  0.00000000000E+00 -0.00000000000E+00 -0.93207624058E+03  0.93207624058E+03  0.00000000000E+00 0.  1.
         25    2    1    2    0    0 -0.19820648693E+02  0.29892742540E+01 -0.80651788987E+03  0.81640324815E+03  0.12506543497E+03 0.  0.
          5    1    3    3  502    0  0.46344273674E+02 -0.25527219232E+01 -0.52788724863E+03  0.52994030584E+03  0.41800000000E+01 0.  1.
         -5    1    3    3    0  502 -0.66164922367E+02  0.55419961771E+01 -0.27863064125E+03  0.28646294231E+03  0.41800000000E+01 0.  1.
        -11    1    1    2    0    0 -0.32413564445E+02  0.32858387330E+01 -0.68859980552E+02  0.76178296239E+02  0.00000000000E+00 0. -1.
         11    1    1    2    0    0  0.52234213138E+02 -0.62751129870E+01 -0.33709893004E+02  0.62483173347E+02  0.00000000000E+00 0.  1.
</event>
<event>
 6    1  0.1538147E-010  0.3209866E+03  0.7561462E-02  0.1075196E+00
          1   -1    0    0  501    0  0.00000000000E+00  0.00000000000E+00  0.43640613189E+03  0.43640613189E+03  0.00000000000E+00 0. -1.
         -1   -1    0    0    0  501 -0.00000000000E+00 -0.00000000000E+00 -0.24981407543E+03  0.24981407543E+03  0.00000000000E+00 0.  1.
          5    1    1    2  502    0  0.13182969054E+02 -0.13612682960E+02  0.50724668234E+01  0.20057370967E+02  0.41800000000E+01 0.  1.
         -5    1    1    2    0  502  0.15385784595E+03  0.26836249900E+03  0.15980212738E+03  0.34820232616E+03  0.41800000000E+01 0.  1.
        -11    1    1    2    0    0 -0.56523683251E+02 -0.33039213925E+02 -0.15944581326E+02  0.67385058423E+02  0.00000000000E+00 0.  1.
         11    1    1    2    0    0 -0.11051713175E+03 -0.22171060212E+03  0.37662043588E+02  0.25057545177E+03  0.00000000000E+00 0. -1.
</event>
<event>
 7    1  0.1538147E-010  0.7630646E+02  0.7561462E-02  0.1339872E+00
         -3   -1    0    0    0  501 -0.00000000000E+00  0.00000000000E+00  0.31250968338E+02  0.31250968338E+02  0.00000000000E+00 0.  1.
          3   -1    0    0  501    0  0.00000000000E+00 -0.00000000000E+00 -0.43977717884E+03  0.43977717884E+03  0.00000000000E+00 0. -1.
         25    2    1    2    0    0  0.52837663229E+02 -0.30864795632E+02 -0.24592939033E+03  0.28264220658E+03  0.12514350822E+03 0.  0.
          5    1    3    3  502    0  0.63177507834E+02 -0.98183890562E+01 -0.25034793197E+03  0.25841702286E+03  0.41800000000E+01 0. -1.
         -5    1    3    3    0  502 -0.10339844605E+02 -0.21046406575E+02  0.44185416430E+01  0.24225183724E+02  0.41800000000E+01 0. -1.
        -11    1    1    2    0    0 -0.12602501213E+02 -0.20126193323E+01  0.43945819854E+01  0.13497630319E+02  0.00000000000E+00 0.  1.
         11    1    1    2    0    0 -0.40235162015E+02  0.32877414964E+02 -0.16699140216E+03  0.17488831028E+03  0.00000000000E+00 0. -1.
</event>
<event>
 6    1  0.1538147E-010  0.1376131E+03  0.7561462E-02  0.1216577E+00
         -2   -1    0    0    0  501 -0.00000000000E+00  0.00000000000E+00  0.27487957103E+02  0.27487957103E+02  0.00000000000E+00 0.  1.
          2   -1    0    0  501    0  0.00000000000E+00 -0.00000000000E+00 -0.93501037983E+03  0.93501037983E+03  0.00000000000E+00 0. -1.
          5    1    1    2  502    0 -0.55859291831E+02 -0.34583947041E+02 -0.23398903751E+03  0.24307334686E+03  0.41800000000E+01 0.  1.
         -5    1    1    2    0  502 -0.41947570105E+02  0.59691297761E+02 -0.71881171992E+02  0.10250378019E+03  0.41800000000E+01 0.  1.
        -11    1    1    2    0    0  0.22709974558E+02  0.33905953172E+02 -0.17019155586E+03  0.17501577726E+03  0.00000000000E+00 0.  1.
         11    1    1    2    0    0  0.75096887379E+02 -0.59013303892E+02 -0.43146065736E+03  0.44190543262E+03  0.00000000000E+00 0. -1.
</event>
<event>
 7    1  0.1538147E-010  0.8939126E+02  0.7561462E-02  0.1304333E+00
         -1   -1    0    0    0  501 -0.00000000000E+00  0.00000000000E+00  0.25275810274E+03  0.25275810274E+03  0.00000000000E+00 0.  1.
          1   -1    0    0  501    0  0.00000000000E+00 -0.00000000000E+00 -0.76515633103E+02  0.76515633103E+02  0.00000000000E+00 0. -1.
         25    2    1    2    0    0 -0.13296509848E+02 -0.57312576938E+02  0.22645679213E+02  0.14005018325E+03  0.12505877975E+03 0.  0.
          5    1    3    3  502    0 -0.29483673654E+02  0.67644085808E+00  0.61458419068E+02  0.68296077916E+02  0.41800000000E+01 0. -1.
         -5    1    3    3    0  502  0.16187163806E+02 -0.57989017796E+02 -0.38812739855E+02  0.71754105332E+02  0.41800000000E+01 0. -1.
        -11    1    1    2    0    0 -0.24665630108E+02  0.70415704894E+01  0.10915961866E+03  0.11213295398E+03  0.00000000000E+00 0.  1.
         11    1    1    2    0    0  0.37962139956E+02  0.50271006448E+02  0.44437171763E+02  0.77090598607E+02  0.00000000000E+00 0. -1.
</event>
<event>
 7    1  0.1538147E-010  0.1257558E+03  0.7561462E-02  0.1233893E+00
         -2   -1    0    0    0  501 -0.00000000000E+00  0.00000000000E+00  0.42971129258E+02  0.42971129258E+02  0.00000000000E+00 0.  1.
          2   -1    0    0  501    0  0.00000000000E+00 -0.00000000000E+00 -0.46690352076E+03  0.46690352076E+03  0.00000000000E+00 0. -1.
         25    2    1    2    0    0 -0.71603557223E+02 -0.22965060309E+02 -0.31619980063E+03  0.34825117446E+03  0.12506839408E+03 0.  0.
          5    1    3    3  502    0  0.13446266377E+02  0.38168810824E+02 -0.10074157736E+03  0.10864620568E+03  0.41800000000E+01 0. -1.
         -5    1    3    3    0  502 -0.85049823600E+02 -0.61133871134E+02 -0.21545822327E+03  0.23960496879E+03  0.41800000000E+01 0. -1.
        -11    1    1    2    0    0  0.77701894405E+02 -0.45358388962E+01 -0.10839679480E+03  0.13344670604E+03  0.00000000000E+00 0. -1.
         11    1    1    2    0    0 -0.60983371815E+01  0.27500899205E+02  0.66420392866E+00  0.28176769516E+02  0.00000000000E+00 0.  1.
</event>
<event>
 7    1  0.1538147E-010  0.1306422E+03  0.7561462E-02  0.1226506E+00
         -3   -1    0    0    0  501 -0.00000000000E+00  0.00000000000E+00  0.28958028811E+03  0.28958028811E+03  0.00000000000E+00 0.  1.
          3   -1    0    0  501    0  0.00000000000E+00 -0.00000000000E+00 -0.90403563124E+02  0.90403563124E+02  0.00000000000E+00 0. -1.
         25    2    1    2    0    0 -0.80085119831E+02 -0.82277381394E+02  0.68097559681E+02  0.18290383486E+03  0.12503336060E+03 0.  0.
          5    1    3    3  502    0 -0.21426884891E+02 -0.81117210207E+02 -0.10583770572E+02  0.84667595852E+02  0.41800000000E+01 0. -1.
         -5    1    3    3    0  502 -0.58658234941E+02 -0.11601711871E+01  0.78681330253E+02  0.98236239006E+02  0.41800000000E+01 0. -1.
        -11    1    1    2    0    0  0.43793076078E+02  0.64726089737E+02  0.13560648557E+03  0.15651331935E+03  0.00000000000E+00 0.  1.
         11    1    1    2    0    0  0.36292043753E+02  0.17551291657E+02 -0.45273202701E+01  0.40566697024E+02  0.00000000000E+00 0. -1.
</event>
<event>
 6    1  0.1538147E-010  0.1274716E+03  0.7561462E-02  0.1231256E+00
          1   -1    0    0  501    0  0.00000000000E+00  0.00000000000E+00  0.45585444166E+03  0.45585444166E+03  0.00000000000E+00 0. -1.
         -1   -1    0    0    0  501 -0.00000000000E+00 -0.00000000000E+00 -0.44799533055E+02  0.44799533055E+02  0.00000000000E+00 0.  1.
          5    1    1    2  502    0 -0.41985321952E+02  0.52711471929E+02  0.71012882451E+02  0.97987593125E+02  0.41800000000E+01 0. -1.
         -5    1    1    2    0  502 -0.41878119951E+02 -0.49609420669E+02  0.22636636777E+03  0.23552935360E+03  0.41800000000E+01 0. -1.
        -11    1    1    2    0    0  0.81793309721E+02  0.31540646050E+02  0.85194869615E+02  0.12224207000E+03  0.00000000000E+00 0.  1.
         11    1    1    2    0    0  0.20701321828E+01 -0.34642697310E+02  0.28480788765E+02  0.44894957989E+02  0.00000000000E+00 0. -1.
</event>
<event>
 7    1  0.1538147E-010  0.1170141E+03  0.7561462E-02  0.1248106E+00
          1   -1    0    0  501    0  0.00000000000E+00  0.00000000000E+00  0.59373496919E+03  0.59373496919E+03  0.00000000000E+00 0. -1.
         -1   -1    0    0    0  501 -0.00000000000E+00 -0.00000000000E+00 -0.34335040683E+02  0.34335040683E+02  0.00000000000E+00 0.  1.
         25    2    1    2    0    0  0.31029046347E+02  0.52139596208E+02  0.15374500021E+03  0.20731564402E+03  0.12514356538E+03 0.  0.
          5    1    3    3  502    0  0.70985493925E+02  0.25625145971E+02  0.13678622674E+03  0.15628030164E+03  0.41800000000E+01 0.  1.
         -5    1    3    3    0  502 -0.39956447578E+02  0.26514450238E+02  0.16958773468E+02  0.51035342382E+02  0.41800000000E+01 0.  1.
        -11    1    1    2    0    0 -0.14353317079E+02 -0.78124780337E+02  0.26000514803E+03  0.27186793856E+03  0.00000000000E+00 0.  1.
         11    1    1    2    0    0 -0.16675729268E+02  0.25985184129E+02  0.14564978026E+03  0.14888642729E+03  0.00000000000E+00 0. -1.
</event>
<event>
 7    1  0.1538147E-010  0.1174666E+03  0.7561462E-02  0.1247336E+00
         -1   -1    0    0    0  501 -0.00000000000E+00  0.00000000000E+00  0.33365509963E+02  0.33365509963E+02  0.00000000000E+00 0.  1.
          1   -1    0    0  501    0  0.00000000000E+00 -0.00000000000E+00 -0.43968228272E+03  0.43968228272E+03  0.00000000000E+00 0. -1.
         25    2    1    2    0    0  0.33840049614E+02  0.39681800635E+02 -0.20405889173E+03  0.24494674770E+03  0.12505632194E+03 0.  0.
          5    1    3    3  502    0 -0.32628377529E+01 -0.43352364009E+02 -0.78835132145E+02  0.90125046662E+02  0.41800000000E+01 0.  1.
         -5    1    3    3    0  502  0.37102887367E+02  0.83034164645E+02 -0.12522375959E+03  0.15482170104E+03  0.41800000000E+01 0.  1.
        -11    1    1    2    0    0  0.10198615034E+01  0.25912711968E+02 -0.25503694791E+02  0.36372341237E+02  0.00000000000E+00 0.  1.
         11    1    1    2    0    0 -0.34859911117E+02 -0.65594512604E+02 -0.17675418623E+03  0.19172870374E+03  0.00000000000E+00 0. -1.
</event>
<event>
 7    1  0.1538147E-010  0.1197286E+03  0.7561462E-02  0.1243545E+00
          2   -1    0    0  501    0  0.00000000000E+00  0.00000000000E+00  0.49638609643E+03  0.49638609643E+03  0.00000000000E+00 0. -1.
         -2   -1    0    0    0  501 -0.00000000000E+00 -0.00000000000E+00 -0.33107452332E+02  0.33107452332E+02  0.00000000000E+00 0.  1.
         25    2    1    2    0    0 -0.33966018663E+02  0.60551319766E+02  0.23967354564E+03  0.27913526406E+03  0.12511168775E+03 0.  0.
          5    1    3    3  502    0  0.27363614591E+02  0.72653103905E+02  0.10548387229E+03  0.13104030152E+03  0.41800000000E+01 0.  1.
         -5    1    3    3    0  502 -0.61329633254E+02 -0.12101784138E+02  0.13418967335E+03  0.14809496254E+03  0.41800000000E+01 0.  1.
        -11    1    1    2    0    0 -0.15471200830E+02 -0.44448471795E+02  0.16696925547E+03  0.17347552269E+03  0.00000000000E+00 0. -1.
         11    1    1    2    0    0  0.49437219493E+02 -0.16102847971E+02  0.56635842993E+02  0.76882762018E+02  0.00000000000E+00 0.  1.
</event>
<event>
 6    1  0.1538147E-010  0.1672631E+03  0.7561462E-02  0.1180732E+00
         -1   -1    0    0    0  501 -0.00000000000E+00  0.00000000000E+00  0.55689110918E+02  0.55689110918E+02  0.00000000000E+00 0.  1.
          1   -1    0    0  501    0  0.00000000000E+00 -0.00000000000E+00 -0.66467663545E+03  0.66467663545E+03  0.00000000000E+00 0. -1.
          5    1    1    2  502    0  0.15085970766E+02  0.11440801502E+03 -0.36928120164E+03  0.38691453668E+03  0.41800000000E+01 0.  1.
         -5    1    1    2    0  502  0.55551069425E+02  0.15035073715E+02 -0.56801761027E+02  0.80968433427E+02  0.41800000000E+01 0.  1.
        -11    1    1    2    0    0 -0.70679013822E+02 -0.62326899919E+02 -0.57902752380E+02  0.11060241490E+03  0.00000000000E+00 0.  1.
         11    1    1    2    0    0  0.41973631210E-01 -0.67116188820E+02 -0.12500180949E+03  0.14188036136E+03  0.00000000000E+00 0. -1.
</event>
<event>
 7    1  0.1538147E-010  0.1216335E+03  0.7561462E-02  0.1240426E+00
         -1   -1    0    0    0  501 -0.00000000000E+00  0.00000000000E+00  0.25711585731E+02  0.25711585731E+02  0.00000000000E+00 0.  1.
          1   -1    0    0  501    0  0.00000000000E+00 -0.00000000000E+00 -0.63002468735E+03  0.63002468735E+03  0.00000000000E+00 0. -1.
         25    2    1    2    0    0 -0.91149889464E+01 -0.71872791532E+02 -0.33653046576E+03  0.36628210920E+03  0.12514410875E+03 0.  0.
          5    1    3    3  502    0  0.50013898636E+01 -0.10109659442E+03 -0.30275568742E+03  0.31925540554E+03  0.41800000000E+01 0. -1.
         -5    1    3    3    0  502 -0.14116378810E+02  0.29223802884E+02 -0.33774778338E+02  0.47026703664E+02  0.41800000000E+01 0. -1.
        -11    1    1    2    0    0  0.26862672159E+02 -0.75120513328E+01 -0.55380320210E+02  0.62008176375E+02  0.00000000000E+00 0.  1.
         11    1    1    2    0    0 -0.17747683212E+02  0.79384842864E+02 -0.21240231565E+03  0.22744598750E+03  0.00000000000E+00 0. -1.
</event>
<event>
 7    1  0.1538147E-010  0.1266361E+03  0.7561462E-02  0.1232534E+00
          1   -1    0    0  501    0  0.00000000000E+00  0.00000000000E+00  0.49683051336E+03  0.49683051336E+03  0.00000000000E+00 0. -1.
         -1   -1    0    0    0  501 -0.00000000000E+00 -0.00000000000E+00 -0.39516612467E+02  0.39516612467E+02  0.00000000000E+00 0.  1.
         25    2    1    2    0    0 -0.74202680201E+02 -0.24225803734E+02  0.17693359473E+03  0.23033685967E+03  0.12512651463E+03 0.  0.
          5    1    3    3  502    0 -0.85364563581E+02  0.26413125027E+02  0.14145772971E+03  0.16736942249E+03  0.41800000000E+01 0.  1.
         -5    1    3    3    0  502  0.11161883380E+02 -0.50638928761E+02  0.35475865023E+02  0.62967437186E+02  0.41800000000E+01 0.  1.
        -11    1    1    2    0    0  0.76786968405E+02 -0.10031676697E+02  0.12633284116E+03  0.14817847283E+03  0.00000000000E+00 0. -1.
         11    1    1    2    0    0 -0.25842882032E+01  0.34257480431E+02  0.15404746500E+03  0.15783179333E+03  0.00000000000E+00 0.  1.
</event>
<event>
 7    1  0.1538147E-010  0.1808351E+03  0.7561462E-02  0.1166997E+00
          1   -1    0    0  501    0  0.00000000000E+00  0.00000000000E+00  0.13353993485E+04  0.13353993485E+04  0.00000000000E+00 0. -1.
         -1   -1    0    0    0  501 -0.00000000000E+00 -0.00000000000E+00 -0.28482345203E+02  0.28482345203E+02  0.00000000000E+00 0.  1.
         25    2    1    2    0    0  0.15056498666E+03  0.55474061363E+02  0.63188135872E+03  0.66382491211E+03  0.12506908394E+03 0.  0.
          5    1    3    3  502    0  0.13574019666E+03  0.78201926033E+02  0.38874471445E+03  0.41914301573E+03  0.41800000000E+01 0.  1.
         -5    1    3    3    0  502  0.14824789994E+02 -0.22727864670E+02  0.24313664427E+03  0.24468189638E+03  0.41800000000E+01 0.  1.
        -11    1    1    2    0    0 -0.85107142943E+02  0.90537788177E+01  0.42804008925E+03  0.43651290324E+03  0.00000000000E+00 0. -1.
         11    1    1    2    0    0 -0.65457843712E+02 -0.64527840181E+02  0.24699555532E+03  0.26354387834E+03  0.00000000000E+00 0.  1.
</event>
<event>
 7    1  0.1538147E-010  0.7857853E+02  0.7561462E-02  0.1333134E+00
          2   -1    0    0  501    0  0.00000000000E+00  0.00000000000E+00  0.14658870761E+03  0.14658870761E+03  0.00000000000E+00 0. -1.
         -2   -1    0    0    0  501 -0.00000000000E+00 -0.00000000000E+00 -0.76400146132E+02  0.76400146132E+02  0.00000000000E+00 0.  1.
         25    2    1    2    0    0 -0.45407626129E+02  0.41198746085E+02  0.26368602430E+02  0.14175442899E+03  0.12505928895E+03 0.  0.
          5    1    3    3  502    0 -0.90796028946E+01  0.50451949194E+02 -0.40174876250E+02  0.65263553749E+02  0.41800000000E+01 0.  1.
         -5    1    3    3    0  502 -0.36328023234E+02 -0.92532031084E+01  0.66543478680E+02  0.76490875238E+02  0.41800000000E+01 0.  1.
        -11    1    1    2    0    0  0.39270128791E+02 -0.16571055675E+02  0.23167568185E+02  0.48512669655E+02  0.00000000000E+00 0.  1.
         11    1    1    2    0    0  0.61374973379E+01 -0.24627690410E+02  0.20652390864E+02  0.32721755102E+02  0.00000000000E+00 0. -1.
</event>
<event>
 7    1  0.1540098E-010  0.1022985E+03  0.7561462E-02  0.1275536E+00
          2   -1    0    0  501    0  0.00000000000E+00  0.00000000000E+00  0.36844519025E+02  0.36844519025E+02  0.00000000000E+00 0. -1.
         -2   -1    0    0    0  501 -0.00000000000E+00 -0.00000000000E+00 -0.37834626591E+03  0.37834626591E+03  0.00000000000E+00 0.  1.
         25    2    1    2    0    0  0.65871125144E+01 -0.45551718902E+02 -0.20384987922E+03  0.24354599781E+03  0.12506610511E+03 0.  0.
          5    1    3    3  502    0  0.46988048580E+02  0.23406757377E+02 -0.92128172309E+02  0.10611703696E+03  0.41800000000E+01 0.  1.
         -5    1    3    3    0  502 -0.40400936066E+02 -0.68958476279E+02 -0.11172170691E+03  0.13742896085E+03  0.41800000000E+01 0.  1.
        -11    1    1    2    0    0  0.23980614592E+02  0.13109833180E+02 -0.39655957992E+00  0.27333036087E+02  0.00000000000E+00 0. -1.
         11    1    1    2    0    0 -0.30567727106E+02  0.32441885722E+02 -0.13725530809E+03  0.14431175104E+03  0.00000000000E+00 0.  1.
</event>
<event>
 7    1  0.1538147E-010  0.7008840E+02  0.7561462E-02  0.1359793E+00
          2   -1    0    0  501    0  0.00000000000E+00  0.00000000000E+00  0.24832670199E+02  0.24832670199E+02  0.00000000000E+00 0. -1.
         -2   -1    0    0    0  501 -0.00000000000E+00 -0.00000000000E+00 -0.52543561291E+03  0.52543561291E+03  0.00000000000E+00 0.  1.
         25    2    1    2    0    0 -0.66330797591E+01  0.37803974437E+02 -0.26060443458E+03  0.29158982415E+03  0.12504725505E+03 0.  0.
          5    1    3    3  502    0  0.10317355146E+02  0.10952607141E+02  0.10359049852E+02  0.18740056943E+02  0.41800000000E+01 0. -1.
         -5    1    3    3    0  502 -0.16950434905E+02  0.26851367296E+02 -0.27096348444E+03  0.27284976721E+03  0.41800000000E+01 0. -1.
        -11    1    1    2    0    0 -0.39165053753E+01  0.26793894958E+02 -0.10799855646E+03  0.11134154669E+03  0.00000000000E+00 0.  1.
         11    1    1    2    0    0  0.10549585134E+02 -0.64597869395E+02 -0.13199995167E+03  0.14733691227E+03  0.00000000000E+00 0. -1.
</event>
<event>
 6    1  0.1538147E-010  0.1051862E+03  0.7561462E-02  0.1269753E+00
         -1   -1    0    0    0  501 -0.00000000000E+00  0.00000000000E+00  0.55155601117E+02  0.55155601117E+02  0.00000000000E+00 0. -1.
          1   -1    0    0  501    0  0.00000000000E+00 -0.00000000000E+00 -0.33921462886E+03  0.33921462886E+03  0.00000000000E+00 0.  1.
          5    1    1    2  502    0  0.45985222448E+02  0.69536690971E+02 -0.64659543703E+02  0.10558561013E+03  0.41800000000E+01 0. -1.
         -5    1    1    2    0  502 -0.46191643101E+02  0.75559787236E+01 -0.13146895873E+03  0.13961489969E+03  0.41800000000E+01 0. -1.
        -11    1    1    2    0    0  0.10594676671E+02 -0.36281774243E+02  0.12868330872E+02  0.39927537558E+02  0.00000000000E+00 0. -1.
         11    1    1    2    0    0 -0.10388256018E+02 -0.40810895451E+02 -0.10079885619E+03  0.10924218260E+03  0.00000000000E+00 0.  1.
</event>
<event>
 7    1  0.1538147E-010  0.1325067E+03  0.7561462E-02  0.1223783E+00
          1   -1    0    0  501    0  0.00000000000E+00  0.00000000000E+00  0.89605414282E+03  0.89605414282E+03  0.00000000000E+00 0. -1.
         -1   -1    0    0    0  501 -0.00000000000E+00 -0.00000000000E+00 -0.26594553313E+02  0.26594553313E+02  0.00000000000E+00 0.  1.
         25    2    1    2    0    0 -0.71991801073E+02 -0.75560666079E+02  0.56121626455E+03  0.58438982269E+03  0.12512208273E+03 0.  0.
          5    1    3    3  502    0 -0.20938291014E+02 -0.93318291978E+02  0.23585027192E+03  0.25453789268E+03  0.41800000000E+01 0.  1.
         -5    1    3    3    0  502 -0.51053510060E+02  0.17757625899E+02  0.32536599263E+03  0.32985193000E+03  0.41800000000E+01 0.  1.
        -11    1    1    2    0    0  0.35031460851E+02  0.49633063724E+01  0.20400450317E+03  0.20704993352E+03  0.00000000000E+00 0. -1.
         11    1    1    2    0    0  0.36960340222E+02  0.70597359707E+02  0.10423882179E+03  0.13120893992E+03  0.00000000000E+00 0.  1.
</event>
<event>
 7    1  0.1538147E-010  0.1490458E+03  0.7561462E-02  0.1201650E+00
          2   -1    0    0  501    0  0.00000000000E+00  0.00000000000E+00  0.36125044597E+03  0.36125044597E+03  0.00000000000E+00 0. -1.
         -2   -1    0    0    0  501 -0.00000000000E+00 -0.00000000000E+00 -0.73401957759E+02  0.73401957759E+02  0.00000000000E+00 0.  1.
         25    2    1    2    0    0 -0.86137173526E+02  0.85838979344E+02  0.14159153696E+03  0.22466135367E+03  0.12504646118E+03 0.  0.
          5    1    3    3  502    0 -0.11490659833E+02  0.97129195908E+02  0.91217043610E+02  0.13380634292E+03  0.41800000000E+01 0. -1.
         -5    1    3    3    0  502 -0.74646513694E+02 -0.11290216563E+02  0.50374493352E+02  0.90855010743E+02  0.41800000000E+01 0. -1.
        -11    1    1    2    0    0  0.27610088412E+02 -0.11346789626E+02 -0.62100131477E+01  0.30489848806E+02  0.00000000000E+00 0.  1.
         11    1    1    2    0    0  0.58527085114E+02 -0.74492189718E+02  0.15246696440E+03  0.17950120126E+03  0.00000000000E+00 0. -1.
</event>
<event>
 7    1  0.1538147E-010  0.2197159E+03  0.7561462E-02  0.1134095E+00
          2   -1    0    0  501    0  0.00000000000E+00  0.00000000000E+00  0.23752671004E+03  0.23752671004E+03  0.00000000000E+00 0. -1.
         -2   -1    0    0    0  501 -0.00000000000E+00 -0.00000000000E+00 -0.20780243269E+03  0.20780243269E+03  0.00000000000E+00 0.  1.
         25    2    1    2    0    0 -0.18655180548E+03 -0.50364722361E+02  0.25227785892E+02  0.23155009984E+03  0.12506328865E+03 0.  0.
          5    1    3    3  502    0 -0.12231138931E+03 -0.92154201129E+02  0.12004405056E+02  0.15366863987E+03  0.41800000000E+01 0. -1.
         -5    1    3    3    0  502 -0.64240416172E+02  0.41789478767E+02  0.13223380836E+02  0.77881459965E+02  0.41800000000E+01 0. -1.
        -11    1    1    2    0    0  0.99760437983E+02  0.68242574125E+02 -0.18385575354E+02  0.12225883727E+03  0.00000000000E+00 0.  1.
         11    1    1    2    0    0  0.86791367495E+02 -0.17877851764E+02  0.22882066819E+02  0.91520205623E+02  0.00000000000E+00 0. -1.
</event>
<event>
 6    1  0.1538147E-010  0.1178488E+03  0.7561462E-02  0.1246689E+00
         -2   -1    0    0    0  501 -0.00000000000E+00  0.00000000000E+00  0.12035163343E+04  0.12035163343E+04  0.00000000000E+00 0.  1.
          2   -1    0    0  501    0  0.00000000000E+00 -0.00000000000E+00 -0.12677336141E+02  0.12677336141E+02  0.00000000000E+00 0. -1.
          5    1    1    2  502    0 -0.91314048324E+02 -0.28771723964E+01  0.60623930180E+03  0.61309876610E+03  0.41800000000E+01 0. -1.
         -5    1    1    2    0  502  0.33647745840E+02  0.13825585051E+02  0.99388462202E+02  0.10591910319E+03  0.41800000000E+01 0. -1.
        -11    1    1    2    0    0 -0.19255479942E+02 -0.22748974859E+02  0.16278083498E+03  0.16548682607E+03  0.00000000000E+00 0.  1.
         11    1    1    2    0    0  0.76921782425E+02  0.11800562205E+02  0.32243039920E+03  0.33168897511E+03  0.00000000000E+00 0. -1.
</event>
<event>
 7    1  0.1538147E-010  0.7278610E+02  0.7561462E-02  0.1350867E+00
         -1   -1    0    0    0  501 -0.00000000000E+00  0.00000000000E+00  0.57307515631E+02  0.57307515631E+02  0.00000000000E+00 0.  1.
          1   -1    0    0  501    0  0.00000000000E+00 -0.00000000000E+00 -0.23700346199E+03  0.23700346199E+03  0.00000000000E+00 0. -1.
         25    2    1    2    0    0  0.22437272365E+01 -0.28122342137E+02 -0.14265867148E+03  0.19185715889E+03  0.12514700328E+03 0.  0.
          5    1    3    3  502    0  0.16327851859E+02 -0.38939147269E+02 -0.16069527244E+03  0.16620258398E+03  0.41800000000E+01 0.  1.
         -5    1    3    3    0  502 -0.14084124622E+02  0.10816805132E+02  0.18036600963E+02  0.25654574912E+02  0.41800000000E+01 0.  1.
        -11    1    1    2    0    0 -0.31187642012E+02  0.42391457502E+02  0.91613697446E+00  0.52635957201E+02  0.00000000000E+00 0.  1.
         11    1    1    2    0    0  0.28943914776E+02 -0.14269115366E+02 -0.37953411856E+02  0.49817861530E+02  0.00000000000E+00 0. -1.
</event>
<event>
 7    1  0.1538147E-010  0.1627034E+03  0.7561462E-02  0.1185678E+00
         -2   -1    0    0    0  501 -0.00000000000E+00  0.00000000000E+00  0.56214314828E+02  0.56214314828E+02  0.00000000000E+00 0.  1.
          2   -1    0    0  501    0  0.00000000000E+00 -0.00000000000E+00 -0.55696496715E+03  0.55696496715E+03  0.00000000000E+00 0. -1.
         25    2    1    2    0    0  0.65979071160E+02  0.11112979678E+03 -0.35965645341E+03  0.40213144115E+03  0.12511539440E+03 0.  0.
          5    1    3    3  502    0  0.20762821278E+02 -0.26949119755E+02 -0.77283738312E+02  0.84543470537E+02  0.41800000000E+01 0. -1.
         -5    1    3    3    0  502  0.45216249882E+02  0.13807891654E+03 -0.28237271510E+03  0.31758797061E+03  0.41800000000E+01 0. -1.
        -11    1    1    2    0    0 -0.21726687386E+02 -0.96881037434E+02 -0.55764812519E+02  0.11387580373E+03  0.00000000000E+00 0.  1.
         11    1    1    2    0    0 -0.44252383774E+02 -0.14248759348E+02 -0.85329386398E+02  0.97172037108E+02  0.00000000000E+00 0. -1.
</event>
<event>
 7    1  0.1538147E-010  0.9390382E+02  0.7561462E-02  0.1293664E+00
         -1   -1    0    0    0  501 -0.00000000000E+00  0.00000000000E+00  0.16352071919E+03  0.16352071919E+03  0.00000000000E+00 0.  1.
          1   -1    0    0  501    0  0.00000000000E+00 -0.00000000000E+00 -0.86353431306E+02  0.86353431306E+02  0.00000000000E+00 0. -1.
         25    2    1    2    0    0 -0.22635876419E+02 -0.62674044067E+01  0.85538737272E+02  0.15337376790E+03  0.12511983794E+03 0.  0.
          5    1    3    3  502    0 -0.72177636167E+02  0.17184208930E+01  0.70068855212E+02  0.10069598306E+03  0.41800000000E+01 0.  1.
         -5    1    3    3    0  502  0.49541759748E+02 -0.79858252997E+01  0.15469882060E+02  0.52677784839E+02  0.41800000000E+01 0.  1.
        -11    1    1    2    0    0 -0.38243498971E+01  0.29605645042E+02  0.31406424929E+02  0.43329936503E+02  0.00000000000E+00 0.  1.
         11    1    1    2    0    0  0.26460226316E+02 -0.23338240635E+02 -0.39777874320E+02  0.53170446096E+02  0.00000000000E+00 0. -1.
</event>
<event>
 7    1  0.1538147E-010  0.1122704E+03  0.7561462E-02  0.1256422E+00
          1   -1    0    0  501    0  0.00000000000E+00  0.00000000000E+00  0.43404519422E+03  0.43404519422E+03  0.00000000000E+00 0. -1.
         -1   -1    0    0    0  501 -0.00000000000E+00 -0.00000000000E+00 -0.30197236195E+02  0.30197236195E+02  0.00000000000E+00 0.  1.
         25    2    1    2    0    0  0.29727516693E+02 -0.24871307847E+01  0.21475985044E+03  0.25030543026E+03  0.12506439938E+03 0.  0.
          5    1    3    3  502    0  0.45267571786E+02 -0.56262605942E+02  0.12598729759E+03  0.14527527469E+03  0.41800000000E+01 0.  1.
         -5    1    3    3    0  502 -0.15540055093E+02  0.53775475157E+02  0.88772552850E+02  0.10503015558E+03  0.41800000000E+01 0.  1.
        -11    1    1    2    0    0 -0.57973099449E+02 -0.18536923092E+02  0.88879344995E+02  0.10772202999E+03  0.00000000000E+00 0.  1.
         11    1    1    2    0    0  0.28245582756E+02  0.21024053877E+02  0.10020876259E+03  0.10621497016E+03  0.00000000000E+00 0. -1.
</event>
<event>
 6    1  0.1538147E-010  0.1093919E+03  0.7561462E-02  0.1261700E+00
          1   -1    0    0  501    0  0.00000000000E+00  0.00000000000E+00  0.25730363681E+02  0.25730363681E+02  0.00000000000E+00 0. -1.
         -1   -1    0    0    0  501 -0.00000000000E+00 -0.00000000000E+00 -0.54848506980E+03  0.54848506980E+03  0.00000000000E+00 0.  1.
          5    1    1    2  502    0 -0.55424472212E+02 -0.49161547740E+02 -0.16529834769E+03  0.18118980668E+03  0.41800000000E+01 0.  1.
         -5    1    1    2    0  502  0.33291442222E+02  0.32422714488E+02 -0.42199444047E+02  0.62911191516E+02  0.41800000000E+01 0.  1.
        -11    1    1    2    0    0 -0.23679604724E+02 -0.26071247406E+02 -0.11328412441E+03  0.11863273775E+03  0.00000000000E+00 0. -1.
         11    1    1    2    0    0  0.45812634714E+02  0.42810080657E+02 -0.20197278997E+03  0.21148169753E+03  0.00000000000E+00 0.  1.
</event>
<event>
 7    1  0.1538147E-010  0.1470002E+03  0.7561462E-02  0.1204208E+00
          2   -1    0    0  501    0  0.00000000000E+00  0.00000000000E+00  0.14188604664E+03  0.14188604664E+03  0.00000000000E+00 0. -1.
         -2   -1    0    0    0  501 -0.00000000000E+00 -0.00000000000E+00 -0.18806189102E+03  0.18806189102E+03  0.00000000000E+00 0.  1.
         25    2    1    2    0    0  0.79422175365E+02 -0.57347322178E+02 -0.95993130243E+02  0.18560008008E+03  0.12504443758E+03 0.  0.
          5    1    3    3  502    0  0.84908498301E+02 -0.90971981010E+02 -0.74268823246E+02  0.14497822222E+03  0.41800000000E+01 0.  1.
         -5    1    3    3    0  502 -0.54863229357E+01  0.33624658832E+02 -0.21724306997E+02  0.40621857852E+02  0.41800000000E+01 0.  1.
        -11    1    1    2    0    0  0.20152559151E+02  0.21153984198E+02  0.67881311592E+01  0.29994923110E+02  0.00000000000E+00 0.  1.
         11    1    1    2    0    0 -0.99574734516E+02  0.36193337981E+02  0.43029154708E+02  0.11435293447E+03  0.00000000000E+00 0. -1.
</event>
<event>
 7    1  0.1538147E-010  0.8972903E+02  0.7561462E-02  0.1303509E+00
         -1   -1    0    0    0  501 -0.00000000000E+00  0.00000000000E+00  0.15777793968E+02  0.15777793968E+02  0.00000000000E+00 0.  1.
          1   -1    0    0  501    0  0.00000000000E+00 -0.00000000000E+00 -0.11277837752E+04  0.11277837752E+04  0.00000000000E+00 0. -1.
         25    2    1    2    0    0  0.99141565122E+01  0.36956637401E+02 -0.90719817703E+03  0.91658604930E+03  0.12512941228E+03 0.  0.
          5    1    3    3  502    0 -0.48274539538E+02  0.49714215951E+02 -0.41316078003E+03  0.41895254742E+03  0.41800000000E+01 0. -1.
         -5    1    3    3    0  502  0.58188696050E+02 -0.12757578550E+02 -0.49403739700E+03  0.49763350188E+03  0.41800000000E+01 0. -1.
        -11    1    1    2    0    0 -0.15292277825E+02 -0.25609558926E+01  0.34030172144E+01  0.15874280529E+02  0.00000000000E+00 0.  1.
         11    1    1    2    0    0  0.53781213126E+01 -0.34395681508E+02 -0.20821082138E+03  0.21110123930E+03  0.00000000000E+00 0. -1.
</event>
<event>
 7    1  0.1538147E-010  0.3479234E+03  0.7561462E-02  0.1063471E+00
          2   -1    0    0  501    0  0.00000000000E+00  0.00000000000E+00  0.60489371897E+03  0.60489371897E+03  0.00000000000E+00 0. -1.
         -2   -1    0    0    0  501 -0.00000000000E+00 -0.00000000000E+00 -0.22007091961E+03  0.22007091961E+03  0.00000000000E+00 0.  1.
         25    2    1    2    0    0 -0.30992504442E+03 -0.15035308071E+03  0.14104384569E+03  0.39269189927E+03  0.12511586350E+03 0.  0.
          5    1    3    3  502    0 -0.60193861296E+02 -0.57151416564E+02 -0.14023847854E+02  0.84283604940E+02  0.41800000000E+01 0.  1.
         -5    1    3    3    0  502 -0.24973118313E+03 -0.93201664148E+02  0.15506769355E+03  0.30840829433E+03  0.41800000000E+01 0.  1.
        -11    1    1    2    0    0  0.48230137440E+02  0.10237596274E+02  0.77992600412E+02  0.92270256605E+02  0.00000000000E+00 0. -1.
         11    1    1    2    0    0  0.26169490698E+03  0.14011548444E+03  0.16578635326E+03  0.34000248271E+03  0.00000000000E+00 0.  1.
</event>
<event>
 6    1  0.1538147E-010  0.1253270E+03  0.7561462E-02  0.1234559E+00
          4   -1    0    0  501    0  0.00000000000E+00  0.00000000000E+00  0.41639408320E+03  0.41639408320E+03  0.00000000000E+00 0. -1.
         -4   -1    0    0    0  501 -0.00000000000E+00 -0.00000000000E+00 -0.39848594616E+02  0.39848594616E+02  0.00000000000E+00 0.  1.
          5    1    1    2  502    0 -0.27319967622E+02 -0.86647013067E+02  0.10205829779E+03  0.13670206308E+03  0.41800000000E+01 0.  1.
         -5    1    1    2    0  502  0.41988048089E+02  0.25147522989E+02  0.54843152108E+02  0.73624981005E+02  0.41800000000E+01 0.  1.
        -11    1    1    2    0    0 -0.94243632609E+01 -0.23554267703E+02  0.49089072920E+02  0.55257209756E+02  0.00000000000E+00 0.  1.
         11    1    1    2    0    0 -0.52437172057E+01  0.85053757780E+02  0.17055496577E+03  0.19065842397E+03  0.00000000000E+00 0. -1.
</event>
<event>
 6    1  0.1538147E-010  0.1770689E+03  0.7561462E-02  0.1170670E+00
          1   -1    0    0  501    0  0.00000000000E+00  0.00000000000E+00  0.46915360111E+03  0.46915360111E+03  0.00000000000E+00 0. -1.
         -1   -1    0    0    0  501 -0.00000000000E+00 -0.00000000000E+00 -0.12065544914E+03  0.12065544914E+03  0.00000000000E+00 0.  1.
          5    1    1    2  502    0  0.43507479434E+02 -0.28400680407E+02  0.47418761643E+02  0.70466380424E+02  0.41800000000E+01 0. -1.
         -5    1    1    2    0  502  0.98845530547E+02  0.10155729611E+03  0.30345785333E+03  0.33494546489E+03  0.41800000000E+01 0. -1.
        -11    1    1    2    0    0 -0.34053167920E+02 -0.21214024164E+02 -0.41841347122E+02  0.57968537981E+02  0.00000000000E+00 0.  1.
         11    1    1    2    0    0 -0.10829984206E+03 -0.51942591541E+02  0.39462884111E+02  0.12642866696E+03  0.00000000000E+00 0. -1.
</event>
<event>
 7    1  0.1538147E-010  0.1288666E+03  0.7561462E-02  0.1229147E+00
         -2   -1    0    0    0  501 -0.00000000000E+00  0.00000000000E+00  0.54552818638E+02  0.54552818638E+02  0.00000000000E+00 0.  1.
          2   -1    0    0  501    0  0.00000000000E+00 -0.00000000000E+00 -0.40215051205E+03  0.40215051205E+03  0.00000000000E+00 0. -1.
         25    2    1    2    0    0  0.92281288387E+02 -0.36172197971E+02 -0.16037369326E+03  0.22627696464E+03  0.12512904996E+03 0.  0.
          5    1    3    3  502    0  0.76093376025E+02 -0.74524311273E+02 -0.14848597424E+03  0.18278301834E+03  0.41800000000E+01 0.  1.
         -5    1    3    3    0  502  0.16187912362E+02  0.38352113302E+02 -0.11887719016E+02  0.43493946301E+02  0.41800000000E+01 0.  1.
        -11    1    1    2    0    0 -0.28704219385E+02 -0.10361900669E+02 -0.12873265996E+03  0.13230041171E+03  0.00000000000E+00 0. -1.
         11    1    1    2    0    0 -0.63577069002E+02  0.46534098640E+02 -0.58491340191E+02  0.98125954347E+02  0.00000000000E+00 0.  1.
</event>
<event>
 6    1  0.1538147E-010  0.1083680E+03  0.7561462E-02  0.1263622E+00
          1   -1    0    0  501    0  0.00000000000E+00  0.00000000000E+00  0.37727755262E+02  0.37727755262E+02  0.00000000000E+00 0. -1.
         -1   -1    0    0    0  501 -0.00000000000E+00 -0.00000000000E+00 -0.58876490199E+03  0.58876490199E+03  0.00000000000E+00 0.  1.
          5    1    1    2  502    0  0.91858330365E+02 -0.30094396202E+02 -0.61437602629E+02  0.11461098096E+03  0.41800000000E+01 0. -1.
         -5    1    1    2    0  502 -0.76756096244E+01  0.30196079792E+01 -0.13139693412E+03  0.13172190293E+03  0.41800000000E+01 0. -1.
        -11    1    1    2    0    0 -0.20811271990E+01  0.28545867413E+02 -0.28521974927E+02  0.40406691160E+02  0.00000000000E+00 0.  1.
         11    1    1    2    0    0 -0.82101593541E+02 -0.14710791900E+01 -0.32968063505E+03  0.33975308220E+03  0.00000000000E+00 0. -1.
</event>
<event>
 6    1  0.1538147E-010  0.7994679E+02  0.7561462E-02  0.1329202E+00
          1   -1    0    0  501    0  0.00000000000E+00  0.00000000000E+00  0.44236308450E+02  0.44236308450E+02  0.00000000000E+00 0. -1.
         -1   -1    0    0    0  501 -0.00000000000E+00 -0.00000000000E+00 -0.39490305067E+03  0.39490305067E+03  0.00000000000E+00 0.  1.
          5    1    1    2  502    0  0.47925576886E+01 -0.31356450256E+02  0.23446267977E+02  0.39666049261E+02  0.41800000000E+01 0.  1.
         -5    1    1    2    0  502 -0.24162131187E+02 -0.66482906074E+01 -0.12318373041E+03  0.12577643734E+03  0.41800000000E+01 0.  1.
        -11    1    1    2    0    0  0.51506517093E+02 -0.15479126985E+01 -0.78563831694E+02  0.93955271205E+02  0.00000000000E+00 0.  1.
         11    1    1    2    0    0 -0.32136943594E+02  0.39552653562E+02 -0.17236544809E+03  0.17974160131E+03  0.00000000000E+00 0. -1.
</event>
<event>
 7    1  0.1538147E-010  0.1141955E+03  0.7561462E-02  0.1252992E+00
          2   -1    0    0  501    0  0.00000000000E+00  0.00000000000E+00  0.74013408270E+03  0.74013408270E+03  0.00000000000E+00 0. -1.
         -2   -1    0    0    0  501 -0.00000000000E+00 -0.00000000000E+00 -0.24175054860E+02  0.24175054860E+02  0.00000000000E+00 0.  1.
         25    2    1    2    0    0  0.22071236081E+02 -0.56796173758E+02  0.25397611051E+03  0.28960610046E+03  0.12511947850E+03 0.  0.
          5    1    3    3  502    0  0.63626716759E+02 -0.26171207086E+02  0.21205580600E+03  0.22297629566E+03  0.41800000000E+01 0.  1.
         -5    1    3    3    0  502 -0.41555480679E+02 -0.30624966672E+02  0.41920304505E+02  0.66629804801E+02  0.41800000000E+01 0.  1.
        -11    1    1    2    0    0  0.16673276007E+02  0.65815466384E+02  0.32731452139E+03  0.33428202115E+03  0.00000000000E+00 0. -1.
         11    1    1    2    0    0 -0.38744512087E+02 -0.90192926259E+01  0.13466839594E+03  0.14042101595E+03  0.00000000000E+00 0.  1.
</event>
<event>
 7    1  0.1538147E-010  0.1655170E+03  0.7561462E-02  0.1182605E+00
          1   -1    0    0  501    0  0.00000000000E+00  0.00000000000E+00  0.19083080131E+03  0.19083080131E+03  0.00000000000E+00 0. -1.
         -1   -1    0    0    0  501 -0.00000000000E+00 -0.00000000000E+00 -0.15223403904E+03  0.15223403904E+03  0.00000000000E+00 0.  1.
         25    2    1    2    0    0 -0.13188567051E+03  0.11514602483E+02  0.14801863679E+02  0.18275833748E+03  0.12512033645E+03 0.  0.
          5    1    3    3  502    0  0.22295283794E+02 -0.39163068635E+01  0.15496074856E+02  0.27749195932E+02  0.41800000000E+01 0. -1.
         -5    1    3    3    0  502 -0.15418095430E+03  0.15430909346E+02 -0.69421117624E+00  0.15500914154E+03  0.41800000000E+01 0. -1.
        -11    1    1    2    0    0  0.10093019647E+03 -0.42220903721E+02 -0.24177030341E+01  0.10943196315E+03  0.00000000000E+00 0.  1.
         11    1    1    2    0    0  0.30955474036E+02  0.30706301238E+02  0.26212601617E+02  0.50874539724E+02  0.00000000000E+00 0. -1.
</event>
<event>
 6    1  0.1538147E-010  0.1173733E+03  0.7561462E-02  0.1247494E+00
          2   -1    0    0  501    0  0.00000000000E+00  0.00000000000E+00  0.42209543675E+03  0.42209543675E+03  0.00000000000E+00 0. -1.
         -2   -1    0    0    0  501 -0.00000000000E+00 -0.00000000000E+00 -0.35623727730E+02  0.35623727730E+02  0.00000000000E+00 0.  1.
          5    1    1    2  502    0 -0.39183873292E+02 -0.30331470484E+02  0.50294267102E+02  0.70727361969E+02  0.41800000000E+01 0.  1.
         -5    1    1    2    0  502  0.32650776694E+02  0.76566346546E+02  0.10390530190E+03  0.13320008561E+03  0.41800000000E+01 0.  1.
        -11    1    1    2    0    0 -0.40848655838E+02 -0.32910919370E+02  0.10610619000E+03  0.11836496463E+03  0.00000000000E+00 0.  1.
         11    1    1    2    0    0  0.47381752436E+02 -0.13323956692E+02  0.12616595003E+03  0.13542675227E+03  0.00000000000E+00 0. -1.
</event>
<event>
 6    1  0.1538147E-010  0.9727376E+02  0.7561462E-02  0.1286136E+00
          4   -1    0    0  501    0  0.00000000000E+00  0.00000000000E+00  0.12784048798E+03  0.12784048798E+03  0.00000000000E+00 0. -1.
         -4   -1    0    0    0  501 -0.00000000000E+00 -0.00000000000E+00 -0.33027780894E+03  0.33027780894E+03  0.00000000000E+00 0.  1.
          5    1    1    2  502    0  0.32278566502E+02  0.44793932316E+02 -0.24186721207E+03  0.24812420862E+03  0.41800000000E+01 0. -1.
         -5    1    1    2    0  502  0.35700293538E+02 -0.42236454695E+02 -0.42137563304E+02  0.69652535526E+02  0.41800000000E+01 0. -1.
        -11    1    1    2    0    0 -0.40314615482E+02  0.22691599419E+02  0.90676115398E+02  0.10179555398E+03  0.00000000000E+00 0. -1.
         11    1    1    2    0    0 -0.27664244559E+02 -0.25249077040E+02 -0.91086609792E+01  0.38545998797E+02  0.00000000000E+00 0.  1.
</event>
<event>
 7    1  0.1538147E-010  0.9909923E+02  0.7561462E-02  0.1282202E+00
          3   -1    0    0  501    0  0.00000000000E+00  0.00000000000E+00  0.32299121974E+02  0.32299121974E+02  0.00000000000E+00 0.  1.
         -3   -1    0    0    0  501 -0.00000000000E+00 -0.00000000000E+00 -0.42481909002E+03  0.42481909002E+03  0.00000000000E+00 0. -1.
         25    2    1    2    0    0  0.25568402113E+02  0.32570740468E+01 -0.29301154725E+03  0.31962673411E+03  0.12506450584E+03 0.  0.
          5    1    3    3  502    0 -0.23416139222E+02 -0.36251100338E+02 -0.40407432858E+02  0.59267958307E+02  0.41800000000E+01 0. -1.
         -5    1    3    3    0  502  0.48984541335E+02  0.39508174384E+02 -0.25260411439E+03  0.26035877581E+03  0.41800000000E+01 0. -1.
        -11    1    1    2    0    0  0.23975430610E+02  0.25078876973E+02 -0.55363968350E+02  0.65337128301E+02  0.00000000000E+00 0. -1.
         11    1    1    2    0    0 -0.49543832722E+02 -0.28335951020E+02 -0.44144452444E+02  0.72154349575E+02  0.00000000000E+00 0.  1.
</event>
<event>
 7    1  0.3599446E-010  0.1476906E+03  0.7561462E-02  0.1203340E+00
         -1   -1    0    0    0  501 -0.00000000000E+00  0.00000000000E+00  0.35514268182E+03  0.35514268182E+03  0.00000000000E+00 0.  1.
          1   -1    0    0  501    0  0.00000000000E+00 -0.00000000000E+00 -0.72743604870E+02  0.72743604870E+02  0.00000000000E+00 0. -1.
         25    2    1    2    0    0 -0.10569717684E+03 -0.13134025685E+02  0.82500543339E+02  0.18382902701E+03  0.12506948348E+03 0.  0.
          5    1    3    3  502    0 -0.47943012649E+02  0.52786590246E+02  0.14661077823E+02  0.72920341295E+02  0.41800000000E+01 0. -1.
         -5    1    3    3    0  502 -0.57754164192E+02 -0.65920615930E+02  0.67839465516E+02  0.11090868572E+03  0.41800000000E+01 0. -1.
        -11    1    1    2    0    0  0.14690290147E+02 -0.31565779791E+02  0.28852846623E+02  0.45218246723E+02  0.00000000000E+00 0. -1.
         11    1    1    2    0    0  0.91006886694E+02  0.44699805476E+02  0.17104568699E+03  0.19883901295E+03  0.00000000000E+00 0.  1.
</event>
<event>
 7    1  0.1538147E-010  0.7162152E+02  0.7561462E-02  0.1354664E+00
         -1   -1    0    0    0  501 -0.00000000000E+00  0.00000000000E+00  0.16352235980E+02  0.16352235980E+02  0.00000000000E+00 0.  1.
          1   -1    0    0  501    0  0.00000000000E+00 -0.00000000000E+00 -0.15529215916E+04  0.15529215916E+04  0.00000000000E+00 0. -1.
         25    2    1    2    0    0 -0.20227954821E+02  0.51959814377E+02 -0.13289322812E+04  0.13359685817E+04  0.12506818567E+03 0.  0.
          5    1    3    3  502    0 -0.18840901959E+02  0.44512562373E+02 -0.16452815552E+03  0.17153231227E+03  0.41800000000E+01 0. -1.
         -5    1    3    3    0  502 -0.13870528620E+01  0.74472520039E+01 -0.11644041256E+04  0.11644362695E+04  0.41800000000E+01 0. -1.
        -11    1    1    2    0    0 -0.24072024270E+02 -0.21860522690E+02 -0.20002264923E+02  0.38176372362E+02  0.00000000000E+00 0.  1.
         11    1    1    2    0    0  0.44299979091E+02 -0.30099291687E+02 -0.18763480951E+03  0.19512887343E+03  0.00000000000E+00 0. -1.
</event>
<event>
 7    1  0.1538147E-010  0.1078476E+03  0.7561462E-02  0.1264609E+00
         -1   -1    0    0    0  501 -0.00000000000E+00  0.00000000000E+00  0.16955456085E+03  0.16955456085E+03  0.00000000000E+00 0.  1.
          1   -1    0    0  501    0  0.00000000000E+00 -0.00000000000E+00 -0.76406954109E+02  0.76406954109E+02  0.00000000000E+00 0. -1.
         25    2    1    2    0    0  0.13446938138E+02  0.15140092110E+02  0.88077823052E+02  0.15429299883E+03  0.12505432436E+03 0.  0.
          5    1    3    3  502    0 -0.21057934796E+02  0.63414687174E+02  0.51442502400E+02  0.84431407784E+02  0.41800000000E+01 0. -1.
         -5    1    3    3    0  502  0.34504872933E+02 -0.48274595063E+02  0.36635320652E+02  0.69861591050E+02  0.41800000000E+01 0. -1.
        -11    1    1    2    0    0 -0.32656196377E+02 -0.43875803650E+02 -0.68143769159E+01  0.55117592840E+02  0.00000000000E+00 0.  1.
         11    1    1    2    0    0  0.19209258240E+02  0.28735711539E+02  0.11884160607E+02  0.36550923287E+02  0.00000000000E+00 0. -1.
</event>
<event>
 6    1  0.1538147E-010  0.1024467E+03  0.7561462E-02  0.1275233E+00
         -1   -1    0    0    0  501 -0.00000000000E+00  0.00000000000E+00  0.57929872617E+02  0.57929872617E+02  0.00000000000E+00 0.  1.
          1   -1    0    0  501    0  0.00000000000E+00 -0.00000000000E+00 -0.31710991148E+03  0.31710991148E+03  0.00000000000E+00 0. -1.
          5    1    1    2  502    0  0.22403839296E+02 -0.50013657524E+02 -0.33404993987E+02  0.64316902735E+02  0.41800000000E+01 0.  1.
         -5    1    1    2    0  502 -0.28349829326E+01  0.68642641644E+02 -0.43571381723E+01  0.68965980260E+02  0.41800000000E+01 0.  1.
        -11    1    1    2    0    0 -0.49229240116E+02 -0.10287091813E+02 -0.64227078018E+02  0.81574872915E+02  0.00000000000E+00 0.  1.
         11    1    1    2    0    0  0.29660383752E+02 -0.83418923070E+01 -0.15719082868E+03  0.16018202819E+03  0.00000000000E+00 0. -1.
</event>
<event>
 6    1  0.1538147E-010  0.1550357E+03  0.7561462E-02  0.1194418E+00
          1   -1    0    0  501    0  0.00000000000E+00  0.00000000000E+00  0.79249467840E+03  0.79249467840E+03  0.00000000000E+00 0. -1.
         -1   -1    0    0    0  501 -0.00000000000E+00 -0.00000000000E+00 -0.33108895764E+02  0.33108895764E+02  0.00000000000E+00 0.  1.
          5    1    1    2  502    0 -0.45041061115E+02  0.26705655988E+02  0.68180734450E+02  0.86069589277E+02  0.41800000000E+01 0.  1.
         -5    1    1    2    0  502 -0.51068175097E+02 -0.95333772810E+02  0.34286177724E+03  0.35953881214E+03  0.41800000000E+01 0.  1.
        -11    1    1    2    0    0  0.47923694206E+02 -0.17170815499E+02  0.15334962045E+03  0.16157853652E+03  0.00000000000E+00 0. -1.
         11    1    1    2    0    0  0.48185542006E+02  0.85798932321E+02  0.19499365049E+03  0.21841663622E+03  0.00000000000E+00 0.  1.
</event>
<event>
 7    1  0.1538147E-010  0.1065751E+03  0.7561462E-02  0.1267047E+00
          4   -1    0    0  501    0  0.00000000000E+00  0.00000000000E+00  0.11571604237E+03  0.11571604237E+03  0.00000000000E+00 0. -1.
         -4   -1    0    0    0  501 -0.00000000000E+00 -0.00000000000E+00 -0.23809777985E+03  0.23809777985E+03  0.00000000000E+00 0.  1.
         25    2    1    2    0    0  0.94815681456E+01  0.81677877545E+02  0.35349925549E+02  0.15379221698E+03  0.12506499492E+03 0.  0.
          5    1    3    3  502    0 -0.13107783865E+02  0.43722439022E+02 -0.43580627963E+02  0.63247207097E+02  0.41800000000E+01 0.  1.
         -5    1    3    3    0  502  0.22589352011E+02  0.37955438523E+02  0.78930553512E+02  0.90545009887E+02  0.41800000000E+01 0.  1.
        -11    1    1    2    0    0 -0.21713113847E+02  0.14426187329E+02 -0.35895522489E+02  0.44362853026E+02  0.00000000000E+00 0. -1.
         11    1    1    2    0    0  0.12231545702E+02 -0.96104064874E+02 -0.12183614054E+03  0.15565875221E+03  0.00000000000E+00 0.  1.
</event>
<event>
 7    1  0.1538147E-010  0.1096050E+03  0.7561462E-02  0.1261303E+00
          3   -1    0    0  501    0  0.00000000000E+00  0.00000000000E+00  0.17766568059E+03  0.17766568059E+03  0.00000000000E+00 0. -1.
         -3   -1    0    0    0  501 -0.00000000000E+00 -0.00000000000E+00 -0.10020474428E+03  0.10020474428E+03  0.00000000000E+00 0.  1.
         25    2    1    2    0    0  0.94270446336E+01 -0.60259270780E+02  0.23707865068E+02  0.14121009657E+03  0.12513264811E+03 0.  0.
          5    1    3    3  502    0  0.23905136181E+02  0.10994459678E+02 -0.37551357815E+02  0.46042486392E+02  0.41800000000E+01 0.  1.
         -5    1    3    3    0  502 -0.14478091547E+02 -0.71253730458E+02  0.61259222883E+02  0.95167610179E+02  0.41800000000E+01 0.  1.
        -11    1    1    2    0    0  0.23595139175E+02 -0.21274995321E+02 -0.30977785919E+01  0.31921031481E+02  0.00000000000E+00 0.  1.
         11    1    1    2    0    0 -0.33022183808E+02  0.81534266101E+02  0.56850849825E+02  0.10473929682E+03  0.00000000000E+00 0. -1.
</event>
<event>
 6    1  0.1538147E-010  0.1870592E+03  0.7561462E-02  0.1161141E+00
         -3   -1    0    0    0  501 -0.00000000000E+00  0.00000000000E+00  0.49509583837E+03  0.49509583837E+03  0.00000000000E+00 0.  1.
          3   -1    0    0  501    0  0.00000000000E+00 -0.00000000000E+00 -0.13031029723E+03  0.13031029723E+03  0.00000000000E+00 0. -1.
          5    1    1    2  502    0  0.11041266599E+02  0.39265497761E+02  0.76460118891E+01  0.41708785409E+02  0.41800000000E+01 0.  1.
         -5    1    1    2    0  502 -0.25564382849E+01  0.14546609149E+03  0.36095593833E+03  0.38919607008E+03  0.41800000000E+01 0.  1.
        -11    1    1    2    0    0 -0.11500383285E+02 -0.22144581136E+02  0.17524711734E+02  0.30491913859E+02  0.00000000000E+00 0.  1.
         11    1    1    2    0    0  0.30155549710E+01 -0.16258700812E+03 -0.21341120813E+02  0.16400936625E+03  0.00000000000E+00 0. -1.
</event>
<event>
 6    1  0.1538147E-010  0.1213256E+03  0.7561462E-02  0.1240926E+00
         -1   -1    0    0    0  501 -0.00000000000E+00  0.00000000000E+00  0.24826421234E+03  0.24826421234E+03  0.00000000000E+00 0.  1.
          1   -1    0    0  501    0  0.00000000000E+00 -0.00000000000E+00 -0.82883829046E+02  0.82883829046E+02  0.00000000000E+00 0. -1.
          5    1    1    2  502    0 -0.29311424949E+02  0.28170246286E+02  0.89764767567E+02  0.98630159205E+02  0.41800000000E+01 0.  1.
         -5    1    1    2    0  502 -0.60875117506E+02 -0.55936533538E+02  0.18559187028E+01  0.82798505723E+02  0.41800000000E+01 0.  1.
        -11    1    1    2    0    0 -0.77010106624E+00  0.28037851915E+02  0.47301591495E+02  0.54992315405E+02  0.00000000000E+00 0.  1.
         11    1    1    2    0    0  0.90956643521E+02 -0.27156466200E+00  0.26458105530E+02  0.94727061055E+02  0.00000000000E+00 0. -1.
</event>
<event>
 6    1  0.1538147E-010  0.1607941E+03  0.7561462E-02  0.1187803E+00
          1   -1    0    0  501    0  0.00000000000E+00  0.00000000000E+00  0.66431777775E+03  0.66431777775E+03  0.00000000000E+00 0. -1.
         -1   -1    0    0    0  501 -0.00000000000E+00 -0.00000000000E+00 -0.42341997796E+02  0.42341997796E+02  0.00000000000E+00 0.  1.
          5    1    1    2  502    0  0.14680567961E+02  0.95460489645E+02  0.16568041449E+03  0.19182204333E+03  0.41800000000E+01 0. -1.
         -5    1    1    2    0  502 -0.76851492863E+02  0.15699776190E+02  0.20633425882E+03  0.22078028375E+03  0.41800000000E+01 0. -1.
        -11    1    1    2    0    0  0.75128262037E+02 -0.11019926555E+03  0.24703505760E+03  0.28073912012E+03  0.00000000000E+00 0. -1.
         11    1    1    2    0    0 -0.12957337135E+02 -0.96100028959E+00  0.29260490441E+01  0.13318328356E+02  0.00000000000E+00 0.  1.
</event>
<event>
 7    1  0.1538147E-010  0.9794087E+02  0.7561462E-02  0.1284687E+00
          2   -1    0    0  501    0  0.00000000000E+00  0.00000000000E+00  0.56918286554E+03  0.56918286554E+03  0.00000000000E+00 0. -1.
         -2   -1    0    0    0  501 -0.00000000000E+00 -0.00000000000E+00 -0.40329132693E+02  0.40329132693E+02  0.00000000000E+00 0.  1.
         25    2    1    2    0    0 -0.58404122011E+01  0.49571395181E+02  0.47479749327E+03  0.49353909364E+03  0.12512691037E+03 0.  0.
          5    1    3    3  502    0 -0.20998745249E+02 -0.17718711559E+02  0.34821949491E+03  0.34932676548E+03  0.41800000000E+01 0.  1.
         -5    1    3    3    0  502  0.15158333048E+02  0.67290106740E+02  0.12657799836E+03  0.14421232816E+03  0.41800000000E+01 0.  1.
        -11    1    1    2    0    0  0.13498121716E+02  0.22646761159E+02  0.28893759906E+02  0.39114248585E+02  0.00000000000E+00 0. -1.
         11    1    1    2    0    0 -0.76577095148E+01 -0.72218156340E+02  0.25162479670E+02  0.76858656008E+02  0.00000000000E+00 0.  1.
</event>
<event>
 7    1  0.1538147E-010  0.1930859E+03  0.7561462E-02  0.1155707E+00
         -1   -1    0    0    0  501 -0.00000000000E+00  0.00000000000E+00  0.61336398677E+03  0.61336398677E+03  0.00000000000E+00 0.  1.
          1   -1    0    0  501    0  0.00000000000E+00 -0.00000000000E+00 -0.83439050606E+02  0.83439050606E+02  0.00000000000E+00 0. -1.
         25    2    1    2    0    0  0.15332464511E+03  0.64123543019E+02  0.44104244905E+03  0.48764722280E+03  0.12514430259E+03 0.  0.
          5    1    3    3  502    0  0.16609486623E+03  0.72506110153E+02  0.33940119514E+03  0.38477952682E+03  0.41800000000E+01 0. -1.
         -5    1    3    3    0  502 -0.12770221120E+02 -0.83825671345E+01  0.10164125391E+03  0.10286769598E+03  0.41800000000E+01 0. -1.
        -11    1    1    2    0    0 -0.10262655957E+03  0.56799941313E+01  0.53925361928E+02  0.11607074447E+03  0.00000000000E+00 0.  1.
         11    1    1    2    0    0 -0.50698085541E+02 -0.69803537150E+02  0.34957125178E+02  0.93085070107E+02  0.00000000000E+00 0. -1.
</event>
<event>
 7    1  0.1538147E-010  0.1392150E+03  0.7561462E-02  0.1214389E+00
         -2   -1    0    0    0  501 -0.00000000000E+00  0.00000000000E+00  0.46529968133E+03  0.46529968133E+03  0.00000000000E+00 0.  1.
          2   -1    0    0  501    0  0.00000000000E+00 -0.00000000000E+00 -0.60220106381E+02  0.60220106381E+02  0.00000000000E+00 0. -1.
         25    2    1    2    0    0 -0.96152479616E+02  0.57635554924E+02  0.12076443781E+03  0.20689290780E+03  0.12511382550E+03 0.  0.
          5    1    3    3  502    0 -0.56484681823E+02  0.72538988888E+02  0.13376945171E+03  0.16237044928E+03  0.41800000000E+01 0.  1.
         -5    1    3    3    0  502 -0.39667797793E+02 -0.14903433964E+02 -0.13005013904E+02  0.44522458516E+02  0.41800000000E+01 0.  1.
        -11    1    1    2    0    0  0.72098264730E+02 -0.82266729129E+02  0.21421382137E+03  0.24052761954E+03  0.00000000000E+00 0. -1.
         11    1    1    2    0    0  0.24054214886E+02  0.24631174205E+02  0.70101315773E+02  0.78099260366E+02  0.00000000000E+00 0.  1.
</event>
<event>
 6    1  0.1538147E-010  0.1222578E+03  0.7561462E-02  0.1239418E+00
          1   -1    0    0  501    0  0.00000000000E+00  0.00000000000E+00  0.17835730933E+02  0.17835730933E+02  0.00000000000E+00 0. -1.
         -1   -1    0    0    0  501 -0.00000000000E+00 -0.00000000000E+00 -0.88799720930E+03  0.88799720930E+03  0.00000000000E+00 0.  1.
          5    1    1    2  502    0  0.46158425612E+02  0.34863876279E+02 -0.16506057642E+03  0.17495301201E+03  0.41800000000E+01 0. -1.
         -5    1    1    2    0  502  0.51951963754E+00 -0.78121898120E+02 -0.37008163328E+03  0.37826074149E+03  0.41800000000E+01 0. -1.
        -11    1    1    2    0    0 -0.61267471593E+02 -0.14203444978E+01 -0.21977004690E+03  0.22815475881E+03  0.00000000000E+00 0.  1.
         11    1    1    2    0    0  0.14589526343E+02  0.44678366338E+02 -0.11524922177E+03  0.12446442792E+03  0.00000000000E+00 0. -1.
</event>
<event>
 7    1  0.1538147E-010  0.1161860E+03  0.7561462E-02  0.1249525E+00
         -1   -1    0    0    0  501 -0.00000000000E+00  0.00000000000E+00  0.26018585737E+03  0.26018585737E+03  0.00000000000E+00 0.  1.
          1   -1    0    0  501    0  0.00000000000E+00 -0.00000000000E+00 -0.80140188849E+02  0.80140188849E+02  0.00000000000E+00 0. -1.
         25    2    1    2    0    0 -0.70815407892E+02 -0.73584005459E+01  0.24202404227E+02  0.14598878315E+03  0.12513193190E+03 0.  0.
          5    1    3    3  502    0 -0.30782679511E+02 -0.58171398781E+02 -0.18343597471E+02  0.68450310169E+02  0.41800000000E+01 0.  1.
         -5    1    3    3    0  502 -0.40032728381E+02  0.50812998235E+02  0.42546001698E+02  0.77538472978E+02  0.41800000000E+01 0.  1.
        -11    1    1    2    0    0  0.21059420032E+02  0.37801395701E+02  0.11570322436E+03  0.12353008061E+03  0.00000000000E+00 0.  1.
         11    1    1    2    0    0  0.49755987860E+02 -0.30442995155E+02  0.40140039933E+02  0.70807182459E+02  0.00000000000E+00 0. -1.
</event>
<event>
 7    1  0.1538147E-010  0.1109884E+03  0.7561462E-02  0.1258750E+00
         -4   -1    0    0    0  501 -0.00000000000E+00  0.00000000000E+00  0.15177644696E+03  0.15177644696E+03  0.00000000000E+00 0.  1.
          4   -1    0    0  501    0  0.00000000000E+00 -0.00000000000E+00 -0.85039065726E+02  0.85039065726E+02  0.00000000000E+00 0. -1.
         25    2    1    2    0    0 -0.35728210529E+02 -0.54611998281E+01  0.34337526466E+02  0.13469529389E+03  0.12512963974E+03 0.  0.
          5    1    3    3  502    0  0.41805432465E+02  0.17671043468E+02 -0.26014074890E+01  0.45653035844E+02  0.41800000000E+01 0.  1.
         -5    1    3    3    0  502 -0.77533642993E+02 -0.23132243297E+02  0.36938933955E+02  0.89042258044E+02  0.41800000000E+01 0.  1.
        -11    1    1    2    0    0 -0.16299165404E+02  0.32785124926E+02  0.21163164467E+02  0.42289558280E+02  0.00000000000E+00 0.  1.
         11    1    1    2    0    0  0.52027375933E+02 -0.27323925097E+02  0.11236690301E+02  0.59830660519E+02  0.00000000000E+00 0. -1.
</event>
<event>
 7    1  0.1538147E-010  0.8448451E+02  0.7561462E-02  0.1316786E+00
         -1   -1    0    0    0  501 -0.00000000000E+00  0.00000000000E+00  0.69189374922E+02  0.69189374922E+02  0.00000000000E+00 0.  1.
          1   -1    0    0  501    0  0.00000000000E+00 -0.00000000000E+00 -0.19542689631E+03  0.19542689631E+03  0.00000000000E+00 0. -1.
         25    2    1    2    0    0 -0.11534080510E+02 -0.16508244227E+01 -0.12148448183E+03  0.17474577576E+03  0.12506736819E+03 0.  0.
          5    1    3    3  502    0  0.16160556791E+02 -0.38553269892E+02 -0.12135140045E+03  0.12841788429E+03  0.41800000000E+01 0.  1.
         -5    1    3    3    0  502 -0.27694637302E+02  0.36902445469E+02 -0.13308138031E+00  0.46327891464E+02  0.41800000000E+01 0.  1.
        -11    1    1    2    0    0 -0.33407191593E+02  0.10100688824E+02  0.17468586797E+02  0.39028398501E+02  0.00000000000E+00 0.  1.
         11    1    1    2    0    0  0.44941272104E+02 -0.84498644009E+01 -0.22221626352E+02  0.50842096971E+02  0.00000000000E+00 0. -1.
</event>
<event>
 7    1  0.1538147E-010  0.1269712E+03  0.7561462E-02  0.1232020E+00
         -1   -1    0    0    0  501 -0.00000000000E+00  0.00000000000E+00  0.31534475281E+03  0.31534475281E+03  0.00000000000E+00 0.  1.
          1   -1    0    0  501    0  0.00000000000E+00 -0.00000000000E+00 -0.66431446085E+02  0.66431446085E+02  0.00000000000E+00 0. -1.
         25    2    1    2    0    0  0.94761442895E+02  0.26710027127E+02  0.12606916769E+03  0.20307792069E+03  0.12511614692E+03 0.  0.
          5    1    3    3  502    0  0.88776497087E+02 -0.10134108458E+02  0.21543360226E+02  0.92008452651E+02  0.41800000000E+01 0. -1.
         -5    1    3    3    0  502  0.59849458081E+01  0.36844135585E+02  0.10452580747E+03  0.11106946804E+03  0.41800000000E+01 0. -1.
        -11    1    1    2    0    0 -0.29623756313E+02 -0.49697165849E+02  0.74771689308E+02  0.94541952346E+02  0.00000000000E+00 0.  1.
         11    1    1    2    0    0 -0.65137686583E+02  0.22987138721E+02  0.48072449725E+02  0.84156325861E+02  0.00000000000E+00 0. -1.
</event>
<event>
 7    1  0.1538147E-010  0.1221154E+03  0.7561462E-02  0.1239648E+00
          1   -1    0    0  501    0  0.00000000000E+00  0.00000000000E+00  0.35863509939E+03  0.35863509939E+03  0.00000000000E+00 0. -1.
         -1   -1    0    0    0  501 -0.00000000000E+00 -0.00000000000E+00 -0.49335819777E+02  0.49335819777E+02  0.00000000000E+00 0.  1.
         25    2    1    2    0    0 -0.24014019409E+02  0.58525169555E+02  0.23656529555E+03  0.27496521162E+03  0.12506342369E+03 0.  0.
          5    1    3    3  502    0 -0.43054971356E+02 -0.27495637692E+02  0.10043866648E+03  0.11276142414E+03  0.41800000000E+01 0. -1.
         -5    1    3    3    0  502  0.19040951947E+02  0.86020807246E+02  0.13612662908E+03  0.16220378748E+03  0.41800000000E+01 0. -1.
        -11    1    1    2    0    0 -0.16288630625E+02 -0.62204807986E+02  0.21683271100E+02  0.67859574637E+02  0.00000000000E+00 0.  1.
         11    1    1    2    0    0  0.40302650035E+02  0.36796384318E+01  0.51050712959E+02  0.65146132905E+02  0.00000000000E+00 0. -1.
</event>
<event>
 6    1  0.1538147E-010  0.9350077E+02  0.7561462E-02  0.1294589E+00
          1   -1    0    0  501    0  0.00000000000E+00  0.00000000000E+00  0.28691316079E+03  0.28691316079E+03  0.00000000000E+00 0. -1.
         -1   -1    0    0    0  501 -0.00000000000E+00 -0.00000000000E+00 -0.48105026374E+02  0.48105026374E+02  0.00000000000E+00 0.  1.
          5    1    1    2  502    0  0.34288897485E+02 -0.13226738480E+02  0.20505169016E+01  0.37045271239E+02  0.41800000000E+01 0. -1.
         -5    1    1    2    0  502 -0.28798153397E+02  0.52318265971E+02  0.16544389417E+03  0.17594228915E+03  0.41800000000E+01 0. -1.
        -11    1    1    2    0    0 -0.29732180703E+02  0.13183698515E+02  0.51856113241E+02  0.61211673367E+02  0.00000000000E+00 0. -1.
         11    1    1    2    0    0  0.24241436614E+02 -0.52275226006E+02  0.19457610108E+02  0.60818953413E+02  0.00000000000E+00 0.  1.
</event>
<event>
 7    1  0.1538147E-010  0.1503077E+03  0.7561462E-02  0.1200095E+00
         -2   -1    0    0    0  501 -0.00000000000E+00  0.00000000000E+00  0.11243803310E+03  0.11243803310E+03  0.00000000000E+00 0.  1.
          2   -1    0    0  501    0  0.00000000000E+00 -0.00000000000E+00 -0.27448656419E+03  0.27448656419E+03  0.00000000000E+00 0. -1.
         25    2    1    2    0    0 -0.70150067613E+02 -0.11977366786E+03 -0.97024536167E+02  0.21052765002E+03  0.12506545208E+03 0.  0.
          5    1    3    3  502    0 -0.79156357295E+02 -0.64887910754E+02 -0.45564256656E+01  0.10253976437E+03  0.41800000000E+01 0. -1.
         -5    1    3    3    0  502  0.90062896821E+01 -0.54885757111E+02 -0.92468110501E+02  0.10798788565E+03  0.41800000000E+01 0. -1.
        -11    1    1    2    0    0  0.52709167388E+02  0.11099525399E+03 -0.16356401205E+02  0.12395860033E+03  0.00000000000E+00 0.  1.
         11    1    1    2    0    0  0.17440900225E+02  0.87784138732E+01 -0.48667593726E+02  0.52438346941E+02  0.00000000000E+00 0. -1.
</event>
<event>
 6    1  0.1538147E-010  0.1023088E+03  0.7561462E-02  0.1275514E+00
          2   -1    0    0  501    0  0.00000000000E+00  0.00000000000E+00  0.25553312890E+02  0.25553312890E+02  0.00000000000E+00 0. -1.
         -2   -1    0    0    0  501 -0.00000000000E+00 -0.00000000000E+00 -0.51177613834E+03  0.51177613834E+03  0.00000000000E+00 0.  1.
          5    1    1    2  502    0 -0.54426704013E+02 -0.11754517174E+02 -0.77028284944E+02  0.95138130448E+02  0.41800000000E+01 0.  1.
         -5    1    1    2    0  502  0.58448388475E+02  0.32804437404E+02 -0.17829095834E+03  0.19051898450E+03  0.41800000000E+01 0.  1.
        -11    1    1    2    0    0  0.30562612367E+02 -0.33051840602E+02 -0.19596028521E+03  0.20106449418E+03  0.00000000000E+00 0.  1.
         11    1    1    2    0    0 -0.34584296829E+02  0.12001920372E+02 -0.34943296953E+02  0.50607842097E+02  0.00000000000E+00 0. -1.
</event>
<event>
 6    1  0.1538147E-010  0.1363505E+03  0.7561462E-02  0.1218326E+00
          1   -1    0    0  501    0  0.00000000000E+00  0.00000000000E+00  0.98206195708E+02  0.98206195708E+02  0.00000000000E+00 0. -1.
         -1   -1    0    0    0  501 -0.00000000000E+00 -0.00000000000E+00 -0.23117039633E+03  0.23117039633E+03  0.00000000000E+00 0.  1.
          5    1    1    2  502    0  0.10903014617E+03  0.51878964877E+02 -0.86959724439E+01  0.12112841165E+03  0.41800000000E+01 0.  1.
         -5    1    1    2    0  502 -0.33035454955E+02 -0.26770221405E+01 -0.73825234709E+01  0.34212304577E+02  0.41800000000E+01 0.  1.
        -11    1    1    2    0    0 -0.51302393094E+02 -0.69590662306E+02 -0.11224118480E+03  0.14167878946E+03  0.00000000000E+00 0.  1.
         11    1    1    2    0    0 -0.24692298126E+02  0.20388719569E+02 -0.46445199104E+01  0.32357086358E+02  0.00000000000E+00 0. -1.
</event>
<event>
 7    1  0.1538147E-010  0.9578646E+02  0.7561462E-02  0.1289415E+00
         -1   -1    0    0    0  501 -0.00000000000E+00  0.00000000000E+00  0.81044767865E+02  0.81044767865E+02  0.00000000000E+00 0.  1.
          1   -1    0    0  501    0  0.00000000000E+00 -0.00000000000E+00 -0.17926083137E+03  0.17926083137E+03  0.00000000000E+00 0. -1.
         25    2    1    2    0    0 -0.10488771642E+02  0.32470116296E+02 -0.14577806752E+02  0.13050344196E+03  0.12511719759E+03 0.  0.
          5    1    3    3  502    0  0.50222716752E+01  0.77620805831E+02  0.64660758526E+01  0.78163260216E+02  0.41800000000E+01 0. -1.
         -5    1    3    3    0  502 -0.15511043317E+02 -0.45150689535E+02 -0.21043882605E+02  0.52340181747E+02  0.41800000000E+01 0. -1.
        -11    1    1    2    0    0 -0.80383327553E+01  0.13767776691E+02  0.13334628902E+02  0.20784099606E+02  0.00000000000E+00 0.  1.
         11    1    1    2    0    0  0.18527104397E+02 -0.46237892987E+02 -0.96972885657E+02  0.10901805767E+03  0.00000000000E+00 0. -1.
</event>
<event>
 7    1  0.1538147E-010  0.1798814E+03  0.7561462E-02  0.1167918E+00
         -1   -1    0    0    0  501 -0.00000000000E+00  0.00000000000E+00  0.57928055170E+02  0.57928055170E+02  0.00000000000E+00 0.  1.
          1   -1    0    0  501    0  0.00000000000E+00 -0.00000000000E+00 -0.78629222568E+03  0.78629222568E+03  0.00000000000E+00 0. -1.
         25    2    1    2    0    0 -0.10398514578E+03 -0.12025249647E+03 -0.55257655151E+03  0.58843186334E+03  0.12505054603E+03 0.  0.
          5    1    3    3  502    0 -0.74172423334E+02  0.19034572143E+01 -0.24796805833E+03  0.25886444693E+03  0.41800000000E+01 0. -1.
         -5    1    3    3    0  502 -0.29812722450E+02 -0.12215595369E+03 -0.30460849318E+03  0.32956741641E+03  0.41800000000E+01 0. -1.
        -11    1    1    2    0    0  0.55351621800E+02  0.74946160615E+02 -0.33974501277E+02  0.99171547149E+02  0.00000000000E+00 0.  1.
         11    1    1    2    0    0  0.48633523984E+02  0.45306335856E+02 -0.14181311772E+03  0.15661687036E+03  0.00000000000E+00 0. -1.
</event>
<event>
 7    1  0.1538147E-010  0.1100242E+03  0.7561462E-02  0.1260525E+00
          2   -1    0    0  501    0  0.00000000000E+00  0.00000000000E+00  0.48368610911E+03  0.48368610911E+03  0.00000000000E+00 0.  1.
         -2   -1    0    0    0  501 -0.00000000000E+00 -0.00000000000E+00 -0.46228858571E+02  0.46228858571E+02  0.00000000000E+00 0. -1.
         25    2    1    2    0    0 -0.90174594687E+02  0.27614400334E+02  0.29619949516E+03  0.33509072459E+03  0.12513049247E+03 0.  0.
          5    1    3    3  502    0 -0.80292260396E+02  0.97221358258E+01  0.30261422145E+03  0.31326379687E+03  0.41800000000E+01 0. -1.
         -5    1    3    3    0  502 -0.98823342909E+01  0.17892264508E+02 -0.64147262977E+01  0.21826927721E+02  0.41800000000E+01 0. -1.
        -11    1    1    2    0    0  0.89980599079E+02  0.60099765845E+00  0.14019541545E+03  0.16658818663E+03  0.00000000000E+00 0.  1.
         11    1    1    2    0    0  0.19399560772E+00 -0.28215397993E+02  0.10623399243E+01  0.28236056458E+02  0.00000000000E+00 0. -1.
</event>
<event>
 6    1  0.1538147E-010  0.1078220E+03  0.7561462E-02  0.1264657E+00
          2   -1    0    0  501    0  0.00000000000E+00  0.00000000000E+00  0.62459296833E+03  0.62459296833E+03  0.00000000000E+00 0. -1.
         -2   -1    0    0    0  501 -0.00000000000E+00 -0.00000000000E+00 -0.30759166590E+02  0.30759166590E+02  0.00000000000E+00 0.  1.
          5    1    1    2  502    0  0.53301751691E+02  0.87468957141E+02  0.34356646829E+03  0.35853491564E+03  0.41800000000E+01 0. -1.
         -5    1    1    2    0  502 -0.24871990758E+02 -0.63907592237E+01  0.13091367640E+02  0.29125831051E+02  0.41800000000E+01 0. -1.
        -11    1    1    2    0    0 -0.29652024380E+02 -0.70777264641E+02  0.24366018186E+03  0.25545830964E+03  0.00000000000E+00 0. -1.
         11    1    1    2    0    0  0.12222634467E+01 -0.10300933277E+02 -0.64842160444E+01  0.12233078599E+02  0.00000000000E+00 0.  1.
</event>
<event>
 7    1  0.1538147E-010  0.1386667E+03  0.7561462E-02  0.1215134E+00
          2   -1    0    0  501    0  0.00000000000E+00  0.00000000000E+00  0.15044851677E+04  0.15044851677E+04  0.00000000000E+00 0. -1.
         -2   -1    0    0    0  501 -0.00000000000E+00 -0.00000000000E+00 -0.19760576115E+02  0.19760576115E+02  0.00000000000E+00 0.  1.
         25    2    1    2    0    0  0.14359618473E+02 -0.88008926053E+02  0.12291354243E+04  0.12387027337E+04  0.12513513343E+03 0.  0.
          5    1    3    3  502    0  0.63788393897E+02 -0.22285113271E+02  0.42440107442E+03  0.42976659926E+03  0.41800000000E+01 0.  1.
         -5    1    3    3    0  502 -0.49428775424E+02 -0.65723812782E+02  0.80473434986E+03  0.80893613447E+03  0.41800000000E+01 0.  1.
        -11    1    1    2    0    0 -0.52138955233E+02  0.63915823476E+02  0.16307310285E+03  0.18274720249E+03  0.00000000000E+00 0.  1.
         11    1    1    2    0    0  0.37779336760E+02  0.24093102577E+02  0.92516064440E+02  0.10279580759E+03  0.00000000000E+00 0. -1.
</event>
<event>
 7    1  0.1538147E-010  0.2942878E+03  0.7561462E-02  0.1088131E+00
         -1   -1    0    0    0  501 -0.00000000000E+00  0.00000000000E+00  0.14754427906E+03  0.14754427906E+03  0.00000000000E+00 0.  1.
          1   -1    0    0  501    0  0.00000000000E+00 -0.00000000000E+00 -0.66773348896E+03  0.66773348896E+03  0.00000000000E+00 0. -1.
         25    2    1    2    0    0 -0.66317535816E+02 -0.27850874345E+03 -0.35394287135E+03  0.47210404916E+03  0.12506614777E+03 0.  0.
          5    1    3    3  502    0 -0.42279912401E+02 -0.34945273378E+02 -0.12659101637E+03  0.13802724713E+03  0.41800000000E+01 0.  1.
         -5    1    3    3    0  502 -0.24037623415E+02 -0.24356347007E+03 -0.22735185498E+03  0.33407680203E+03  0.41800000000E+01 0.  1.
        -11    1    1    2    0    0  0.60598877851E+02  0.17650403648E+03 -0.60603308337E+02  0.19621075371E+03  0.00000000000E+00 0.  1.
         11    1    1    2    0    0  0.57186579651E+01  0.10200470697E+03 -0.10564303021E+03  0.14696296515E+03  0.00000000000E+00 0. -1.
</event>
<event>
 7    1  0.1538147E-010  0.1099532E+03  0.7561462E-02  0.1260657E+00
         -2   -1    0    0    0  501 -0.00000000000E+00  0.00000000000E+00  0.10920487580E+03  0.10920487580E+03  0.00000000000E+00 0. -1.
          2   -1    0    0  501    0  0.00000000000E+00 -0.00000000000E+00 -0.12960415645E+03  0.12960415645E+03  0.00000000000E+00 0.  1.
         25    2    1    2    0    0  0.47836539332E+02  0.13208915402E+01 -0.96502151934E+01  0.13429990005E+03  0.12511297794E+03 0.  0.
          5    1    3    3  502    0 -0.11916465273E+01  0.57992486014E+02  0.27955335780E+01  0.58222296962E+02  0.41800000000E+01 0. -1.
         -5    1    3    3    0  502  0.49028185859E+02 -0.56671594474E+02 -0.12445748771E+02  0.76077603087E+02  0.41800000000E+01 0. -1.
        -11    1    1    2    0    0 -0.61553818055E+02 -0.18909966649E+02 -0.33552646703E+02  0.72610188380E+02  0.00000000000E+00 0.  1.
         11    1    1    2    0    0  0.13717278723E+02  0.17589075109E+02  0.22803581253E+02  0.31898943818E+02  0.00000000000E+00 0. -1.
</event>
<event>
 6    1  0.1538147E-010  0.1087151E+03  0.7561462E-02  0.1262968E+00
          2   -1    0    0  501    0  0.00000000000E+00  0.00000000000E+00  0.96735827550E+02  0.96735827550E+02  0.00000000000E+00 0. -1.
         -2   -1    0    0    0  501 -0.00000000000E+00 -0.00000000000E+00 -0.22390482159E+03  0.22390482159E+03  0.00000000000E+00 0.  1.
          5    1    1    2  502    0 -0.29890129339E+02 -0.91009881567E+02  0.27018246421E+02  0.99617651119E+02  0.41800000000E+01 0.  1.
         -5    1    1    2    0  502  0.33613393310E+02  0.74688141855E+01 -0.37611157701E+02  0.51163609908E+02  0.41800000000E+01 0.  1.
        -11    1    1    2    0    0 -0.13683882002E+02  0.52894238563E+02 -0.12511360041E+03  0.13652275308E+03  0.00000000000E+00 0.  1.
         11    1    1    2    0    0  0.99606180305E+01  0.30646828819E+02  0.85375176492E+01  0.33336635040E+02  0.00000000000E+00 0. -1.
</event>
<event>
 7    1  0.1538147E-010  0.1175235E+03  0.7561462E-02  0.1247239E+00
          1   -1    0    0  501    0  0.00000000000E+00  0.00000000000E+00  0.78020819878E+02  0.78020819878E+02  0.00000000000E+00 0. -1.
         -1   -1    0    0    0  501 -0.00000000000E+00 -0.00000000000E+00 -0.31537119102E+03  0.31537119102E+03  0.00000000000E+00 0.  1.
         25    2    1    2    0    0  0.10999323647E+03 -0.27453074084E+02 -0.16061468863E+03  0.23300130929E+03  0.12506137925E+03 0.  0.
          5    1    3    3  502    0  0.84742051406E+02 -0.17060894384E+02 -0.18852848442E+02  0.88573086703E+02  0.41800000000E+01 0.  1.
         -5    1    3    3    0  502  0.25251185068E+02 -0.10392179700E+02 -0.14176184018E+03  0.14442822258E+03  0.41800000000E+01 0.  1.
        -11    1    1    2    0    0 -0.66668969445E+02  0.37379193698E+02 -0.57635932340E+01  0.76649687640E+02  0.00000000000E+00 0. -1.
         11    1    1    2    0    0 -0.43324267029E+02 -0.99261196140E+01 -0.70972089286E+02  0.83741013976E+02  0.00000000000E+00 0.  1.
</event>
<event>
 6    1  0.1538147E-010  0.1069513E+03  0.7561462E-02  0.1266322E+00
          2   -1    0    0  501    0  0.00000000000E+00  0.00000000000E+00  0.17282317659E+03  0.17282317659E+03  0.00000000000E+00 0. -1.
         -2   -1    0    0    0  501 -0.00000000000E+00 -0.00000000000E+00 -0.82683683806E+02  0.82683683806E+02  0.00000000000E+00 0.  1.
          5    1    1    2  502    0 -0.40955528923E+02  0.47591840244E+02  0.66919623875E+02  0.91858843160E+02  0.41800000000E+01 0. -1.
         -5    1    1    2    0  502  0.33890445089E+02 -0.45909660559E+02  0.19600665943E+02  0.60480721775E+02  0.41800000000E+01 0. -1.
        -11    1    1    2    0    0 -0.20673215604E+02 -0.40838682442E+02  0.23228056769E+02  0.51329547517E+02  0.00000000000E+00 0. -1.
         11    1    1    2    0    0  0.27738299438E+02  0.39156502757E+02 -0.19608853806E+02  0.51837747940E+02  0.00000000000E+00 0.  1.
</event>
<event>
 7    1  0.1538147E-010  0.8807960E+02  0.7561462E-02  0.1307570E+00
          2   -1    0    0  501    0  0.00000000000E+00  0.00000000000E+00  0.14972656896E+03  0.14972656896E+03  0.00000000000E+00 0.  1.
         -2   -1    0    0    0  501 -0.00000000000E+00 -0.00000000000E+00 -0.80465092881E+02  0.80465092881E+02  0.00000000000E+00 0. -1.
         25    2    1    2    0    0  0.20274796168E+02 -0.15286371708E+02  0.28386020987E+02  0.13072904870E+03  0.12505829627E+03 0.  0.
          5    1    3    3  502    0 -0.42694038032E+02 -0.31838069350E+02 -0.10968767178E+02  0.54536499675E+02  0.41800000000E+01 0. -1.
         -5    1    3    3    0  502  0.62968834199E+02  0.16551697642E+02  0.39354788165E+02  0.76192549024E+02  0.41800000000E+01 0. -1.
        -11    1    1    2    0    0  0.50288127034E+01 -0.16279998707E+02  0.54242117462E+02  0.56855383403E+02  0.00000000000E+00 0.  1.
         11    1    1    2    0    0 -0.25303608871E+02  0.31566370415E+02 -0.13366662370E+02  0.42607229739E+02  0.00000000000E+00 0. -1.
</event>
<event>
 7    1  0.1538147E-010  0.1585633E+03  0.7561462E-02  0.1190328E+00
          2   -1    0    0  501    0  0.00000000000E+00  0.00000000000E+00  0.12105837717E+04  0.12105837717E+04  0.00000000000E+00 0.  1.
         -2   -1    0    0    0  501 -0.00000000000E+00 -0.00000000000E+00 -0.27898504381E+02  0.27898504381E+02  0.00000000000E+00 0. -1.
         25    2    1    2    0    0  0.88686030014E+02  0.11474391684E+03  0.67938769992E+03  0.70586015798E+03  0.12505813632E+03 0.  0.
          5    1    3    3  502    0  0.10453624094E+02  0.47847940827E+02  0.58164714535E+02  0.76153201607E+02  0.41800000000E+01 0.  1.
         -5    1    3    3    0  502  0.78232405920E+02  0.66895976016E+02  0.62122298538E+03  0.62970695638E+03  0.41800000000E+01 0.  1.
        -11    1    1    2    0    0 -0.15062679687E+02 -0.83713368382E+02  0.34467022026E+03  0.35501038450E+03  0.00000000000E+00 0.  1.
         11    1    1    2    0    0 -0.73623350327E+02 -0.31030548461E+02  0.15862734713E+03  0.17761173359E+03  0.00000000000E+00 0. -1.
</event>
<event>
 7    1  0.1538147E-010  0.2018143E+03  0.7561462E-02  0.1148217E+00
          2   -1    0    0  501    0  0.00000000000E+00  0.00000000000E+00  0.13602958529E+04  0.13602958529E+04  0.00000000000E+00 0. -1.
         -2   -1    0    0    0  501 -0.00000000000E+00 -0.00000000000E+00 -0.31988288995E+02  0.31988288995E+02  0.00000000000E+00 0.  1.
         25    2    1    2    0    0  0.16625256476E+03  0.79929542681E+02  0.65032558365E+03  0.68745391227E+03  0.12506346252E+03 0.  0.
          5    1    3    3  502    0  0.87953970206E+02  0.96884913885E+02  0.28810712890E+03  0.31645817660E+03  0.41800000000E+01 0.  1.
         -5    1    3    3    0  502  0.78298594558E+02 -0.16955371204E+02  0.36221845475E+03  0.37099573567E+03  0.41800000000E+01 0.  1.
        -11    1    1    2    0    0 -0.74024882385E+02 -0.59680115734E+01  0.24630124842E+03  0.25725397052E+03  0.00000000000E+00 0.  1.
         11    1    1    2    0    0 -0.92227682379E+02 -0.73961531108E+02  0.43168073182E+03  0.44757625909E+03  0.00000000000E+00 0. -1.
</event>
<event>
 6    1  0.1538147E-010  0.1553316E+03  0.7561462E-02  0.1194070E+00
         -2   -1    0    0    0  501 -0.00000000000E+00  0.00000000000E+00  0.99627158444E+02  0.99627158444E+02  0.00000000000E+00 0.  1.
          2   -1    0    0  501    0  0.00000000000E+00 -0.00000000000E+00 -0.30134447031E+03  0.30134447031E+03  0.00000000000E+00 0. -1.
          5    1    1    2  502    0 -0.35546883673E+02  0.37075139370E+02 -0.52018565976E+02  0.73222609244E+02  0.41800000000E+01 0. -1.
         -5    1    1    2    0  502  0.10349248520E+03  0.72663601441E+02 -0.10185352856E+03  0.16242631298E+03  0.41800000000E+01 0. -1.
        -11    1    1    2    0    0 -0.26931394949E+02 -0.18790823546E+02 -0.56320655460E+02  0.65195178617E+02  0.00000000000E+00 0.  1.
         11    1    1    2    0    0 -0.41014206580E+02 -0.90947917265E+02  0.84754381217E+01  0.10012752792E+03  0.00000000000E+00 0. -1.
</event>
<event>
 6    1  0.1538147E-010  0.2339314E+03  0.7561462E-02  0.1123903E+00
         -1   -1    0    0    0  501 -0.00000000000E+00  0.00000000000E+00  0.75535710695E+02  0.75535710695E+02  0.00000000000E+00 0.  1.
          1   -1    0    0  501    0  0.00000000000E+00 -0.00000000000E+00 -0.10572585966E+04  0.10572585966E+04  0.00000000000E+00 0. -1.
          5    1    1    2  502    0 -0.70981442827E+02  0.20522770414E+03 -0.25960875073E+03  0.33848331071E+03  0.41800000000E+01 0. -1.
         -5    1    1    2    0  502  0.93250754337E+01  0.13947403218E+02  0.11505467623E+02  0.20768612703E+02  0.41800000000E+01 0. -1.
        -11    1    1    2    0    0  0.70144186801E+02 -0.17773901778E+03 -0.48379254475E+03  0.52016015970E+03  0.00000000000E+00 0.  1.
         11    1    1    2    0    0 -0.84878194081E+01 -0.41436089577E+02 -0.24982705802E+03  0.25338222415E+03  0.00000000000E+00 0. -1.
</event>
<event>
 7    1  0.1538147E-010  0.1183413E+03  0.7561462E-02  0.1245859E+00
         -2   -1    0    0    0  501 -0.00000000000E+00  0.00000000000E+00  0.21668409513E+03  0.21668409513E+03  0.00000000000E+00 0.  1.
          2   -1    0    0  501    0  0.00000000000E+00 -0.00000000000E+00 -0.11539226649E+03  0.11539226649E+03  0.00000000000E+00 0. -1.
         25    2    1    2    0    0  0.93713489686E+02  0.43646111891E+02  0.10647279771E+03  0.19410667757E+03  0.12511492474E+03 0.  0.
          5    1    3    3  502    0  0.45654499639E+02  0.28697937242E+02 -0.20201273461E+02  0.57736199985E+02  0.41800000000E+01 0. -1.
         -5    1    3    3    0  502  0.48058990047E+02  0.14948174649E+02  0.12667407117E+03  0.13637047758E+03  0.41800000000E+01 0. -1.
        -11    1    1    2    0    0 -0.10845647699E+03 -0.44710960314E+02  0.87778369366E+01  0.11763897227E+03  0.00000000000E+00 0.  1.
         11    1    1    2    0    0  0.14742987309E+02  0.10648484228E+01 -0.13958806003E+02  0.20330711792E+02  0.00000000000E+00 0. -1.
</event>
<event>
 7    1  0.1538147E-010  0.1149321E+03  0.7561462E-02  0.1251700E+00
         -1   -1    0    0    0  501 -0.00000000000E+00  0.00000000000E+00  0.16672800161E+03  0.16672800161E+03  0.00000000000E+00 0.  1.
          1   -1    0    0  501    0  0.00000000000E+00 -0.00000000000E+00 -0.80815360065E+02  0.80815360065E+02  0.00000000000E+00 0. -1.
         25    2    1    2    0    0  0.42456888126E+02 -0.14183654100E+02  0.43408455896E+02  0.13973030756E+03  0.12504599720E+03 0.  0.
          5    1    3    3  502    0  0.65197864566E+02  0.37220682217E+02  0.15243874075E+02  0.76720198288E+02  0.41800000000E+01 0.  1.
         -5    1    3    3    0  502 -0.22740976440E+02 -0.51404336317E+02  0.28164581822E+02  0.63010109275E+02  0.41800000000E+01 0.  1.
        -11    1    1    2    0    0 -0.29922082283E+02 -0.35868581470E+02  0.26921781087E+02  0.53913527446E+02  0.00000000000E+00 0.  1.
         11    1    1    2    0    0 -0.12534805842E+02  0.50052235570E+02  0.15582404565E+02  0.53899526669E+02  0.00000000000E+00 0. -1.
</event>
<event>
 7    1  0.1538147E-010  0.1230655E+03  0.7561462E-02  0.1238124E+00
         -1   -1    0    0    0  501 -0.00000000000E+00  0.00000000000E+00  0.60361379232E+02  0.60361379232E+02  0.00000000000E+00 0.  1.
          1   -1    0    0  501    0  0.00000000000E+00 -0.00000000000E+00 -0.45135991077E+03  0.45135991077E+03  0.00000000000E+00 0. -1.
         25    2    1    2    0    0 -0.40144749376E+02  0.72314253245E+02 -0.35171646505E+03  0.38236117920E+03  0.12511853360E+03 0.  0.
          5    1    3    3  502    0  0.18033400312E+02  0.71276284797E+02 -0.10129488668E+03  0.12523433543E+03  0.41800000000E+01 0. -1.
         -5    1    3    3    0  502 -0.58178149688E+02  0.10379684479E+01 -0.25042157837E+03  0.25712684378E+03  0.41800000000E+01 0. -1.
        -11    1    1    2    0    0 -0.21424814131E+02 -0.38111780297E+02  0.81118607792E+01  0.44467209754E+02  0.00000000000E+00 0.  1.
         11    1    1    2    0    0  0.61569563508E+02 -0.34202472947E+02 -0.47393927272E+02  0.84892901049E+02  0.00000000000E+00 0. -1.
</event>
<event>
 7    1  0.1538147E-010  0.1748099E+03  0.7561462E-02  0.1172923E+00
         -3   -1    0    0    0  501 -0.00000000000E+00  0.00000000000E+00  0.42217355376E+02  0.42217355376E+02  0.00000000000E+00 0.  1.
          3   -1    0    0  501    0  0.00000000000E+00 -0.00000000000E+00 -0.82136296943E+03  0.82136296943E+03  0.00000000000E+00 0. -1.
         25    2    1    2    0    0  0.11715389237E+03 -0.94505067776E+02 -0.41527306703E+03  0.45907545921E+03  0.12506923972E+03 0.  0.
          5    1    3    3  502    0  0.12926092179E+03 -0.34292088057E+02 -0.27153280725E+03  0.30270756683E+03  0.41800000000E+01 0. -1.
         -5    1    3    3    0  502 -0.12107029415E+02 -0.60212979719E+02 -0.14374025977E+03  0.15636789238E+03  0.41800000000E+01 0. -1.
        -11    1    1    2    0    0 -0.80463515351E+02  0.43613501946E+02 -0.30512154345E+03  0.31855246214E+03  0.00000000000E+00 0.  1.
         11    1    1    2    0    0 -0.36690377020E+02  0.50891565830E+02 -0.58751003580E+02  0.85952403458E+02  0.00000000000E+00 0. -1.
</event>
<event>
 7    1  0.1538147E-010  0.8352821E+02  0.7561462E-02  0.1319327E+00
          2   -1    0    0  501    0  0.00000000000E+00  0.00000000000E+00  0.38435955208E+03  0.38435955208E+03  0.00000000000E+00 0. -1.
         -2   -1    0    0    0  501 -0.00000000000E+00 -0.00000000000E+00 -0.33196772753E+02  0.33196772753E+02  0.00000000000E+00 0.  1.
         25    2    1    2    0    0  0.49750795414E+01  0.27897173646E+02  0.28582274802E+03  0.31329205692E+03  0.12511700894E+03 0.  0.
          5    1    3    3  502    0  0.30013218491E+02 -0.38078092170E+02  0.63509004121E+02  0.80010001824E+02  0.41800000000E+01 0. -1.
         -5    1    3    3    0  502 -0.25038138949E+02  0.65975265816E+02  0.22231374390E+03  0.23328205510E+03  0.41800000000E+01 0. -1.
        -11    1    1    2    0    0  0.13097287708E+02 -0.26519143927E+02 -0.64071768603E+01  0.30263110469E+02  0.00000000000E+00 0.  1.
         11    1    1    2    0    0 -0.18072367249E+02 -0.13780297189E+01  0.71747208165E+02  0.74001157446E+02  0.00000000000E+00 0. -1.
</event>
<event>
 7    1  0.1538147E-010  0.9444410E+02  0.7561462E-02  0.1292433E+00
         -2   -1    0    0    0  501 -0.00000000000E+00  0.00000000000E+00  0.25297196032E+02  0.25297196032E+02  0.00000000000E+00 0.  1.
          2   -1    0    0  501    0  0.00000000000E+00 -0.00000000000E+00 -0.59748140483E+03  0.59748140483E+03  0.00000000000E+00 0. -1.
         25    2    1    2    0    0  0.52920733788E+02 -0.85573407579E+01 -0.37194290880E+03  0.39606868028E+03  0.12512010209E+03 0.  0.
          5    1    3    3  502    0 -0.13735425449E+02 -0.21167031441E+02 -0.28288141803E+03  0.28403533970E+03  0.41800000000E+01 0. -1.
         -5    1    3    3    0  502  0.66656159236E+02  0.12609690683E+02 -0.89061490772E+02  0.11203334058E+03  0.41800000000E+01 0. -1.
        -11    1    1    2    0    0  0.17433408479E+02 -0.13016469266E+02 -0.12569453966E+02  0.25126547244E+02  0.00000000000E+00 0.  1.
         11    1    1    2    0    0 -0.70354142267E+02  0.21573810024E+02 -0.18767184603E+03  0.20158337334E+03  0.00000000000E+00 0. -1.
</event>
<event>
 7    1  0.1538147E-010  0.1178551E+03  0.7561462E-02  0.1246678E+00
         -1   -1    0    0    0  501 -0.00000000000E+00  0.00000000000E+00  0.11902546923E+03  0.11902546923E+03  0.00000000000E+00 0.  1.
          1   -1    0    0  501    0  0.00000000000E+00 -0.00000000000E+00 -0.16776293810E+03  0.16776293810E+03  0.00000000000E+00 0. -1.
         25    2    1    2    0    0 -0.10956137724E+02 -0.67955946103E+02 -0.46070689195E+02  0.15005664035E+03  0.12512569419E+03 0.  0.
          5    1    3    3  502    0  0.17736087535E+02  0.75020880965E+01  0.32060770297E+02  0.37632639010E+02  0.41800000000E+01 0. -1.
         -5    1    3    3    0  502 -0.28692225258E+02 -0.75458034200E+02 -0.78131459492E+02  0.11242400134E+03  0.41800000000E+01 0. -1.
        -11    1    1    2    0    0  0.61726945461E+02  0.18867589850E+02  0.89430246562E+01  0.65162715050E+02  0.00000000000E+00 0.  1.
         11    1    1    2    0    0 -0.50770807738E+02  0.49088356253E+02 -0.11609804329E+02  0.71569051933E+02  0.00000000000E+00 0. -1.
</event>
<event>
 6    1  0.1538147E-010  0.6699531E+02  0.7561462E-02  0.1370619E+00
          1   -1    0    0  501    0  0.00000000000E+00  0.00000000000E+00  0.15469048283E+02  0.15469048283E+02  0.00000000000E+00 0. -1.
         -1   -1    0    0    0  501 -0.00000000000E+00 -0.00000000000E+00 -0.77361930726E+03  0.77361930726E+03  0.00000000000E+00 0.  1.
          5    1    1    2  502    0 -0.24972914127E+02 -0.23692080474E+01 -0.12212334910E+02  0.28211223134E+02  0.41800000000E+01 0. -1.
         -5    1    1    2    0  502  0.22928043675E+02 -0.14262849068E+02 -0.45144292340E+03  0.45226906763E+03  0.41800000000E+01 0. -1.
        -11    1    1    2    0    0  0.40646744579E+02  0.11849655989E+02 -0.22517401233E+03  0.22911985515E+03  0.00000000000E+00 0.  1.
         11    1    1    2    0    0 -0.38601874127E+02  0.47824011256E+01 -0.69320988341E+02  0.79488209636E+02  0.00000000000E+00 0. -1.
</event>
<event>
 6    1  0.1538147E-010  0.9600184E+02  0.7561462E-02  0.1288935E+00
         -2   -1    0    0    0  501 -0.00000000000E+00  0.00000000000E+00  0.11626742000E+03  0.11626742000E+03  0.00000000000E+00 0.  1.
          2   -1    0    0  501    0  0.00000000000E+00 -0.00000000000E+00 -0.15700336024E+03  0.15700336024E+03  0.00000000000E+00 0. -1.
          5    1    1    2  502    0 -0.13191601090E+02 -0.43530239565E+01 -0.49409931896E+02  0.51495445691E+02  0.41800000000E+01 0. -1.
         -5    1    1    2    0  502  0.79167548573E+02 -0.37887478211E+02  0.40573337686E+02  0.96781350906E+02  0.41800000000E+01 0. -1.
        -11    1    1    2    0    0 -0.40216278016E+02  0.71049863605E-01  0.26751759573E+02  0.48301249526E+02  0.00000000000E+00 0.  1.
         11    1    1    2    0    0 -0.25759669466E+02  0.42169452304E+02 -0.58651105603E+02  0.76692734122E+02  0.00000000000E+00 0. -1.
</event>
<event>
 6    1  0.1538147E-010  0.1594569E+03  0.7561462E-02  0.1189311E+00
          2   -1    0    0  501    0  0.00000000000E+00  0.00000000000E+00  0.15470774345E+04  0.15470774345E+04  0.00000000000E+00 0. -1.
         -2   -1    0    0    0  501 -0.00000000000E+00 -0.00000000000E+00 -0.24767456364E+02  0.24767456364E+02  0.00000000000E+00 0.  1.
          5    1    1    2  502    0 -0.22495560854E+02  0.24538898213E+02  0.89652949451E+02  0.95725292002E+02  0.41800000000E+01 0. -1.
         -5    1    1    2    0  502 -0.89299403292E+02 -0.11088837535E+03  0.10309197783E+04  0.10407130618E+04  0.41800000000E+01 0. -1.
        -11    1    1    2    0    0  0.41735062661E+02  0.19409166495E+02  0.40206646158E+02  0.61115510262E+02  0.00000000000E+00 0.  1.
         11    1    1    2    0    0  0.70059901485E+02  0.66940310643E+02  0.36153060424E+03  0.37429102686E+03  0.00000000000E+00 0. -1.
</event>
<event>
 7    1  0.1538147E-010  0.1273540E+03  0.7561462E-02  0.1231436E+00
         -1   -1    0    0    0  501 -0.00000000000E+00  0.00000000000E+00  0.19427304963E+03  0.19427304963E+03  0.00000000000E+00 0.  1.
          1   -1    0    0  501    0  0.00000000000E+00 -0.00000000000E+00 -0.12055472944E+03  0.12055472944E+03  0.00000000000E+00 0. -1.
         25    2    1    2    0    0  0.57226655674E+02 -0.84993131923E+02  0.11459170480E+02  0.16214709869E+03  0.12514649987E+03 0.  0.
          5    1    3    3  502    0 -0.21887624410E+02 -0.44411118389E+02 -0.35917812212E+02  0.61310498065E+02  0.41800000000E+01 0.  1.
         -5    1    3    3    0  502  0.79114280084E+02 -0.40582013534E+02  0.47376982693E+02  0.10083660062E+03  0.41800000000E+01 0.  1.
        -11    1    1    2    0    0  0.53602187440E+01  0.36340010108E+02 -0.17093156987E+02  0.40515482169E+02  0.00000000000E+00 0. -1.
         11    1    1    2    0    0 -0.62586874418E+02  0.48653121815E+02  0.79352306693E+02  0.11216519821E+03  0.00000000000E+00 0.  1.
</event>
<event>
 7    1  0.1538147E-010  0.1336445E+03  0.7561462E-02  0.1222146E+00
          3   -1    0    0  501    0  0.00000000000E+00  0.00000000000E+00  0.14441150729E+03  0.14441150729E+03  0.00000000000E+00 0. -1.
         -3   -1    0    0    0  501 -0.00000000000E+00 -0.00000000000E+00 -0.14448362669E+03  0.14448362669E+03  0.00000000000E+00 0.  1.
         25    2    1    2    0    0 -0.15931998934E+01 -0.89563945684E+02  0.85048540804E+01  0.15413233087E+03  0.12514073767E+03 0.  0.
          5    1    3    3  502    0 -0.30395845987E+02  0.12020718420E+02  0.31941700018E+02  0.45892806895E+02  0.41800000000E+01 0. -1.
         -5    1    3    3    0  502  0.28802646094E+02 -0.10158466410E+03 -0.23436845938E+02  0.10823952398E+03  0.41800000000E+01 0. -1.
        -11    1    1    2    0    0 -0.30876484663E+02 -0.25635693914E+01  0.14779560550E+02  0.34327315700E+02  0.00000000000E+00 0. -1.
         11    1    1    2    0    0  0.32469684556E+02  0.92127515075E+02 -0.23356534035E+02  0.10043548741E+03  0.00000000000E+00 0.  1.
</event>
<event>
 7    1  0.1538147E-010  0.1188382E+03  0.7561462E-02  0.1245026E+00
          2   -1    0    0  501    0  0.00000000000E+00  0.00000000000E+00  0.59949915051E+03  0.59949915051E+03  0.00000000000E+00 0. -1.
         -2   -1    0    0    0  501 -0.00000000000E+00 -0.00000000000E+00 -0.33408093905E+02  0.33408093905E+02  0.00000000000E+00 0.  1.
         25    2    1    2    0    0 -0.70713349598E+02 -0.39743182186E+02  0.39965344802E+03  0.42656872344E+03  0.12513232583E+03 0.  0.
          5    1    3    3  502    0 -0.69508840260E+02 -0.71893184834E+02  0.36752342587E+03  0.38090819085E+03  0.41800000000E+01 0. -1.
         -5    1    3    3    0  502 -0.12045093379E+01  0.32150002648E+02  0.32130022151E+02  0.45660532590E+02  0.41800000000E+01 0. -1.
        -11    1    1    2    0    0  0.68690665984E+02  0.56085189070E+02  0.83574304235E+02  0.12185491518E+03  0.00000000000E+00 0.  1.
         11    1    1    2    0    0  0.20226836138E+01 -0.16342006884E+02  0.82863304350E+02  0.84483605781E+02  0.00000000000E+00 0. -1.
</event>
<event>
 7    1  0.1538147E-010  0.1018167E+03  0.7561462E-02  0.1276521E+00
         -2   -1    0    0    0  501 -0.00000000000E+00  0.00000000000E+00  0.14356601888E+03  0.14356601888E+03  0.00000000000E+00 0.  1.
          2   -1    0    0  501    0  0.00000000000E+00 -0.00000000000E+00 -0.12988663535E+03  0.12988663535E+03  0.00000000000E+00 0. -1.
         25    2    1    2    0    0  0.24027056913E+02  0.77163139235E+02 -0.41851868912E+01  0.14900789961E+03  0.12511750012E+03 0.  0.
          5    1    3    3  502    0  0.31153198559E+02  0.57476183539E+02 -0.60257607117E+02  0.89008342700E+02  0.41800000000E+01 0.  1.
         -5    1    3    3    0  502 -0.71261416458E+01  0.19686955696E+02  0.56072420226E+02  0.59999556909E+02  0.41800000000E+01 0.  1.
        -11    1    1    2    0    0 -0.54666335777E+02 -0.61766303408E+02 -0.59475060428E+01  0.82697384070E+02  0.00000000000E+00 0. -1.
         11    1    1    2    0    0  0.30639278864E+02 -0.15396835828E+02  0.23812076467E+02  0.41747370558E+02  0.00000000000E+00 0.  1.
</event>
<event>
 7    1  0.1538147E-010  0.9957213E+02  0.7561462E-02  0.1281198E+00
         -2   -1    0    0    0  501 -0.00000000000E+00  0.00000000000E+00  0.11967156701E+03  0.11967156701E+03  0.00000000000E+00 0.  1.
          2   -1    0    0  501    0  0.00000000000E+00 -0.00000000000E+00 -0.14907599478E+03  0.14907599478E+03  0.00000000000E+00 0. -1.
         25    2    1    2    0    0  0.62521593522E+02  0.10204101662E+01  0.29598935427E+02  0.14297771540E+03  0.12512609331E+03 0.  0.
          5    1    3    3  502    0 -0.19671912247E+02  0.34671311156E+02 -0.15873920845E+02  0.43110760973E+02  0.41800000000E+01 0. -1.
         -5    1    3    3    0  502  0.82193505769E+02 -0.33650900990E+02  0.45472856272E+02  0.99866954422E+02  0.41800000000E+01 0. -1.
        -11    1    1    2    0    0 -0.25249981149E+02 -0.16095711649E+02 -0.76327720877E+02  0.81991185232E+02  0.00000000000E+00 0. -1.
         11    1    1    2    0    0 -0.37271612374E+02  0.15075301483E+02  0.17324357678E+02  0.43778661157E+02  0.00000000000E+00 0.  1.
</event>
<event>
 6    1  0.1538147E-010  0.1149144E+03  0.7561462E-02  0.1251731E+00
         -1   -1    0    0    0  501 -0.00000000000E+00  0.00000000000E+00  0.82387068514E+02  0.82387068514E+02  0.00000000000E+00 0.  1.
          1   -1    0    0  501    0  0.00000000000E+00 -0.00000000000E+00 -0.37317707799E+03  0.37317707799E+03  0.00000000000E+00 0. -1.
          5    1    1    2  502    0  0.28449120495E+02 -0.29832365378E+02  0.48158659223E+02  0.63529924753E+02  0.41800000000E+01 0.  1.
         -5    1    1    2    0  502 -0.23035881502E+02 -0.59422004924E+02 -0.65239892068E+02  0.91298096491E+02  0.41800000000E+01 0.  1.
        -11    1    1    2    0    0 -0.38247557160E+02  0.11209577183E+02 -0.82781474524E+02  0.91876562700E+02  0.00000000000E+00 0.  1.
         11    1    1    2    0    0  0.32834318168E+02  0.78044793120E+02 -0.19092730211E+03  0.20885956256E+03  0.00000000000E+00 0. -1.
</event>
<event>
 7    1  0.1538147E-010  0.1202818E+03  0.7561462E-02  0.1242633E+00
         -1   -1    0    0    0  501 -0.00000000000E+00  0.00000000000E+00  0.17502068977E+03  0.17502068977E+03  0.00000000000E+00 0.  1.
          1   -1    0    0  501    0  0.00000000000E+00 -0.00000000000E+00 -0.95199961606E+02  0.95199961606E+02  0.00000000000E+00 0. -1.
         25    2    1    2    0    0  0.16329055286E+02  0.59075198272E+02  0.84937479586E+02  0.16312157006E+03  0.12505100593E+03 0.  0.
          5    1    3    3  502    0  0.37178744992E+02 -0.26961612564E+02  0.49557248688E+02  0.67694762935E+02  0.41800000000E+01 0. -1.
         -5    1    3    3    0  502 -0.20849689706E+02  0.86036810836E+02  0.35380230898E+02  0.95426807125E+02  0.41800000000E+01 0. -1.
        -11    1    1    2    0    0  0.34436584173E+02 -0.36754251137E+02 -0.10275169974E+02  0.51403622675E+02  0.00000000000E+00 0. -1.
         11    1    1    2    0    0 -0.50765639459E+02 -0.22320947136E+02  0.51584185471E+01  0.55695458636E+02  0.00000000000E+00 0.  1.
</event>
<event>
 7    1  0.1538147E-010  0.9369310E+02  0.7561462E-02  0.1294147E+00
          2   -1    0    0  501    0  0.00000000000E+00  0.00000000000E+00  0.69864427219E+03  0.69864427219E+03  0.00000000000E+00 0. -1.
         -2   -1    0    0    0  501 -0.00000000000E+00 -0.00000000000E+00 -0.36941179455E+02  0.36941179455E+02  0.00000000000E+00 0.  1.
         25    2    1    2    0    0 -0.38403515855E+01 -0.77808878549E+02  0.57549530462E+03  0.59405853938E+03  0.12506691286E+03 0.  0.
          5    1    3    3  502    0  0.10827565779E+02 -0.44397721610E+02  0.54324879900E+03  0.54518356897E+03  0.41800000000E+01 0. -1.
         -5    1    3    3    0  502 -0.14667917365E+02 -0.33411156939E+02  0.32246505623E+02  0.48874970411E+02  0.41800000000E+01 0. -1.
        -11    1    1    2    0    0 -0.21152301668E+02 -0.18962177105E+01 -0.34521702512E+00  0.21239931315E+02  0.00000000000E+00 0.  1.
         11    1    1    2    0    0  0.24992653254E+02  0.79705096260E+02  0.86553005137E+02  0.12028698094E+03  0.00000000000E+00 0. -1.
</event>
<event>
 6    1  0.1538147E-010  0.7185574E+02  0.7561462E-02  0.1353894E+00
         -3   -1    0    0    0  501 -0.00000000000E+00  0.00000000000E+00  0.59101970326E+02  0.59101970326E+02  0.00000000000E+00 0.  1.
          3   -1    0    0  501    0  0.00000000000E+00 -0.00000000000E+00 -0.20595440927E+03  0.20595440927E+03  0.00000000000E+00 0. -1.
          5    1    1    2  502    0 -0.30092794604E+02 -0.17113462572E+02  0.24647556002E+02  0.42701537504E+02  0.41800000000E+01 0. -1.
         -5    1    1    2    0  502 -0.21235745171E+01  0.23364865893E+02 -0.10947760841E+03  0.11204126771E+03  0.41800000000E+01 0. -1.
        -11    1    1    2    0    0  0.26841575033E+02 -0.41462208973E+02 -0.15592284526E+02  0.51794828506E+02  0.00000000000E+00 0.  1.
         11    1    1    2    0    0  0.53747940878E+01  0.35210805652E+02 -0.46430102006E+02  0.58518745872E+02  0.00000000000E+00 0. -1.
</event>
<event>
 7    1  0.1538147E-010  0.1063586E+03  0.7561462E-02  0.1267466E+00
         -2   -1    0    0    0  501 -0.00000000000E+00  0.00000000000E+00  0.40997149377E+02  0.40997149377E+02  0.00000000000E+00 0.  1.
          2   -1    0    0  501    0  0.00000000000E+00 -0.00000000000E+00 -0.37001496343E+03  0.37001496343E+03  0.00000000000E+00 0. -1.
         25    2    1    2    0    0  0.96489370523E+01 -0.47894007753E+02 -0.23638452530E+03  0.27185498942E+03  0.12506219855E+03 0.  0.
          5    1    3    3  502    0  0.64467257075E+02 -0.44405665496E+02 -0.15305102843E+03  0.17195923955E+03  0.41800000000E+01 0.  1.
         -5    1    3    3    0  502 -0.54818320022E+02 -0.34883422568E+01 -0.83333496868E+02  0.99895749870E+02  0.41800000000E+01 0.  1.
        -11    1    1    2    0    0 -0.70498719340E+00 -0.15348708232E+02 -0.69573481814E+02  0.71249906829E+02  0.00000000000E+00 0. -1.
         11    1    1    2    0    0 -0.89439498589E+01  0.63242715985E+02 -0.23059806936E+02  0.67907216555E+02  0.00000000000E+00 0.  1.
</event>
<event>
 7    1  0.1538147E-010  0.1564768E+03  0.7561462E-02  0.1192733E+00
         -2   -1    0    0    0  501 -0.00000000000E+00  0.00000000000E+00  0.69752378974E+02  0.69752378974E+02  0.00000000000E+00 0.  1.
          2   -1    0    0  501    0  0.00000000000E+00 -0.00000000000E+00 -0.37615339990E+03  0.37615339990E+03  0.00000000000E+00 0. -1.
         25    2    1    2    0    0 -0.11298260892E+03  0.31913649720E+02 -0.13032672863E+03  0.21546995508E+03  0.12513470499E+03 0.  0.
          5    1    3    3  502    0 -0.24820214924E+02 -0.42146543245E+02 -0.12465723992E+02  0.50648206790E+02  0.41800000000E+01 0.  1.
         -5    1    3    3    0  502 -0.88162393997E+02  0.74060192965E+02 -0.11786100463E+03  0.16482174829E+03  0.41800000000E+01 0.  1.
        -11    1    1    2    0    0  0.61347255087E+01 -0.40959207743E+02 -0.50232038227E+02  0.65104141346E+02  0.00000000000E+00 0.  1.
         11    1    1    2    0    0  0.10684788341E+03  0.90455580230E+01 -0.12584225407E+03  0.16533168245E+03  0.00000000000E+00 0. -1.
</event>
<event>
 7    1  0.1538147E-010  0.9344210E+02  0.7561462E-02  0.1294724E+00
          2   -1    0    0  501    0  0.00000000000E+00  0.00000000000E+00  0.31844483063E+03  0.31844483063E+03  0.00000000000E+00 0. -1.
         -2   -1    0    0    0  501 -0.00000000000E+00 -0.00000000000E+00 -0.64996568600E+02  0.64996568600E+02  0.00000000000E+00 0.  1.
         25    2    1    2    0    0 -0.88074934025E+02 -0.20399582322E+02  0.10181849472E+03  0.18492188389E+03  0.12512298075E+03 0.  0.
          5    1    3    3  502    0 -0.14520604969E+02 -0.61330449731E+01  0.10837437171E+03  0.10959442984E+03  0.41800000000E+01 0.  1.
         -5    1    3    3    0  502 -0.73554329057E+02 -0.14266537349E+02 -0.65558769821E+01  0.75327454052E+02  0.41800000000E+01 0.  1.
        -11    1    1    2    0    0  0.50802661659E+02 -0.40426763732E+01  0.14469985962E+03  0.15341219977E+03  0.00000000000E+00 0. -1.
         11    1    1    2    0    0  0.37272272366E+02  0.24442258695E+02  0.69299076883E+01  0.45107315571E+02  0.00000000000E+00 0.  1.
</event>
<event>
 7    1  0.1538147E-010  0.2128696E+03  0.7561462E-02  0.1139313E+00
          1   -1    0    0  501    0  0.00000000000E+00  0.00000000000E+00  0.74686453527E+03  0.74686453527E+03  0.00000000000E+00 0. -1.
         -1   -1    0    0    0  501 -0.00000000000E+00 -0.00000000000E+00 -0.65307647866E+02  0.65307647866E+02  0.00000000000E+00 0.  1.
         25    2    1    2    0    0  0.52209888416E+01 -0.19026859426E+03  0.39432116831E+03  0.45536893169E+03  0.12506911481E+03 0.  0.
          5    1    3    3  502    0 -0.48085761381E+02 -0.11793751665E+03  0.16112945457E+03  0.20543045492E+03  0.41800000000E+01 0. -1.
         -5    1    3    3    0  502  0.53306750223E+02 -0.72331077614E+02  0.23319171375E+03  0.24993847676E+03  0.41800000000E+01 0. -1.
        -11    1    1    2    0    0  0.34216778384E+02  0.14180810900E+03  0.22821148989E+03  0.27085201092E+03  0.00000000000E+00 0. -1.
         11    1    1    2    0    0 -0.39437767226E+02  0.48460485260E+02  0.59024229197E+02  0.85951240524E+02  0.00000000000E+00 0.  1.
</event>
<event>
 7    1  0.1538147E-010  0.7915232E+02  0.7561462E-02  0.1331474E+00
         -2   -1    0    0    0  501 -0.00000000000E+00  0.00000000000E+00  0.36244590568E+03  0.36244590568E+03  0.00000000000E+00 0. -1.
          2   -1    0    0  501    0  0.00000000000E+00 -0.00000000000E+00 -0.38259483655E+02  0.38259483655E+02  0.00000000000E+00 0.  1.
         25    2    1    2    0    0 -0.33575710870E+01 -0.57608209192E+02  0.17230096199E+03  0.22061651325E+03  0.12511612752E+03 0.  0.
          5    1    3    3  502    0  0.36785188825E+02 -0.17838222697E+02  0.20079924931E+01  0.41144340312E+02  0.41800000000E+01 0. -1.
         -5    1    3    3    0  502 -0.40142759912E+02 -0.39769986495E+02  0.17029296949E+03  0.17947217294E+03  0.41800000000E+01 0. -1.
        -11    1    1    2    0    0 -0.71697596457E+01  0.33207404290E+02  0.95437491535E+01  0.35287679167E+02  0.00000000000E+00 0.  1.
         11    1    1    2    0    0  0.10527330733E+02  0.24400804902E+02  0.14234171089E+03  0.14480119692E+03  0.00000000000E+00 0. -1.
</event>
<event>
 6    1  0.1538147E-010  0.1057527E+03  0.7561462E-02  0.1268644E+00
         -1   -1    0    0    0  501 -0.00000000000E+00  0.00000000000E+00  0.12463937536E+03  0.12463937536E+03  0.00000000000E+00 0.  1.
          1   -1    0    0  501    0  0.00000000000E+00 -0.00000000000E+00 -0.11768748374E+03  0.11768748374E+03  0.00000000000E+00 0. -1.
          5    1    1    2  502    0 -0.36814955258E+02 -0.55781367324E+02 -0.45968271053E+02  0.81224726622E+02  0.41800000000E+01 0.  1.
         -5    1    1    2    0  502  0.43776951452E+02  0.29610836810E+01  0.33342211500E+02  0.55266309473E+02  0.41800000000E+01 0.  1.
        -11    1    1    2    0    0 -0.45173399669E+02  0.39470803584E+02 -0.18918766608E+01  0.60017993722E+02  0.00000000000E+00 0. -1.
         11    1    1    2    0    0  0.38211403474E+02  0.13349480059E+02  0.21469827826E+02  0.45817829283E+02  0.00000000000E+00 0.  1.
</event>
<event>
 6    1  0.1538147E-010  0.1699283E+03  0.7561462E-02  0.1177923E+00
          1   -1    0    0  501    0  0.00000000000E+00  0.00000000000E+00  0.68405705963E+03  0.68405705963E+03  0.00000000000E+00 0. -1.
         -1   -1    0    0    0  501 -0.00000000000E+00 -0.00000000000E+00 -0.48821436070E+02  0.48821436070E+02  0.00000000000E+00 0.  1.
          5    1    1    2  502    0  0.59570477031E+02 -0.27474054206E+02  0.59090960671E+02  0.88389362602E+02  0.41800000000E+01 0.  1.
         -5    1    1    2    0  502  0.37940572241E+01 -0.10355962442E+03  0.32176726426E+03  0.33806898028E+03  0.41800000000E+01 0.  1.
        -11    1    1    2    0    0  0.14418910952E+02 -0.36540019537E+01  0.28881463711E+02  0.32486853793E+02  0.00000000000E+00 0. -1.
         11    1    1    2    0    0 -0.77783445207E+02  0.13468768058E+03  0.22549593492E+03  0.27393329903E+03  0.00000000000E+00 0.  1.
</event>
<event>
 7    1  0.1538147E-010  0.1102040E+03  0.7561462E-02  0.1260192E+00
         -3   -1    0    0    0  501 -0.00000000000E+00  0.00000000000E+00  0.21851917149E+02  0.21851917149E+02  0.00000000000E+00 0.  1.
          3   -1    0    0  501    0  0.00000000000E+00 -0.00000000000E+00 -0.72878994689E+03  0.72878994689E+03  0.00000000000E+00 0. -1.
         25    2    1    2    0    0 -0.60391550100E+02  0.18866168049E+02 -0.48250845856E+03  0.50245296600E+03  0.12506597797E+03 0.  0.
          5    1    3    3  502    0 -0.86604755626E+02  0.19092328171E+02 -0.20148442923E+03  0.22017799234E+03  0.41800000000E+01 0.  1.
         -5    1    3    3    0  502  0.26213205526E+02 -0.22616012256E+00 -0.28102402933E+03  0.28227497366E+03  0.41800000000E+01 0.  1.
        -11    1    1    2    0    0 -0.21317127054E+02 -0.74301368980E+01 -0.36065740352E+02  0.42548377963E+02  0.00000000000E+00 0.  1.
         11    1    1    2    0    0  0.81708677154E+02 -0.11436031151E+02 -0.18836383083E+03  0.20564052007E+03  0.00000000000E+00 0. -1.
</event>
<event>
 6    1  0.1538147E-010  0.2212833E+03  0.7561462E-02  0.1132930E+00
          2   -1    0    0  501    0  0.00000000000E+00  0.00000000000E+00  0.95867577260E+02  0.95867577260E+02  0.00000000000E+00 0. -1.
         -2   -1    0    0    0  501 -0.00000000000E+00 -0.00000000000E+00 -0.57488172682E+03  0.57488172682E+03  0.00000000000E+00 0.  1.
          5    1    1    2  502    0  0.16814516082E+03  0.73978383021E+02 -0.10486720225E+03  0.21156606242E+03  0.41800000000E+01 0. -1.
         -5    1    1    2    0  502  0.29267380590E+02 -0.21702146722E+02 -0.89870810713E+02  0.97065945404E+02  0.41800000000E+01 0. -1.
        -11    1    1    2    0    0 -0.13530367093E+02 -0.34914690909E+02 -0.68671586953E+02  0.78216963183E+02  0.00000000000E+00 0.  1.
         11    1    1    2    0    0 -0.18388217432E+03 -0.17361545391E+02 -0.21560454964E+03  0.28390033307E+03  0.00000000000E+00 0. -1.
</event>
<event>
 7    1  0.1538147E-010  0.2431211E+03  0.7561462E-02  0.1117731E+00
         -2   -1    0    0    0  501 -0.00000000000E+00  0.00000000000E+00  0.97298932554E+02  0.97298932554E+02  0.00000000000E+00 0.  1.
          2   -1    0    0  501    0  0.00000000000E+00 -0.00000000000E+00 -0.12698964572E+04  0.12698964572E+04  0.00000000000E+00 0. -1.
         25    2    1    2    0    0  0.59104043076E+02 -0.22515698343E+03 -0.10656724449E+04  0.10979472293E+04  0.12506559606E+03 0.  0.
          5    1    3    3  502    0  0.31086047635E+02 -0.19800379107E+03 -0.10107981152E+04  0.10304863637E+04  0.41800000000E+01 0. -1.
         -5    1    3    3    0  502  0.28017995441E+02 -0.27153192366E+02 -0.54874329680E+02  0.67460865559E+02  0.41800000000E+01 0. -1.
        -11    1    1    2    0    0 -0.79647974157E+02  0.17222351203E+03 -0.74413979286E+02  0.20381898390E+03  0.00000000000E+00 0.  1.
         11    1    1    2    0    0  0.20543931081E+02  0.52933471398E+02 -0.32511100485E+02  0.65429176621E+02  0.00000000000E+00 0. -1.
</event>
<event>
 7    1  0.1538147E-010  0.1002024E+03  0.7561462E-02  0.1279871E+00
          2   -1    0    0  501    0  0.00000000000E+00  0.00000000000E+00  0.34162314233E+03  0.34162314233E+03  0.00000000000E+00 0. -1.
         -2   -1    0    0    0  501 -0.00000000000E+00 -0.00000000000E+00 -0.52665627774E+02  0.52665627774E+02  0.00000000000E+00 0.  1.
         25    2    1    2    0    0  0.28478449671E+02  0.75733102092E+02  0.16774946212E+03  0.22436760357E+03  0.12511760324E+03 0.  0.
          5    1    3    3  502    0  0.32188381197E+02  0.20406916054E+02 -0.87406927637E+01  0.39324371793E+02  0.41800000000E+01 0. -1.
         -5    1    3    3    0  502 -0.37099315257E+01  0.55326186037E+02  0.17649015489E+03  0.18504323178E+03  0.41800000000E+01 0. -1.
        -11    1    1    2    0    0  0.20826641059E+02 -0.41498541834E+02  0.92250114371E+02  0.10327614223E+03  0.00000000000E+00 0. -1.
         11    1    1    2    0    0 -0.49305090730E+02 -0.34234560258E+02  0.28957938058E+02  0.66645024304E+02  0.00000000000E+00 0.  1.
</event>
<event>
 6    1  0.1538147E-010  0.1607225E+03  0.7561462E-02  0.1187884E+00
          2   -1    0    0  501    0  0.00000000000E+00  0.00000000000E+00  0.15088179194E+04  0.15088179194E+04  0.00000000000E+00 0.  1.
         -2   -1    0    0    0  501 -0.00000000000E+00 -0.00000000000E+00 -0.24147699283E+02  0.24147699283E+02  0.00000000000E+00 0. -1.
          5    1    1    2  502    0 -0.33902514601E+02  0.36128770799E+02  0.70780745272E+03  0.70955164089E+03  0.41800000000E+01 0.  1.
         -5    1    1    2    0  502 -0.68093736456E+02  0.71793281233E+02  0.27642226282E+03  0.29362862932E+03  0.41800000000E+01 0.  1.
        -11    1    1    2    0    0  0.52079801481E+02 -0.11106692759E+03  0.38213287645E+03  0.40133988512E+03  0.00000000000E+00 0.  1.
         11    1    1    2    0    0  0.49916449575E+02  0.31448755573E+01  0.11830762817E+03  0.12844546338E+03  0.00000000000E+00 0. -1.
</event>
<event>
 7    1  0.1538147E-010  0.1583184E+03  0.7561462E-02  0.1190608E+00
          2   -1    0    0  501    0  0.00000000000E+00  0.00000000000E+00  0.11770776456E+04  0.11770776456E+04  0.00000000000E+00 0. -1.
         -2   -1    0    0    0  501 -0.00000000000E+00 -0.00000000000E+00 -0.25529485035E+02  0.25529485035E+02  0.00000000000E+00 0.  1.
         25    2    1    2    0    0 -0.11137311587E+03  0.70780707181E+02  0.51858690451E+03  0.54953381562E+03  0.12506461342E+03 0.  0.
          5    1    3    3  502    0 -0.56416785636E+02  0.81948973979E+02  0.44977340141E+03  0.46066481639E+03  0.41800000000E+01 0.  1.
         -5    1    3    3    0  502 -0.54956330232E+02 -0.11168266798E+02  0.68813503102E+02  0.88868999235E+02  0.41800000000E+01 0.  1.
        -11    1    1    2    0    0  0.11516855668E+03 -0.28858714144E+02  0.46561274320E+03  0.48051206900E+03  0.00000000000E+00 0.  1.
         11    1    1    2    0    0 -0.37954408096E+01 -0.41921993037E+02  0.16734851289E+03  0.17256124605E+03  0.00000000000E+00 0. -1.
</event>
<event>
 7    1  0.1538147E-010  0.1055959E+03  0.7561462E-02  0.1268950E+00
          2   -1    0    0  501    0  0.00000000000E+00  0.00000000000E+00  0.59511705864E+03  0.59511705864E+03  0.00000000000E+00 0. -1.
         -2   -1    0    0    0  501 -0.00000000000E+00 -0.00000000000E+00 -0.34984458435E+02  0.34984458435E+02  0.00000000000E+00 0.  1.
         25    2    1    2    0    0  0.88862216556E+02  0.18825324358E+02  0.36288181164E+03  0.39445060818E+03  0.12512868059E+03 0.  0.
          5    1    3    3  502    0  0.98619480975E+02  0.10827753915E+02  0.36726771881E+03  0.38045511163E+03  0.41800000000E+01 0. -1.
         -5    1    3    3    0  502 -0.97572644189E+01  0.79975704424E+01 -0.43859071750E+01  0.13995496550E+02  0.41800000000E+01 0. -1.
        -11    1    1    2    0    0 -0.27276297838E+01 -0.11877641488E+02 -0.68714409951E+01  0.13990533689E+02  0.00000000000E+00 0.  1.
         11    1    1    2    0    0 -0.86134586772E+02 -0.69476828692E+01  0.20412222957E+03  0.22166037521E+03  0.00000000000E+00 0. -1.
</event>
<event>
 7    1  0.1538147E-010  0.1782171E+03  0.7561462E-02  0.1169540E+00
         -2   -1    0    0    0  501 -0.00000000000E+00  0.00000000000E+00  0.23020402897E+02  0.23020402897E+02  0.00000000000E+00 0.  1.
          2   -1    0    0  501    0  0.00000000000E+00 -0.00000000000E+00 -0.22721650154E+04  0.22721650154E+04  0.00000000000E+00 0. -1.
         25    2    1    2    0    0  0.28392246794E+02  0.16472602491E+03 -0.17240700583E+04  0.17366609169E+04  0.12503116134E+03 0.  0.
          5    1    3    3  502    0  0.55473207318E+02  0.13424787557E+03 -0.15858048828E+04  0.15924491727E+04  0.41800000000E+01 0. -1.
         -5    1    3    3    0  502 -0.27080960524E+02  0.30478149336E+02 -0.13826517551E+03  0.14421174421E+03  0.41800000000E+01 0. -1.
        -11    1    1    2    0    0 -0.31902881053E+02 -0.93005771321E+02 -0.17109832700E+03  0.19733855381E+03  0.00000000000E+00 0.  1.
         11    1    1    2    0    0  0.35106342592E+01 -0.71720253586E+02 -0.35397622721E+03  0.36118594762E+03  0.00000000000E+00 0. -1.
</event>
<event>
 6    1  0.1538147E-010  0.1238713E+03  0.7561462E-02  0.1236844E+00
          1   -1    0    0  501    0  0.00000000000E+00  0.00000000000E+00  0.31803744505E+03  0.31803744505E+03  0.00000000000E+00 0. -1.
         -1   -1    0    0    0  501 -0.00000000000E+00 -0.00000000000E+00 -0.65914454563E+02  0.65914454563E+02  0.00000000000E+00 0.  1.
          5    1    1    2  502    0 -0.91472020951E+02  0.41931278938E+02  0.33439484882E+02  0.10611802071E+03  0.41800000000E+01 0. -1.
         -5    1    1    2    0  502  0.13114425114E+02 -0.42609342182E+02  0.29591228869E+02  0.53671756197E+02  0.41800000000E+01 0. -1.
        -11    1    1    2    0    0  0.44809251759E+01 -0.23961056795E+02  0.11184905724E+03  0.11447454974E+03  0.00000000000E+00 0. -1.
         11    1    1    2    0    0  0.73876670662E+02  0.24639120039E+02  0.77243219495E+02  0.10968757296E+03  0.00000000000E+00 0.  1.
</event>
<event>
 7    1  0.1538147E-010  0.1128358E+03  0.7561462E-02  0.1255407E+00
          2   -1    0    0  501    0  0.00000000000E+00  0.00000000000E+00  0.18998785254E+03  0.18998785254E+03  0.00000000000E+00 0. -1.
         -2   -1    0    0    0  501 -0.00000000000E+00 -0.00000000000E+00 -0.10224982302E+03  0.10224982302E+03  0.00000000000E+00 0.  1.
         25    2    1    2    0    0 -0.75790522437E+02  0.31897469805E+02  0.81414527945E+02  0.17044335406E+03  0.12514375619E+03 0.  0.
          5    1    3    3  502    0 -0.46571553427E+02  0.64549351355E+02  0.20990872675E+01  0.79733348834E+02  0.41800000000E+01 0. -1.
         -5    1    3    3    0  502 -0.29218969011E+02 -0.32651881550E+02  0.79315440677E+02  0.90710005229E+02  0.41800000000E+01 0. -1.
        -11    1    1    2    0    0  0.10127411691E+02 -0.34779600310E+02  0.34738121580E+02  0.50188864862E+02  0.00000000000E+00 0.  1.
         11    1    1    2    0    0  0.65663110746E+02  0.28821305049E+01 -0.28414620005E+02  0.71605456629E+02  0.00000000000E+00 0. -1.
</event>
<event>
 7    1  0.1538147E-010  0.1127450E+03  0.7561462E-02  0.1255569E+00
          2   -1    0    0  501    0  0.00000000000E+00  0.00000000000E+00  0.49119248590E+03  0.49119248590E+03  0.00000000000E+00 0. -1.
         -2   -1    0    0    0  501 -0.00000000000E+00 -0.00000000000E+00 -0.42216617988E+02  0.42216617988E+02  0.00000000000E+00 0.  1.
         25    2    1    2    0    0  0.12399744216E+02  0.33336177286E+02  0.40268102812E+03  0.42316735876E+03  0.12511414283E+03 0.  0.
          5    1    3    3  502    0 -0.79918984859E+01 -0.46346779951E+02  0.16497063619E+03  0.17159451524E+03  0.41800000000E+01 0. -1.
         -5    1    3    3    0  502  0.20391642702E+02  0.79682957237E+02  0.23771039193E+03  0.25157284352E+03  0.41800000000E+01 0. -1.
        -11    1    1    2    0    0  0.28589054412E+02 -0.44988704050E+02  0.41108433849E+02  0.67314343626E+02  0.00000000000E+00 0.  1.
         11    1    1    2    0    0 -0.40988798628E+02  0.11652526763E+02  0.51864059350E+01  0.42927401499E+02  0.00000000000E+00 0. -1.
</event>
<event>
 7    1  0.1538147E-010  0.1306394E+03  0.7561462E-02  0.1226510E+00
         -2   -1    0    0    0  501 -0.00000000000E+00  0.00000000000E+00  0.34632453803E+02  0.34632453803E+02  0.00000000000E+00 0.  1.
          2   -1    0    0  501    0  0.00000000000E+00 -0.00000000000E+00 -0.67489333986E+03  0.67489333986E+03  0.00000000000E+00 0. -1.
         25    2    1    2    0    0 -0.15130261449E+02 -0.10010997699E+03 -0.42951685314E+03  0.45868978354E+03  0.12514255105E+03 0.  0.
          5    1    3    3  502    0 -0.50588773512E+02 -0.23536701436E+02 -0.71240726264E+02  0.90586498986E+02  0.41800000000E+01 0. -1.
         -5    1    3    3    0  502  0.35458512063E+02 -0.76573275554E+02 -0.35827612688E+03  0.36810328455E+03  0.41800000000E+01 0. -1.
        -11    1    1    2    0    0 -0.24799858079E+02  0.22168696054E+02 -0.12081722083E+03  0.12531274833E+03  0.00000000000E+00 0. -1.
         11    1    1    2    0    0  0.39930119528E+02  0.77941280936E+02 -0.89926812087E+02  0.12552326179E+03  0.00000000000E+00 0.  1.
</event>
<event>
 7    1  0.1538147E-010  0.2726568E+03  0.7561462E-02  0.1099769E+00
          1   -1    0    0  501    0  0.00000000000E+00  0.00000000000E+00  0.13532242351E+04  0.13532242351E+04  0.00000000000E+00 0. -1.
         -1   -1    0    0    0  501 -0.00000000000E+00 -0.00000000000E+00 -0.65900742677E+02  0.65900742677E+02  0.00000000000E+00 0.  1.
         25    2    1    2    0    0  0.25090355926E+03  0.58664315855E+02  0.90531608813E+03  0.94953872492E+03  0.12502988718E+03 0.  0.
          5    1    3    3  502    0  0.15325503393E+03 -0.22931076894E+02  0.41648048175E+03  0.44439442367E+03  0.41800000000E+01 0.  1.
         -5    1    3    3    0  502  0.97648525337E+02  0.81595392749E+02  0.48883560638E+03  0.50514430124E+03  0.41800000000E+01 0.  1.
        -11    1    1    2    0    0 -0.11556720009E+03 -0.24134537057E+00  0.23245418943E+03  0.25959735393E+03  0.00000000000E+00 0. -1.
         11    1    1    2    0    0 -0.13533635917E+03 -0.58422970485E+02  0.14955321484E+03  0.20998889891E+03  0.00000000000E+00 0.  1.
</event>
<event>
 7    1  0.1538147E-010  0.2178973E+03  0.7561462E-02  0.1135460E+00
         -2   -1    0    0    0  501 -0.00000000000E+00  0.00000000000E+00  0.62142892066E+02  0.62142892066E+02  0.00000000000E+00 0.  1.
          2   -1    0    0  501    0  0.00000000000E+00 -0.00000000000E+00 -0.10798508324E+04  0.10798508324E+04  0.00000000000E+00 0. -1.
         25    2    1    2    0    0  0.10753944400E+03 -0.16173396484E+03 -0.81433403755E+03  0.84647408554E+03  0.12512332070E+03 0.  0.
          5    1    3    3  502    0 -0.12860599660E+02  0.88652049814E+01 -0.23484850803E+02  0.28513111023E+02  0.41800000000E+01 0. -1.
         -5    1    3    3    0  502  0.12040004366E+03 -0.17059916983E+03 -0.79084918674E+03  0.81796097452E+03  0.41800000000E+01 0. -1.
        -11    1    1    2    0    0 -0.10138058536E+03  0.80886103552E+02 -0.97975148718E+02  0.16254142426E+03  0.00000000000E+00 0. -1.
         11    1    1    2    0    0 -0.61588586435E+01  0.80847861292E+02 -0.10539875406E+03  0.13297821466E+03  0.00000000000E+00 0.  1.
</event>
<event>
 7    1  0.1538147E-010  0.1196873E+03  0.7561462E-02  0.1243614E+00
         -1   -1    0    0    0  501 -0.00000000000E+00  0.00000000000E+00  0.41464619982E+02  0.41464619982E+02  0.00000000000E+00 0.  1.
          1   -1    0    0  501    0  0.00000000000E+00 -0.00000000000E+00 -0.40650466859E+03  0.40650466859E+03  0.00000000000E+00 0. -1.
         25    2    1    2    0    0  0.50147562037E+02 -0.40464019854E+02 -0.13434562164E+03  0.19453063414E+03  0.12506520973E+03 0.  0.
          5    1    3    3  502    0 -0.39640116355E+02 -0.66456166279E+00 -0.23095542388E+02  0.46072301278E+02  0.41800000000E+01 0.  1.
         -5    1    3    3    0  502  0.89787678391E+02 -0.39799458191E+02 -0.11125007925E+03  0.14845833286E+03  0.41800000000E+01 0.  1.
        -11    1    1    2    0    0 -0.33095302940E+02 -0.19807357786E+02 -0.57249392862E+02  0.69029873838E+02  0.00000000000E+00 0.  1.
         11    1    1    2    0    0 -0.17052259097E+02  0.60271377640E+02 -0.17344503411E+03  0.18440878059E+03  0.00000000000E+00 0. -1.
</event>
<event>
 7    1  0.1538147E-010  0.1310246E+03  0.7561462E-02  0.1225943E+00
         -2   -1    0    0    0  501 -0.00000000000E+00  0.00000000000E+00  0.58726563277E+03  0.58726563277E+03  0.00000000000E+00 0.  1.
          2   -1    0    0  501    0  0.00000000000E+00 -0.00000000000E+00 -0.36940716199E+02  0.36940716199E+02  0.00000000000E+00 0. -1.
         25    2    1    2    0    0  0.80603097021E+02 -0.49641107605E+02  0.35900037428E+03  0.39179474828E+03  0.12514294719E+03 0.  0.
          5    1    3    3  502    0  0.90169045007E+02 -0.74825364332E+02  0.21175988750E+03  0.24205167667E+03  0.41800000000E+01 0.  1.
         -5    1    3    3    0  502 -0.95659479859E+01  0.25184256727E+02  0.14724048678E+03  0.14974307161E+03  0.41800000000E+01 0.  1.
        -11    1    1    2    0    0 -0.89909646177E+02  0.28300049143E+02  0.96991223556E+02  0.13524767911E+03  0.00000000000E+00 0. -1.
         11    1    1    2    0    0  0.93065491557E+01  0.21341058463E+02  0.94333318737E+02  0.97163921583E+02  0.00000000000E+00 0.  1.
</event>
<event>
 7    1  0.1538147E-010  0.1012162E+03  0.7561462E-02  0.1277759E+00
          2   -1    0    0  501    0  0.00000000000E+00  0.00000000000E+00  0.56231756720E+02  0.56231756720E+02  0.00000000000E+00 0. -1.
         -2   -1    0    0    0  501 -0.00000000000E+00 -0.00000000000E+00 -0.35888786412E+03  0.35888786412E+03  0.00000000000E+00 0.  1.
         25    2    1    2    0    0 -0.77776464527E+02  0.15799151456E+02 -0.10705403964E+03  0.18279103603E+03  0.12511276445E+03 0.  0.
          5    1    3    3  502    0 -0.27665947791E+01 -0.20268070504E+02  0.21255032592E+02  0.29794253458E+02  0.41800000000E+01 0.  1.
         -5    1    3    3    0  502 -0.75009869748E+02  0.36067221960E+02 -0.12830907223E+03  0.15299678257E+03  0.41800000000E+01 0.  1.
        -11    1    1    2    0    0  0.60540285788E+02  0.15494576065E+02 -0.18468522064E+03  0.19497137947E+03  0.00000000000E+00 0.  1.
         11    1    1    2    0    0  0.17236178739E+02 -0.31293727521E+02 -0.10916847117E+02  0.37357205338E+02  0.00000000000E+00 0. -1.
</event>
<event>
 7    1  0.1538147E-010  0.1687261E+03  0.7561462E-02  0.1179183E+00
         -1   -1    0    0    0  501 -0.00000000000E+00  0.00000000000E+00  0.14211269236E+03  0.14211269236E+03  0.00000000000E+00 0.  1.
          1   -1    0    0  501    0  0.00000000000E+00 -0.00000000000E+00 -0.23871698642E+03  0.23871698642E+03  0.00000000000E+00 0. -1.
         25    2    1    2    0    0  0.97342479765E+00  0.16955235774E+02 -0.10897580034E+02  0.12672813565E+03  0.12511129261E+03 0.  0.
          5    1    3    3  502    0  0.29534433986E+02  0.63587080298E+02  0.24716938827E+01  0.70279308778E+02  0.41800000000E+01 0. -1.
         -5    1    3    3    0  502 -0.28561009188E+02 -0.46631844524E+02 -0.13369273917E+02  0.56448826867E+02  0.41800000000E+01 0. -1.
        -11    1    1    2    0    0  0.95073822706E+02  0.37221430667E+02  0.16882956466E+02  0.10348671839E+03  0.00000000000E+00 0.  1.
         11    1    1    2    0    0 -0.96047247504E+02 -0.54176666441E+02 -0.10258967049E+03  0.15061482474E+03  0.00000000000E+00 0. -1.
</event>
<event>
 7    1  0.1538147E-010  0.6479458E+02  0.7561462E-02  0.1378746E+00
          2   -1    0    0  501    0  0.00000000000E+00  0.00000000000E+00  0.13812365372E+03  0.13812365372E+03  0.00000000000E+00 0. -1.
         -2   -1    0    0    0  501 -0.00000000000E+00 -0.00000000000E+00 -0.10213016208E+03  0.10213016208E+03  0.00000000000E+00 0.  1.
         25    2    1    2    0    0 -0.36835368370E+02 -0.92749957930E+01 -0.28518637982E+01  0.13073999342E+03  0.12506775301E+03 0.  0.
          5    1    3    3  502    0  0.72036380609E+01 -0.21897869328E+00 -0.58492283823E+02  0.59082654136E+02  0.41800000000E+01 0.  1.
         -5    1    3    3    0  502 -0.44039006430E+02 -0.90560170997E+01  0.55640420025E+02  0.71657339286E+02  0.41800000000E+01 0.  1.
        -11    1    1    2    0    0  0.23994880328E+02  0.37827790795E+02 -0.14989559597E+02  0.47237516184E+02  0.00000000000E+00 0.  1.
         11    1    1    2    0    0  0.12840488042E+02 -0.28552795002E+02  0.53834915035E+02  0.62276306188E+02  0.00000000000E+00 0. -1.
</event>
<event>
 7    1  0.1538147E-010  0.6588844E+02  0.7561462E-02  0.1374660E+00
          1   -1    0    0  501    0  0.00000000000E+00  0.00000000000E+00  0.16185481991E+03  0.16185481991E+03  0.00000000000E+00 0. -1.
         -1   -1    0    0    0  501 -0.00000000000E+00 -0.00000000000E+00 -0.80510677517E+02  0.80510677517E+02  0.00000000000E+00 0.  1.
         25    2    1    2    0    0 -0.86432954774E+01  0.15027489417E+02  0.58863633622E+02  0.13929734379E+03  0.12505315122E+03 0.  0.
          5    1    3    3  502    0  0.38966571165E+02 -0.27605381701E+01  0.75954573926E+02  0.85513647681E+02  0.41800000000E+01 0. -1.
         -5    1    3    3    0  502 -0.47609866642E+02  0.17788027587E+02 -0.17090940305E+02  0.53783696114E+02  0.41800000000E+01 0. -1.
        -11    1    1    2    0    0 -0.13840815306E+02  0.10075635391E+01  0.57111923751E+02  0.58773762745E+02  0.00000000000E+00 0. -1.
         11    1    1    2    0    0  0.22484110783E+02 -0.16035052956E+02 -0.34631414977E+02  0.44294390890E+02  0.00000000000E+00 0.  1.
</event>
<event>
 6    1  0.1538147E-010  0.8876329E+02  0.7561462E-02  0.1305875E+00
         -1   -1    0    0    0  501 -0.00000000000E+00  0.00000000000E+00  0.16859493751E+02  0.16859493751E+02  0.00000000000E+00 0.  1.
          1   -1    0    0  501    0  0.00000000000E+00 -0.00000000000E+00 -0.86193098125E+03  0.86193098125E+03  0.00000000000E+00 0. -1.
          5    1    1    2  502    0  0.21921640033E+02  0.47406518227E+02 -0.88377171450E+02  0.10274207077E+03  0.41800000000E+01 0. -1.
         -5    1    1    2    0  502  0.11894499444E+02 -0.28262734681E+02 -0.46030697773E+03  0.46134612542E+03  0.41800000000E+01 0. -1.
        -11    1    1    2    0    0  0.96666237857E+01  0.28253355264E+02 -0.17297773829E+03  0.17553630292E+03  0.00000000000E+00 0. -1.
         11    1    1    2    0    0 -0.43482763262E+02 -0.47397138811E+02 -0.12340960002E+03  0.13916597589E+03  0.00000000000E+00 0.  1.
</event>
<event>
 7    1  0.1538147E-010  0.1526664E+03  0.7561462E-02  0.1197234E+00
         -2   -1    0    0    0  501 -0.00000000000E+00  0.00000000000E+00  0.66463082951E+02  0.66463082951E+02  0.00000000000E+00 0.  1.
          2   -1    0    0  501    0  0.00000000000E+00 -0.00000000000E+00 -0.49374230258E+03  0.49374230258E+03  0.00000000000E+00 0. -1.
         25    2    1    2    0    0  0.73686236602E+02 -0.11841492632E+03 -0.17287619178E+03  0.25490411984E+03  0.12505269444E+03 0.  0.
          5    1    3    3  502    0  0.47989418128E+02 -0.10437191871E+03 -0.18900162063E+03  0.22121384828E+03  0.41800000000E+01 0. -1.
         -5    1    3    3    0  502  0.25696818473E+02 -0.14043007614E+02  0.16125428853E+02  0.33690271566E+02  0.41800000000E+01 0. -1.
        -11    1    1    2    0    0 -0.76966826629E+02  0.48855017805E+02 -0.96643238272E+02  0.13285563846E+03  0.00000000000E+00 0.  1.
         11    1    1    2    0    0  0.32805900269E+01  0.69559908520E+02 -0.15775978958E+03  0.17244562723E+03  0.00000000000E+00 0. -1.
</event>
<event>
 7    1  0.1538147E-010  0.8916383E+02  0.7561462E-02  0.1304889E+00
          1   -1    0    0  501    0  0.00000000000E+00  0.00000000000E+00  0.63128695551E+03  0.63128695551E+03  0.00000000000E+00 0. -1.
         -1   -1    0    0    0  501 -0.00000000000E+00 -0.00000000000E+00 -0.14409531858E+02  0.14409531858E+02  0.00000000000E+00 0.  1.
         25    2    1    2    0    0 -0.20899917677E+02 -0.62544213185E+01  0.41522531823E+03  0.43421579146E+03  0.12512139831E+03 0.  0.
          5    1    3    3  502    0  0.29669363668E+02  0.37806224806E+02  0.89927411718E+02  0.10204897625E+03  0.41800000000E+01 0. -1.
         -5    1    3    3    0  502 -0.50569281345E+02 -0.44060646125E+02  0.32529790651E+03  0.33216681522E+03  0.41800000000E+01 0. -1.
        -11    1    1    2    0    0  0.18928398776E+02 -0.25118331763E+02  0.83783560915E+02  0.89492457506E+02  0.00000000000E+00 0. -1.
         11    1    1    2    0    0  0.19715189012E+01  0.31372753081E+02  0.11786854451E+03  0.12198823840E+03  0.00000000000E+00 0.  1.
</event>
<event>
 7    1  0.1538147E-010  0.1002474E+03  0.7561462E-02  0.1279776E+00
         -1   -1    0    0    0  501 -0.00000000000E+00  0.00000000000E+00  0.26056060560E+03  0.26056060560E+03  0.00000000000E+00 0.  1.
          1   -1    0    0  501    0  0.00000000000E+00 -0.00000000000E+00 -0.67504765066E+02  0.67504765066E+02  0.00000000000E+00 0. -1.
         25    2    1    2    0    0 -0.67683633700E+02  0.15377616381E+01  0.61418614131E+02  0.15495343110E+03  0.12511946558E+03 0.  0.
          5    1    3    3  502    0 -0.82969022699E+02 -0.10400364523E+02  0.88209583152E+02  0.12161590879E+03  0.41800000000E+01 0.  1.
         -5    1    3    3    0  502  0.15285388999E+02  0.11938126162E+02 -0.26790969021E+02  0.33337522316E+02  0.41800000000E+01 0.  1.
        -11    1    1    2    0    0  0.67386958886E+02  0.23894519412E+02  0.12906825619E+03  0.14754851758E+03  0.00000000000E+00 0.  1.
         11    1    1    2    0    0  0.29667481480E+00 -0.25432281050E+02  0.25689702150E+01  0.25563421979E+02  0.00000000000E+00 0. -1.
</event>
<event>
 7    1  0.1538147E-010  0.9723317E+02  0.7561462E-02  0.1286224E+00
          3   -1    0    0  501    0  0.00000000000E+00  0.00000000000E+00  0.31678441864E+03  0.31678441864E+03  0.00000000000E+00 0. -1.
         -3   -1    0    0    0  501 -0.00000000000E+00 -0.00000000000E+00 -0.45192697821E+02  0.45192697821E+02  0.00000000000E+00 0.  1.
         25    2    1    2    0    0  0.47973789277E+02  0.68488016582E+01  0.13158025622E+03  0.18792234645E+03  0.12511216538E+03 0.  0.
          5    1    3    3  502    0  0.55815581565E+02  0.41689056227E+02  0.22905574974E+02  0.73454028613E+02  0.41800000000E+01 0.  1.
         -5    1    3    3    0  502 -0.78417922885E+01 -0.34840254569E+02  0.10867468125E+03  0.11446831784E+03  0.41800000000E+01 0.  1.
        -11    1    1    2    0    0 -0.57246683320E+02  0.19744281801E+02  0.46372167905E+02  0.76271864873E+02  0.00000000000E+00 0.  1.
         11    1    1    2    0    0  0.92728940429E+01 -0.26593083459E+02  0.93639296692E+02  0.97782905136E+02  0.00000000000E+00 0. -1.
</event>
<event>
 6    1  0.1538147E-010  0.1142588E+03  0.7561462E-02  0.1252880E+00
         -2   -1    0    0    0  501 -0.00000000000E+00  0.00000000000E+00  0.17073234363E+03  0.17073234363E+03  0.00000000000E+00 0.  1.
          2   -1    0    0  501    0  0.00000000000E+00 -0.00000000000E+00 -0.93319460623E+02  0.93319460623E+02  0.00000000000E+00 0. -1.
          5    1    1    2  502    0  0.52205058802E+02 -0.12125365694E+02  0.35973621808E+02  0.64683587747E+02  0.41800000000E+01 0. -1.
         -5    1    1    2    0  502 -0.62273559654E+02  0.42358651316E+02  0.53233992548E+02  0.92323246996E+02  0.41800000000E+01 0. -1.
        -11    1    1    2    0    0 -0.39892163358E+02  0.18837274391E+01 -0.23743411780E+02  0.46461626418E+02  0.00000000000E+00 0. -1.
         11    1    1    2    0    0  0.49960664210E+02 -0.32117013062E+02  0.11948680433E+02  0.60583343093E+02  0.00000000000E+00 0.  1.
</event>
<event>
 7    1  0.1538147E-010  0.8409723E+02  0.7561462E-02  0.1317810E+00
          3   -1    0    0  501    0  0.00000000000E+00  0.00000000000E+00  0.71665338718E+02  0.71665338718E+02  0.00000000000E+00 0. -1.
         -3   -1    0    0    0  501 -0.00000000000E+00 -0.00000000000E+00 -0.28728543125E+03  0.28728543125E+03  0.00000000000E+00 0.  1.
         25    2    1    2    0    0  0.60144020789E+02  0.38308745531E+02 -0.19333093537E+03  0.24103505540E+03  0.12504472856E+03 0.  0.
          5    1    3    3  502    0  0.95367852462E+00  0.99541109933E+01 -0.17135301316E+03  0.17169543194E+03  0.41800000000E+01 0.  1.
         -5    1    3    3    0  502  0.59190342265E+02  0.28354634538E+02 -0.21977922205E+02  0.69339623460E+02  0.41800000000E+01 0.  1.
        -11    1    1    2    0    0 -0.22811849241E+02  0.14418489559E+02 -0.42393803982E+02  0.50254431875E+02  0.00000000000E+00 0.  1.
         11    1    1    2    0    0 -0.37332171548E+02 -0.52727235091E+02  0.20104646815E+02  0.67661282698E+02  0.00000000000E+00 0. -1.
</event>
<event>
 7    1  0.1538147E-010  0.3678728E+03  0.7561462E-02  0.1055509E+00
          2   -1    0    0  501    0  0.00000000000E+00  0.00000000000E+00  0.15248752436E+04  0.15248752436E+04  0.00000000000E+00 0. -1.
         -2   -1    0    0    0  501 -0.00000000000E+00 -0.00000000000E+00 -0.99025054551E+02  0.99025054551E+02  0.00000000000E+00 0.  1.
         25    2    1    2    0    0 -0.11127824746E+03 -0.33458564866E+03  0.46986052048E+03  0.60061184828E+03  0.12504110904E+03 0.  0.
          5    1    3    3  502    0 -0.91836728044E+02 -0.92414215265E+02  0.18283854084E+03  0.22454793746E+03  0.41800000000E+01 0.  1.
         -5    1    3    3    0  502 -0.19441519413E+02 -0.24217143339E+03  0.28702197963E+03  0.37606391082E+03  0.41800000000E+01 0.  1.
        -11    1    1    2    0    0  0.66037374486E+02  0.79546275174E+02  0.22083760177E+03  0.24383968315E+03  0.00000000000E+00 0.  1.
         11    1    1    2    0    0  0.45240872971E+02  0.25503937348E+03  0.73515206679E+03  0.77944876670E+03  0.00000000000E+00 0. -1.
</event>
<event>
 7    1  0.1538147E-010  0.1139271E+03  0.7561462E-02  0.1253466E+00
          2   -1    0    0  501    0  0.00000000000E+00  0.00000000000E+00  0.22221273347E+04  0.22221273347E+04  0.00000000000E+00 0. -1.
         -2   -1    0    0    0  501 -0.00000000000E+00 -0.00000000000E+00 -0.68856715213E+01  0.68856715213E+01  0.00000000000E+00 0.  1.
         25    2    1    2    0    0  0.10980920543E+02 -0.30520730828E+02  0.16378414211E+04  0.16429342079E+04  0.12512471838E+03 0.  0.
          5    1    3    3  502    0 -0.44388953906E+01 -0.77505281358E+02  0.85787292434E+03  0.86138852973E+03  0.41800000000E+01 0.  1.
         -5    1    3    3    0  502  0.15419815934E+02  0.46984550530E+02  0.77996849676E+03  0.78154567816E+03  0.41800000000E+01 0.  1.
        -11    1    1    2    0    0 -0.47121084831E+02 -0.78520112709E+01  0.27249225896E+03  0.27664793856E+03  0.00000000000E+00 0. -1.
         11    1    1    2    0    0  0.36140164288E+02  0.38372742099E+02  0.30490798315E+03  0.30943085981E+03  0.00000000000E+00 0.  1.
</event>
<event>
 7    1  0.1538147E-010  0.1898701E+03  0.7561462E-02  0.1158579E+00
          2   -1    0    0  501    0  0.00000000000E+00  0.00000000000E+00  0.83732468417E+02  0.83732468417E+02  0.00000000000E+00 0. -1.
         -2   -1    0    0    0  501 -0.00000000000E+00 -0.00000000000E+00 -0.51989570318E+03  0.51989570318E+03  0.00000000000E+00 0.  1.
         25    2    1    2    0    0  0.12399112271E+03  0.12740145584E+03 -0.23581162125E+03  0.32070807356E+03  0.12506645541E+03 0.  0.
          5    1    3    3  502    0  0.23484931889E+02 -0.12795832699E+02  0.17124778719E+01  0.27123427894E+02  0.41800000000E+01 0. -1.
         -5    1    3    3    0  502  0.10050619082E+03  0.14019728854E+03 -0.23752409913E+03  0.29358464567E+03  0.41800000000E+01 0. -1.
        -11    1    1    2    0    0 -0.31056964383E+02 -0.15660514735E+02 -0.10112843369E+03  0.10694272701E+03  0.00000000000E+00 0.  1.
         11    1    1    2    0    0 -0.92934158324E+02 -0.11174094110E+03 -0.99223179815E+02  0.17597737103E+03  0.00000000000E+00 0. -1.
</event>
<event>
 7    1  0.1538147E-010  0.1651792E+03  0.7561462E-02  0.1182970E+00
         -2   -1    0    0    0  501 -0.00000000000E+00  0.00000000000E+00  0.14180893396E+03  0.14180893396E+03  0.00000000000E+00 0.  1.
          2   -1    0    0  501    0  0.00000000000E+00 -0.00000000000E+00 -0.24080623295E+03  0.24080623295E+03  0.00000000000E+00 0. -1.
         25    2    1    2    0    0  0.57882496410E+02  0.13825281531E+03 -0.42955235067E+02  0.19987845963E+03  0.12506806976E+03 0.  0.
          5    1    3    3  502    0  0.33631969808E+02  0.24715125090E+02  0.39342114380E+02  0.57508444295E+02  0.41800000000E+01 0.  1.
         -5    1    3    3    0  502  0.24250526601E+02  0.11353769022E+03 -0.82297349446E+02  0.14237001533E+03  0.41800000000E+01 0.  1.
        -11    1    1    2    0    0  0.20170398289E+02 -0.52714293868E+02 -0.66017384166E+01  0.56826267652E+02  0.00000000000E+00 0. -1.
         11    1    1    2    0    0 -0.78052894699E+02 -0.85538521440E+02 -0.49440325504E+02  0.12591043963E+03  0.00000000000E+00 0.  1.
</event>
<event>
 6    1  0.1538147E-010  0.1335531E+03  0.7561462E-02  0.1222277E+00
          2   -1    0    0  501    0  0.00000000000E+00  0.00000000000E+00  0.17837774558E+03  0.17837774558E+03  0.00000000000E+00 0.  1.
         -2   -1    0    0    0  501 -0.00000000000E+00 -0.00000000000E+00 -0.12664380831E+03  0.12664380831E+03  0.00000000000E+00 0. -1.
          5    1    1    2  502    0 -0.11725866074E+03 -0.56343417632E+02  0.34374021342E+02  0.13462250916E+03  0.41800000000E+01 0.  1.
         -5    1    1    2    0  502  0.17480005236E+02  0.26923062114E+02  0.43336673834E+01  0.32659683550E+02  0.41800000000E+01 0.  1.
        -11    1    1    2    0    0  0.43044686069E+02  0.18241415427E+02  0.50512679324E+02  0.68826775371E+02  0.00000000000E+00 0.  1.
         11    1    1    2    0    0  0.56733969438E+02  0.11178940092E+02 -0.37486430781E+02  0.68912585806E+02  0.00000000000E+00 0. -1.
</event>
<event>
 7    1  0.1538147E-010  0.1162668E+03  0.7561462E-02  0.1249386E+00
         -1   -1    0    0    0  501 -0.00000000000E+00  0.00000000000E+00  0.71657858922E+03  0.71657858922E+03  0.00000000000E+00 0.  1.
          1   -1    0    0  501    0  0.00000000000E+00 -0.00000000000E+00 -0.21268272514E+02  0.21268272514E+02  0.00000000000E+00 0. -1.
         25    2    1    2    0    0 -0.25053761635E+02 -0.56346428085E+02  0.38907608951E+03  0.41332493078E+03  0.12511867984E+03 0.  0.
          5    1    3    3  502    0 -0.60787577926E+02  0.61282362826E+01  0.11952775984E+03  0.13430205762E+03  0.41800000000E+01 0.  1.
         -5    1    3    3    0  502  0.35733816290E+02 -0.62474664367E+02  0.26954832967E+03  0.27902287316E+03  0.41800000000E+01 0.  1.
        -11    1    1    2    0    0  0.32771322720E+02 -0.85336782956E+01  0.17112627962E+03  0.17444479595E+03  0.00000000000E+00 0.  1.
         11    1    1    2    0    0 -0.77175610845E+01  0.64880106380E+02  0.13510794758E+03  0.15007713500E+03  0.00000000000E+00 0. -1.
</event>
<event>
 7    1  0.1538147E-010  0.1487948E+03  0.7561462E-02  0.1201962E+00
         -1   -1    0    0    0  501 -0.00000000000E+00  0.00000000000E+00  0.98733971721E+02  0.98733971721E+02  0.00000000000E+00 0.  1.
          1   -1    0    0  501    0  0.00000000000E+00 -0.00000000000E+00 -0.27633676501E+03  0.27633676501E+03  0.00000000000E+00 0. -1.
         25    2    1    2    0    0 -0.11367645805E+03  0.19957785487E+02 -0.44875785660E+02  0.17600222473E+03  0.12506916748E+03 0.  0.
          5    1    3    3  502    0  0.76898900723E+01 -0.26044034453E+02 -0.36754967284E+02  0.45889281537E+02  0.41800000000E+01 0. -1.
         -5    1    3    3    0  502 -0.12136634813E+03  0.46001819940E+02 -0.81208183762E+01  0.13011294319E+03  0.41800000000E+01 0. -1.
        -11    1    1    2    0    0  0.36987568458E+01 -0.29623341100E+02 -0.50476020635E+01  0.30277077579E+02  0.00000000000E+00 0. -1.
         11    1    1    2    0    0  0.10997770121E+03  0.96655556131E+01 -0.12767940557E+03  0.16879143442E+03  0.00000000000E+00 0.  1.
</event>
<event>
 6    1  0.1538147E-010  0.1465832E+03  0.7561462E-02  0.1204735E+00
         -2   -1    0    0    0  501 -0.00000000000E+00  0.00000000000E+00  0.13869227492E+03  0.13869227492E+03  0.00000000000E+00 0. -1.
          2   -1    0    0  501    0  0.00000000000E+00 -0.00000000000E+00 -0.18742514415E+03  0.18742514415E+03  0.00000000000E+00 0.  1.
          5    1    1    2  502    0 -0.10759074071E+03 -0.53016903871E+02 -0.21987109068E+02  0.12201419978E+03  0.41800000000E+01 0.  1.
         -5    1    1    2    0  502  0.33084562038E+02 -0.39485601235E+02  0.19713111114E+01  0.51720976572E+02  0.41800000000E+01 0.  1.
        -11    1    1    2    0    0  0.51450267103E+02  0.80330683586E+02  0.19685478952E+02  0.97404654878E+02  0.00000000000E+00 0. -1.
         11    1    1    2    0    0  0.23055911568E+02  0.12171821520E+02 -0.48402550225E+02  0.54977587848E+02  0.00000000000E+00 0.  1.
</event>
<event>
 7    1  0.1538147E-010  0.1049646E+03  0.7561462E-02  0.1270189E+00
          1   -1    0    0  501    0  0.00000000000E+00  0.00000000000E+00  0.67141747426E+02  0.67141747426E+02  0.00000000000E+00 0. -1.
         -1   -1    0    0    0  501 -0.00000000000E+00 -0.00000000000E+00 -0.31150967406E+03  0.31150967406E+03  0.00000000000E+00 0.  1.
         25    2    1    2    0    0 -0.71976636599E+02 -0.47177233568E+02 -0.81295763232E+02  0.17221068852E+03  0.12506475339E+03 0.  0.
          5    1    3    3  502    0  0.11068771542E+01 -0.63377897362E+01  0.31081106365E+02  0.32014064544E+02  0.41800000000E+01 0.  1.
         -5    1    3    3    0  502 -0.73083513754E+02 -0.40839443832E+02 -0.11237686960E+03  0.14019662398E+03  0.41800000000E+01 0.  1.
        -11    1    1    2    0    0 -0.17438728976E+02  0.22697496529E+00 -0.38015213954E+01  0.17849715708E+02  0.00000000000E+00 0. -1.
         11    1    1    2    0    0  0.89415365575E+02  0.46950258603E+02 -0.15927064200E+03  0.18859101725E+03  0.00000000000E+00 0.  1.
</event>
<event>
 7    1  0.1538147E-010  0.1718710E+03  0.7561462E-02  0.1175911E+00
         -2   -1    0    0    0  501 -0.00000000000E+00  0.00000000000E+00  0.39616303100E+02  0.39616303100E+02  0.00000000000E+00 0.  1.
          2   -1    0    0  501    0  0.00000000000E+00 -0.00000000000E+00 -0.10332643962E+04  0.10332643962E+04  0.00000000000E+00 0. -1.
         25    2    1    2    0    0 -0.14086373762E+03  0.44798050272E+02 -0.71329001961E+03  0.73911721545E+03  0.12514850467E+03 0.  0.
          5    1    3    3  502    0 -0.11151687360E+03 -0.14897324904E+01 -0.26602620785E+03  0.28848855794E+03  0.41800000000E+01 0.  1.
         -5    1    3    3    0  502 -0.29346864023E+02  0.46287782762E+02 -0.44726381176E+03  0.45062865751E+03  0.41800000000E+01 0.  1.
        -11    1    1    2    0    0  0.35046981496E+02  0.31174428153E+02 -0.10775151371E+03  0.11751818834E+03  0.00000000000E+00 0. -1.
         11    1    1    2    0    0  0.10581675613E+03 -0.75972478425E+02 -0.17260655982E+03  0.21624529555E+03  0.00000000000E+00 0.  1.
</event>
<event>
 7    1  0.1631305E-010  0.7014851E+02  0.7561462E-02  0.1359589E+00
         -1   -1    0    0    0  501 -0.00000000000E+00  0.00000000000E+00  0.25950841393E+03  0.25950841393E+03  0.00000000000E+00 0.  1.
          1   -1    0    0  501    0  0.00000000000E+00 -0.00000000000E+00 -0.60361713461E+02  0.60361713461E+02  0.00000000000E+00 0. -1.
         25    2    1    2    0    0  0.42143359640E+02 -0.27013669373E+02  0.16648634152E+03  0.21416269827E+03  0.12506861446E+03 0.  0.
          5    1    3    3  502    0  0.34965268588E+02  0.19765899672E+02 -0.66739496323E+00  0.40387852299E+02  0.41800000000E+01 0.  1.
         -5    1    3    3    0  502  0.71780910516E+01 -0.46779569045E+02  0.16715373648E+03  0.17377484597E+03  0.41800000000E+01 0.  1.
        -11    1    1    2    0    0 -0.51498475796E+01  0.10894940523E+02  0.57215578491E+02  0.58470873785E+02  0.00000000000E+00 0.  1.
         11    1    1    2    0    0 -0.36993512060E+02  0.16118728849E+02 -0.24555219537E+02  0.47236555344E+02  0.00000000000E+00 0. -1.
</event>
<event>
 6    1  0.1538147E-010  0.1748362E+03  0.7561462E-02  0.1172896E+00
          3   -1    0    0  501    0  0.00000000000E+00  0.00000000000E+00  0.28870428503E+03  0.28870428503E+03  0.00000000000E+00 0. -1.
         -3   -1    0    0    0  501 -0.00000000000E+00 -0.00000000000E+00 -0.11026265058E+03  0.11026265058E+03  0.00000000000E+00 0.  1.
          5    1    1    2  502    0  0.49189325930E+02  0.20253562776E+02  0.55597098986E+02  0.77060407514E+02  0.41800000000E+01 0. -1.
         -5    1    1    2    0  502  0.55811513290E+02 -0.11508259820E+03  0.40146099841E+02  0.13411976423E+03  0.41800000000E+01 0. -1.
        -11    1    1    2    0    0  0.16980201531E+02  0.14047808713E+02  0.74337272552E+01  0.23257869089E+02  0.00000000000E+00 0. -1.
         11    1    1    2    0    0 -0.12198104075E+03  0.80781226714E+02  0.75264708370E+02  0.16452889478E+03  0.00000000000E+00 0.  1.
</event>
<event>
 7    1  0.1538147E-010  0.1349908E+03  0.7561462E-02  0.1220233E+00
          3   -1    0    0  501    0  0.00000000000E+00  0.00000000000E+00  0.55778208506E+03  0.55778208506E+03  0.00000000000E+00 0. -1.
         -3   -1    0    0    0  501 -0.00000000000E+00 -0.00000000000E+00 -0.48586164477E+02  0.48586164477E+02  0.00000000000E+00 0.  1.
         25    2    1    2    0    0  0.10900858510E+03 -0.47266705990E+02  0.33740902242E+03  0.37894468061E+03  0.12504882819E+03 0.  0.
          5    1    3    3  502    0  0.10168580528E+03 -0.52147762186E+02  0.34694916853E+03  0.36530889674E+03  0.41800000000E+01 0. -1.
         -5    1    3    3    0  502  0.73227798269E+01  0.48810561964E+01 -0.95401461074E+01  0.13635783870E+02  0.41800000000E+01 0. -1.
        -11    1    1    2    0    0 -0.14909772463E+02  0.49563872790E+02  0.84279183823E+02  0.98903284206E+02  0.00000000000E+00 0. -1.
         11    1    1    2    0    0 -0.94098812640E+02 -0.22971668001E+01  0.87507714335E+02  0.12852028472E+03  0.00000000000E+00 0.  1.
</event>
<event>
 7    1  0.1538147E-010  0.1063979E+03  0.7561462E-02  0.1267390E+00
         -2   -1    0    0    0  501 -0.00000000000E+00  0.00000000000E+00  0.35913383658E+02  0.35913383658E+02  0.00000000000E+00 0. -1.
          2   -1    0    0  501    0  0.00000000000E+00 -0.00000000000E+00 -0.37867973253E+03  0.37867973253E+03  0.00000000000E+00 0.  1.
         25    2    1    2    0    0 -0.21831887654E+02 -0.15255200496E+02 -0.13533272389E+03  0.18622670980E+03  0.12512429352E+03 0.  0.
          5    1    3    3  502    0  0.26819496732E+02  0.40925197894E+02 -0.78416208674E+02  0.92524220669E+02  0.41800000000E+01 0.  1.
         -5    1    3    3    0  502 -0.48651384385E+02 -0.56180398390E+02 -0.56916515212E+02  0.93702489133E+02  0.41800000000E+01 0.  1.
        -11    1    1    2    0    0 -0.32306257729E+02 -0.21685907573E+01 -0.39564317352E+02  0.51124673905E+02  0.00000000000E+00 0. -1.
         11    1    1    2    0    0  0.54138145383E+02  0.17423791253E+02 -0.16786930763E+03  0.17724173248E+03  0.00000000000E+00 0.  1.
</event>
<event>
 7    1  0.1538147E-010  0.8551384E+02  0.7561462E-02  0.1314094E+00
         -1   -1    0    0    0  501 -0.00000000000E+00  0.00000000000E+00  0.64554202249E+03  0.64554202249E+03  0.00000000000E+00 0.  1.
          1   -1    0    0  501    0  0.00000000000E+00 -0.00000000000E+00 -0.25518887355E+02  0.25518887355E+02  0.00000000000E+00 0. -1.
         25    2    1    2    0    0 -0.63318567247E+02  0.11731998771E+02  0.27854999202E+03  0.31208342308E+03  0.12513626235E+03 0.  0.
          5    1    3    3  502    0 -0.82051955333E+01 -0.11300440109E+02 -0.98108166858E+01  0.17571274981E+02  0.41800000000E+01 0. -1.
         -5    1    3    3    0  502 -0.55113371714E+02  0.23032438880E+02  0.28836080870E+03  0.29451214810E+03  0.41800000000E+01 0. -1.
        -11    1    1    2    0    0  0.66372981384E+02 -0.33668206216E+02  0.31844885812E+03  0.32702996194E+03  0.00000000000E+00 0.  1.
         11    1    1    2    0    0 -0.30544141376E+01  0.21936207445E+02  0.23024284995E+02  0.31947524823E+02  0.00000000000E+00 0. -1.
</event>
<event>
 7    1  0.1538147E-010  0.1184867E+03  0.7561462E-02  0.1245615E+00
         -1   -1    0    0    0  501 -0.00000000000E+00  0.00000000000E+00  0.48807990259E+03  0.48807990259E+03  0.00000000000E+00 0.  1.
          1   -1    0    0  501    0  0.00000000000E+00 -0.00000000000E+00 -0.40575081886E+02  0.40575081886E+02  0.00000000000E+00 0. -1.
         25    2    1    2    0    0  0.13395913469E+02  0.70805185306E+02  0.16260623762E+03  0.21742634849E+03  0.12506239939E+03 0.  0.
          5    1    3    3  502    0  0.30541113444E+02  0.10141500663E+03  0.10102247478E+03  0.14642669152E+03  0.41800000000E+01 0. -1.
         -5    1    3    3    0  502 -0.17145199974E+02 -0.30609821324E+02  0.61583762843E+02  0.70999656968E+02  0.41800000000E+01 0. -1.
        -11    1    1    2    0    0 -0.37572974243E+02 -0.29444449587E+02  0.24281049673E+03  0.24745836282E+03  0.00000000000E+00 0.  1.
         11    1    1    2    0    0  0.24177060774E+02 -0.41360735720E+02  0.42088086347E+02  0.63770273163E+02  0.00000000000E+00 0. -1.
</event>
<event>
 6    1  0.1538147E-010  0.1109697E+03  0.7561462E-02  0.1258785E+00
          1   -1    0    0  501    0  0.00000000000E+00  0.00000000000E+00  0.68883066239E+02  0.68883066239E+02  0.00000000000E+00 0. -1.
         -1   -1    0    0    0  501 -0.00000000000E+00 -0.00000000000E+00 -0.35846355684E+03  0.35846355684E+03  0.00000000000E+00 0.  1.
          5    1    1    2  502    0 -0.47593854635E+02 -0.55085953434E+02  0.25698278572E+02  0.77314365977E+02  0.41800000000E+01 0. -1.
         -5    1    1    2    0  502 -0.13441136318E+02  0.35666028827E+02 -0.53610939419E+02  0.65911569419E+02  0.41800000000E+01 0. -1.
        -11    1    1    2    0    0  0.73503907824E+02 -0.14161874591E+02 -0.17428274907E+03  0.18967830604E+03  0.00000000000E+00 0.  1.
         11    1    1    2    0    0 -0.12468916872E+02  0.33581799198E+02 -0.87385080685E+02  0.94442381650E+02  0.00000000000E+00 0. -1.
</event>
<event>
 7    1  0.1797055E-010  0.2123570E+03  0.7561462E-02  0.1139713E+00
          2   -1    0    0  501    0  0.00000000000E+00  0.00000000000E+00  0.11449561524E+04  0.11449561524E+04  0.00000000000E+00 0. -1.
         -2   -1    0    0    0  501 -0.00000000000E+00 -0.00000000000E+00 -0.43715265730E+02  0.43715265730E+02  0.00000000000E+00 0.  1.
         25    2    1    2    0    0  0.18749127932E+03 -0.32275056123E+02  0.45298423054E+03  0.50698185302E+03  0.12506489154E+03 0.  0.
          5    1    3    3  502    0  0.19385558087E+03 -0.13355131126E+02  0.44403705442E+03  0.48471096941E+03  0.41800000000E+01 0. -1.
         -5    1    3    3    0  502 -0.63643015522E+01 -0.18919924997E+02  0.89471761200E+01  0.22270883607E+02  0.41800000000E+01 0. -1.
        -11    1    1    2    0    0 -0.78239317012E+02  0.58394615653E+02  0.33310186893E+03  0.34711406907E+03  0.00000000000E+00 0. -1.
         11    1    1    2    0    0 -0.10925196231E+03 -0.26119559530E+02  0.31515478718E+03  0.33457549603E+03  0.00000000000E+00 0.  1.
</event>
<event>
 7    1  0.1538147E-010  0.9208396E+02  0.7561462E-02  0.1297882E+00
          2   -1    0    0  501    0  0.00000000000E+00  0.00000000000E+00  0.82804040192E+03  0.82804040192E+03  0.00000000000E+00 0. -1.
         -2   -1    0    0    0  501 -0.00000000000E+00 -0.00000000000E+00 -0.20370915259E+02  0.20370915259E+02  0.00000000000E+00 0.  1.
         25    2    1    2    0    0 -0.12582121436E+02  0.67085119358E+02  0.37615543662E+03  0.40225296803E+03  0.12512319837E+03 0.  0.
          5    1    3    3  502    0  0.20104401013E+02  0.10340584236E+02  0.30343031756E+03  0.30430008977E+03  0.41800000000E+01 0.  1.
         -5    1    3    3    0  502 -0.32686522449E+02  0.56744535122E+02  0.72725119065E+02  0.97952878258E+02  0.41800000000E+01 0.  1.
        -11    1    1    2    0    0 -0.14913501011E+02 -0.66399779680E+02  0.39290031397E+03  0.39875054855E+03  0.00000000000E+00 0. -1.
         11    1    1    2    0    0  0.27495622447E+02 -0.68533967814E+00  0.38613736074E+02  0.47407800601E+02  0.00000000000E+00 0.  1.
</event>
<event>
 7    1  0.1538147E-010  0.1446363E+03  0.7561462E-02  0.1207223E+00
         -1   -1    0    0    0  501 -0.00000000000E+00  0.00000000000E+00  0.20829356319E+03  0.20829356319E+03  0.00000000000E+00 0.  1.
          1   -1    0    0  501    0  0.00000000000E+00 -0.00000000000E+00 -0.10874063718E+03  0.10874063718E+03  0.00000000000E+00 0. -1.
         25    2    1    2    0    0  0.14003775950E+02 -0.99576850606E+02  0.77798890148E+02  0.17832504062E+03  0.12504198450E+03 0.  0.
          5    1    3    3  502    0 -0.50775779064E+02 -0.15662703518E+02  0.16493990159E+02  0.55794481201E+02  0.41800000000E+01 0. -1.
         -5    1    3    3    0  502  0.64779555014E+02 -0.83914147087E+02  0.61304899989E+02  0.12253055942E+03  0.41800000000E+01 0. -1.
        -11    1    1    2    0    0  0.26200192933E+02  0.44089803179E+01 -0.13170817957E+02  0.29653999104E+02  0.00000000000E+00 0. -1.
         11    1    1    2    0    0 -0.40203968883E+02  0.95167870288E+02  0.34924853818E+02  0.10905516064E+03  0.00000000000E+00 0.  1.
</event>
<event>
 6    1  0.1538147E-010  0.9530040E+02  0.7561462E-02  0.1290501E+00
          1   -1    0    0  501    0  0.00000000000E+00  0.00000000000E+00  0.23619210729E+03  0.23619210729E+03  0.00000000000E+00 0. -1.
         -1   -1    0    0    0  501 -0.00000000000E+00 -0.00000000000E+00 -0.11643511692E+03  0.11643511692E+03  0.00000000000E+00 0.  1.
          5    1    1    2  502    0 -0.79289181321E+02 -0.41024404830E+02 -0.68965081192E+02  0.11288680565E+03  0.41800000000E+01 0. -1.
         -5    1    1    2    0  502  0.11343742241E+01 -0.73582578551E+01  0.43435365667E+02  0.44266625737E+02  0.41800000000E+01 0. -1.
        -11    1    1    2    0    0  0.52320246990E+02  0.38797510356E+02  0.21402175010E+02  0.68561710525E+02  0.00000000000E+00 0.  1.
         11    1    1    2    0    0  0.25834560107E+02  0.95851523293E+01  0.12388453088E+03  0.12691208229E+03  0.00000000000E+00 0. -1.
</event>
<event>
 7    1  0.1538147E-010  0.1112484E+03  0.7561462E-02  0.1258275E+00
         -2   -1    0    0    0  501 -0.00000000000E+00  0.00000000000E+00  0.61963908535E+03  0.61963908535E+03  0.00000000000E+00 0.  1.
          2   -1    0    0  501    0  0.00000000000E+00 -0.00000000000E+00 -0.36662166357E+02  0.36662166357E+02  0.00000000000E+00 0. -1.
         25    2    1    2    0    0 -0.16972750402E+02 -0.66297018114E+02  0.48603597809E+03  0.50650949857E+03  0.12505011505E+03 0.  0.
          5    1    3    3  502    0  0.24051160987E+02  0.11555565437E+02  0.29390139354E+03  0.29513978207E+03  0.41800000000E+01 0. -1.
         -5    1    3    3    0  502 -0.41023911389E+02 -0.77852583551E+02  0.19213458455E+03  0.21136971650E+03  0.41800000000E+01 0. -1.
        -11    1    1    2    0    0 -0.13239894045E+02 -0.15385622889E+02  0.11532827720E+01  0.20330820130E+02  0.00000000000E+00 0. -1.
         11    1    1    2    0    0  0.30212644446E+02  0.81682641003E+02  0.95787658136E+02  0.12946093301E+03  0.00000000000E+00 0.  1.
</event>
<event>
 7    1  0.1538147E-010  0.1010911E+03  0.7561462E-02  0.1278018E+00
         -3   -1    0    0    0  501 -0.00000000000E+00  0.00000000000E+00  0.51000061495E+02  0.51000061495E+02  0.00000000000E+00 0.  1.
          3   -1    0    0  501    0  0.00000000000E+00 -0.00000000000E+00 -0.34670687863E+03  0.34670687863E+03  0.00000000000E+00 0. -1.
         25    2    1    2    0    0  0.37483146905E+02 -0.22851811454E+01 -0.63328430392E+02  0.14517873463E+03  0.12512460405E+03 0.  0.
          5    1    3    3  502    0  0.44925606948E+02  0.52022250073E+02 -0.57840718800E+02  0.89931339441E+02  0.41800000000E+01 0.  1.
         -5    1    3    3    0  502 -0.74424600425E+01 -0.54307431218E+02 -0.54877115921E+01  0.55247395192E+02  0.41800000000E+01 0.  1.
        -11    1    1    2    0    0 -0.67109157268E+01 -0.31755713758E+02 -0.27399841505E+02  0.42476029248E+02  0.00000000000E+00 0. -1.
         11    1    1    2    0    0 -0.30772231178E+02  0.34040894903E+02 -0.20497854523E+03  0.21005217624E+03  0.00000000000E+00 0.  1.
</event>
<event>
 6    1  0.1538147E-010  0.4833566E+03  0.7561462E-02  0.1018217E+00
         -1   -1    0    0    0  501 -0.00000000000E+00  0.00000000000E+00  0.16002472869E+03  0.16002472869E+03  0.00000000000E+00 0.  1.
          1   -1    0    0  501    0  0.00000000000E+00 -0.00000000000E+00 -0.22289308063E+04  0.22289308063E+04  0.00000000000E+00 0. -1.
          5    1    1    2  502    0 -0.22466801548E+02 -0.11963081309E+03 -0.16738799642E+03  0.20700845962E+03  0.41800000000E+01 0.  1.
         -5    1    1    2    0  502 -0.48517546129E+02 -0.35782210830E+03 -0.20397165877E+03  0.41474392516E+03  0.41800000000E+01 0.  1.
        -11    1    1    2    0    0  0.61472759895E+02  0.45839962753E+03 -0.16669703524E+04  0.17299419859E+04  0.00000000000E+00 0.  1.
         11    1    1    2    0    0  0.95115877826E+01  0.19053293866E+02 -0.30576070036E+02  0.37261164342E+02  0.00000000000E+00 0. -1.
</event>
<event>
 7    1  0.1538147E-010  0.1933698E+03  0.7561462E-02  0.1155457E+00
          2   -1    0    0  501    0  0.00000000000E+00  0.00000000000E+00  0.70541217035E+03  0.70541217035E+03  0.00000000000E+00 0. -1.
         -2   -1    0    0    0  501 -0.00000000000E+00 -0.00000000000E+00 -0.66856908553E+02  0.66856908553E+02  0.00000000000E+00 0.  1.
         25    2    1    2    0    0  0.13141223659E+03 -0.13238612468E+03  0.29395767151E+03  0.36994809354E+03  0.12512081098E+03 0.  0.
          5    1    3    3  502    0  0.35848998654E+02 -0.38544404039E+02  0.70273057326E+01  0.53269852760E+02  0.41800000000E+01 0.  1.
         -5    1    3    3    0  502  0.95563237940E+02 -0.93841720644E+02  0.28693036578E+03  0.31667824078E+03  0.41800000000E+01 0.  1.
        -11    1    1    2    0    0 -0.12095902955E+03  0.76589871821E+02  0.19196416349E+03  0.23947303681E+03  0.00000000000E+00 0.  1.
         11    1    1    2    0    0 -0.10453207042E+02  0.55796252862E+02  0.15263342679E+03  0.16284794854E+03  0.00000000000E+00 0. -1.
</event>
<event>
 7    1  0.1538147E-010  0.3249242E+03  0.7561462E-02  0.1073405E+00
          2   -1    0    0  501    0  0.00000000000E+00  0.00000000000E+00  0.38798557389E+03  0.38798557389E+03  0.00000000000E+00 0.  1.
         -2   -1    0    0    0  501 -0.00000000000E+00 -0.00000000000E+00 -0.35417014153E+03  0.35417014153E+03  0.00000000000E+00 0. -1.
         25    2    1    2    0    0 -0.10468637509E+03  0.30132907636E+03 -0.13676265934E+03  0.36892163615E+03  0.12506278120E+03 0.  0.
          5    1    3    3  502    0 -0.14944145644E+02  0.20886834531E+02  0.22263645336E+02  0.34245140522E+02  0.41800000000E+01 0. -1.
         -5    1    3    3    0  502 -0.89742229449E+02  0.28044224183E+03 -0.15902630467E+03  0.33467649563E+03  0.41800000000E+01 0. -1.
        -11    1    1    2    0    0 -0.64190247177E+01 -0.93184461839E+02  0.70119491935E+02  0.11679593724E+03  0.00000000000E+00 0.  1.
         11    1    1    2    0    0  0.11110539981E+03 -0.20814461452E+03  0.10045859976E+03  0.25643814203E+03  0.00000000000E+00 0. -1.
</event>
<event>
 6    1  0.1538147E-010  0.1696117E+03  0.7561462E-02  0.1178253E+00
          2   -1    0    0  501    0  0.00000000000E+00  0.00000000000E+00  0.12144598812E+04  0.12144598812E+04  0.00000000000E+00 0.  1.
         -2   -1    0    0    0  501 -0.00000000000E+00 -0.00000000000E+00 -0.24764664566E+02  0.24764664566E+02  0.00000000000E+00 0. -1.
          5    1    1    2  502    0 -0.35115896071E+02 -0.10230233766E+03  0.42915692356E+03  0.44259691808E+03  0.41800000000E+01 0. -1.
         -5    1    1    2    0  502 -0.69206434414E+02  0.22437031621E+02  0.32117706190E+03  0.32934044459E+03  0.41800000000E+01 0. -1.
        -11    1    1    2    0    0 -0.55044881104E+01  0.41364141642E+02  0.94050830007E+02  0.10289242065E+03  0.00000000000E+00 0.  1.
         11    1    1    2    0    0  0.10982681860E+03  0.38501164401E+02  0.34531040113E+03  0.36439476241E+03  0.00000000000E+00 0. -1.
</event>
<event>
 6    1  0.1538147E-010  0.2611356E+03  0.7561462E-02  0.1106463E+00
          2   -1    0    0  501    0  0.00000000000E+00  0.00000000000E+00  0.11615043693E+04  0.11615043693E+04  0.00000000000E+00 0. -1.
         -2   -1    0    0    0  501 -0.00000000000E+00 -0.00000000000E+00 -0.63798678888E+02  0.63798678888E+02  0.00000000000E+00 0.  1.
          5    1    1    2  502    0  0.56249098411E+01 -0.19236754570E+01 -0.18256564248E+01  0.74930340561E+01  0.41800000000E+01 0.  1.
         -5    1    1    2    0  502 -0.25108439749E+03  0.30910461273E+02  0.63922093560E+03  0.68747342362E+03  0.41800000000E+01 0.  1.
        -11    1    1    2    0    0  0.11456298645E+03 -0.57258139168E+02  0.19783480925E+03  0.23567304495E+03  0.00000000000E+00 0. -1.
         11    1    1    2    0    0  0.13089650119E+03  0.28271353352E+02  0.26247560204E+03  0.29466354561E+03  0.00000000000E+00 0.  1.
</event>
<event>
 6    1  0.1538147E-010  0.2346770E+03  0.7561462E-02  0.1123390E+00
          1   -1    0    0  501    0  0.00000000000E+00  0.00000000000E+00  0.25701269844E+03  0.25701269844E+03  0.00000000000E+00 0. -1.
         -1   -1    0    0    0  501 -0.00000000000E+00 -0.00000000000E+00 -0.24584140163E+03  0.24584140163E+03  0.00000000000E+00 0.  1.
          5    1    1    2  502    0  0.11204325465E+03  0.12402243265E+02  0.32631950197E+02  0.11743007760E+03  0.41800000000E+01 0.  1.
         -5    1    1    2    0  502  0.84202613013E+02  0.96099144449E+02 -0.58777211626E+02  0.14070308671E+03  0.41800000000E+01 0.  1.
        -11    1    1    2    0    0 -0.44923932112E+02 -0.47997760552E+02  0.48002830839E+02  0.81401575310E+02  0.00000000000E+00 0.  1.
         11    1    1    2    0    0 -0.15132193555E+03 -0.60503627162E+02 -0.10686272600E+02  0.16331936046E+03  0.00000000000E+00 0. -1.
</event>
<event>
 7    1  0.1610312E-010  0.1388512E+03  0.7561462E-02  0.1214883E+00
         -2   -1    0    0    0  501 -0.00000000000E+00  0.00000000000E+00  0.65678547351E+02  0.65678547351E+02  0.00000000000E+00 0. -1.
          2   -1    0    0  501    0  0.00000000000E+00 -0.00000000000E+00 -0.46306168059E+03  0.46306168059E+03  0.00000000000E+00 0.  1.
         25    2    1    2    0    0 -0.22877610234E+02  0.12249436632E+03 -0.29407435659E+03  0.34299987032E+03  0.12506369980E+03 0.  0.
          5    1    3    3  502    0 -0.53731387772E+02  0.54546216730E+02 -0.23659794784E+03  0.24871351614E+03  0.41800000000E+01 0. -1.
         -5    1    3    3    0  502  0.30853777538E+02  0.67948149591E+02 -0.57476408749E+02  0.94286354176E+02  0.41800000000E+01 0.  1.
        -11    1    1    2    0    0  0.20056059604E+02 -0.52062790524E+02  0.55344166100E+01  0.56066116784E+02  0.00000000000E+00 0. -1.
         11    1    1    2    0    0  0.28215506301E+01 -0.70431575797E+02 -0.10884319326E+03  0.12967424083E+03  0.00000000000E+00 0.  1.
</event>
<event>
 7    1  0.1538147E-010  0.1284346E+03  0.7561462E-02  0.1229797E+00
          1   -1    0    0  501    0  0.00000000000E+00  0.00000000000E+00  0.11454967815E+04  0.11454967815E+04  0.00000000000E+00 0. -1.
         -1   -1    0    0    0  501 -0.00000000000E+00 -0.00000000000E+00 -0.27360474864E+02  0.27360474864E+02  0.00000000000E+00 0.  1.
         25    2    1    2    0    0 -0.93304553070E+02 -0.66484837988E+02  0.87311193115E+03  0.88943149295E+03  0.12505184137E+03 0.  0.
          5    1    3    3  502    0 -0.26556413457E+02 -0.13635915622E+02  0.31815380489E+02  0.43827755204E+02  0.41800000000E+01 0.  1.
         -5    1    3    3    0  502 -0.66748139613E+02 -0.52848922366E+02  0.84129655066E+03  0.84560373774E+03  0.41800000000E+01 0.  1.
        -11    1    1    2    0    0  0.75353853890E+02  0.28935716647E+01  0.14694614274E+03  0.16516581038E+03  0.00000000000E+00 0.  1.
         11    1    1    2    0    0  0.17950699181E+02  0.63591266324E+02  0.98078232782E+02  0.11825995307E+03  0.00000000000E+00 0. -1.
</event>
<event>
 7    1  0.2131305E-010  0.6665387E+02  0.7561462E-02  0.1371856E+00
         -1   -1    0    0    0  501 -0.00000000000E+00  0.00000000000E+00  0.40625250094E+03  0.40625250094E+03  0.00000000000E+00 0.  1.
          1   -1    0    0  501    0  0.00000000000E+00 -0.00000000000E+00 -0.40820388021E+02  0.40820388021E+02  0.00000000000E+00 0. -1.
         25    2    1    2    0    0 -0.19855001412E+02 -0.43938483957E+02  0.29030885749E+03  0.31977682229E+03  0.12511263679E+03 0.  0.
          5    1    3    3  502    0  0.19937649134E+01 -0.30529332264E+02  0.26988122595E+01  0.30996309694E+02  0.41800000000E+01 0. -1.
         -5    1    3    3    0  502 -0.21848766325E+02 -0.13409151693E+02  0.28761004523E+03  0.28878051260E+03  0.41800000000E+01 0. -1.
        -11    1    1    2    0    0 -0.10414150995E+02  0.44978288986E+02 -0.13893285107E+00  0.46168390955E+02  0.00000000000E+00 0. -1.
         11    1    1    2    0    0  0.30269152407E+02 -0.10398050285E+01  0.75262188278E+02  0.81127675711E+02  0.00000000000E+00 0.  1.
</event>
<event>
 6    1  0.1538147E-010  0.9910626E+02  0.7561462E-02  0.1282187E+00
          1   -1    0    0  501    0  0.00000000000E+00  0.00000000000E+00  0.54875947991E+03  0.54875947991E+03  0.00000000000E+00 0. -1.
         -1   -1    0    0    0  501 -0.00000000000E+00 -0.00000000000E+00 -0.29086988783E+02  0.29086988783E+02  0.00000000000E+00 0.  1.
          5    1    1    2  502    0 -0.43991694984E+02  0.32454013976E+02  0.18566167788E+03  0.19358786967E+03  0.41800000000E+01 0. -1.
         -5    1    1    2    0  502  0.45158142168E+02  0.20603848119E+02  0.21611379492E+02  0.54298254898E+02  0.41800000000E+01 0. -1.
        -11    1    1    2    0    0 -0.14920024941E+02  0.16745414330E+02  0.23724689537E+02  0.32647770811E+02  0.00000000000E+00 0.  1.
         11    1    1    2    0    0  0.13753577757E+02 -0.69803276425E+02  0.28867474422E+03  0.29731257332E+03  0.00000000000E+00 0. -1.
</event>
<event>
 7    1  0.1538147E-010  0.1069800E+03  0.7561462E-02  0.1266267E+00
         -2   -1    0    0    0  501 -0.00000000000E+00  0.00000000000E+00  0.47116490022E+03  0.47116490022E+03  0.00000000000E+00 0.  1.
          2   -1    0    0  501    0  0.00000000000E+00 -0.00000000000E+00 -0.36622632469E+02  0.36622632469E+02  0.00000000000E+00 0. -1.
         25    2    1    2    0    0  0.22020287758E+02  0.49537740621E+02  0.13960267852E+03  0.19509601225E+03  0.12503865532E+03 0.  0.
          5    1    3    3  502    0 -0.37371104390E+02  0.90889456414E+01  0.11116317680E+03  0.11770273001E+03  0.41800000000E+01 0.  1.
         -5    1    3    3    0  502  0.59391392148E+02  0.40448794979E+02  0.28439501726E+02  0.77393282234E+02  0.41800000000E+01 0.  1.
        -11    1    1    2    0    0  0.61620950415E+01 -0.68853038236E+02  0.21216862454E+03  0.22314622454E+03  0.00000000000E+00 0.  1.
         11    1    1    2    0    0 -0.28182382799E+02  0.19315297615E+02  0.82770964691E+02  0.89545295901E+02  0.00000000000E+00 0. -1.
</event>
<event>
 7    1  0.1538147E-010  0.7902729E+02  0.7561462E-02  0.1331835E+00
         -2   -1    0    0    0  501 -0.00000000000E+00  0.00000000000E+00  0.12708873321E+03  0.12708873321E+03  0.00000000000E+00 0.  1.
          2   -1    0    0  501    0  0.00000000000E+00 -0.00000000000E+00 -0.11006948340E+03  0.11006948340E+03  0.00000000000E+00 0. -1.
         25    2    1    2    0    0  0.45501639745E+02 -0.26195871690E+01 -0.11361255705E+02  0.13358550906E+03  0.12505498248E+03 0.  0.
          5    1    3    3  502    0 -0.66086256210E+01  0.12986847704E+02  0.49547793946E+02  0.51814944088E+02  0.41800000000E+01 0.  1.
         -5    1    3    3    0  502  0.52110265366E+02 -0.15606434873E+02 -0.60909049651E+02  0.81770564969E+02  0.41800000000E+01 0.  1.
        -11    1    1    2    0    0  0.20874975466E+02  0.64558654415E+01 -0.12840366118E+02  0.25343989452E+02  0.00000000000E+00 0. -1.
         11    1    1    2    0    0 -0.66376615211E+02 -0.38362782725E+01  0.41220871633E+02  0.78228718103E+02  0.00000000000E+00 0.  1.
</event>
<event>
 6    1  0.1538147E-010  0.1470462E+03  0.7561462E-02  0.1204150E+00
          1   -1    0    0  501    0  0.00000000000E+00  0.00000000000E+00  0.21883135642E+03  0.21883135642E+03  0.00000000000E+00 0. -1.
         -1   -1    0    0    0  501 -0.00000000000E+00 -0.00000000000E+00 -0.21597405674E+03  0.21597405674E+03  0.00000000000E+00 0.  1.
          5    1    1    2  502    0  0.46423200338E+01  0.12238825714E+03  0.56482016449E+02  0.13493749369E+03  0.41800000000E+01 0.  1.
         -5    1    1    2    0  502 -0.16814687541E+02 -0.44921651442E+01  0.88628731894E+02  0.90418127508E+02  0.41800000000E+01 0.  1.
        -11    1    1    2    0    0  0.55269381308E+02 -0.70561756188E+02 -0.86412158557E+02  0.12450191602E+03  0.00000000000E+00 0.  1.
         11    1    1    2    0    0 -0.43097013801E+02 -0.47334335810E+02 -0.55841290103E+02  0.84947875933E+02  0.00000000000E+00 0. -1.
</event>
<event>
 7    1  0.1538147E-010  0.2267806E+03  0.7561462E-02  0.1128926E+00
          1   -1    0    0  501    0  0.00000000000E+00  0.00000000000E+00  0.51724104637E+03  0.51724104637E+03  0.00000000000E+00 0. -1.
         -1   -1    0    0    0  501 -0.00000000000E+00 -0.00000000000E+00 -0.11692052832E+03  0.11692052832E+03  0.00000000000E+00 0.  1.
         25    2    1    2    0    0  0.20878125891E+03  0.69442934939E+02  0.19203454190E+03  0.31771518342E+03  0.12511489601E+03 0.  0.
          5    1    3    3  502    0  0.14489553998E+03  0.45172038646E+02  0.49682600539E+02  0.15975313386E+03  0.41800000000E+01 0.  1.
         -5    1    3    3    0  502  0.63885718934E+02  0.24270896292E+02  0.14235194136E+03  0.15796204956E+03  0.41800000000E+01 0.  1.
        -11    1    1    2    0    0 -0.45182975452E+02 -0.51765924932E+02  0.33681554649E+02  0.76522280273E+02  0.00000000000E+00 0.  1.
         11    1    1    2    0    0 -0.16359828346E+03 -0.17677010007E+02  0.17460442149E+03  0.23992411100E+03  0.00000000000E+00 0. -1.
</event>
<event>
 7    1  0.1538147E-010  0.8601529E+02  0.7561462E-02  0.1312799E+00
         -2   -1    0    0    0  501 -0.00000000000E+00  0.00000000000E+00  0.69203181229E+02  0.69203181229E+02  0.00000000000E+00 0.  1.
          2   -1    0    0  501    0  0.00000000000E+00 -0.00000000000E+00 -0.27737899049E+03  0.27737899049E+03  0.00000000000E+00 0. -1.
         25    2    1    2    0    0 -0.39477060864E+02 -0.16828172518E+02 -0.21993736893E+02  0.13403625721E+03  0.12506145713E+03 0.  0.
          5    1    3    3  502    0 -0.64327585880E+01 -0.35763476868E+02  0.44311284026E+02  0.57457540434E+02  0.41800000000E+01 0. -1.
         -5    1    3    3    0  502 -0.33044302276E+02  0.18935304350E+02 -0.66305020918E+02  0.76578716774E+02  0.41800000000E+01 0. -1.
        -11    1    1    2    0    0 -0.12159254598E+02 -0.26871099927E+02 -0.91828525371E+02  0.96448854609E+02  0.00000000000E+00 0. -1.
         11    1    1    2    0    0  0.51636315462E+02  0.43699272445E+02 -0.94353547002E+02  0.11609705990E+03  0.00000000000E+00 0.  1.
</event>
<event>
 7    1  0.1538147E-010  0.8419456E+02  0.7561462E-02  0.1317552E+00
          3   -1    0    0  501    0  0.00000000000E+00  0.00000000000E+00  0.72789401915E+02  0.72789401915E+02  0.00000000000E+00 0. -1.
         -3   -1    0    0    0  501 -0.00000000000E+00 -0.00000000000E+00 -0.18338072889E+03  0.18338072889E+03  0.00000000000E+00 0.  1.
         25    2    1    2    0    0 -0.23814621857E+02 -0.22690514716E+02 -0.87720191910E+02  0.15626626887E+03  0.12506925699E+03 0.  0.
          5    1    3    3  502    0 -0.87592278126E+00 -0.73010502351E+02 -0.41621730536E+02  0.84149518995E+02  0.41800000000E+01 0.  1.
         -5    1    3    3    0  502 -0.22938699076E+02  0.50319987636E+02 -0.46098461373E+02  0.72116749871E+02  0.41800000000E+01 0.  1.
        -11    1    1    2    0    0 -0.11307288510E+00  0.14504680424E+02  0.34380760554E+02  0.37315348530E+02  0.00000000000E+00 0. -1.
         11    1    1    2    0    0  0.23927694742E+02  0.81858342915E+01 -0.57251895623E+02  0.62588513412E+02  0.00000000000E+00 0.  1.
</event>
<event>
 6    1  0.1538147E-010  0.1180726E+03  0.7561462E-02  0.1246311E+00
         -1   -1    0    0    0  501 -0.00000000000E+00  0.00000000000E+00  0.52162594458E+02  0.52162594458E+02  0.00000000000E+00 0.  1.
          1   -1    0    0  501    0  0.00000000000E+00 -0.00000000000E+00 -0.45047904579E+03  0.45047904579E+03  0.00000000000E+00 0. -1.
          5    1    1    2  502    0 -0.66704839904E+02  0.10180851881E+02 -0.19572769606E+03  0.20707483869E+03  0.41800000000E+01 0. -1.
         -5    1    1    2    0  502 -0.36339291916E+02  0.14876169415E+02  0.99929606517E+01  0.40732986829E+02  0.41800000000E+01 0. -1.
        -11    1    1    2    0    0  0.79627792021E+02  0.16528675761E+02 -0.17860785372E+03  0.19625123642E+03  0.00000000000E+00 0. -1.
         11    1    1    2    0    0  0.23416339799E+02 -0.41585697057E+02 -0.33973862204E+02  0.58582578317E+02  0.00000000000E+00 0.  1.
</event>
<event>
 7    1  0.1538147E-010  0.1093640E+03  0.7561462E-02  0.1261752E+00
          1   -1    0    0  501    0  0.00000000000E+00  0.00000000000E+00  0.71255160477E+02  0.71255160477E+02  0.00000000000E+00 0. -1.
         -1   -1    0    0    0  501 -0.00000000000E+00 -0.00000000000E+00 -0.18404082908E+03  0.18404082908E+03  0.00000000000E+00 0.  1.
         25    2    1    2    0    0 -0.17645816139E+02 -0.23553036722E+02 -0.86638646727E+02  0.15500027705E+03  0.12511079256E+03 0.  0.
          5    1    3    3  502    0 -0.70922286886E+02 -0.94591733744E+01 -0.36742661001E+02  0.80541556202E+02  0.41800000000E+01 0. -1.
         -5    1    3    3    0  502  0.53276470747E+02 -0.14093863348E+02 -0.49895985727E+02  0.74458720852E+02  0.41800000000E+01 0. -1.
        -11    1    1    2    0    0  0.53078349353E+02  0.11065643854E+02  0.52467471430E+00  0.54222088926E+02  0.00000000000E+00 0.  1.
         11    1    1    2    0    0 -0.35432533214E+02  0.12487392868E+02 -0.26671696592E+02  0.46073623579E+02  0.00000000000E+00 0. -1.
</event>
<event>
 6    1  0.1538147E-010  0.1245605E+03  0.7561462E-02  0.1235758E+00
         -1   -1    0    0    0  501 -0.00000000000E+00  0.00000000000E+00  0.59106578805E+02  0.59106578805E+02  0.00000000000E+00 0.  1.
          1   -1    0    0  501    0  0.00000000000E+00 -0.00000000000E+00 -0.27257570159E+03  0.27257570159E+03  0.00000000000E+00 0. -1.
          5    1    1    2  502    0 -0.23351633094E+02 -0.27852307449E+02 -0.39182743226E+02  0.53607924462E+02  0.41800000000E+01 0.  1.
         -5    1    1    2    0  502  0.68709069517E+02  0.81504566074E+02 -0.92476696010E+02  0.14118548874E+03  0.41800000000E+01 0.  1.
        -11    1    1    2    0    0  0.21808995409E+02 -0.24005919076E+02 -0.42951562550E+02  0.53821493447E+02  0.00000000000E+00 0. -1.
         11    1    1    2    0    0 -0.67166431832E+02 -0.29646339549E+02 -0.38858120998E+02  0.83067373747E+02  0.00000000000E+00 0.  1.
</event>
<event>
 7    1  0.1538147E-010  0.9799260E+02  0.7561462E-02  0.1284575E+00
         -2   -1    0    0    0  501 -0.00000000000E+00  0.00000000000E+00  0.16821890729E+03  0.16821890729E+03  0.00000000000E+00 0.  1.
          2   -1    0    0  501    0  0.00000000000E+00 -0.00000000000E+00 -0.16381866910E+03  0.16381866910E+03  0.00000000000E+00 0. -1.
         25    2    1    2    0    0  0.18726058255E+02 -0.34103479937E+02  0.12005888659E+03  0.17771970121E+03  0.12512571017E+03 0.  0.
          5    1    3    3  502    0 -0.22368251002E+02  0.32394424535E+02  0.81170479498E+02  0.90309780953E+02  0.41800000000E+01 0.  1.
         -5    1    3    3    0  502  0.41094309258E+02 -0.66497904473E+02  0.38888407097E+02  0.87409920256E+02  0.41800000000E+01 0.  1.
        -11    1    1    2    0    0 -0.44385787532E+02  0.18529025260E+02 -0.11459832172E+03  0.12428273513E+03  0.00000000000E+00 0.  1.
         11    1    1    2    0    0  0.25659729276E+02  0.15574454677E+02 -0.10603266930E+01  0.30035140048E+02  0.00000000000E+00 0. -1.
</event>
<event>
 7    1  0.1538147E-010  0.9609976E+02  0.7561462E-02  0.1288718E+00
          1   -1    0    0  501    0  0.00000000000E+00  0.00000000000E+00  0.22447783309E+03  0.22447783309E+03  0.00000000000E+00 0. -1.
         -1   -1    0    0    0  501 -0.00000000000E+00 -0.00000000000E+00 -0.59866304340E+02  0.59866304340E+02  0.00000000000E+00 0.  1.
         25    2    1    2    0    0  0.97796541461E+01 -0.70007717301E+01  0.14488420832E+03  0.19176727529E+03  0.12505439461E+03 0.  0.
          5    1    3    3  502    0  0.39309511777E+02  0.36423635983E+02  0.22025251044E+02  0.58090473039E+02  0.41800000000E+01 0.  1.
         -5    1    3    3    0  502 -0.29529857631E+02 -0.43424407713E+02  0.12285895728E+03  0.13367680225E+03  0.41800000000E+01 0.  1.
        -11    1    1    2    0    0  0.13107684303E+02 -0.35308808823E+02 -0.58201298653E+01  0.38110330357E+02  0.00000000000E+00 0.  1.
         11    1    1    2    0    0 -0.22887338450E+02  0.42309580553E+02  0.25547450294E+02  0.54466531782E+02  0.00000000000E+00 0. -1.
</event>
<event>
 6    1  0.1538147E-010  0.1182106E+03  0.7561462E-02  0.1246079E+00
          1   -1    0    0  501    0  0.00000000000E+00  0.00000000000E+00  0.33383282062E+03  0.33383282062E+03  0.00000000000E+00 0. -1.
         -1   -1    0    0    0  501 -0.00000000000E+00 -0.00000000000E+00 -0.71167149606E+02  0.71167149606E+02  0.00000000000E+00 0.  1.
          5    1    1    2  502    0 -0.90614630188E+02 -0.15654706343E+01  0.11198764518E+02  0.91413055026E+02  0.41800000000E+01 0. -1.
         -5    1    1    2    0  502  0.42513538940E+02  0.76455948105E+01  0.18409256243E+01  0.43436361730E+02  0.41800000000E+01 0. -1.
        -11    1    1    2    0    0  0.69861429641E+02  0.15600238664E+02  0.15660782089E+03  0.17219174301E+03  0.00000000000E+00 0.  1.
         11    1    1    2    0    0 -0.21760338393E+02 -0.21680362840E+02  0.93018159988E+02  0.97958810463E+02  0.00000000000E+00 0. -1.
</event>
<event>
 7    1  0.1538147E-010  0.2868233E+03  0.7561462E-02  0.1092019E+00
         -1   -1    0    0    0  501 -0.00000000000E+00  0.00000000000E+00  0.42417656506E+03  0.42417656506E+03  0.00000000000E+00 0.  1.
          1   -1    0    0  501    0  0.00000000000E+00 -0.00000000000E+00 -0.20097392576E+03  0.20097392576E+03  0.00000000000E+00 0. -1.
         25    2    1    2    0    0 -0.15420230086E+03  0.22217964579E+03  0.11730311481E+03  0.32022559822E+03  0.12506905459E+03 0.  0.
          5    1    3    3  502    0 -0.79466438181E+02  0.20580335129E+03  0.96481803377E+02  0.24082388789E+03  0.41800000000E+01 0. -1.
         -5    1    3    3    0  502 -0.74735862682E+02  0.16376294502E+02  0.20821311434E+02  0.79401710323E+02  0.41800000000E+01 0. -1.
        -11    1    1    2    0    0  0.13928641164E+03 -0.15866437751E+03  0.11270593376E+03  0.23932763456E+03  0.00000000000E+00 0.  1.
         11    1    1    2    0    0  0.14915889219E+02 -0.63515268278E+02 -0.68064092733E+01  0.65597258043E+02  0.00000000000E+00 0. -1.
</event>
<event>
 6    1  0.1538147E-010  0.9640243E+02  0.7561462E-02  0.1288048E+00
          1   -1    0    0  501    0  0.00000000000E+00  0.00000000000E+00  0.54449890506E+03  0.54449890506E+03  0.00000000000E+00 0. -1.
         -1   -1    0    0    0  501 -0.00000000000E+00 -0.00000000000E+00 -0.29191059588E+02  0.29191059588E+02  0.00000000000E+00 0.  1.
          5    1    1    2  502    0  0.46968742319E+02 -0.38773918139E+02  0.13369520841E+03  0.14697401347E+03  0.41800000000E+01 0. -1.
         -5    1    1    2    0  502 -0.43782102689E+02  0.26074255440E+02  0.30940756158E+03  0.31360365252E+03  0.41800000000E+01 0. -1.
        -11    1    1    2    0    0  0.31213683478E+02  0.28958162935E+02  0.59160920177E+02  0.72889530888E+02  0.00000000000E+00 0. -1.
         11    1    1    2    0    0 -0.34400323108E+02 -0.16258500235E+02  0.13044155312E+02  0.40222767777E+02  0.00000000000E+00 0.  1.
</event>
<event>
 7    1  0.1538147E-010  0.1475941E+03  0.7561462E-02  0.1203461E+00
          2   -1    0    0  501    0  0.00000000000E+00  0.00000000000E+00  0.12436464442E+04  0.12436464442E+04  0.00000000000E+00 0. -1.
         -2   -1    0    0    0  501 -0.00000000000E+00 -0.00000000000E+00 -0.25708085930E+02  0.25708085930E+02  0.00000000000E+00 0.  1.
         25    2    1    2    0    0 -0.10140983053E+03  0.60543015432E+02  0.91589916389E+03  0.93190891247E+03  0.12503412441E+03 0.  0.
          5    1    3    3  502    0  0.25158933749E+02  0.33185017956E+02  0.19220452820E+03  0.19670859265E+03  0.41800000000E+01 0. -1.
         -5    1    3    3    0  502 -0.12656876428E+03  0.27357997477E+02  0.72369463570E+03  0.73520031981E+03  0.41800000000E+01 0. -1.
        -11    1    1    2    0    0  0.54114659168E+02 -0.53251575597E+02  0.79932198367E+02  0.11024192930E+03  0.00000000000E+00 0. -1.
         11    1    1    2    0    0  0.47295171360E+02 -0.72914398351E+01  0.22210699600E+03  0.22720368835E+03  0.00000000000E+00 0.  1.
</event>
<event>
 7    1  0.1538147E-010  0.1228924E+03  0.7561462E-02  0.1238400E+00
          2   -1    0    0  501    0  0.00000000000E+00  0.00000000000E+00  0.40244262714E+03  0.40244262714E+03  0.00000000000E+00 0. -1.
         -2   -1    0    0    0  501 -0.00000000000E+00 -0.00000000000E+00 -0.53188576169E+02  0.53188576169E+02  0.00000000000E+00 0.  1.
         25    2    1    2    0    0  0.87514567269E+02 -0.23469500234E+02  0.11394616455E+03  0.19195973779E+03  0.12512072407E+03 0.  0.
          5    1    3    3  502    0  0.49997190215E+02  0.32178479551E+02 -0.55110039934E-01  0.59604102314E+02  0.41800000000E+01 0. -1.
         -5    1    3    3    0  502  0.37517377054E+02 -0.55647979785E+02  0.11400127459E+03  0.13235563548E+03  0.41800000000E+01 0. -1.
        -11    1    1    2    0    0 -0.53530661848E+02 -0.25529208408E+02  0.12023253889E+03  0.13406392374E+03  0.00000000000E+00 0. -1.
         11    1    1    2    0    0 -0.33983905421E+02  0.48998708642E+02  0.11507534754E+03  0.12960754178E+03  0.00000000000E+00 0.  1.
</event>
<event>
 7    1  0.1538147E-010  0.8659664E+02  0.7561462E-02  0.1311309E+00
          2   -1    0    0  501    0  0.00000000000E+00  0.00000000000E+00  0.16806917728E+03  0.16806917728E+03  0.00000000000E+00 0.  1.
         -2   -1    0    0    0  501 -0.00000000000E+00 -0.00000000000E+00 -0.83456925063E+02  0.83456925063E+02  0.00000000000E+00 0. -1.
         25    2    1    2    0    0  0.16348037138E+02 -0.43283839972E+02  0.37005773886E+02  0.13843071530E+03  0.12511149634E+03 0.  0.
          5    1    3    3  502    0  0.38650742915E+02 -0.16250481441E+02 -0.37233009368E+02  0.56229240272E+02  0.41800000000E+01 0. -1.
         -5    1    3    3    0  502 -0.22302705777E+02 -0.27033358531E+02  0.74238783254E+02  0.82201475033E+02  0.41800000000E+01 0. -1.
        -11    1    1    2    0    0 -0.89867146059E+01 -0.25267324567E+02 -0.38124225936E+01  0.27087511813E+02  0.00000000000E+00 0. -1.
         11    1    1    2    0    0 -0.73613225325E+01  0.68551164539E+02  0.51418900928E+02  0.86007875231E+02  0.00000000000E+00 0.  1.
</event>
<event>
 7    1  0.1538147E-010  0.1355396E+03  0.7561462E-02  0.1219460E+00
         -2   -1    0    0    0  501 -0.00000000000E+00  0.00000000000E+00  0.20566406981E+02  0.20566406981E+02  0.00000000000E+00 0.  1.
          2   -1    0    0  501    0  0.00000000000E+00 -0.00000000000E+00 -0.14619978548E+04  0.14619978548E+04  0.00000000000E+00 0. -1.
         25    2    1    2    0    0  0.56631871196E+02  0.94571387914E+02 -0.11048871616E+04  0.11173993055E+04  0.12511855150E+03 0.  0.
          5    1    3    3  502    0  0.50867478754E+02  0.12488279535E+02 -0.79537202817E+03  0.79710576030E+03  0.41800000000E+01 0.  1.
         -5    1    3    3    0  502  0.57643924420E+01  0.82083108379E+02 -0.30951513338E+03  0.32029354520E+03  0.41800000000E+01 0.  1.
        -11    1    1    2    0    0 -0.54581377715E+02 -0.15081163497E+02 -0.92129983932E+02  0.10814112180E+03  0.00000000000E+00 0. -1.
         11    1    1    2    0    0 -0.20504934804E+01 -0.79490224417E+02 -0.24441430233E+03  0.25702383447E+03  0.00000000000E+00 0.  1.
</event>
<event>
 7    1  0.1538147E-010  0.1482120E+03  0.7561462E-02  0.1202687E+00
         -1   -1    0    0    0  501 -0.00000000000E+00  0.00000000000E+00  0.53271460653E+02  0.53271460653E+02  0.00000000000E+00 0.  1.
          1   -1    0    0  501    0  0.00000000000E+00 -0.00000000000E+00 -0.46853916970E+03  0.46853916970E+03  0.00000000000E+00 0. -1.
         25    2    1    2    0    0  0.11393206589E+03 -0.10426378934E+01 -0.20832913566E+03  0.26836438391E+03  0.12504723530E+03 0.  0.
          5    1    3    3  502    0 -0.21633511607E+02  0.82847570342E+01 -0.72342117878E+02  0.76075623182E+02  0.41800000000E+01 0. -1.
         -5    1    3    3    0  502  0.13556557749E+03 -0.93273949276E+01 -0.13598701778E+03  0.19228876073E+03  0.41800000000E+01 0. -1.
        -11    1    1    2    0    0 -0.94417161010E+02  0.32551793754E+02 -0.10468514083E+03  0.14468309605E+03  0.00000000000E+00 0.  1.
         11    1    1    2    0    0 -0.19514904877E+02 -0.31509155861E+02 -0.10225343255E+03  0.10876315040E+03  0.00000000000E+00 0. -1.
</event>
<event>
 7    1  0.1538147E-010  0.1045313E+03  0.7561462E-02  0.1271046E+00
         -3   -1    0    0    0  501 -0.00000000000E+00  0.00000000000E+00  0.17790730614E+03  0.17790730614E+03  0.00000000000E+00 0.  1.
          3   -1    0    0  501    0  0.00000000000E+00 -0.00000000000E+00 -0.93137829113E+02  0.93137829113E+02  0.00000000000E+00 0. -1.
         25    2    1    2    0    0 -0.66879622973E+02  0.23422206927E+02  0.32311566908E+02  0.14733389778E+03  0.12506700737E+03 0.  0.
          5    1    3    3  502    0 -0.86961759307E+02  0.18146572725E+02  0.63753154920E+02  0.10942386781E+03  0.41800000000E+01 0. -1.
         -5    1    3    3    0  502  0.20082136334E+02  0.52756342016E+01 -0.31441588012E+02  0.37910029975E+02  0.41800000000E+01 0. -1.
        -11    1    1    2    0    0  0.15421687015E+02 -0.41606662214E+02 -0.47735402965E+01  0.44628796286E+02  0.00000000000E+00 0. -1.
         11    1    1    2    0    0  0.51457935958E+02  0.18184455287E+02  0.57231450413E+02  0.79082441184E+02  0.00000000000E+00 0.  1.
</event>
<event>
 6    1  0.1538147E-010  0.8283557E+02  0.7561462E-02  0.1321192E+00
          2   -1    0    0  501    0  0.00000000000E+00  0.00000000000E+00  0.18346088863E+03  0.18346088863E+03  0.00000000000E+00 0. -1.
         -2   -1    0    0    0  501 -0.00000000000E+00 -0.00000000000E+00 -0.79003253470E+02  0.79003253470E+02  0.00000000000E+00 0.  1.
          5    1    1    2  502    0  0.11519643383E+02  0.24434378252E+02 -0.40203673411E+02  0.48616342725E+02  0.41800000000E+01 0.  1.
         -5    1    1    2    0  502 -0.96692443686E+00 -0.56396290134E+02  0.58325884302E+02  0.81245662428E+02  0.41800000000E+01 0.  1.
        -11    1    1    2    0    0  0.30072886757E+02 -0.19976340185E-01 -0.21163630326E+01  0.30147270348E+02  0.00000000000E+00 0.  1.
         11    1    1    2    0    0 -0.40625605703E+02  0.31981888222E+02  0.88451787302E+02  0.10245486660E+03  0.00000000000E+00 0. -1.
</event>
<event>
 7    1  0.1538147E-010  0.1157529E+03  0.7561462E-02  0.1250272E+00
          1   -1    0    0  501    0  0.00000000000E+00  0.00000000000E+00  0.14522478414E+04  0.14522478414E+04  0.00000000000E+00 0. -1.
         -1   -1    0    0    0  501 -0.00000000000E+00 -0.00000000000E+00 -0.10812493542E+02  0.10812493542E+02  0.00000000000E+00 0.  1.
         25    2    1    2    0    0 -0.27984766345E+02  0.29335968555E+02  0.10619733942E+04  0.10700791392E+04  0.12505250061E+03 0.  0.
          5    1    3    3  502    0  0.48399284803E+02  0.23840942952E+02  0.38784611684E+03  0.39160306955E+03  0.41800000000E+01 0.  1.
         -5    1    3    3    0  502 -0.76384051148E+02  0.54950256028E+01  0.67412727736E+03  0.67847606963E+03  0.41800000000E+01 0.  1.
        -11    1    1    2    0    0  0.48033510809E+02 -0.51761755580E+02  0.23315731588E+03  0.24361615597E+03  0.00000000000E+00 0.  1.
         11    1    1    2    0    0 -0.20048744465E+02  0.22425787025E+02  0.14630463775E+03  0.14936503977E+03  0.00000000000E+00 0. -1.
</event>
<event>
 6    1  0.1538147E-010  0.1348361E+03  0.7561462E-02  0.1220451E+00
         -1   -1    0    0    0  501 -0.00000000000E+00  0.00000000000E+00  0.10152342078E+03  0.10152342078E+03  0.00000000000E+00 0.  1.
          1   -1    0    0  501    0  0.00000000000E+00 -0.00000000000E+00 -0.24032385352E+03  0.24032385352E+03  0.00000000000E+00 0. -1.
          5    1    1    2  502    0 -0.57780229814E+02  0.69005021676E+02 -0.82644897902E+01  0.90476638782E+02  0.41800000000E+01 0. -1.
         -5    1    1    2    0  502 -0.39490308474E+02 -0.21802884371E+02 -0.93186940791E+02  0.10361529117E+03  0.41800000000E+01 0. -1.
        -11    1    1    2    0    0  0.31103447280E+01 -0.39690251665E+02  0.11463229726E+02  0.41429409329E+02  0.00000000000E+00 0.  1.
         11    1    1    2    0    0  0.94160193560E+02 -0.75118856400E+01 -0.48812231886E+02  0.10632593502E+03  0.00000000000E+00 0. -1.
</event>
<event>
 7    1  0.1538147E-010  0.1100466E+03  0.7561462E-02  0.1260484E+00
          1   -1    0    0  501    0  0.00000000000E+00  0.00000000000E+00  0.87206802639E+03  0.87206802639E+03  0.00000000000E+00 0. -1.
         -1   -1    0    0    0  501 -0.00000000000E+00 -0.00000000000E+00 -0.17674665139E+02  0.17674665139E+02  0.00000000000E+00 0.  1.
         25    2    1    2    0    0  0.28242006512E+02  0.25650093101E+02  0.55110181426E+03  0.56641334711E+03  0.12512126873E+03 0.  0.
          5    1    3    3  502    0 -0.26725025684E+02 -0.23104045173E+02  0.35800782692E+03  0.35977089993E+03  0.41800000000E+01 0. -1.
         -5    1    3    3    0  502  0.54967032196E+02  0.48754138273E+02  0.19309398735E+03  0.20664244718E+03  0.41800000000E+01 0. -1.
        -11    1    1    2    0    0 -0.57531501649E+02  0.16270572061E+02  0.14043182159E+03  0.15262929507E+03  0.00000000000E+00 0. -1.
         11    1    1    2    0    0  0.29289495137E+02 -0.41920665162E+02  0.16285972540E+03  0.17070004935E+03  0.00000000000E+00 0.  1.
</event>
<event>
 6    1  0.1538147E-010  0.1212659E+03  0.7561462E-02  0.1241023E+00
          1   -1    0    0  501    0  0.00000000000E+00  0.00000000000E+00  0.62936828276E+03  0.62936828276E+03  0.00000000000E+00 0. -1.
         -1   -1    0    0    0  501 -0.00000000000E+00 -0.00000000000E+00 -0.28090703787E+02  0.28090703787E+02  0.00000000000E+00 0.  1.
          5    1    1    2  502    0 -0.14320554295E+00  0.27633834865E+02  0.18521839236E+02  0.33528797561E+02  0.41800000000E+01 0. -1.
         -5    1    1    2    0  502  0.53567792229E+02 -0.84100295871E+02  0.32913180994E+03  0.34392962775E+03  0.41800000000E+01 0. -1.
        -11    1    1    2    0    0 -0.85055460960E+01 -0.22434521929E+02  0.86985247228E+02  0.90233504442E+02  0.00000000000E+00 0.  1.
         11    1    1    2    0    0 -0.44919040590E+02  0.78900982935E+02  0.16663868257E+03  0.18976705679E+03  0.00000000000E+00 0. -1.
</event>
<event>
 7    1  0.1538147E-010  0.9549893E+02  0.7561462E-02  0.1290056E+00
         -2   -1    0    0    0  501 -0.00000000000E+00  0.00000000000E+00  0.57318600509E+02  0.57318600509E+02  0.00000000000E+00 0.  1.
          2   -1    0    0  501    0  0.00000000000E+00 -0.00000000000E+00 -0.36419618750E+03  0.36419618750E+03  0.00000000000E+00 0. -1.
         25    2    1    2    0    0 -0.29918381177E+02  0.56919374740E+02 -0.63434722236E+02  0.15427498333E+03  0.12506750874E+03 0.  0.
          5    1    3    3  502    0  0.13597710983E+02  0.63567379960E+02  0.12571464128E+02  0.66341718770E+02  0.41800000000E+01 0. -1.
         -5    1    3    3    0  502 -0.43516092160E+02 -0.66480052203E+01 -0.76006186364E+02  0.87933264558E+02  0.41800000000E+01 0. -1.
        -11    1    1    2    0    0 -0.12645697549E+02 -0.30953828332E+01  0.12768253463E+01  0.13081488614E+02  0.00000000000E+00 0.  1.
         11    1    1    2    0    0  0.42564078726E+02 -0.53823991907E+02 -0.24471969010E+03  0.25415831607E+03  0.00000000000E+00 0. -1.
</event>
<event>
 7    1  0.1538147E-010  0.1147076E+03  0.7561462E-02  0.1252092E+00
         -1   -1    0    0    0  501 -0.00000000000E+00  0.00000000000E+00  0.21690789918E+03  0.21690789918E+03  0.00000000000E+00 0.  1.
          1   -1    0    0  501    0  0.00000000000E+00 -0.00000000000E+00 -0.65195893292E+02  0.65195893292E+02  0.00000000000E+00 0. -1.
         25    2    1    2    0    0  0.30027268557E+02 -0.21172984736E+02  0.97080514821E+02  0.16256886456E+03  0.12511625485E+03 0.  0.
          5    1    3    3  502    0  0.17081381542E+02  0.50886137819E+02  0.59236817514E+02  0.80047770530E+02  0.41800000000E+01 0.  1.
         -5    1    3    3    0  502  0.12945887015E+02 -0.72059122555E+02  0.37843697307E+02  0.82521094030E+02  0.41800000000E+01 0.  1.
        -11    1    1    2    0    0 -0.63787100220E+02  0.28925712841E+01  0.49520196173E+02  0.80804770603E+02  0.00000000000E+00 0.  1.
         11    1    1    2    0    0  0.33759831663E+02  0.18280413452E+02  0.51112948957E+01  0.38730157312E+02  0.00000000000E+00 0. -1.
</event>
<event>
 6    1  0.1538147E-010  0.1154760E+03  0.7561462E-02  0.1250752E+00
          1   -1    0    0  501    0  0.00000000000E+00  0.00000000000E+00  0.29188594172E+03  0.29188594172E+03  0.00000000000E+00 0. -1.
         -1   -1    0    0    0  501 -0.00000000000E+00 -0.00000000000E+00 -0.63447204989E+02  0.63447204989E+02  0.00000000000E+00 0.  1.
          5    1    1    2  502    0 -0.20121438538E+02  0.31587897568E+02  0.13391367895E+03  0.13911510835E+03  0.41800000000E+01 0. -1.
         -5    1    1    2    0  502  0.71078296292E+02  0.24695527578E+02  0.31576496678E+02  0.81710102365E+02  0.41800000000E+01 0. -1.
        -11    1    1    2    0    0  0.25315853252E+02 -0.44946705381E+01  0.69278479461E+01  0.26628735725E+02  0.00000000000E+00 0.  1.
         11    1    1    2    0    0 -0.76272711006E+02 -0.51788754608E+02  0.56020713160E+02  0.10787920027E+03  0.00000000000E+00 0. -1.
</event>
<event>
 7    1  0.1538147E-010  0.1214245E+03  0.7561462E-02  0.1240765E+00
         -1   -1    0    0    0  501 -0.00000000000E+00  0.00000000000E+00  0.99215036769E+02  0.99215036769E+02  0.00000000000E+00 0.  1.
          1   -1    0    0  501    0  0.00000000000E+00 -0.00000000000E+00 -0.22515554839E+03  0.22515554839E+03  0.00000000000E+00 0. -1.
         25    2    1    2    0    0 -0.14682823313E+02 -0.93555091435E+02 -0.11282420899E+03  0.19328221414E+03  0.12514220605E+03 0.  0.
          5    1    3    3  502    0  0.31020100395E+02 -0.97029579902E+02 -0.45299567950E+02  0.11156392455E+03  0.41800000000E+01 0. -1.
         -5    1    3    3    0  502 -0.45702923708E+02  0.34744884676E+01 -0.67524641042E+02  0.81718289589E+02  0.41800000000E+01 0. -1.
        -11    1    1    2    0    0  0.49461727131E+01  0.49817170501E+02  0.38192918900E+02  0.62967564312E+02  0.00000000000E+00 0.  1.
         11    1    1    2    0    0  0.97366506000E+01  0.43737920933E+02 -0.51309221527E+02  0.68120806705E+02  0.00000000000E+00 0. -1.
</event>
<event>
 6    1  0.1538147E-010  0.1067136E+03  0.7561462E-02  0.1266780E+00
         -2   -1    0    0    0  501 -0.00000000000E+00  0.00000000000E+00  0.14073406097E+02  0.14073406097E+02  0.00000000000E+00 0.  1.
          2   -1    0    0  501    0  0.00000000000E+00 -0.00000000000E+00 -0.10861821909E+04  0.10861821909E+04  0.00000000000E+00 0. -1.
          5    1    1    2  502    0 -0.68104512391E+02  0.23309053046E+02 -0.63437910652E+03  0.63846367144E+03  0.41800000000E+01 0.  1.
         -5    1    1    2    0  502  0.37658017170E+02 -0.24269358270E+02 -0.15814665770E+03  0.16442313022E+03  0.41800000000E+01 0.  1.
        -11    1    1    2    0    0  0.69533789009E+01  0.45469774978E+02 -0.88142151127E+02  0.99422777672E+02  0.00000000000E+00 0.  1.
         11    1    1    2    0    0  0.23493116320E+02 -0.44509469754E+02 -0.19144086943E+03  0.19794601765E+03  0.00000000000E+00 0. -1.
</event>
<event>
 7    1  0.1538147E-010  0.1325063E+03  0.7561462E-02  0.1223784E+00
         -2   -1    0    0    0  501 -0.00000000000E+00  0.00000000000E+00  0.89867148033E+02  0.89867148033E+02  0.00000000000E+00 0.  1.
          2   -1    0    0  501    0  0.00000000000E+00 -0.00000000000E+00 -0.22053745164E+03  0.22053745164E+03  0.00000000000E+00 0. -1.
         25    2    1    2    0    0 -0.36260094093E+02  0.81999500107E+02 -0.58091379559E+02  0.16454070838E+03  0.12514121580E+03 0.  0.
          5    1    3    3  502    0 -0.14411783568E+02  0.10767784739E+03 -0.69110043523E+02  0.12882503188E+03  0.41800000000E+01 0.  1.
         -5    1    3    3    0  502 -0.21848310525E+02 -0.25678347280E+02  0.11018663964E+02  0.35715676494E+02  0.41800000000E+01 0.  1.
        -11    1    1    2    0    0  0.61305857391E+02 -0.39309856244E+02 -0.61083878300E+02  0.95052160083E+02  0.00000000000E+00 0. -1.
         11    1    1    2    0    0 -0.25045763297E+02 -0.42689643862E+02 -0.11495045747E+02  0.50811731214E+02  0.00000000000E+00 0.  1.
</event>
<event>
 7    1  0.1538147E-010  0.1043374E+03  0.7561462E-02  0.1271431E+00
          2   -1    0    0  501    0  0.00000000000E+00  0.00000000000E+00  0.97713166014E+03  0.97713166014E+03  0.00000000000E+00 0. -1.
         -2   -1    0    0    0  501 -0.00000000000E+00 -0.00000000000E+00 -0.22543339970E+02  0.22543339970E+02  0.00000000000E+00 0.  1.
         25    2    1    2    0    0  0.60077759049E+02 -0.74125379493E+02  0.67515913927E+03  0.69325060553E+03  0.12511047002E+03 0.  0.
          5    1    3    3  502    0  0.39633697127E+02 -0.63406894415E+02  0.66225639227E+03  0.66647750578E+03  0.41800000000E+01 0. -1.
         -5    1    3    3    0  502  0.20444061922E+02 -0.10718485079E+02  0.12902747006E+02  0.26773099756E+02  0.41800000000E+01 0. -1.
        -11    1    1    2    0    0 -0.55293496065E+02  0.24515599472E+02  0.76812115626E+02  0.97767512147E+02  0.00000000000E+00 0.  1.
         11    1    1    2    0    0 -0.47842629834E+01  0.49609780022E+02  0.20261706527E+03  0.20865688243E+03  0.00000000000E+00 0. -1.
</event>
<event>
 7    1  0.1538147E-010  0.1193975E+03  0.7561462E-02  0.1244094E+00
          2   -1    0    0  501    0  0.00000000000E+00  0.00000000000E+00  0.67428402527E+02  0.67428402527E+02  0.00000000000E+00 0. -1.
         -2   -1    0    0    0  501 -0.00000000000E+00 -0.00000000000E+00 -0.24867080577E+03  0.24867080577E+03  0.00000000000E+00 0.  1.
         25    2    1    2    0    0  0.63207027887E+02 -0.29654808646E+02 -0.96435995109E+02  0.17272056813E+03  0.12513176037E+03 0.  0.
          5    1    3    3  502    0  0.91282634527E+02 -0.40469711173E+02 -0.38109588884E+02  0.10695854362E+03  0.41800000000E+01 0.  1.
         -5    1    3    3    0  502 -0.28075606639E+02  0.10814902527E+02 -0.58326406225E+02  0.65762024512E+02  0.41800000000E+01 0.  1.
        -11    1    1    2    0    0  0.20567390762E+02  0.63338437050E+01  0.54965251511E+00  0.21527592915E+02  0.00000000000E+00 0. -1.
         11    1    1    2    0    0 -0.83774418650E+02  0.23320964941E+02 -0.85356060647E+02  0.12185104725E+03  0.00000000000E+00 0.  1.
</event>
<event>
 7    1  0.1538147E-010  0.1033149E+03  0.7561462E-02  0.1273476E+00
         -1   -1    0    0    0  501 -0.00000000000E+00  0.00000000000E+00  0.11274834746E+03  0.11274834746E+03  0.00000000000E+00 0.  1.
          1   -1    0    0  501    0  0.00000000000E+00 -0.00000000000E+00 -0.16333892482E+03  0.16333892482E+03  0.00000000000E+00 0. -1.
         25    2    1    2    0    0  0.36497421746E+02 -0.37417658450E+02 -0.90745794184E+02  0.16309486628E+03  0.12503196906E+03 0.  0.
          5    1    3    3  502    0  0.66481547647E+02 -0.31136753780E+02 -0.10569134429E+03  0.12875335441E+03  0.41800000000E+01 0.  1.
         -5    1    3    3    0  502 -0.29984125901E+02 -0.62809046699E+01  0.14945550107E+02  0.34341511870E+02  0.41800000000E+01 0.  1.
        -11    1    1    2    0    0 -0.51171668481E+02 -0.10351340108E+02  0.34779490785E+02  0.62731992447E+02  0.00000000000E+00 0. -1.
         11    1    1    2    0    0  0.14674246734E+02  0.47768998559E+02  0.53757260375E+01  0.50260413557E+02  0.00000000000E+00 0.  1.
</event>
<event>
 7    1  0.1538147E-010  0.2076394E+03  0.7561462E-02  0.1143449E+00
         -1   -1    0    0    0  501 -0.00000000000E+00  0.00000000000E+00  0.33841384856E+02  0.33841384856E+02  0.00000000000E+00 0.  1.
          1   -1    0    0  501    0  0.00000000000E+00 -0.00000000000E+00 -0.13612422736E+04  0.13612422736E+04  0.00000000000E+00 0. -1.
         25    2    1    2    0    0 -0.24271076954E+01 -0.18433524951E+03 -0.76184240920E+03  0.79374499175E+03  0.12506750342E+03 0.  0.
          5    1    3    3  502    0 -0.10347302109E+02  0.11427724797E+02 -0.16013704797E+03  0.16093168143E+03  0.41800000000E+01 0.  1.
         -5    1    3    3    0  502  0.79201944132E+01 -0.19576297430E+03 -0.60170536123E+03  0.63281331032E+03  0.41800000000E+01 0.  1.
        -11    1    1    2    0    0 -0.60504908911E+01 -0.84355330861E+01 -0.44641758532E+02  0.45832884083E+02  0.00000000000E+00 0. -1.
         11    1    1    2    0    0  0.84775985865E+01  0.19277078259E+03 -0.52091672104E+03  0.55550578265E+03  0.00000000000E+00 0.  1.
</event>
<event>
 7    1  0.1538147E-010  0.1468260E+03  0.7561462E-02  0.1204428E+00
          1   -1    0    0  501    0  0.00000000000E+00  0.00000000000E+00  0.18173673003E+04  0.18173673003E+04  0.00000000000E+00 0.  1.
         -1   -1    0    0    0  501 -0.00000000000E+00 -0.00000000000E+00 -0.17667497132E+02  0.17667497132E+02  0.00000000000E+00 0. -1.
         25    2    1    2    0    0 -0.78390282498E+02  0.11349303146E+03  0.11410922649E+04  0.11561890174E+04  0.12512306842E+03 0.  0.
          5    1    3    3  502    0 -0.43911547577E+02  0.64209157808E+02  0.22479505896E+03  0.23791034213E+03  0.41800000000E+01 0. -1.
         -5    1    3    3    0  502 -0.34478734921E+02  0.49283873652E+02  0.91629720598E+03  0.91827867526E+03  0.41800000000E+01 0. -1.
        -11    1    1    2    0    0  0.63328673044E+02 -0.12250604616E+03  0.63268100352E+03  0.64753648885E+03  0.00000000000E+00 0.  1.
         11    1    1    2    0    0  0.15061609453E+02  0.90130146992E+01  0.25926534744E+02  0.31309291227E+02  0.00000000000E+00 0. -1.
</event>
<event>
 7    1  0.1538147E-010  0.1255152E+03  0.7561462E-02  0.1234266E+00
         -2   -1    0    0    0  501 -0.00000000000E+00  0.00000000000E+00  0.55311103351E+02  0.55311103351E+02  0.00000000000E+00 0.  1.
          2   -1    0    0  501    0  0.00000000000E+00 -0.00000000000E+00 -0.42117738354E+03  0.42117738354E+03  0.00000000000E+00 0. -1.
         25    2    1    2    0    0  0.20576691430E+02 -0.92097596316E+02 -0.11881797942E+03  0.19668422322E+03  0.12514633017E+03 0.  0.
          5    1    3    3  502    0  0.55564783030E+02  0.21505820170E+01 -0.36103449727E+02  0.66430426751E+02  0.41800000000E+01 0. -1.
         -5    1    3    3    0  502 -0.34988091600E+02 -0.94248178333E+02 -0.82714529694E+02  0.13025379647E+03  0.41800000000E+01 0. -1.
        -11    1    1    2    0    0 -0.16230948121E+02  0.56495001283E+02 -0.43514537421E+02  0.73134422906E+02  0.00000000000E+00 0.  1.
         11    1    1    2    0    0 -0.43457433096E+01  0.35602595033E+02 -0.20353376335E+03  0.20666984076E+03  0.00000000000E+00 0. -1.
</event>
<event>
 6    1  0.1538147E-010  0.1029168E+03  0.7561462E-02  0.1274279E+00
         -2   -1    0    0    0  501 -0.00000000000E+00  0.00000000000E+00  0.17291577017E+03  0.17291577017E+03  0.00000000000E+00 0.  1.
          2   -1    0    0  501    0  0.00000000000E+00 -0.00000000000E+00 -0.17267996516E+03  0.17267996516E+03  0.00000000000E+00 0. -1.
          5    1    1    2  502    0  0.89070986170E+00 -0.37033189064E+02  0.55105124024E+00  0.37283059341E+02  0.41800000000E+01 0. -1.
         -5    1    1    2    0  502  0.33359878839E+02  0.61999702254E+02 -0.12838483488E+03  0.14648202219E+03  0.41800000000E+01 0. -1.
        -11    1    1    2    0    0 -0.62695230222E+02 -0.42547278960E+01  0.92255845118E+02  0.11162408145E+03  0.00000000000E+00 0.  1.
         11    1    1    2    0    0  0.28444641521E+02 -0.20711785294E+02  0.35813743535E+02  0.50206572351E+02  0.00000000000E+00 0. -1.
</event>
<event>
 6    1  0.1538147E-010  0.2234984E+03  0.7561462E-02  0.1131301E+00
          1   -1    0    0  501    0  0.00000000000E+00  0.00000000000E+00  0.47806454285E+03  0.47806454285E+03  0.00000000000E+00 0. -1.
         -1   -1    0    0    0  501 -0.00000000000E+00 -0.00000000000E+00 -0.11043682955E+03  0.11043682955E+03  0.00000000000E+00 0.  1.
          5    1    1    2  502    0  0.30245368293E+02  0.13116688651E+02  0.38203713508E+02  0.50634236937E+02  0.41800000000E+01 0.  1.
         -5    1    1    2    0  502  0.64881025699E+02 -0.19053701968E+03  0.12564790482E+03  0.23731576380E+03  0.41800000000E+01 0.  1.
        -11    1    1    2    0    0 -0.25207860310E+02  0.11806674613E+03  0.73876681838E+02  0.14153782845E+03  0.00000000000E+00 0.  1.
         11    1    1    2    0    0 -0.69918533682E+02  0.59353584900E+02  0.12989941313E+03  0.15901354321E+03  0.00000000000E+00 0. -1.
</event>
<event>
 6    1  0.1538147E-010  0.1755613E+03  0.7561462E-02  0.1172169E+00
          2   -1    0    0  501    0  0.00000000000E+00  0.00000000000E+00  0.13135390380E+04  0.13135390380E+04  0.00000000000E+00 0. -1.
         -2   -1    0    0    0  501 -0.00000000000E+00 -0.00000000000E+00 -0.29395545195E+02  0.29395545195E+02  0.00000000000E+00 0.  1.
          5    1    1    2  502    0 -0.14210600218E+03  0.69522349389E+02  0.83398430245E+03  0.84886675165E+03  0.41800000000E+01 0. -1.
         -5    1    1    2    0  502 -0.26137263382E+01 -0.12717420154E+02  0.65017261555E+01  0.15109903499E+02  0.41800000000E+01 0. -1.
        -11    1    1    2    0    0 -0.20619779713E+01  0.15476607532E+02  0.25116854688E+02  0.29574203680E+02  0.00000000000E+00 0.  1.
         11    1    1    2    0    0  0.14678170649E+03 -0.72281536767E+02  0.41854060951E+03  0.44938372437E+03  0.00000000000E+00 0. -1.
</event>
<event>
 6    1  0.1538147E-010  0.1344820E+03  0.7561462E-02  0.1220953E+00
         -1   -1    0    0    0  501 -0.00000000000E+00  0.00000000000E+00  0.34944907700E+03  0.34944907700E+03  0.00000000000E+00 0.  1.
          1   -1    0    0  501    0  0.00000000000E+00 -0.00000000000E+00 -0.70065226039E+02  0.70065226039E+02  0.00000000000E+00 0. -1.
          5    1    1    2  502    0 -0.78337008204E+02  0.88696359527E+02  0.17301053860E+03  0.20965173482E+03  0.41800000000E+01 0. -1.
         -5    1    1    2    0  502  0.12722238947E+02  0.26196538471E+01 -0.15637914496E+02  0.20754149462E+02  0.41800000000E+01 0. -1.
        -11    1    1    2    0    0  0.35796810044E+02  0.49427339472E+01  0.81231365652E+01  0.37038190775E+02  0.00000000000E+00 0. -1.
         11    1    1    2    0    0  0.29817959213E+02 -0.96258747322E+02  0.11388809029E+03  0.15207022798E+03  0.00000000000E+00 0.  1.
</event>
<event>
 7    1  0.1538147E-010  0.1582165E+03  0.7561462E-02  0.1190725E+00
          2   -1    0    0  501    0  0.00000000000E+00  0.00000000000E+00  0.21718553820E+03  0.21718553820E+03  0.00000000000E+00 0.  1.
         -2   -1    0    0    0  501 -0.00000000000E+00 -0.00000000000E+00 -0.17254671706E+03  0.17254671706E+03  0.00000000000E+00 0. -1.
         25    2    1    2    0    0 -0.11822727158E+03  0.19839276270E+02  0.13240015276E+03  0.21809099693E+03  0.12515030108E+03 0.  0.
          5    1    3    3  502    0  0.24647715242E+02  0.55719052132E+01  0.50177383216E+01  0.26099925138E+02  0.41800000000E+01 0.  1.
         -5    1    3    3    0  502 -0.14287498682E+03  0.14267371057E+02  0.12738241444E+03  0.19199107179E+03  0.41800000000E+01 0.  1.
        -11    1    1    2    0    0  0.10471914611E+03  0.18664098533E+02 -0.58165226902E+02  0.12123383091E+03  0.00000000000E+00 0.  1.
         11    1    1    2    0    0  0.13508125469E+02 -0.38503374803E+02 -0.29596104724E+02  0.50407427426E+02  0.00000000000E+00 0. -1.
</event>
<event>
 7    1  0.1538147E-010  0.1343561E+03  0.7561462E-02  0.1221132E+00
         -2   -1    0    0    0  501 -0.00000000000E+00  0.00000000000E+00  0.25130963391E+02  0.25130963391E+02  0.00000000000E+00 0.  1.
          2   -1    0    0  501    0  0.00000000000E+00 -0.00000000000E+00 -0.10887644953E+04  0.10887644953E+04  0.00000000000E+00 0. -1.
         25    2    1    2    0    0 -0.93249445231E+02 -0.73802083802E+02 -0.44900346062E+03  0.48102374431E+03  0.12505010329E+03 0.  0.
          5    1    3    3  502    0 -0.10500827444E+03 -0.66289343822E+02 -0.22898601908E+03  0.26052463250E+03  0.41800000000E+01 0. -1.
         -5    1    3    3    0  502  0.11758829213E+02 -0.75127399796E+01 -0.22001744154E+03  0.22049911181E+03  0.41800000000E+01 0. -1.
        -11    1    1    2    0    0  0.15459787071E+02 -0.76622786404E+01 -0.15338543334E+02  0.23086499125E+02  0.00000000000E+00 0.  1.
         11    1    1    2    0    0  0.77789658159E+02  0.81464362442E+02 -0.59929152791E+03  0.60978521521E+03  0.00000000000E+00 0. -1.
</event>
<event>
 7    1  0.1538147E-010  0.1015859E+03  0.7561462E-02  0.1276996E+00
          2   -1    0    0  501    0  0.00000000000E+00  0.00000000000E+00  0.84649108788E+03  0.84649108788E+03  0.00000000000E+00 0.  1.
         -2   -1    0    0    0  501 -0.00000000000E+00 -0.00000000000E+00 -0.22027604352E+02  0.22027604352E+02  0.00000000000E+00 0. -1.
         25    2    1    2    0    0 -0.74147394706E+02  0.20258515341E+02  0.37103818719E+03  0.39901900780E+03  0.12505434277E+03 0.  0.
          5    1    3    3  502    0  0.10248987991E+02  0.10150858569E+02 -0.30907012532E+01  0.15333183582E+02  0.41800000000E+01 0. -1.
         -5    1    3    3    0  502 -0.84396382697E+02  0.10107656772E+02  0.37412888845E+03  0.38368582422E+03  0.41800000000E+01 0. -1.
        -11    1    1    2    0    0  0.77932460710E+02  0.44452075134E+01  0.42292267829E+03  0.43006606482E+03  0.00000000000E+00 0.  1.
         11    1    1    2    0    0 -0.37850660041E+01 -0.24703722854E+02  0.30502618049E+02  0.39433619608E+02  0.00000000000E+00 0. -1.
</event>
<event>
 7    1  0.1538147E-010  0.2313973E+03  0.7561462E-02  0.1125660E+00
          2   -1    0    0  501    0  0.00000000000E+00  0.00000000000E+00  0.39126840478E+03  0.39126840478E+03  0.00000000000E+00 0.  1.
         -2   -1    0    0    0  501 -0.00000000000E+00 -0.00000000000E+00 -0.15916082841E+03  0.15916082841E+03  0.00000000000E+00 0. -1.
         25    2    1    2    0    0  0.41095231688E+02  0.20110030971E+03  0.21887078063E+03  0.32507893732E+03  0.12506695903E+03 0.  0.
          5    1    3    3  502    0 -0.19568740033E+02  0.17160751005E+03  0.15638496733E+03  0.23303605622E+03  0.41800000000E+01 0. -1.
         -5    1    3    3    0  502  0.60663971721E+02  0.29492799660E+02  0.62485813309E+02  0.92042881102E+02  0.41800000000E+01 0. -1.
        -11    1    1    2    0    0 -0.63159698309E+02 -0.95056086139E+02 -0.10023327274E+02  0.11456558860E+03  0.00000000000E+00 0. -1.
         11    1    1    2    0    0  0.22064466621E+02 -0.10604422357E+03  0.23260123014E+02  0.11078470726E+03  0.00000000000E+00 0.  1.
</event>
<event>
 7    1  0.1538147E-010  0.1050832E+03  0.7561462E-02  0.1269956E+00
          1   -1    0    0  501    0  0.00000000000E+00  0.00000000000E+00  0.52776603877E+03  0.52776603877E+03  0.00000000000E+00 0. -1.
         -1   -1    0    0    0  501 -0.00000000000E+00 -0.00000000000E+00 -0.27538528029E+02  0.27538528029E+02  0.00000000000E+00 0.  1.
         25    2    1    2    0    0  0.18730512932E+02 -0.25366690730E+02  0.17902140987E+03  0.22063369479E+03  0.12504503578E+03 0.  0.
          5    1    3    3  502    0  0.61747113246E+02 -0.41301635664E+02  0.69479459672E+02  0.10180078005E+03  0.41800000000E+01 0. -1.
         -5    1    3    3    0  502 -0.43016600315E+02  0.15934944934E+02  0.10954195020E+03  0.11883291474E+03  0.41800000000E+01 0. -1.
        -11    1    1    2    0    0  0.26634767380E+02 -0.13590756552E+02  0.15914476867E+03  0.16192954299E+03  0.00000000000E+00 0. -1.
         11    1    1    2    0    0 -0.45365280312E+02  0.38957447282E+02  0.16206133220E+03  0.17274132902E+03  0.00000000000E+00 0.  1.
</event>
<event>
 7    1  0.1538147E-010  0.8511974E+02  0.7561462E-02  0.1315120E+00
         -3   -1    0    0    0  501 -0.00000000000E+00  0.00000000000E+00  0.87831071550E+02  0.87831071550E+02  0.00000000000E+00 0.  1.
          3   -1    0    0  501    0  0.00000000000E+00 -0.00000000000E+00 -0.17838252800E+03  0.17838252800E+03  0.00000000000E+00 0. -1.
         25    2    1    2    0    0  0.51908575669E+02  0.27487791962E+02 -0.45052271363E+02  0.14532865033E+03  0.12506250644E+03 0.  0.
          5    1    3    3  502    0  0.19487300632E+02  0.47756383587E+02  0.30843373652E+02  0.60242951102E+02  0.41800000000E+01 0.  1.
         -5    1    3    3    0  502  0.32421275038E+02 -0.20268591625E+02 -0.75895645015E+02  0.85085699232E+02  0.41800000000E+01 0.  1.
        -11    1    1    2    0    0 -0.41157058818E+02  0.88798605173E+01  0.18898025864E+02  0.46150739918E+02  0.00000000000E+00 0.  1.
         11    1    1    2    0    0 -0.10751516851E+02 -0.36367652479E+02 -0.64397210955E+02  0.74734209303E+02  0.00000000000E+00 0. -1.
</event>
<event>
 7    1  0.1538147E-010  0.1778329E+03  0.7561462E-02  0.1169917E+00
         -2   -1    0    0    0  501 -0.00000000000E+00  0.00000000000E+00  0.82073869995E+02  0.82073869995E+02  0.00000000000E+00 0.  1.
          2   -1    0    0  501    0  0.00000000000E+00 -0.00000000000E+00 -0.40017773737E+03  0.40017773737E+03  0.00000000000E+00 0. -1.
         25    2    1    2    0    0  0.25144940110E+02 -0.14253183174E+03 -0.18385891827E+03  0.26535234696E+03  0.12514062146E+03 0.  0.
          5    1    3    3  502    0 -0.41782173425E+02 -0.10108238045E+03 -0.12966486011E+03  0.16968749512E+03  0.41800000000E+01 0.  1.
         -5    1    3    3    0  502  0.66927113535E+02 -0.41449451287E+02 -0.54194058160E+02  0.95664851842E+02  0.41800000000E+01 0.  1.
        -11    1    1    2    0    0 -0.53477798018E+02  0.61325105057E+02 -0.45110453588E+02  0.93035457832E+02  0.00000000000E+00 0. -1.
         11    1    1    2    0    0  0.28332857908E+02  0.81206726681E+02 -0.89134495514E+02  0.12386380257E+03  0.00000000000E+00 0.  1.
</event>
<event>
 7    1  0.1538147E-010  0.1422453E+03  0.7561462E-02  0.1210339E+00
         -1   -1    0    0    0  501 -0.00000000000E+00  0.00000000000E+00  0.65034874862E+02  0.65034874862E+02  0.00000000000E+00 0.  1.
          1   -1    0    0  501    0  0.00000000000E+00 -0.00000000000E+00 -0.79143650373E+03  0.79143650373E+03  0.00000000000E+00 0. -1.
         25    2    1    2    0    0  0.32531755520E+02  0.89534785989E+02 -0.70639040711E+03  0.72368177421E+03  0.12511238967E+03 0.  0.
          5    1    3    3  502    0 -0.35441191678E+02  0.81089980499E+02 -0.39071583270E+03  0.40063449343E+03  0.41800000000E+01 0. -1.
         -5    1    3    3    0  502  0.67972947198E+02  0.84448054903E+01 -0.31567457441E+03  0.32304728078E+03  0.41800000000E+01 0. -1.
        -11    1    1    2    0    0  0.18286345563E+02 -0.70779681912E+02 -0.27501530852E+02  0.78105620827E+02  0.00000000000E+00 0.  1.
         11    1    1    2    0    0 -0.50818101083E+02 -0.18755104077E+02  0.74903090956E+01  0.54683983551E+02  0.00000000000E+00 0. -1.
</event>
<event>
 6    1  0.1538147E-010  0.1741719E+03  0.7561462E-02  0.1173566E+00
         -2   -1    0    0    0  501 -0.00000000000E+00  0.00000000000E+00  0.15890917688E+03  0.15890917688E+03  0.00000000000E+00 0.  1.
          2   -1    0    0  501    0  0.00000000000E+00 -0.00000000000E+00 -0.19825341196E+03  0.19825341196E+03  0.00000000000E+00 0. -1.
          5    1    1    2  502    0 -0.15034630312E+03 -0.23489004616E+02  0.35314511753E+01  0.15226847260E+03  0.41800000000E+01 0.  1.
         -5    1    1    2    0  502  0.13684770331E+02  0.29436228504E+02  0.73254411413E+01  0.33539513644E+02  0.41800000000E+01 0.  1.
        -11    1    1    2    0    0  0.47910101857E+01  0.27033132978E+02 -0.37737468222E+01  0.27712546297E+02  0.00000000000E+00 0. -1.
         11    1    1    2    0    0  0.13187052260E+03 -0.32980356866E+02 -0.46427380573E+02  0.14364205630E+03  0.00000000000E+00 0.  1.
</event>
<event>
 6    1  0.1538147E-010  0.1183867E+03  0.7561462E-02  0.1245783E+00
         -1   -1    0    0    0  501 -0.00000000000E+00  0.00000000000E+00  0.26646540142E+03  0.26646540142E+03  0.00000000000E+00 0.  1.
          1   -1    0    0  501    0  0.00000000000E+00 -0.00000000000E+00 -0.20193382669E+03  0.20193382669E+03  0.00000000000E+00 0. -1.
          5    1    1    2  502    0  0.32154839545E+02 -0.22721583688E+02 -0.27948343841E+02  0.48464279576E+02  0.41800000000E+01 0. -1.
         -5    1    1    2    0  502 -0.43329028302E+02  0.93078028193E+02 -0.12271673063E+03  0.16005559160E+03  0.41800000000E+01 0. -1.
        -11    1    1    2    0    0 -0.12349017806E+02 -0.69812051917E+02  0.22385043822E+03  0.23480894260E+03  0.00000000000E+00 0.  1.
         11    1    1    2    0    0  0.23523206563E+02 -0.54439258853E+00 -0.86537890268E+01  0.25070414333E+02  0.00000000000E+00 0. -1.
</event>
<event>
 7    1  0.1538147E-010  0.1248634E+03  0.7561462E-02  0.1235283E+00
          1   -1    0    0  501    0  0.00000000000E+00  0.00000000000E+00  0.21551783595E+03  0.21551783595E+03  0.00000000000E+00 0. -1.
         -1   -1    0    0    0  501 -0.00000000000E+00 -0.00000000000E+00 -0.10947781437E+03  0.10947781437E+03  0.00000000000E+00 0.  1.
         25    2    1    2    0    0  0.10291991679E+03 -0.93904849639E+01  0.89565289687E+02  0.18535812540E+03  0.12511995466E+03 0.  0.
          5    1    3    3  502    0  0.14309564368E+02  0.12776135185E+02  0.91818305903E+02  0.93893913336E+02  0.41800000000E+01 0. -1.
         -5    1    3    3    0  502  0.88610352425E+02 -0.22166620149E+02 -0.22530162157E+01  0.91464212060E+02  0.41800000000E+01 0. -1.
        -11    1    1    2    0    0  0.14488394889E+02  0.15336947706E+02  0.20720911842E+01  0.21199743236E+02  0.00000000000E+00 0.  1.
         11    1    1    2    0    0 -0.11740831168E+03 -0.59464627425E+01  0.14402640710E+02  0.11843778168E+03  0.00000000000E+00 0. -1.
</event>
<event>
 7    1  0.1538147E-010  0.1677107E+03  0.7561462E-02  0.1180256E+00
         -2   -1    0    0    0  501 -0.00000000000E+00  0.00000000000E+00  0.23851268302E+03  0.23851268302E+03  0.00000000000E+00 0.  1.
          2   -1    0    0  501    0  0.00000000000E+00 -0.00000000000E+00 -0.16938142252E+03  0.16938142252E+03  0.00000000000E+00 0. -1.
         25    2    1    2    0    0  0.13454417404E+03 -0.60358246486E+02 -0.47655527474E+02  0.19912402952E+03  0.12503630331E+03 0.  0.
          5    1    3    3  502    0  0.11258415371E+03 -0.10889966805E+02 -0.77499438056E+02  0.13717659546E+03  0.41800000000E+01 0. -1.
         -5    1    3    3    0  502  0.21960020334E+02 -0.49468279681E+02  0.29843910582E+02  0.61947434059E+02  0.41800000000E+01 0. -1.
        -11    1    1    2    0    0 -0.71232026694E+02  0.74503831805E+02  0.95436339237E+02  0.14047390301E+03  0.00000000000E+00 0. -1.
         11    1    1    2    0    0 -0.63312147350E+02 -0.14145585319E+02  0.21350448738E+02  0.68296173007E+02  0.00000000000E+00 0.  1.
</event>
<event>
 7    1  0.1538147E-010  0.1527346E+03  0.7561462E-02  0.1197152E+00
          3   -1    0    0  501    0  0.00000000000E+00  0.00000000000E+00  0.43908883229E+03  0.43908883229E+03  0.00000000000E+00 0. -1.
         -3   -1    0    0    0  501 -0.00000000000E+00 -0.00000000000E+00 -0.60515595403E+02  0.60515595403E+02  0.00000000000E+00 0.  1.
         25    2    1    2    0    0 -0.56670987404E+02  0.10309587286E+03  0.16325945191E+03  0.23692197571E+03  0.12505204565E+03 0.  0.
          5    1    3    3  502    0 -0.12726661675E+01  0.10093955865E+03  0.54549038289E+02  0.11481935446E+03  0.41800000000E+01 0. -1.
         -5    1    3    3    0  502 -0.55398321237E+02  0.21563142081E+01  0.10871041362E+03  0.12210262125E+03  0.41800000000E+01 0. -1.
        -11    1    1    2    0    0 -0.83457147401E+01 -0.79092093553E+02  0.95626524710E+02  0.12437701735E+03  0.00000000000E+00 0.  1.
         11    1    1    2    0    0  0.65016702144E+02 -0.24003779306E+02  0.11968726026E+03  0.13830543463E+03  0.00000000000E+00 0. -1.
</event>
<event>
 6    1  0.1538147E-010  0.8535291E+02  0.7561462E-02  0.1314512E+00
         -1   -1    0    0    0  501 -0.00000000000E+00  0.00000000000E+00  0.22337781024E+03  0.22337781024E+03  0.00000000000E+00 0.  1.
          1   -1    0    0  501    0  0.00000000000E+00 -0.00000000000E+00 -0.18737341547E+03  0.18737341547E+03  0.00000000000E+00 0. -1.
          5    1    1    2  502    0  0.56489205306E+02  0.18423908673E+02 -0.15000893051E+03  0.16140205191E+03  0.41800000000E+01 0.  1.
         -5    1    1    2    0  502  0.13068705822E+02 -0.35078150943E+02  0.10670039134E+02  0.39148306229E+02  0.41800000000E+01 0.  1.
        -11    1    1    2    0    0 -0.44459312994E+02  0.22040758408E+01  0.14566740659E+02  0.46836720590E+02  0.00000000000E+00 0. -1.
         11    1    1    2    0    0 -0.25098598135E+02  0.14450166429E+02  0.16077654549E+03  0.16336414698E+03  0.00000000000E+00 0.  1.
</event>
<event>
 7    1  0.1538147E-010  0.8325416E+02  0.7561462E-02  0.1320062E+00
         -1   -1    0    0    0  501 -0.00000000000E+00  0.00000000000E+00  0.17246842035E+02  0.17246842035E+02  0.00000000000E+00 0.  1.
          1   -1    0    0  501    0  0.00000000000E+00 -0.00000000000E+00 -0.83569392159E+03  0.83569392159E+03  0.00000000000E+00 0. -1.
         25    2    1    2    0    0 -0.36834741115E+02 -0.37528539034E+02 -0.49120258516E+03  0.50958679030E+03  0.12503410649E+03 0.  0.
          5    1    3    3  502    0 -0.87173657849E+01 -0.32435659989E+02 -0.47552261461E+03  0.47672559603E+03  0.41800000000E+01 0.  1.
         -5    1    3    3    0  502 -0.28117375330E+02 -0.50928790453E+01 -0.15679970552E+02  0.32861194271E+02  0.41800000000E+01 0.  1.
        -11    1    1    2    0    0  0.65314848941E+02  0.37477590658E+02 -0.22888615120E+03  0.24095532678E+03  0.00000000000E+00 0. -1.
         11    1    1    2    0    0 -0.28480107825E+02  0.50948375745E-01 -0.98358343197E+02  0.10239864654E+03  0.00000000000E+00 0.  1.
</event>
<event>
 7    1  0.1538147E-010  0.1427070E+03  0.7561462E-02  0.1209732E+00
         -3   -1    0    0    0  501 -0.00000000000E+00  0.00000000000E+00  0.52234839612E+02  0.52234839612E+02  0.00000000000E+00 0.  1.
          3   -1    0    0  501    0  0.00000000000E+00 -0.00000000000E+00 -0.71653491336E+03  0.71653491336E+03  0.00000000000E+00 0. -1.
         25    2    1    2    0    0 -0.10181279187E+03  0.61122734426E+02 -0.56048352391E+03  0.58642773351E+03  0.12511543792E+03 0.  0.
          5    1    3    3  502    0 -0.31924496751E+02  0.59581178924E+02 -0.45371515523E+03  0.45874176271E+03  0.41800000000E+01 0.  1.
         -5    1    3    3    0  502 -0.69888295114E+02  0.15415555013E+01 -0.10676836869E+03  0.12768597080E+03  0.41800000000E+01 0.  1.
        -11    1    1    2    0    0  0.28890955247E+02 -0.68521776871E+02 -0.36560899707E+02  0.82865074598E+02  0.00000000000E+00 0. -1.
         11    1    1    2    0    0  0.72921836618E+02  0.73990424457E+01 -0.67255650128E+02  0.99476944862E+02  0.00000000000E+00 0.  1.
</event>
<event>
 7    1  0.1538147E-010  0.2270943E+03  0.7561462E-02  0.1128702E+00
          1   -1    0    0  501    0  0.00000000000E+00  0.00000000000E+00  0.47954306619E+03  0.47954306619E+03  0.00000000000E+00 0. -1.
         -1   -1    0    0    0  501 -0.00000000000E+00 -0.00000000000E+00 -0.11626052840E+03  0.11626052840E+03  0.00000000000E+00 0.  1.
         25    2    1    2    0    0 -0.19930595863E+03  0.20513713851E+02  0.11257990157E+03  0.26168164059E+03  0.12513740120E+03 0.  0.
          5    1    3    3  502    0 -0.14984981520E+02 -0.38002368456E+02  0.32332577257E+02  0.52264688189E+02  0.41800000000E+01 0. -1.
         -5    1    3    3    0  502 -0.18432097711E+03  0.58516082307E+02  0.80247324314E+02  0.20941695240E+03  0.41800000000E+01 0. -1.
        -11    1    1    2    0    0  0.68966300725E+01 -0.26307992834E+02  0.43486374476E+02  0.51290727801E+02  0.00000000000E+00 0.  1.
         11    1    1    2    0    0  0.19240932856E+03  0.57942789824E+01  0.20721626174E+03  0.28283122620E+03  0.00000000000E+00 0. -1.
</event>
<event>
 7    1  0.1538147E-010  0.1207653E+03  0.7561462E-02  0.1241840E+00
          3   -1    0    0  501    0  0.00000000000E+00  0.00000000000E+00  0.10697624124E+03  0.10697624124E+03  0.00000000000E+00 0. -1.
         -3   -1    0    0    0  501 -0.00000000000E+00 -0.00000000000E+00 -0.21088017352E+03  0.21088017352E+03  0.00000000000E+00 0.  1.
         25    2    1    2    0    0  0.90941801582E+02 -0.37686259165E+02 -0.11059718397E+02  0.15954728703E+03  0.12506939683E+03 0.  0.
          5    1    3    3  502    0  0.69070015500E+02  0.10312536082E+02  0.44427776001E+02  0.82875298624E+02  0.41800000000E+01 0. -1.
         -5    1    3    3    0  502  0.21871786081E+02 -0.47998795246E+02 -0.55487494398E+02  0.76671988406E+02  0.41800000000E+01 0. -1.
        -11    1    1    2    0    0 -0.36797018688E+01  0.30914749634E+02 -0.54475035039E+02  0.62743855423E+02  0.00000000000E+00 0.  1.
         11    1    1    2    0    0 -0.87262099713E+02  0.67715095302E+01 -0.38369178843E+02  0.95565272315E+02  0.00000000000E+00 0. -1.
</event>
<event>
 7    1  0.1538147E-010  0.1091961E+03  0.7561462E-02  0.1262066E+00
         -1   -1    0    0    0  501 -0.00000000000E+00  0.00000000000E+00  0.37099659580E+02  0.37099659580E+02  0.00000000000E+00 0.  1.
          1   -1    0    0  501    0  0.00000000000E+00 -0.00000000000E+00 -0.38407797454E+03  0.38407797454E+03  0.00000000000E+00 0. -1.
         25    2    1    2    0    0 -0.35758639176E+02  0.17354017005E+02 -0.14125672127E+03  0.19284749606E+03  0.12512734813E+03 0.  0.
          5    1    3    3  502    0  0.20560564945E+02  0.55174824903E+02 -0.90368934306E+02  0.10793986669E+03  0.41800000000E+01 0. -1.
         -5    1    3    3    0  502 -0.56319204121E+02 -0.37820807898E+02 -0.50887786968E+02  0.84907629371E+02  0.41800000000E+01 0. -1.
        -11    1    1    2    0    0 -0.23201343101E+02 -0.22359606198E+02 -0.11942374422E+03  0.12369432079E+03  0.00000000000E+00 0. -1.
         11    1    1    2    0    0  0.58959982277E+02  0.50055891933E+01 -0.86297849461E+02  0.10463581727E+03  0.00000000000E+00 0.  1.
</event>
<event>
 7    1  0.1538147E-010  0.1263770E+03  0.7561462E-02  0.1232933E+00
         -1   -1    0    0    0  501 -0.00000000000E+00  0.00000000000E+00  0.25706163621E+03  0.25706163621E+03  0.00000000000E+00 0.  1.
          1   -1    0    0  501    0  0.00000000000E+00 -0.00000000000E+00 -0.65161584460E+02  0.65161584460E+02  0.00000000000E+00 0. -1.
         25    2    1    2    0    0 -0.51688750922E+02  0.46199159111E+02  0.95942259104E+02  0.17223780058E+03  0.12511935739E+03 0.  0.
          5    1    3    3  502    0  0.39177271401E+02  0.25896954742E+02  0.17071273400E+02  0.50143909250E+02  0.41800000000E+01 0. -1.
         -5    1    3    3    0  502 -0.90866022323E+02  0.20302204369E+02  0.78870985705E+02  0.12209389133E+03  0.41800000000E+01 0. -1.
        -11    1    1    2    0    0  0.76690539972E+02 -0.28686475198E+02  0.83703497088E+02  0.11709239175E+03  0.00000000000E+00 0.  1.
         11    1    1    2    0    0 -0.25001789051E+02 -0.17512683912E+02  0.12254295556E+02  0.32893028336E+02  0.00000000000E+00 0. -1.
</event>
<event>
 7    1  0.1538147E-010  0.1014307E+03  0.7561462E-02  0.1277316E+00
         -1   -1    0    0    0  501 -0.00000000000E+00  0.00000000000E+00  0.23969563133E+02  0.23969563133E+02  0.00000000000E+00 0.  1.
          1   -1    0    0  501    0  0.00000000000E+00 -0.00000000000E+00 -0.51435781703E+03  0.51435781703E+03  0.00000000000E+00 0. -1.
         25    2    1    2    0    0  0.10008613226E+02  0.59290630215E+01 -0.22705125427E+03  0.25951214985E+03  0.12513575719E+03 0.  0.
          5    1    3    3  502    0  0.10140202679E+02  0.58806693381E+02 -0.17601828125E+03  0.18590577890E+03  0.41800000000E+01 0. -1.
         -5    1    3    3    0  502 -0.13158945280E+00 -0.52877630359E+02 -0.51032973025E+02  0.73606370947E+02  0.41800000000E+01 0. -1.
        -11    1    1    2    0    0 -0.41595411904E+02 -0.29151240106E+02 -0.12224078727E+03  0.13237364981E+03  0.00000000000E+00 0.  1.
         11    1    1    2    0    0  0.31586798677E+02  0.23222177085E+02 -0.14109621235E+03  0.14644158050E+03  0.00000000000E+00 0. -1.
</event>
<event>
 7    1  0.1838708E-010  0.1066627E+03  0.7561462E-02  0.1266878E+00
         -2   -1    0    0    0  501 -0.00000000000E+00  0.00000000000E+00  0.24087858431E+02  0.24087858431E+02  0.00000000000E+00 0.  1.
          2   -1    0    0  501    0  0.00000000000E+00 -0.00000000000E+00 -0.65699454776E+03  0.65699454776E+03  0.00000000000E+00 0. -1.
         25    2    1    2    0    0  0.28525448339E+01 -0.11730835990E+02 -0.52345913352E+03  0.53834001278E+03  0.12511896489E+03 0.  0.
          5    1    3    3  502    0  0.58784635897E+02 -0.30262815850E+02 -0.29752837977E+03  0.30481483003E+03  0.41800000000E+01 0.  1.
         -5    1    3    3    0  502 -0.55932091063E+02  0.18531979860E+02 -0.22593075375E+03  0.23352518275E+03  0.41800000000E+01 0.  1.
        -11    1    1    2    0    0 -0.12573110027E+02  0.48433007366E+02 -0.41938814983E+02  0.65289382754E+02  0.00000000000E+00 0. -1.
         11    1    1    2    0    0  0.97205651933E+01 -0.36702171376E+02 -0.67508740831E+02  0.77453010658E+02  0.00000000000E+00 0.  1.
</event>
<event>
 6    1  0.1538147E-010  0.2053265E+03  0.7561462E-02  0.1145321E+00
         -1   -1    0    0    0  501 -0.00000000000E+00  0.00000000000E+00  0.62805564301E+03  0.62805564301E+03  0.00000000000E+00 0.  1.
          1   -1    0    0  501    0  0.00000000000E+00 -0.00000000000E+00 -0.75881395507E+02  0.75881395507E+02  0.00000000000E+00 0. -1.
          5    1    1    2  502    0  0.10416652432E+03 -0.12689265823E+03  0.32160041763E+03  0.36110484976E+03  0.41800000000E+01 0.  1.
         -5    1    1    2    0  502 -0.36365504812E+02 -0.29530260805E+02  0.80474921384E+02  0.93210362166E+02  0.41800000000E+01 0.  1.
        -11    1    1    2    0    0 -0.32446769275E+02 -0.61493826160E+01  0.27091768794E+02  0.42715005318E+02  0.00000000000E+00 0.  1.
         11    1    1    2    0    0 -0.35354250232E+02  0.16257230165E+03  0.12300713970E+03  0.20690682127E+03  0.00000000000E+00 0. -1.
</event>
<event>
 6    1  0.1538147E-010  0.1689902E+03  0.7561462E-02  0.1178905E+00
          2   -1    0    0  501    0  0.00000000000E+00  0.00000000000E+00  0.23491152515E+03  0.23491152515E+03  0.00000000000E+00 0. -1.
         -2   -1    0    0    0  501 -0.00000000000E+00 -0.00000000000E+00 -0.23663480234E+03  0.23663480234E+03  0.00000000000E+00 0.  1.
          5    1    1    2  502    0 -0.48584381641E+02 -0.94936851141E+02 -0.14501279297E+03  0.18005452055E+03  0.41800000000E+01 0.  1.
         -5    1    1    2    0  502 -0.40922639749E+01 -0.62006804076E+02  0.15894967894E+02  0.64278400575E+02  0.41800000000E+01 0.  1.
        -11    1    1    2    0    0  0.23526911444E+01  0.57217969297E+02 -0.67937755128E+00  0.57270347650E+02  0.00000000000E+00 0.  1.
         11    1    1    2    0    0  0.50323954471E+02  0.99725685920E+02  0.12807392544E+03  0.16994305871E+03  0.00000000000E+00 0. -1.
</event>
<event>
 6    1  0.1538147E-010  0.6322170E+02  0.7561462E-02  0.1384788E+00
          2   -1    0    0  501    0  0.00000000000E+00  0.00000000000E+00  0.37096643952E+03  0.37096643952E+03  0.00000000000E+00 0. -1.
         -2   -1    0    0    0  501 -0.00000000000E+00 -0.00000000000E+00 -0.38691104897E+02  0.38691104897E+02  0.00000000000E+00 0.  1.
          5    1    1    2  502    0 -0.43368932306E+01 -0.94015032332E+00  0.13618768407E+03  0.13632406324E+03  0.41800000000E+01 0. -1.
         -5    1    1    2    0  502  0.65886532148E+01  0.25335498303E+02 -0.22473410293E+02  0.34753768078E+02  0.41800000000E+01 0. -1.
        -11    1    1    2    0    0  0.42252204132E+02 -0.25442350174E+02  0.91501675667E+02  0.10394767235E+03  0.00000000000E+00 0.  1.
         11    1    1    2    0    0 -0.44503964116E+02  0.10470021941E+01  0.12705938517E+03  0.13463204075E+03  0.00000000000E+00 0. -1.
</event>
<event>
 7    1  0.1538147E-010  0.1735027E+03  0.7561462E-02  0.1174244E+00
          2   -1    0    0  501    0  0.00000000000E+00  0.00000000000E+00  0.24088754463E+04  0.24088754463E+04  0.00000000000E+00 0. -1.
         -2   -1    0    0    0  501 -0.00000000000E+00 -0.00000000000E+00 -0.20977978197E+02  0.20977978197E+02  0.00000000000E+00 0.  1.
         25    2    1    2    0    0 -0.11251701137E+03 -0.11220756157E+03  0.18744050018E+04  0.18852867819E+04  0.12514601322E+03 0.  0.
          5    1    3    3  502    0 -0.59467068764E+02 -0.98434025904E+02  0.16587348501E+04  0.16627219747E+04  0.41800000000E+01 0. -1.
         -5    1    3    3    0  502 -0.53049942602E+02 -0.13773535665E+02  0.21567015169E+03  0.22256480725E+03  0.41800000000E+01 0. -1.
        -11    1    1    2    0    0  0.70052989204E+02  0.16087183428E+02  0.26923933789E+03  0.27866833303E+03  0.00000000000E+00 0. -1.
         11    1    1    2    0    0  0.42464022162E+02  0.96120378141E+02  0.24425312836E+03  0.26589830949E+03  0.00000000000E+00 0.  1.
</event>
<event>
 7    1  0.1538147E-010  0.1094983E+03  0.7561462E-02  0.1261502E+00
         -3   -1    0    0    0  501 -0.00000000000E+00  0.00000000000E+00  0.83116558995E+02  0.83116558995E+02  0.00000000000E+00 0.  1.
          3   -1    0    0  501    0  0.00000000000E+00 -0.00000000000E+00 -0.14757602214E+03  0.14757602214E+03  0.00000000000E+00 0. -1.
         25    2    1    2    0    0  0.12396945184E+02  0.18461804491E+02 -0.25522063992E+02  0.12962797343E+03  0.12512998550E+03 0.  0.
          5    1    3    3  502    0  0.68327707860E+02  0.16404839433E+02 -0.80808503717E+01  0.70855959248E+02  0.41800000000E+01 0. -1.
         -5    1    3    3    0  502 -0.55930762676E+02  0.20569650585E+01 -0.17441213621E+02  0.58772014185E+02  0.41800000000E+01 0. -1.
        -11    1    1    2    0    0 -0.48358569678E+02 -0.27182357785E+02 -0.16882180851E+02  0.57986549012E+02  0.00000000000E+00 0.  1.
         11    1    1    2    0    0  0.35961624494E+02  0.87205532940E+01 -0.22055218297E+02  0.43078058685E+02  0.00000000000E+00 0. -1.
</event>
<event>
 6    1  0.1538147E-010  0.9769926E+02  0.7561462E-02  0.1285210E+00
         -1   -1    0    0    0  501 -0.00000000000E+00  0.00000000000E+00  0.15356002460E+03  0.15356002460E+03  0.00000000000E+00 0.  1.
          1   -1    0    0  501    0  0.00000000000E+00 -0.00000000000E+00 -0.88630362369E+02  0.88630362369E+02  0.00000000000E+00 0. -1.
          5    1    1    2  502    0  0.23799466489E+02 -0.36764256217E+02  0.11098528866E+02  0.45372622619E+02  0.41800000000E+01 0. -1.
         -5    1    1    2    0  502 -0.53089087502E+02  0.67740889629E+02  0.89882874586E+01  0.86634525744E+02  0.41800000000E+01 0. -1.
        -11    1    1    2    0    0  0.22539231542E+02  0.93119259012E+01  0.61430175486E+02  0.66093837706E+02  0.00000000000E+00 0.  1.
         11    1    1    2    0    0  0.67503894708E+01 -0.40288559313E+02 -0.16587329576E+02  0.44089400903E+02  0.00000000000E+00 0. -1.
</event>
<event>
 6    1  0.1538147E-010  0.1151314E+03  0.7561462E-02  0.1251352E+00
         -1   -1    0    0    0  501 -0.00000000000E+00  0.00000000000E+00  0.59657198867E+02  0.59657198867E+02  0.00000000000E+00 0.  1.
          1   -1    0    0  501    0  0.00000000000E+00 -0.00000000000E+00 -0.42079347731E+03  0.42079347731E+03  0.00000000000E+00 0. -1.
          5    1    1    2  502    0  0.58839886225E+02  0.30133933694E+02 -0.13438470555E+03  0.14982292099E+03  0.41800000000E+01 0. -1.
         -5    1    1    2    0  502  0.22228701454E+02  0.29368005291E+02  0.24576352308E+02  0.44475435870E+02  0.41800000000E+01 0. -1.
        -11    1    1    2    0    0 -0.10436971893E+02 -0.55215708028E+02 -0.16626724486E+03  0.17550641443E+03  0.00000000000E+00 0. -1.
         11    1    1    2    0    0 -0.70631615787E+02 -0.42862309575E+01 -0.85060680345E+02  0.11064590487E+03  0.00000000000E+00 0.  1.
</event>
<event>
 6    1  0.1538147E-010  0.1916263E+03  0.7561462E-02  0.1157003E+00
         -3   -1    0    0    0  501 -0.00000000000E+00  0.00000000000E+00  0.60519229584E+02  0.60519229584E+02  0.00000000000E+00 0.  1.
          3   -1    0    0  501    0  0.00000000000E+00 -0.00000000000E+00 -0.80264534256E+03  0.80264534256E+03  0.00000000000E+00 0. -1.
          5    1    1    2  502    0  0.12394417992E+03  0.45030517606E+02 -0.32241911348E+03  0.34836972370E+03  0.41800000000E+01 0.  1.
         -5    1    1    2    0  502  0.47697702676E+02  0.37417088929E+02 -0.22134728603E+02  0.64672467054E+02  0.41800000000E+01 0.  1.
        -11    1    1    2    0    0 -0.86434831488E+02 -0.37582887633E+02 -0.10027028614E+03  0.13761389400E+03  0.00000000000E+00 0.  1.
         11    1    1    2    0    0 -0.85207051108E+02 -0.44864718902E+02 -0.29730198475E+03  0.31250848740E+03  0.00000000000E+00 0. -1.
</event>
<event>
 7    1  0.1538147E-010  0.7505400E+02  0.7561462E-02  0.1343704E+00
          2   -1    0    0  501    0  0.00000000000E+00  0.00000000000E+00  0.11242643135E+03  0.11242643135E+03  0.00000000000E+00 0. -1.
         -2   -1    0    0    0  501 -0.00000000000E+00 -0.00000000000E+00 -0.12057265290E+03  0.12057265290E+03  0.00000000000E+00 0.  1.
         25    2    1    2    0    0  0.42116902229E-01 -0.19041398996E+01  0.43162684678E+02  0.13230897140E+03  0.12505606359E+03 0.  0.
          5    1    3    3  502    0  0.42211206422E+02 -0.22274904450E+02  0.64769823453E+02  0.80564010240E+02  0.41800000000E+01 0.  1.
         -5    1    3    3    0  502 -0.42169089520E+02  0.20370764550E+02 -0.21607138774E+02  0.51744961159E+02  0.41800000000E+01 0.  1.
        -11    1    1    2    0    0 -0.16241438228E+02  0.23263519672E+02 -0.64756190294E+02  0.70698938073E+02  0.00000000000E+00 0.  1.
         11    1    1    2    0    0  0.16199321326E+02 -0.21359379772E+02  0.13447284068E+02  0.29991174776E+02  0.00000000000E+00 0. -1.
</event>
<event>
 7    1  0.1538147E-010  0.8863615E+02  0.7561462E-02  0.1306188E+00
         -2   -1    0    0    0  501 -0.00000000000E+00  0.00000000000E+00  0.26905895789E+02  0.26905895789E+02  0.00000000000E+00 0.  1.
          2   -1    0    0  501    0  0.00000000000E+00 -0.00000000000E+00 -0.50208499127E+03  0.50208499127E+03  0.00000000000E+00 0. -1.
         25    2    1    2    0    0 -0.19359614620E+02  0.11749574243E+02 -0.18595120745E+03  0.22523336644E+03  0.12505746932E+03 0.  0.
          5    1    3    3  502    0  0.32103515992E+02  0.84246202749E+01 -0.13082002432E+01  0.33478257926E+02  0.41800000000E+01 0. -1.
         -5    1    3    3    0  502 -0.51463130613E+02  0.33249539678E+01 -0.18464300721E+03  0.19175510852E+03  0.41800000000E+01 0. -1.
        -11    1    1    2    0    0 -0.15879490732E+02 -0.42462924173E+02 -0.16159267265E+03  0.16783161207E+03  0.00000000000E+00 0. -1.
         11    1    1    2    0    0  0.35239105353E+02  0.30713349931E+02 -0.12763521538E+03  0.13592590855E+03  0.00000000000E+00 0.  1.
</event>
<event>
 7    1  0.1538147E-010  0.1001991E+03  0.7561462E-02  0.1279878E+00
         -1   -1    0    0    0  501 -0.00000000000E+00  0.00000000000E+00  0.13873382293E+03  0.13873382293E+03  0.00000000000E+00 0.  1.
          1   -1    0    0  501    0  0.00000000000E+00 -0.00000000000E+00 -0.11527583748E+03  0.11527583748E+03  0.00000000000E+00 0. -1.
         25    2    1    2    0    0  0.41850805668E+02  0.42314210540E+02  0.36727082589E+02  0.14334418894E+03  0.12512671801E+03 0.  0.
          5    1    3    3  502    0  0.58926327527E+02  0.11526576656E+02 -0.30399964872E+02  0.67429995621E+02  0.41800000000E+01 0. -1.
         -5    1    3    3    0  502 -0.17075521859E+02  0.30787633885E+02  0.67127047461E+02  0.75914193323E+02  0.41800000000E+01 0. -1.
        -11    1    1    2    0    0  0.24432426948E+02 -0.27598505888E+02  0.11152696335E+02  0.38509786411E+02  0.00000000000E+00 0.  1.
         11    1    1    2    0    0 -0.66283232616E+02 -0.14715704652E+02 -0.24421793468E+02  0.72155685054E+02  0.00000000000E+00 0. -1.
</event>
<event>
 6    1  0.1538147E-010  0.1164384E+03  0.7561462E-02  0.1249091E+00
         -2   -1    0    0    0  501 -0.00000000000E+00  0.00000000000E+00  0.47515523711E+02  0.47515523711E+02  0.00000000000E+00 0.  1.
          2   -1    0    0  501    0  0.00000000000E+00 -0.00000000000E+00 -0.57335744943E+03  0.57335744943E+03  0.00000000000E+00 0. -1.
          5    1    1    2  502    0 -0.37134110305E+02 -0.25227554872E+02 -0.55075008779E+02  0.71176545750E+02  0.41800000000E+01 0. -1.
         -5    1    1    2    0  502 -0.31772955725E+02  0.81434572325E+02 -0.38612667198E+03  0.39591967556E+03  0.41800000000E+01 0. -1.
        -11    1    1    2    0    0  0.63233582635E+02 -0.24097759782E+02 -0.51577366125E+01  0.67865972669E+02  0.00000000000E+00 0.  1.
         11    1    1    2    0    0  0.56734833941E+01 -0.32109257670E+02 -0.79482508354E+02  0.85910779161E+02  0.00000000000E+00 0. -1.
</event>
<event>
 7    1  0.1538147E-010  0.1486794E+03  0.7561462E-02  0.1202105E+00
         -2   -1    0    0    0  501 -0.00000000000E+00  0.00000000000E+00  0.41599988737E+03  0.41599988737E+03  0.00000000000E+00 0.  1.
          2   -1    0    0  501    0  0.00000000000E+00 -0.00000000000E+00 -0.80361913081E+02  0.80361913081E+02  0.00000000000E+00 0. -1.
         25    2    1    2    0    0  0.12014293576E+03 -0.25143543641E+02  0.28445289099E+03  0.33408519766E+03  0.12503179317E+03 0.  0.
          5    1    3    3  502    0 -0.12868474171E+02 -0.43439127413E+01  0.12303219848E+03  0.12385015732E+03  0.41800000000E+01 0.  1.
         -5    1    3    3    0  502  0.13301140993E+03 -0.20799630900E+02  0.16142069251E+03  0.21023504034E+03  0.41800000000E+01 0.  1.
        -11    1    1    2    0    0 -0.12415082697E+03  0.42051368012E+02  0.29267863971E+02  0.13430693672E+03  0.00000000000E+00 0. -1.
         11    1    1    2    0    0  0.40078912165E+01 -0.16907824371E+02  0.21917219327E+02  0.27969666068E+02  0.00000000000E+00 0.  1.
</event>
<event>
 7    1  0.1538147E-010  0.1001250E+03  0.7561462E-02  0.1280033E+00
          2   -1    0    0  501    0  0.00000000000E+00  0.00000000000E+00  0.35882765382E+03  0.35882765382E+03  0.00000000000E+00 0. -1.
         -2   -1    0    0    0  501 -0.00000000000E+00 -0.00000000000E+00 -0.44393861025E+02  0.44393861025E+02  0.00000000000E+00 0.  1.
         25    2    1    2    0    0  0.65524760202E+02 -0.42968294175E+02  0.16541522856E+03  0.22170910711E+03  0.12511179733E+03 0.  0.
          5    1    3    3  502    0  0.13930731694E+02 -0.44567985238E+02  0.16328032533E+03  0.16987733113E+03  0.41800000000E+01 0. -1.
         -5    1    3    3    0  502  0.51594028508E+02  0.15996910631E+01  0.21349032324E+01  0.51831775978E+02  0.41800000000E+01 0. -1.
        -11    1    1    2    0    0 -0.27903290200E+02  0.55340718244E+02  0.10783174033E+03  0.12437392381E+03  0.00000000000E+00 0.  1.
         11    1    1    2    0    0 -0.37621470003E+02 -0.12372424069E+02  0.41186823901E+02  0.57138483928E+02  0.00000000000E+00 0. -1.
</event>
<event>
 6    1  0.1538147E-010  0.9965998E+02  0.7561462E-02  0.1281013E+00
          1   -1    0    0  501    0  0.00000000000E+00  0.00000000000E+00  0.25855813346E+03  0.25855813346E+03  0.00000000000E+00 0. -1.
         -1   -1    0    0    0  501 -0.00000000000E+00 -0.00000000000E+00 -0.54429374754E+02  0.54429374754E+02  0.00000000000E+00 0.  1.
          5    1    1    2  502    0  0.89523828360E+02 -0.59974254051E+01  0.92619504260E+02  0.12902065697E+03  0.41800000000E+01 0. -1.
         -5    1    1    2    0  502 -0.41339330033E+02  0.13149286392E+02  0.33346978822E+02  0.54875653406E+02  0.41800000000E+01 0. -1.
        -11    1    1    2    0    0 -0.47394411748E+02 -0.21147958598E+02  0.94347155031E+02  0.10767939487E+03  0.00000000000E+00 0. -1.
         11    1    1    2    0    0 -0.79008657959E+00  0.13996097611E+02 -0.16184879402E+02  0.21411802970E+02  0.00000000000E+00 0.  1.
</event>
<event>
 7    1  0.1538147E-010  0.1923594E+03  0.7561462E-02  0.1156350E+00
         -1   -1    0    0    0  501 -0.00000000000E+00  0.00000000000E+00  0.39875741908E+02  0.39875741908E+02  0.00000000000E+00 0.  1.
          1   -1    0    0  501    0  0.00000000000E+00 -0.00000000000E+00 -0.12412149289E+04  0.12412149289E+04  0.00000000000E+00 0. -1.
         25    2    1    2    0    0  0.12437947888E+03  0.13511405673E+03 -0.81151561137E+03  0.84138312918E+03  0.12506765962E+03 0.  0.
          5    1    3    3  502    0  0.73680522806E+02  0.54806668815E+02 -0.17372079222E+03  0.19654255630E+03  0.41800000000E+01 0. -1.
         -5    1    3    3    0  502  0.50698956076E+02  0.80307387918E+02 -0.63779481915E+03  0.64484057288E+03  0.41800000000E+01 0. -1.
        -11    1    1    2    0    0  0.18375477290E+01 -0.39104763966E+02 -0.12547570522E+03  0.13144090591E+03  0.00000000000E+00 0. -1.
         11    1    1    2    0    0 -0.12621702661E+03 -0.96009292768E+02 -0.26434787037E+03  0.30826663568E+03  0.00000000000E+00 0.  1.
</event>
<event>
 7    1  0.1538147E-010  0.1200275E+03  0.7561462E-02  0.1243052E+00
         -1   -1    0    0    0  501 -0.00000000000E+00  0.00000000000E+00  0.21459249653E+02  0.21459249653E+02  0.00000000000E+00 0.  1.
          1   -1    0    0  501    0  0.00000000000E+00 -0.00000000000E+00 -0.79970819869E+03  0.79970819869E+03  0.00000000000E+00 0. -1.
         25    2    1    2    0    0  0.55069133600E+02  0.34310606089E+02 -0.53610377416E+03  0.55430755580E+03  0.12505911635E+03 0.  0.
          5    1    3    3  502    0  0.86067259815E+02  0.71291250074E+01 -0.23568772192E+03  0.25104695238E+03  0.41800000000E+01 0. -1.
         -5    1    3    3    0  502 -0.30998126215E+02  0.27181481082E+02 -0.30041605225E+03  0.30326060342E+03  0.41800000000E+01 0. -1.
        -11    1    1    2    0    0 -0.66475692105E+02  0.92567732081E+01 -0.14639868616E+03  0.16105055355E+03  0.00000000000E+00 0.  1.
         11    1    1    2    0    0  0.11406558504E+02 -0.43567379297E+02 -0.95746488716E+02  0.10580933899E+03  0.00000000000E+00 0. -1.
</event>
<event>
 7    1  0.1538147E-010  0.2253230E+03  0.7561462E-02  0.1129976E+00
          1   -1    0    0  501    0  0.00000000000E+00  0.00000000000E+00  0.25777679756E+03  0.25777679756E+03  0.00000000000E+00 0. -1.
         -1   -1    0    0    0  501 -0.00000000000E+00 -0.00000000000E+00 -0.21844829118E+03  0.21844829118E+03  0.00000000000E+00 0.  1.
         25    2    1    2    0    0 -0.12712135867E+03 -0.15111637366E+03  0.94829410421E+02  0.25227406048E+03  0.12511429292E+03 0.  0.
          5    1    3    3  502    0  0.90102377287E+01 -0.79055119446E+02  0.33489508115E+02  0.86428674920E+02  0.41800000000E+01 0.  1.
         -5    1    3    3    0  502 -0.13613159640E+03 -0.72061254218E+02  0.61339902305E+02  0.16584538556E+03  0.41800000000E+01 0.  1.
        -11    1    1    2    0    0  0.87583376582E+02  0.15408302894E+03 -0.47694618452E+02  0.18354074287E+03  0.00000000000E+00 0. -1.
         11    1    1    2    0    0  0.39537982089E+02 -0.29666552801E+01 -0.78062855860E+01  0.40410285397E+02  0.00000000000E+00 0.  1.
</event>
<event>
 6    1  0.1538147E-010  0.1181737E+03  0.7561462E-02  0.1246141E+00
          1   -1    0    0  501    0  0.00000000000E+00  0.00000000000E+00  0.62558832661E+02  0.62558832661E+02  0.00000000000E+00 0. -1.
         -1   -1    0    0    0  501 -0.00000000000E+00 -0.00000000000E+00 -0.23631305981E+03  0.23631305981E+03  0.00000000000E+00 0.  1.
          5    1    1    2  502    0 -0.30169570725E+02 -0.38810755345E+02 -0.56077314175E+02  0.74690128486E+02  0.41800000000E+01 0.  1.
         -5    1    1    2    0  502  0.81115537900E+02  0.18349764613E+02 -0.39648304753E+02  0.92227462396E+02  0.41800000000E+01 0.  1.
        -11    1    1    2    0    0 -0.52056041802E+02 -0.25362079991E+02 -0.28737219005E+02  0.64644368244E+02  0.00000000000E+00 0. -1.
         11    1    1    2    0    0  0.11100746269E+01  0.45823070723E+02 -0.49291389216E+02  0.67309933346E+02  0.00000000000E+00 0.  1.
</event>
<event>
 6    1  0.1538147E-010  0.1115307E+03  0.7561462E-02  0.1257761E+00
          2   -1    0    0  501    0  0.00000000000E+00  0.00000000000E+00  0.57888931549E+03  0.57888931549E+03  0.00000000000E+00 0. -1.
         -2   -1    0    0    0  501 -0.00000000000E+00 -0.00000000000E+00 -0.25631070747E+02  0.25631070747E+02  0.00000000000E+00 0.  1.
          5    1    1    2  502    0  0.13764361152E+02  0.33622273567E+02  0.36610973582E+02  0.51746987394E+02  0.41800000000E+01 0. -1.
         -5    1    1    2    0  502 -0.16677060222E+02 -0.86617662029E+02  0.27651735679E+03  0.29027584246E+03  0.41800000000E+01 0. -1.
        -11    1    1    2    0    0 -0.38745005259E+02  0.36959509076E+02  0.17878370063E+03  0.18663009498E+03  0.00000000000E+00 0. -1.
         11    1    1    2    0    0  0.41657704329E+02  0.16035879386E+02  0.61346213745E+02  0.75867461395E+02  0.00000000000E+00 0.  1.
</event>
<event>
 7    1  0.1538147E-010  0.7908488E+02  0.7561462E-02  0.1331669E+00
         -1   -1    0    0    0  501 -0.00000000000E+00  0.00000000000E+00  0.52046914261E+02  0.52046914261E+02  0.00000000000E+00 0.  1.
          1   -1    0    0  501    0  0.00000000000E+00 -0.00000000000E+00 -0.33986757445E+03  0.33986757445E+03  0.00000000000E+00 0. -1.
         25    2    1    2    0    0 -0.28024078120E+02 -0.16828870358E+02 -0.25889356834E+03  0.28936771465E+03  0.12505692594E+03 0.  0.
          5    1    3    3  502    0  0.13224707934E+02  0.28034441060E+01  0.95251090245E+01  0.17057323962E+02  0.41800000000E+01 0. -1.
         -5    1    3    3    0  502 -0.41248786055E+02 -0.19632314464E+02 -0.26841867736E+03  0.27231039069E+03  0.41800000000E+01 0. -1.
        -11    1    1    2    0    0 -0.46347840165E+00 -0.37128011096E+02 -0.75183901190E+01  0.37884432293E+02  0.00000000000E+00 0.  1.
         11    1    1    2    0    0  0.28487556522E+02  0.53956881454E+02 -0.21408701736E+02  0.64662341768E+02  0.00000000000E+00 0. -1.
</event>
<event>
 7    1  0.1538147E-010  0.1091048E+03  0.7561462E-02  0.1262237E+00
         -2   -1    0    0    0  501 -0.00000000000E+00  0.00000000000E+00  0.42334944866E+02  0.42334944866E+02  0.00000000000E+00 0.  1.
          2   -1    0    0  501    0  0.00000000000E+00 -0.00000000000E+00 -0.36078181017E+03  0.36078181017E+03  0.00000000000E+00 0. -1.
         25    2    1    2    0    0  0.44488812132E+02 -0.38392518095E+02 -0.18911259540E+03  0.23421087265E+03  0.12505166643E+03 0.  0.
          5    1    3    3  502    0  0.85986274973E+02 -0.41181363092E+02 -0.11844411245E+03  0.15210530670E+03  0.41800000000E+01 0. -1.
         -5    1    3    3    0  502 -0.41497462841E+02  0.27888449972E+01 -0.70668482948E+02  0.82105565955E+02  0.41800000000E+01 0. -1.
        -11    1    1    2    0    0 -0.18103889315E+02 -0.13620754168E+02 -0.10201749679E+03  0.10450284878E+03  0.00000000000E+00 0. -1.
         11    1    1    2    0    0 -0.26384922817E+02  0.52013272263E+02 -0.27316773106E+02  0.64403033597E+02  0.00000000000E+00 0.  1.
</event>
<event>
 7    1  0.1538147E-010  0.7241777E+02  0.7561462E-02  0.1352059E+00
          2   -1    0    0  501    0  0.00000000000E+00  0.00000000000E+00  0.13023282742E+03  0.13023282742E+03  0.00000000000E+00 0. -1.
         -2   -1    0    0    0  501 -0.00000000000E+00 -0.00000000000E+00 -0.14512392441E+03  0.14512392441E+03  0.00000000000E+00 0.  1.
         25    2    1    2    0    0 -0.46785298491E+01  0.20826262004E+02  0.73059931987E+02  0.14644543142E+03  0.12511150583E+03 0.  0.
          5    1    3    3  502    0  0.59244779900E+01  0.40143312936E+02 -0.23660868695E+02  0.47158181902E+02  0.41800000000E+01 0.  1.
         -5    1    3    3    0  502 -0.10603007839E+02 -0.19317050932E+02  0.96720800682E+02  0.99287249516E+02  0.41800000000E+01 0.  1.
        -11    1    1    2    0    0  0.32358146585E+02  0.15552890711E+02 -0.79502117389E+01  0.36771564103E+02  0.00000000000E+00 0. -1.
         11    1    1    2    0    0 -0.27679616736E+02 -0.36379152716E+02 -0.80000817230E+02  0.92139756308E+02  0.00000000000E+00 0.  1.
</event>
<event>
 7    1  0.1538147E-010  0.9977433E+02  0.7561462E-02  0.1280771E+00
         -2   -1    0    0    0  501 -0.00000000000E+00  0.00000000000E+00  0.55894602939E+02  0.55894602939E+02  0.00000000000E+00 0.  1.
          2   -1    0    0  501    0  0.00000000000E+00 -0.00000000000E+00 -0.37744586350E+03  0.37744586350E+03  0.00000000000E+00 0. -1.
         25    2    1    2    0    0  0.58661426582E+01  0.69980910187E+01 -0.30377603318E+02  0.12902892977E+03  0.12506910501E+03 0.  0.
          5    1    3    3  502    0  0.54661100061E+02 -0.31147567818E+02 -0.19568577341E+02  0.66018243388E+02  0.41800000000E+01 0. -1.
         -5    1    3    3    0  502 -0.48794957403E+02  0.38145658837E+02 -0.10809025977E+02  0.63010686384E+02  0.41800000000E+01 0. -1.
        -11    1    1    2    0    0 -0.12519852759E+02  0.32259161066E+02 -0.56279044354E+02  0.66066110974E+02  0.00000000000E+00 0.  1.
         11    1    1    2    0    0  0.66537101009E+01 -0.39257252085E+02 -0.23489461289E+03  0.23824542569E+03  0.00000000000E+00 0. -1.
</event>
<event>
 6    1  0.1538147E-010  0.1398340E+03  0.7561462E-02  0.1213552E+00
         -1   -1    0    0    0  501 -0.00000000000E+00  0.00000000000E+00  0.15540460636E+03  0.15540460636E+03  0.00000000000E+00 0.  1.
          1   -1    0    0  501    0  0.00000000000E+00 -0.00000000000E+00 -0.16327440184E+03  0.16327440184E+03  0.00000000000E+00 0. -1.
          5    1    1    2  502    0  0.28224201138E+01  0.98829783025E+02 -0.23412044591E+02  0.10169015832E+03  0.41800000000E+01 0. -1.
         -5    1    1    2    0  502 -0.63016439480E+02 -0.11859444365E+02 -0.28040998755E+02  0.70110541836E+02  0.41800000000E+01 0. -1.
        -11    1    1    2    0    0  0.38004613912E+02 -0.14528737649E+02  0.56902811777E+02  0.69952590262E+02  0.00000000000E+00 0.  1.
         11    1    1    2    0    0  0.22189405454E+02 -0.72441601011E+02 -0.13319563912E+02  0.76925717769E+02  0.00000000000E+00 0. -1.
</event>
<event>
 7    1  0.1538147E-010  0.1339952E+03  0.7561462E-02  0.1221645E+00
         -2   -1    0    0    0  501 -0.00000000000E+00  0.00000000000E+00  0.93821848203E+02  0.93821848203E+02  0.00000000000E+00 0.  1.
          2   -1    0    0  501    0  0.00000000000E+00 -0.00000000000E+00 -0.29874057888E+03  0.29874057888E+03  0.00000000000E+00 0. -1.
         25    2    1    2    0    0  0.69482021601E+02  0.97047915880E+02 -0.58286831944E+02  0.18242731755E+03  0.12504528024E+03 0.  0.
          5    1    3    3  502    0  0.64550034102E+02  0.69575649331E+02 -0.96174593753E+02  0.13518321925E+03  0.41800000000E+01 0. -1.
         -5    1    3    3    0  502  0.49319874982E+01  0.27472266549E+02  0.37887761809E+02  0.47244098308E+02  0.41800000000E+01 0. -1.
        -11    1    1    2    0    0 -0.67892168818E+02 -0.24462105148E+02 -0.44345864638E+02  0.84701221275E+02  0.00000000000E+00 0.  1.
         11    1    1    2    0    0 -0.15898527828E+01 -0.72585810733E+02 -0.10228603410E+03  0.12543388826E+03  0.00000000000E+00 0. -1.
</event>
<event>
 7    1  0.1538147E-010  0.1398051E+03  0.7561462E-02  0.1213591E+00
          2   -1    0    0  501    0  0.00000000000E+00  0.00000000000E+00  0.34583432395E+03  0.34583432395E+03  0.00000000000E+00 0. -1.
         -2   -1    0    0    0  501 -0.00000000000E+00 -0.00000000000E+00 -0.73565894601E+02  0.73565894601E+02  0.00000000000E+00 0.  1.
         25    2    1    2    0    0  0.94962349600E+02  0.25537511660E+02  0.73591299233E+02  0.17534467525E+03  0.12514017530E+03 0.  0.
          5    1    3    3  502    0  0.49789299219E+02 -0.44974041984E+02  0.57108920501E+01  0.67466476543E+02  0.41800000000E+01 0. -1.
         -5    1    3    3    0  502  0.45173050381E+02  0.70511553644E+02  0.67880407183E+02  0.10787819871E+03  0.41800000000E+01 0. -1.
        -11    1    1    2    0    0  0.25996206757E+01  0.20498795028E+02  0.84442446949E+02  0.86933799365E+02  0.00000000000E+00 0.  1.
         11    1    1    2    0    0 -0.97561970276E+02 -0.46036306688E+02  0.11423468316E+03  0.15712174393E+03  0.00000000000E+00 0. -1.
</event>
<event>
 7    1  0.1538147E-010  0.5919796E+02  0.7561462E-02  0.1401229E+00
          3   -1    0    0  501    0  0.00000000000E+00  0.00000000000E+00  0.38695876116E+03  0.38695876116E+03  0.00000000000E+00 0. -1.
         -3   -1    0    0    0  501 -0.00000000000E+00 -0.00000000000E+00 -0.47948800710E+02  0.47948800710E+02  0.00000000000E+00 0.  1.
         25    2    1    2    0    0  0.40731035224E+02 -0.25416117239E+01  0.30300987882E+03  0.33035700126E+03  0.12512107976E+03 0.  0.
          5    1    3    3  502    0  0.12580941994E+02 -0.86090208727E+01 -0.81877774548E+01  0.17801894323E+02  0.41800000000E+01 0. -1.
         -5    1    3    3    0  502  0.28150093231E+02  0.60674091488E+01  0.31119765628E+03  0.31255510694E+03  0.41800000000E+01 0. -1.
        -11    1    1    2    0    0  0.10917461964E+02 -0.15344942224E+02  0.45344352767E+02  0.49099577956E+02  0.00000000000E+00 0. -1.
         11    1    1    2    0    0 -0.51648497188E+02  0.17886553947E+02 -0.93442711379E+01  0.55450982651E+02  0.00000000000E+00 0.  1.
</event>
<event>
 7    1  0.1538147E-010  0.1480455E+03  0.7561462E-02  0.1202895E+00
          1   -1    0    0  501    0  0.00000000000E+00  0.00000000000E+00  0.11754229898E+03  0.11754229898E+03  0.00000000000E+00 0. -1.
         -1   -1    0    0    0  501 -0.00000000000E+00 -0.00000000000E+00 -0.19810705538E+03  0.19810705538E+03  0.00000000000E+00 0.  1.
         25    2    1    2    0    0  0.60896334415E+02 -0.88172551342E+02 -0.32470536505E+02  0.16791526328E+03  0.12513367871E+03 0.  0.
          5    1    3    3  502    0 -0.18331691277E+02  0.21142577771E+02  0.24589466263E+01  0.28400322505E+02  0.41800000000E+01 0. -1.
         -5    1    3    3    0  502  0.79228025692E+02 -0.10931512911E+03 -0.34929483132E+02  0.13951494078E+03  0.41800000000E+01 0. -1.
        -11    1    1    2    0    0  0.14595381779E+02  0.41451114296E+02  0.50952952144E+01  0.44240050622E+02  0.00000000000E+00 0.  1.
         11    1    1    2    0    0 -0.75491716195E+02  0.46721437046E+02 -0.53189515102E+02  0.10349404046E+03  0.00000000000E+00 0. -1.
</event>
<event>
 6    1  0.1538147E-010  0.1854502E+03  0.7561462E-02  0.1162630E+00
         -1   -1    0    0    0  501 -0.00000000000E+00  0.00000000000E+00  0.55669371916E+02  0.55669371916E+02  0.00000000000E+00 0.  1.
          1   -1    0    0  501    0  0.00000000000E+00 -0.00000000000E+00 -0.82948054470E+03  0.82948054470E+03  0.00000000000E+00 0. -1.
          5    1    1    2  502    0 -0.39456916157E+02  0.11862788369E+03 -0.40501892084E+03  0.42389529563E+03  0.41800000000E+01 0. -1.
         -5    1    1    2    0  502  0.81920310007E+00  0.61347286527E+02 -0.39189269443E+02  0.72920723374E+02  0.41800000000E+01 0. -1.
        -11    1    1    2    0    0  0.23924801814E+02 -0.13151487857E+03 -0.30289163687E+03  0.33107688399E+03  0.00000000000E+00 0.  1.
         11    1    1    2    0    0  0.14712911243E+02 -0.48460291649E+02 -0.26711345639E+02  0.57257013629E+02  0.00000000000E+00 0. -1.
</event>
<event>
 6    1  0.1538147E-010  0.6339843E+02  0.7561462E-02  0.1384099E+00
          2   -1    0    0  501    0  0.00000000000E+00  0.00000000000E+00  0.11508686716E+03  0.11508686716E+03  0.00000000000E+00 0. -1.
         -2   -1    0    0    0  501 -0.00000000000E+00 -0.00000000000E+00 -0.15315170459E+03  0.15315170459E+03  0.00000000000E+00 0.  1.
          5    1    1    2  502    0  0.73075419392E+01 -0.85663523517E+01 -0.51175198201E+02  0.52565729070E+02  0.41800000000E+01 0.  1.
         -5    1    1    2    0  502 -0.25497054093E+01  0.38389108980E+02  0.66457739626E+02  0.76904669834E+02  0.41800000000E+01 0.  1.
        -11    1    1    2    0    0 -0.22966556692E+02 -0.46201459624E+02 -0.84582062548E+02  0.99076550720E+02  0.00000000000E+00 0.  1.
         11    1    1    2    0    0  0.18208720162E+02  0.16378702996E+02  0.31234683694E+02  0.39691622129E+02  0.00000000000E+00 0. -1.
</event>
<event>
 7    1  0.1538147E-010  0.1301526E+03  0.7561462E-02  0.1227229E+00
         -3   -1    0    0    0  501 -0.00000000000E+00  0.00000000000E+00  0.25029661477E+02  0.25029661477E+02  0.00000000000E+00 0.  1.
          3   -1    0    0  501    0  0.00000000000E+00 -0.00000000000E+00 -0.70103376211E+03  0.70103376211E+03  0.00000000000E+00 0. -1.
         25    2    1    2    0    0  0.95907860204E+02 -0.10768963344E+02 -0.38626520514E+03  0.41733781421E+03  0.12512295651E+03 0.  0.
          5    1    3    3  502    0  0.12258430440E+03 -0.25616308542E+02 -0.28135039502E+03  0.30799127281E+03  0.41800000000E+01 0.  1.
         -5    1    3    3    0  502 -0.26676444191E+02  0.14847345198E+02 -0.10491481012E+03  0.10934654140E+03  0.41800000000E+01 0.  1.
        -11    1    1    2    0    0 -0.80597510841E+02 -0.68008538969E+01 -0.24881131570E+03  0.26162813532E+03  0.00000000000E+00 0.  1.
         11    1    1    2    0    0 -0.15310349363E+02  0.17569817241E+02 -0.40927579788E+02  0.47097474060E+02  0.00000000000E+00 0. -1.
</event>
<event>
 7    1  0.1538147E-010  0.1207408E+03  0.7561462E-02  0.1241880E+00
         -2   -1    0    0    0  501 -0.00000000000E+00  0.00000000000E+00  0.35110595598E+03  0.35110595598E+03  0.00000000000E+00 0.  1.
          2   -1    0    0  501    0  0.00000000000E+00 -0.00000000000E+00 -0.65294900452E+02  0.65294900452E+02  0.00000000000E+00 0. -1.
         25    2    1    2    0    0  0.76576859714E+02 -0.69148644736E+02  0.12497660848E+03  0.20469667103E+03  0.12504408802E+03 0.  0.
          5    1    3    3  502    0 -0.44824608779E+01  0.17089107216E+01 -0.21748745491E+02  0.22660387504E+02  0.41800000000E+01 0. -1.
         -5    1    3    3    0  502  0.81059320592E+02 -0.70857555458E+02  0.14672535397E+03  0.18203628352E+03  0.41800000000E+01 0. -1.
        -11    1    1    2    0    0 -0.19588828163E+02  0.67583114314E+02  0.47673366758E+02  0.84993819936E+02  0.00000000000E+00 0. -1.
         11    1    1    2    0    0 -0.56988031551E+02  0.15655304220E+01  0.11316108029E+03  0.12671036547E+03  0.00000000000E+00 0.  1.
</event>
<event>
 6    1  0.1538147E-010  0.9664289E+02  0.7561462E-02  0.1287518E+00
         -4   -1    0    0    0  501 -0.00000000000E+00  0.00000000000E+00  0.13062480769E+03  0.13062480769E+03  0.00000000000E+00 0.  1.
          4   -1    0    0  501    0  0.00000000000E+00 -0.00000000000E+00 -0.16298292892E+03  0.16298292892E+03  0.00000000000E+00 0. -1.
          5    1    1    2  502    0  0.44719193988E+02 -0.41194276188E+02 -0.47549868288E+00  0.60946478164E+02  0.41800000000E+01 0. -1.
         -5    1    1    2    0  502  0.20600799717E+01  0.35642279396E+02 -0.10107639437E+03  0.10727779783E+03  0.41800000000E+01 0. -1.
        -11    1    1    2    0    0 -0.70853220089E+02  0.11028839482E+02  0.27243810696E+02  0.76707491932E+02  0.00000000000E+00 0. -1.
         11    1    1    2    0    0  0.24073946130E+02 -0.54768426900E+01  0.41949961127E+02  0.48675968677E+02  0.00000000000E+00 0.  1.
</event>
<event>
 6    1  0.1538147E-010  0.1559784E+03  0.7561462E-02  0.1193313E+00
         -1   -1    0    0    0  501 -0.00000000000E+00  0.00000000000E+00  0.85323545052E+02  0.85323545052E+02  0.00000000000E+00 0.  1.
          1   -1    0    0  501    0  0.00000000000E+00 -0.00000000000E+00 -0.50758306379E+03  0.50758306379E+03  0.00000000000E+00 0. -1.
          5    1    1    2  502    0 -0.94306045466E+01  0.28080992147E+02 -0.22339317471E+03  0.22538735840E+03  0.41800000000E+01 0. -1.
         -5    1    1    2    0  502  0.50608734107E+02  0.11084299789E+03 -0.14262463804E+03  0.18763441562E+03  0.41800000000E+01 0. -1.
        -11    1    1    2    0    0 -0.55108166357E+02 -0.66493274057E+02 -0.61374233627E+02  0.10594839332E+03  0.00000000000E+00 0. -1.
         11    1    1    2    0    0  0.13930036796E+02 -0.72430715975E+02  0.51325276355E+01  0.73936441500E+02  0.00000000000E+00 0.  1.
</event>
<event>
 7    1  0.1538147E-010  0.1174213E+03  0.7561462E-02  0.1247413E+00
          2   -1    0    0  501    0  0.00000000000E+00  0.00000000000E+00  0.37061976246E+02  0.37061976246E+02  0.00000000000E+00 0.  1.
         -2   -1    0    0    0  501 -0.00000000000E+00 -0.00000000000E+00 -0.63395668553E+03  0.63395668553E+03  0.00000000000E+00 0. -1.
         25    2    1    2    0    0 -0.62505972926E+00  0.97583232594E+02 -0.50718772320E+03  0.53141678144E+03  0.12506610672E+03 0.  0.
          5    1    3    3  502    0  0.40772213270E+02  0.31348243544E+02 -0.68231355432E+02  0.85545753911E+02  0.41800000000E+01 0. -1.
         -5    1    3    3    0  502 -0.41397272999E+02  0.66234989050E+02 -0.43895636777E+03  0.44587102753E+03  0.41800000000E+01 0. -1.
        -11    1    1    2    0    0 -0.16535739658E+02 -0.22029489461E+02 -0.12588616772E+02  0.30285349002E+02  0.00000000000E+00 0.  1.
         11    1    1    2    0    0  0.17160799388E+02 -0.75553743133E+02 -0.77118369311E+02  0.10931653133E+03  0.00000000000E+00 0. -1.
</event>
<event>
 7    1  0.1538147E-010  0.2559541E+03  0.7561462E-02  0.1109599E+00
          3   -1    0    0  501    0  0.00000000000E+00  0.00000000000E+00  0.13906916985E+03  0.13906916985E+03  0.00000000000E+00 0. -1.
         -3   -1    0    0    0  501 -0.00000000000E+00 -0.00000000000E+00 -0.50202853371E+03  0.50202853371E+03  0.00000000000E+00 0.  1.
         25    2    1    2    0    0  0.21588462981E+03  0.99836906445E+02 -0.23528013205E+03  0.35718945353E+03  0.12511588190E+03 0.  0.
          5    1    3    3  502    0  0.11169077105E+03  0.11795906231E+03 -0.15204378392E+03  0.22253977925E+03  0.41800000000E+01 0. -1.
         -5    1    3    3    0  502  0.10419385876E+03 -0.18122155864E+02 -0.83236348123E+02  0.13464967428E+03  0.41800000000E+01 0. -1.
        -11    1    1    2    0    0 -0.16660208985E+03 -0.99949415206E+02 -0.13130343177E+03  0.23449250124E+03  0.00000000000E+00 0.  1.
         11    1    1    2    0    0 -0.49282539959E+02  0.11250876083E+00  0.36241999558E+01  0.49415748788E+02  0.00000000000E+00 0. -1.
</event>
<event>
 6    1  0.1538147E-010  0.1293632E+03  0.7561462E-02  0.1228404E+00
         -1   -1    0    0    0  501 -0.00000000000E+00  0.00000000000E+00  0.16954330232E+03  0.16954330232E+03  0.00000000000E+00 0.  1.
          1   -1    0    0  501    0  0.00000000000E+00 -0.00000000000E+00 -0.12949638527E+03  0.12949638527E+03  0.00000000000E+00 0. -1.
          5    1    1    2  502    0 -0.59659239843E+02 -0.41906308732E+02  0.16954592630E+02  0.74968621578E+02  0.41800000000E+01 0. -1.
         -5    1    1    2    0  502  0.64716410789E+02 -0.56472373129E+02  0.25812672135E+02  0.89783680004E+02  0.41800000000E+01 0. -1.
        -11    1    1    2    0    0 -0.99580229787E+01  0.44237370162E+02  0.43571489502E+02  0.62885466031E+02  0.00000000000E+00 0.  1.
         11    1    1    2    0    0  0.49008520318E+01  0.54141311699E+02 -0.46291837215E+02  0.71401919974E+02  0.00000000000E+00 0. -1.
</event>
<event>
 7    1  0.1538147E-010  0.9915412E+02  0.7561462E-02  0.1282085E+00
          1   -1    0    0  501    0  0.00000000000E+00  0.00000000000E+00  0.34969940013E+03  0.34969940013E+03  0.00000000000E+00 0. -1.
         -1   -1    0    0    0  501 -0.00000000000E+00 -0.00000000000E+00 -0.36853176297E+02  0.36853176297E+02  0.00000000000E+00 0.  1.
         25    2    1    2    0    0  0.10248708458E+02 -0.39337240693E+01  0.23507698101E+03  0.26649092666E+03  0.12504285978E+03 0.  0.
          5    1    3    3  502    0  0.59041652548E+02 -0.58131054981E+01  0.19280962285E+03  0.20177396263E+03  0.41800000000E+01 0. -1.
         -5    1    3    3    0  502 -0.48792944090E+02  0.18793814288E+01  0.42267358159E+02  0.64716964030E+02  0.41800000000E+01 0. -1.
        -11    1    1    2    0    0  0.39716335467E+02  0.33567582869E+01  0.23404321841E+02  0.46221395587E+02  0.00000000000E+00 0.  1.
         11    1    1    2    0    0 -0.49965043925E+02  0.57696578241E+00  0.54364920978E+02  0.73840254177E+02  0.00000000000E+00 0. -1.
</event>
<event>
 7    1  0.1538147E-010  0.2689121E+03  0.7561462E-02  0.1101904E+00
         -2   -1    0    0    0  501 -0.00000000000E+00  0.00000000000E+00  0.86878651494E+03  0.86878651494E+03  0.00000000000E+00 0.  1.
          2   -1    0    0  501    0  0.00000000000E+00 -0.00000000000E+00 -0.90752238544E+02  0.90752238544E+02  0.00000000000E+00 0. -1.
         25    2    1    2    0    0 -0.25035297390E+03  0.44445488196E+02  0.48515997867E+03  0.56186680552E+03  0.12514826918E+03 0.  0.
          5    1    3    3  502    0 -0.81013252592E+02 -0.30790391919E+02  0.87981701660E+02  0.12356960612E+03  0.41800000000E+01 0.  1.
         -5    1    3    3    0  502 -0.16933972131E+03  0.75235880115E+02  0.39717827701E+03  0.43829719940E+03  0.41800000000E+01 0.  1.
        -11    1    1    2    0    0  0.13683504063E+03 -0.63073523171E+02  0.19639093777E+03  0.24753080234E+03  0.00000000000E+00 0.  1.
         11    1    1    2    0    0  0.11351793327E+03  0.18628034975E+02  0.96483359959E+02  0.15014114563E+03  0.00000000000E+00 0. -1.
</event>
<event>
 6    1  0.1538147E-010  0.9489842E+02  0.7561462E-02  0.1291405E+00
          2   -1    0    0  501    0  0.00000000000E+00  0.00000000000E+00  0.54675934209E+02  0.54675934209E+02  0.00000000000E+00 0.  1.
         -2   -1    0    0    0  501 -0.00000000000E+00 -0.00000000000E+00 -0.38102278819E+03  0.38102278819E+03  0.00000000000E+00 0. -1.
          5    1    1    2  502    0 -0.28450686853E+02 -0.79367456886E+02 -0.75508518746E+02  0.11325918770E+03  0.41800000000E+01 0.  1.
         -5    1    1    2    0  502 -0.16862733731E+02  0.14058039537E+02 -0.18563997253E+03  0.18698035209E+03  0.41800000000E+01 0.  1.
        -11    1    1    2    0    0  0.18272119840E+02  0.46860540038E+02 -0.83853625725E+02  0.97781445701E+02  0.00000000000E+00 0. -1.
         11    1    1    2    0    0  0.27041300744E+02  0.18448877311E+02  0.18655263027E+02  0.37677736909E+02  0.00000000000E+00 0.  1.
</event>
<event>
 7    1  0.1538147E-010  0.1475967E+03  0.7561462E-02  0.1203458E+00
          4   -1    0    0  501    0  0.00000000000E+00  0.00000000000E+00  0.61679403110E+02  0.61679403110E+02  0.00000000000E+00 0. -1.
         -4   -1    0    0    0  501 -0.00000000000E+00 -0.00000000000E+00 -0.37493209343E+03  0.37493209343E+03  0.00000000000E+00 0.  1.
         25    2    1    2    0    0 -0.91812976869E+02  0.48116058518E+02 -0.13521077832E+03  0.21138805537E+03  0.12513263990E+03 0.  0.
          5    1    3    3  502    0 -0.24455962307E+02  0.81188398993E+02 -0.53380331470E+02  0.10028251299E+03  0.41800000000E+01 0.  1.
         -5    1    3    3    0  502 -0.67357014562E+02 -0.33072340475E+02 -0.81830446851E+02  0.11110554238E+03  0.41800000000E+01 0.  1.
        -11    1    1    2    0    0 -0.17045048046E+02 -0.29992182906E+01 -0.40893661640E+02  0.44405185908E+02  0.00000000000E+00 0.  1.
         11    1    1    2    0    0  0.10885802491E+03 -0.45116840228E+02 -0.13714825036E+03  0.18081825526E+03  0.00000000000E+00 0. -1.
</event>
<event>
 7    1  0.1538147E-010  0.9180733E+02  0.7561462E-02  0.1298533E+00
          1   -1    0    0  501    0  0.00000000000E+00  0.00000000000E+00  0.73584935435E+02  0.73584935435E+02  0.00000000000E+00 0. -1.
         -1   -1    0    0    0  501 -0.00000000000E+00 -0.00000000000E+00 -0.18147438187E+03  0.18147438187E+03  0.00000000000E+00 0.  1.
         25    2    1    2    0    0 -0.37129774562E+02 -0.15858832083E+01 -0.75926161438E+02  0.15094322103E+03  0.12505174448E+03 0.  0.
          5    1    3    3  502    0  0.16487109337E+02  0.50895363686E+02 -0.43598959118E+02  0.69141192174E+02  0.41800000000E+01 0.  1.
         -5    1    3    3    0  502 -0.53616883899E+02 -0.52481246895E+02 -0.32327202320E+02  0.81802028853E+02  0.41800000000E+01 0.  1.
        -11    1    1    2    0    0 -0.46045895384E+01  0.11088502325E+02  0.27987201810E+02  0.30453909335E+02  0.00000000000E+00 0. -1.
         11    1    1    2    0    0  0.41734364100E+02 -0.95026191162E+01 -0.59950486810E+02  0.73662186946E+02  0.00000000000E+00 0.  1.
</event>
<event>
 7    1  0.1538147E-010  0.1693549E+03  0.7561462E-02  0.1178522E+00
         -2   -1    0    0    0  501 -0.00000000000E+00  0.00000000000E+00  0.33008301580E+02  0.33008301580E+02  0.00000000000E+00 0.  1.
          2   -1    0    0  501    0  0.00000000000E+00 -0.00000000000E+00 -0.10985099809E+04  0.10985099809E+04  0.00000000000E+00 0. -1.
         25    2    1    2    0    0 -0.77393371998E+02  0.13535900194E+03 -0.52212901867E+03  0.55907918772E+03  0.12505611769E+03 0.  0.
          5    1    3    3  502    0  0.32632003588E+01  0.33535386984E+01 -0.21569288576E+03  0.21578412376E+03  0.41800000000E+01 0. -1.
         -5    1    3    3    0  502 -0.80656572356E+02  0.13200546324E+03 -0.30643613290E+03  0.34329506396E+03  0.41800000000E+01 0. -1.
        -11    1    1    2    0    0 -0.13004079375E+01  0.11230788763E+02 -0.17152813754E+02  0.20543629103E+02  0.00000000000E+00 0.  1.
         11    1    1    2    0    0  0.78693779935E+02 -0.14658979070E+03 -0.52621984688E+03  0.55189546563E+03  0.00000000000E+00 0. -1.
</event>
<event>
 7    1  0.1538147E-010  0.1290999E+03  0.7561462E-02  0.1228797E+00
          1   -1    0    0  501    0  0.00000000000E+00  0.00000000000E+00  0.27194978155E+03  0.27194978155E+03  0.00000000000E+00 0. -1.
         -1   -1    0    0    0  501 -0.00000000000E+00 -0.00000000000E+00 -0.93141208142E+02  0.93141208142E+02  0.00000000000E+00 0.  1.
         25    2    1    2    0    0  0.84556814225E+02 -0.75425979089E+02  0.65899518732E+02  0.18117180602E+03  0.12506615678E+03 0.  0.
          5    1    3    3  502    0  0.18574866844E+01 -0.61776468863E+01 -0.33537850063E+02  0.34407460887E+02  0.41800000000E+01 0. -1.
         -5    1    3    3    0  502  0.82699327540E+02 -0.69248332202E+02  0.99437368795E+02  0.14676434513E+03  0.41800000000E+01 0. -1.
        -11    1    1    2    0    0 -0.20468890847E+02 -0.19344063185E+02  0.37495146277E+02  0.46894074971E+02  0.00000000000E+00 0.  1.
         11    1    1    2    0    0 -0.64087923377E+02  0.94770042274E+02  0.75413908398E+02  0.13702510870E+03  0.00000000000E+00 0. -1.
</event>
<event>
 6    1  0.1538147E-010  0.1093138E+03  0.7561462E-02  0.1261846E+00
         -1   -1    0    0    0  501 -0.00000000000E+00  0.00000000000E+00  0.72105136904E+02  0.72105136904E+02  0.00000000000E+00 0.  1.
          1   -1    0    0  501    0  0.00000000000E+00 -0.00000000000E+00 -0.32090189076E+03  0.32090189076E+03  0.00000000000E+00 0. -1.
          5    1    1    2  502    0 -0.33813978933E+02 -0.30251235561E+02 -0.19776280412E+02  0.49669871061E+02  0.41800000000E+01 0.  1.
         -5    1    1    2    0  502 -0.32765399850E+02  0.65502621508E+02 -0.21036449712E+03  0.22278882131E+03  0.41800000000E+01 0.  1.
        -11    1    1    2    0    0  0.52664151361E+02  0.89014139518E+01  0.23111989310E+02  0.58197182567E+02  0.00000000000E+00 0.  1.
         11    1    1    2    0    0  0.13915227422E+02 -0.44152799899E+02 -0.41767965634E+02  0.62351152726E+02  0.00000000000E+00 0. -1.
</event>
<event>
 7    1  0.1538147E-010  0.1513314E+03  0.7561462E-02  0.1198846E+00
         -1   -1    0    0    0  501 -0.00000000000E+00  0.00000000000E+00  0.73541703195E+02  0.73541703195E+02  0.00000000000E+00 0.  1.
          1   -1    0    0  501    0  0.00000000000E+00 -0.00000000000E+00 -0.51679148432E+03  0.51679148432E+03  0.00000000000E+00 0. -1.
         25    2    1    2    0    0 -0.40650094971E+02 -0.10951201386E+03 -0.63216828875E+02  0.18246908140E+03  0.12511309609E+03 0.  0.
          5    1    3    3  502    0  0.21654202535E+02 -0.84474228892E+02 -0.73857814154E+02  0.11435579979E+03  0.41800000000E+01 0.  1.
         -5    1    3    3    0  502 -0.62304297505E+02 -0.25037784965E+02  0.10640985279E+02  0.68113281607E+02  0.41800000000E+01 0.  1.
        -11    1    1    2    0    0  0.62234357829E+02  0.11011803448E+03 -0.32515450752E+03  0.34889045641E+03  0.00000000000E+00 0. -1.
         11    1    1    2    0    0 -0.21584262859E+02 -0.60602062038E+00 -0.54878444728E+02  0.58973649709E+02  0.00000000000E+00 0.  1.
</event>
<event>
 7    1  0.1538147E-010  0.1405043E+03  0.7561462E-02  0.1212652E+00
          1   -1    0    0  501    0  0.00000000000E+00  0.00000000000E+00  0.51744833931E+03  0.51744833931E+03  0.00000000000E+00 0. -1.
         -1   -1    0    0    0  501 -0.00000000000E+00 -0.00000000000E+00 -0.96393095093E+02  0.96393095093E+02  0.00000000000E+00 0.  1.
         25    2    1    2    0    0  0.10085074176E+03 -0.42404913883E+02  0.44005589584E+03  0.47039849911E+03  0.12512596721E+03 0.  0.
          5    1    3    3  502    0  0.55658122691E+02 -0.70975043331E+02  0.37680457801E+03  0.38747186454E+03  0.41800000000E+01 0. -1.
         -5    1    3    3    0  502  0.45192619069E+02  0.28570129448E+02  0.63251317825E+02  0.82926634573E+02  0.41800000000E+01 0. -1.
        -11    1    1    2    0    0 -0.11015343636E+03  0.18841214648E+02 -0.30173590453E+02  0.11575498465E+03  0.00000000000E+00 0.  1.
         11    1    1    2    0    0  0.93026945983E+01  0.23563699235E+02  0.11172938829E+02  0.27687950638E+02  0.00000000000E+00 0. -1.
</event>
<event>
 7    1  0.1538147E-010  0.8958682E+02  0.7561462E-02  0.1303855E+00
         -1   -1    0    0    0  501 -0.00000000000E+00  0.00000000000E+00  0.29074177921E+03  0.29074177921E+03  0.00000000000E+00 0.  1.
          1   -1    0    0  501    0  0.00000000000E+00 -0.00000000000E+00 -0.54309682460E+02  0.54309682460E+02  0.00000000000E+00 0. -1.
         25    2    1    2    0    0 -0.28595338324E+02 -0.52501560069E+02  0.16020688464E+03  0.21183436354E+03  0.12503377347E+03 0.  0.
          5    1    3    3  502    0 -0.51275269817E+02 -0.31337402988E+01  0.14699172107E+03  0.15576588871E+03  0.41800000000E+01 0.  1.
         -5    1    3    3    0  502  0.22679931493E+02 -0.49367819770E+02  0.13215163568E+02  0.56068474828E+02  0.41800000000E+01 0.  1.
        -11    1    1    2    0    0 -0.39833014742E+01  0.36735880591E+02  0.87767085840E+02  0.95228425222E+02  0.00000000000E+00 0.  1.
         11    1    1    2    0    0  0.32578639798E+02  0.15765679477E+02 -0.11541873725E+02  0.37988672911E+02  0.00000000000E+00 0. -1.
</event>
<event>
 6    1  0.1538147E-010  0.1339945E+03  0.7561462E-02  0.1221646E+00
          1   -1    0    0  501    0  0.00000000000E+00  0.00000000000E+00  0.84207482827E+02  0.84207482827E+02  0.00000000000E+00 0. -1.
         -1   -1    0    0    0  501 -0.00000000000E+00 -0.00000000000E+00 -0.27028725765E+03  0.27028725765E+03  0.00000000000E+00 0.  1.
          5    1    1    2  502    0  0.35076678347E+02 -0.22765183002E+02 -0.20798512140E+02  0.46890056816E+02  0.41800000000E+01 0. -1.
         -5    1    1    2    0  502  0.23300105396E+01  0.12046482253E+03 -0.85783124854E+02  0.14796425016E+03  0.41800000000E+01 0. -1.
        -11    1    1    2    0    0 -0.75721568566E+01 -0.86826678553E+01  0.19849599970E+02  0.22950662289E+02  0.00000000000E+00 0. -1.
         11    1    1    2    0    0 -0.29834532030E+02 -0.89016971674E+02 -0.99347737797E+02  0.13668977121E+03  0.00000000000E+00 0.  1.
</event>
<event>
 7    1  0.1538147E-010  0.8801761E+02  0.7561462E-02  0.1307725E+00
          2   -1    0    0  501    0  0.00000000000E+00  0.00000000000E+00  0.39177328919E+03  0.39177328919E+03  0.00000000000E+00 0. -1.
         -2   -1    0    0    0  501 -0.00000000000E+00 -0.00000000000E+00 -0.32449401899E+02  0.32449401899E+02  0.00000000000E+00 0.  1.
         25    2    1    2    0    0 -0.58024694850E+01 -0.34883787479E+02  0.21037346044E+03  0.24728094130E+03  0.12506128015E+03 0.  0.
          5    1    3    3  502    0  0.33932194195E+02 -0.12163577555E+02  0.47669555561E+01  0.36599763484E+02  0.41800000000E+01 0. -1.
         -5    1    3    3    0  502 -0.39734663680E+02 -0.22720209925E+02  0.20560650488E+03  0.21068117782E+03  0.41800000000E+01 0. -1.
        -11    1    1    2    0    0 -0.19218971541E+02  0.57147430454E+02  0.78929880289E+02  0.99323328967E+02  0.00000000000E+00 0.  1.
         11    1    1    2    0    0  0.25021441025E+02 -0.22263642975E+02  0.70020546564E+02  0.77618420820E+02  0.00000000000E+00 0. -1.
</event>
<event>
 7    1  0.1538147E-010  0.1071988E+03  0.7561462E-02  0.1265847E+00
         -3   -1    0    0    0  501 -0.00000000000E+00  0.00000000000E+00  0.52452031816E+02  0.52452031816E+02  0.00000000000E+00 0. -1.
          3   -1    0    0  501    0  0.00000000000E+00 -0.00000000000E+00 -0.29247638442E+03  0.29247638442E+03  0.00000000000E+00 0.  1.
         25    2    1    2    0    0  0.49470048816E+02  0.34961548475E+02 -0.12074433105E+03  0.18407822901E+03  0.12504401351E+03 0.  0.
          5    1    3    3  502    0 -0.33660891649E+02 -0.96957979544E+01 -0.65523029347E+01  0.35881321022E+02  0.41800000000E+01 0.  1.
         -5    1    3    3    0  502  0.83130940464E+02  0.44657346429E+02 -0.11419202811E+03  0.14819690799E+03  0.41800000000E+01 0.  1.
        -11    1    1    2    0    0 -0.30989668362E+02 -0.51339253272E+02 -0.12206564759E+03  0.13600037056E+03  0.00000000000E+00 0.  1.
         11    1    1    2    0    0 -0.18480380453E+02  0.16377704798E+02  0.27856260267E+01  0.24849816669E+02  0.00000000000E+00 0. -1.
</event>
<event>
 6    1  0.1538147E-010  0.1060444E+03  0.7561462E-02  0.1268076E+00
          2   -1    0    0  501    0  0.00000000000E+00  0.00000000000E+00  0.26969010689E+03  0.26969010689E+03  0.00000000000E+00 0. -1.
         -2   -1    0    0    0  501 -0.00000000000E+00 -0.00000000000E+00 -0.80487199989E+02  0.80487199989E+02  0.00000000000E+00 0.  1.
          5    1    1    2  502    0 -0.22457948330E+02 -0.28389094058E+02 -0.20374225895E+02  0.41747833302E+02  0.41800000000E+01 0. -1.
         -5    1    1    2    0  502  0.62868489246E+02  0.67081904835E+02  0.25514472106E+02  0.95503348545E+02  0.41800000000E+01 0. -1.
        -11    1    1    2    0    0 -0.21529364459E+02 -0.54750883975E+02  0.51878633421E+02  0.78438290622E+02  0.00000000000E+00 0.  1.
         11    1    1    2    0    0 -0.18881176457E+02  0.16058073197E+02  0.13218402727E+03  0.13448783441E+03  0.00000000000E+00 0. -1.
</event>
<event>
 6    1  0.1538147E-010  0.1456061E+03  0.7561462E-02  0.1205979E+00
         -2   -1    0    0    0  501 -0.00000000000E+00  0.00000000000E+00  0.14832058742E+03  0.14832058742E+03  0.00000000000E+00 0.  1.
          2   -1    0    0  501    0  0.00000000000E+00 -0.00000000000E+00 -0.22024225365E+03  0.22024225365E+03  0.00000000000E+00 0. -1.
          5    1    1    2  502    0 -0.39123335749E+01 -0.15646176877E+02  0.13649352098E+02  0.21538022601E+02  0.41800000000E+01 0.  1.
         -5    1    1    2    0  502 -0.37244165970E+02  0.12815891711E+03 -0.13327850900E+03  0.18865966525E+03  0.41800000000E+01 0.  1.
        -11    1    1    2    0    0 -0.18684555666E+02 -0.54762262781E+02  0.48033977645E+02  0.75201602734E+02  0.00000000000E+00 0.  1.
         11    1    1    2    0    0  0.59841055210E+02 -0.57750477453E+02 -0.32648697150E+00  0.83163550480E+02  0.00000000000E+00 0. -1.
</event>
<event>
 7    1  0.1538147E-010  0.1309957E+03  0.7561462E-02  0.1225986E+00
         -3   -1    0    0    0  501 -0.00000000000E+00  0.00000000000E+00  0.14545369923E+03  0.14545369923E+03  0.00000000000E+00 0.  1.
          3   -1    0    0  501    0  0.00000000000E+00 -0.00000000000E+00 -0.14442520228E+03  0.14442520228E+03  0.00000000000E+00 0. -1.
         25    2    1    2    0    0 -0.65990392243E+02 -0.65570016105E+02 -0.20898732264E+02  0.15730414023E+03  0.12511465399E+03 0.  0.
          5    1    3    3  502    0 -0.65209770249E+02 -0.93205050649E+02  0.11617066065E+02  0.11441994680E+03  0.41800000000E+01 0.  1.
         -5    1    3    3    0  502 -0.78062199398E+00  0.27635034543E+02 -0.32515798329E+02  0.42884193427E+02  0.41800000000E+01 0.  1.
        -11    1    1    2    0    0 -0.11304189544E+02  0.35514189844E+02 -0.16996184114E+02  0.40962332159E+02  0.00000000000E+00 0. -1.
         11    1    1    2    0    0  0.77294581787E+02  0.30055826261E+02  0.38923413327E+02  0.91612429129E+02  0.00000000000E+00 0.  1.
</event>
<event>
 7    1  0.1538147E-010  0.1402525E+03  0.7561462E-02  0.1212990E+00
         -3   -1    0    0    0  501 -0.00000000000E+00  0.00000000000E+00  0.37824869092E+03  0.37824869092E+03  0.00000000000E+00 0.  1.
          3   -1    0    0  501    0  0.00000000000E+00 -0.00000000000E+00 -0.60419060345E+02  0.60419060345E+02  0.00000000000E+00 0. -1.
         25    2    1    2    0    0  0.39507810638E+02 -0.86279038767E+02  0.23136543671E+03  0.27959710347E+03  0.12505852764E+03 0.  0.
          5    1    3    3  502    0  0.73142073127E+02 -0.96316753653E+02  0.16811688382E+03  0.20714110871E+03  0.41800000000E+01 0.  1.
         -5    1    3    3    0  502 -0.33634262489E+02  0.10037714886E+02  0.63248552894E+02  0.72455994759E+02  0.41800000000E+01 0.  1.
        -11    1    1    2    0    0 -0.62621444331E+02  0.76969495705E+02  0.89927568718E+02  0.13391309187E+03  0.00000000000E+00 0.  1.
         11    1    1    2    0    0  0.23113633693E+02  0.93095430624E+01 -0.34633748521E+01  0.25157555921E+02  0.00000000000E+00 0. -1.
</event>
<event>
 7    1  0.1538147E-010  0.1016292E+03  0.7561462E-02  0.1276907E+00
          2   -1    0    0  501    0  0.00000000000E+00  0.00000000000E+00  0.52654410000E+02  0.52654410000E+02  0.00000000000E+00 0. -1.
         -2   -1    0    0    0  501 -0.00000000000E+00 -0.00000000000E+00 -0.26267567471E+03  0.26267567471E+03  0.00000000000E+00 0.  1.
         25    2    1    2    0    0  0.17866394966E+01 -0.12451487903E+00 -0.18008887917E+03  0.21929029403E+03  0.12511203408E+03 0.  0.
          5    1    3    3  502    0  0.37268757481E-01  0.62341334627E+02 -0.91550659065E+02  0.11083969942E+03  0.41800000000E+01 0. -1.
         -5    1    3    3    0  502  0.17493707391E+01 -0.62465849506E+02 -0.88538220104E+02  0.10845059461E+03  0.41800000000E+01 0. -1.
        -11    1    1    2    0    0  0.35959978262E+02 -0.12919370872E+02  0.10069184024E+02  0.39514790234E+02  0.00000000000E+00 0. -1.
         11    1    1    2    0    0 -0.37746617758E+02  0.13043885751E+02 -0.40001569566E+02  0.56525000446E+02  0.00000000000E+00 0.  1.
</event>
<event>
 7    1  0.1538147E-010  0.1093494E+03  0.7561462E-02  0.1261779E+00
          1   -1    0    0  501    0  0.00000000000E+00  0.00000000000E+00  0.50515975173E+02  0.50515975173E+02  0.00000000000E+00 0. -1.
         -1   -1    0    0    0  501 -0.00000000000E+00 -0.00000000000E+00 -0.26677084628E+03  0.26677084628E+03  0.00000000000E+00 0.  1.
         25    2    1    2    0    0  0.42050103169E+02 -0.11252695218E+02 -0.13754613822E+03  0.19093140150E+03  0.12506408603E+03 0.  0.
          5    1    3    3  502    0  0.83402853365E+02 -0.23972870355E+02 -0.10687452873E+03  0.13773297264E+03  0.41800000000E+01 0. -1.
         -5    1    3    3    0  502 -0.41352750197E+02  0.12720175137E+02 -0.30671609496E+02  0.53198428862E+02  0.41800000000E+01 0. -1.
        -11    1    1    2    0    0 -0.55606938861E+02 -0.16043157016E+02 -0.21885198816E+02  0.61874683544E+02  0.00000000000E+00 0. -1.
         11    1    1    2    0    0  0.13556835692E+02  0.27295852234E+02 -0.56823534074E+02  0.64480736408E+02  0.00000000000E+00 0.  1.
</event>
<event>
 7    1  0.1538147E-010  0.1686256E+03  0.7561462E-02  0.1179289E+00
          2   -1    0    0  501    0  0.00000000000E+00  0.00000000000E+00  0.25339001521E+03  0.25339001521E+03  0.00000000000E+00 0. -1.
         -2   -1    0    0    0  501 -0.00000000000E+00 -0.00000000000E+00 -0.12695728454E+03  0.12695728454E+03  0.00000000000E+00 0.  1.
         25    2    1    2    0    0 -0.12084633323E+03  0.52391324836E+02  0.62240279927E+02  0.19203011896E+03  0.12511205765E+03 0.  0.
          5    1    3    3  502    0 -0.12046791403E+03  0.78894366957E+02  0.25136293584E+02  0.14624002565E+03  0.41800000000E+01 0.  1.
         -5    1    3    3    0  502 -0.37841920851E+00 -0.26503042121E+02  0.37103986343E+02  0.45790093310E+02  0.41800000000E+01 0.  1.
        -11    1    1    2    0    0  0.12546218498E+03 -0.12373103357E+02  0.18530080405E+02  0.12742534060E+03  0.00000000000E+00 0.  1.
         11    1    1    2    0    0 -0.46158517446E+01 -0.40018221479E+02  0.45662370338E+02  0.60891840196E+02  0.00000000000E+00 0. -1.
</event>
<event>
 7    1  0.1538147E-010  0.9670520E+02  0.7561462E-02  0.1287381E+00
          1   -1    0    0  501    0  0.00000000000E+00  0.00000000000E+00  0.51443452262E+02  0.51443452262E+02  0.00000000000E+00 0. -1.
         -1   -1    0    0    0  501 -0.00000000000E+00 -0.00000000000E+00 -0.34796187257E+03  0.34796187257E+03  0.00000000000E+00 0.  1.
         25    2    1    2    0    0 -0.32777299940E+02 -0.66635513306E+02 -0.19695307244E+03  0.24483901154E+03  0.12506392685E+03 0.  0.
          5    1    3    3  502    0  0.22239628435E-01 -0.42409514323E+02 -0.19927751977E+03  0.20378314377E+03  0.41800000000E+01 0. -1.
         -5    1    3    3    0  502 -0.32799539568E+02 -0.24225998984E+02  0.23244473253E+01  0.41055867766E+02  0.41800000000E+01 0. -1.
        -11    1    1    2    0    0  0.43693003046E+02  0.14550686492E+01 -0.69161377346E+02  0.81819874458E+02  0.00000000000E+00 0. -1.
         11    1    1    2    0    0 -0.10915703106E+02  0.65180444657E+02 -0.30403970514E+02  0.72746438834E+02  0.00000000000E+00 0.  1.
</event>
<event>
 7    1  0.2554574E-010  0.1347746E+03  0.7561462E-02  0.1220538E+00
         -2   -1    0    0    0  501 -0.00000000000E+00  0.00000000000E+00  0.14437035101E+02  0.14437035101E+02  0.00000000000E+00 0.  1.
          2   -1    0    0  501    0  0.00000000000E+00 -0.00000000000E+00 -0.28887780416E+04  0.28887780416E+04  0.00000000000E+00 0. -1.
         25    2    1    2    0    0 -0.77799840775E+02  0.55174711353E+02 -0.25218596959E+04  0.25267598475E+04  0.12506773060E+03 0.  0.
          5    1    3    3  502    0  0.83604685508E+01 -0.22992509606E+02 -0.10537291539E+04  0.10540214206E+04  0.41800000000E+01 0.  1.
         -5    1    3    3    0  502 -0.86160309325E+02  0.78167220959E+02 -0.14681305420E+04  0.14727384269E+04  0.41800000000E+01 0.  1.
        -11    1    1    2    0    0  0.11927818682E+02  0.23111125486E+02 -0.40551903485E+02  0.48175241110E+02  0.00000000000E+00 0.  1.
         11    1    1    2    0    0  0.65872022093E+02 -0.78285836840E+02 -0.31192940709E+03  0.32827998804E+03  0.00000000000E+00 0. -1.
</event>
<event>
 7    1  0.1538147E-010  0.1449391E+03  0.7561462E-02  0.1206833E+00
         -3   -1    0    0    0  501 -0.00000000000E+00  0.00000000000E+00  0.67803982600E+03  0.67803982600E+03  0.00000000000E+00 0.  1.
          3   -1    0    0  501    0  0.00000000000E+00 -0.00000000000E+00 -0.33863063939E+02  0.33863063939E+02  0.00000000000E+00 0. -1.
         25    2    1    2    0    0  0.27760703906E+02  0.95229624976E+02  0.27063972893E+03  0.31420180315E+03  0.12505027818E+03 0.  0.
          5    1    3    3  502    0  0.52825694118E+02  0.11492263304E+03  0.20135134582E+03  0.23781842319E+03  0.41800000000E+01 0. -1.
         -5    1    3    3    0  502 -0.25064990213E+02 -0.19693008062E+02  0.69288383101E+02  0.76383379956E+02  0.41800000000E+01 0. -1.
        -11    1    1    2    0    0 -0.54812832456E+02 -0.34686294788E+02  0.23991855515E+03  0.24853269152E+03  0.00000000000E+00 0.  1.
         11    1    1    2    0    0  0.27052128550E+02 -0.60543330188E+02  0.13361847798E+03  0.14916839527E+03  0.00000000000E+00 0. -1.
</event>
<event>
 7    1  0.1538147E-010  0.1089611E+03  0.7561462E-02  0.1262506E+00
          2   -1    0    0  501    0  0.00000000000E+00  0.00000000000E+00  0.12792652368E+03  0.12792652368E+03  0.00000000000E+00 0.  1.
         -2   -1    0    0    0  501 -0.00000000000E+00 -0.00000000000E+00 -0.12734322122E+03  0.12734322122E+03  0.00000000000E+00 0. -1.
         25    2    1    2    0    0  0.46624232469E-01 -0.41514801441E+02 -0.51622163701E+02  0.14150947541E+03  0.12504640313E+03 0.  0.
          5    1    3    3  502    0  0.16456382048E+02  0.34852638837E+02  0.12104701738E+02  0.40614223471E+02  0.41800000000E+01 0. -1.
         -5    1    3    3    0  502 -0.16409757816E+02 -0.76367440278E+02 -0.63726865438E+02  0.10089525194E+03  0.41800000000E+01 0. -1.
        -11    1    1    2    0    0  0.18945364937E+02 -0.25221974347E+02  0.19146636243E+02  0.36900792972E+02  0.00000000000E+00 0. -1.
         11    1    1    2    0    0 -0.18991989169E+02  0.66736775788E+02  0.33058829912E+02  0.76859476516E+02  0.00000000000E+00 0.  1.
</event>
<event>
 6    1  0.1538147E-010  0.9637004E+02  0.7561462E-02  0.1288120E+00
         -2   -1    0    0    0  501 -0.00000000000E+00  0.00000000000E+00  0.61685295042E+02  0.61685295042E+02  0.00000000000E+00 0.  1.
          2   -1    0    0  501    0  0.00000000000E+00 -0.00000000000E+00 -0.27087770937E+03  0.27087770937E+03  0.00000000000E+00 0. -1.
          5    1    1    2  502    0  0.28839230871E+02 -0.35223393269E+01 -0.15432418494E+03  0.15709084814E+03  0.41800000000E+01 0. -1.
         -5    1    1    2    0  502 -0.22857053858E+01 -0.52809984158E+02 -0.25177347250E+01  0.53084180921E+02  0.41800000000E+01 0. -1.
        -11    1    1    2    0    0 -0.37116261267E+02 -0.13680951541E+02 -0.22849559425E+02  0.45682465470E+02  0.00000000000E+00 0.  1.
         11    1    1    2    0    0  0.10562735782E+02  0.70013275026E+02 -0.29500935245E+02  0.76705509889E+02  0.00000000000E+00 0. -1.
</event>
<event>
 6    1  0.1538147E-010  0.1462861E+03  0.7561462E-02  0.1205112E+00
         -1   -1    0    0    0  501 -0.00000000000E+00  0.00000000000E+00  0.27624539000E+02  0.27624539000E+02  0.00000000000E+00 0.  1.
          1   -1    0    0  501    0  0.00000000000E+00 -0.00000000000E+00 -0.10511755160E+04  0.10511755160E+04  0.00000000000E+00 0. -1.
          5    1    1    2  502    0  0.27100318923E+02 -0.83065477331E+02 -0.40244082826E+03  0.41183782422E+03  0.41800000000E+01 0.  1.
         -5    1    1    2    0  502  0.44076612867E+02 -0.21387096840E+02 -0.34858291546E+02  0.60272121271E+02  0.41800000000E+01 0.  1.
        -11    1    1    2    0    0 -0.53567427912E+02  0.12064699815E+03 -0.50729928781E+03  0.52419245980E+03  0.00000000000E+00 0. -1.
         11    1    1    2    0    0 -0.17609503878E+02 -0.16194423980E+02 -0.78952569368E+02  0.82497649692E+02  0.00000000000E+00 0.  1.
</event>
<event>
 7    1  0.1538147E-010  0.2163011E+03  0.7561462E-02  0.1136671E+00
         -1   -1    0    0    0  501 -0.00000000000E+00  0.00000000000E+00  0.56649104784E+03  0.56649104784E+03  0.00000000000E+00 0.  1.
          1   -1    0    0  501    0  0.00000000000E+00 -0.00000000000E+00 -0.87679660286E+02  0.87679660286E+02  0.00000000000E+00 0. -1.
         25    2    1    2    0    0 -0.18901019496E+03  0.47384140643E+02  0.25305677730E+03  0.34299769916E+03  0.12505830046E+03 0.  0.
          5    1    3    3  502    0 -0.17391474033E+03  0.73553635628E+02  0.16851576332E+03  0.25312350563E+03  0.41800000000E+01 0.  1.
         -5    1    3    3    0  502 -0.15095454631E+02 -0.26169494985E+02  0.84541013978E+02  0.89874193530E+02  0.41800000000E+01 0.  1.
        -11    1    1    2    0    0  0.17271133286E+03 -0.69146296767E+02  0.18652613788E+03  0.26344338095E+03  0.00000000000E+00 0. -1.
         11    1    1    2    0    0  0.16298862097E+02  0.21762156123E+02  0.39228472382E+02  0.47729628013E+02  0.00000000000E+00 0.  1.
</event>
<event>
 7    1  0.1538147E-010  0.1142260E+03  0.7561462E-02  0.1252938E+00
         -2   -1    0    0    0  501 -0.00000000000E+00  0.00000000000E+00  0.52977557463E+02  0.52977557463E+02  0.00000000000E+00 0.  1.
          2   -1    0    0  501    0  0.00000000000E+00 -0.00000000000E+00 -0.28721650692E+03  0.28721650692E+03  0.00000000000E+00 0. -1.
         25    2    1    2    0    0  0.55780646157E+02 -0.80832996947E+01 -0.14984569346E+03  0.20320149445E+03  0.12514110148E+03 0.  0.
          5    1    3    3  502    0 -0.22185457953E+02  0.28791810576E+02 -0.84905700706E+01  0.37559620352E+02  0.41800000000E+01 0.  1.
         -5    1    3    3    0  502  0.77966104110E+02 -0.36875110271E+02 -0.14135512339E+03  0.16564187410E+03  0.41800000000E+01 0.  1.
        -11    1    1    2    0    0 -0.80318588192E+02  0.25308470298E+01 -0.50974028648E+02  0.95162137389E+02  0.00000000000E+00 0.  1.
         11    1    1    2    0    0  0.24537942035E+02  0.55524526648E+01 -0.33419227352E+02  0.41830432543E+02  0.00000000000E+00 0. -1.
</event>
<event>
 7    1  0.1538147E-010  0.1108409E+03  0.7561462E-02  0.1259021E+00
          1   -1    0    0  501    0  0.00000000000E+00  0.00000000000E+00  0.20196156745E+03  0.20196156745E+03  0.00000000000E+00 0. -1.
         -1   -1    0    0    0  501 -0.00000000000E+00 -0.00000000000E+00 -0.24555994949E+03  0.24555994949E+03  0.00000000000E+00 0.  1.
         25    2    1    2    0    0 -0.12532840255E+02 -0.40594673787E+02  0.16769352402E+03  0.21349906881E+03  0.12512287864E+03 0.  0.
          5    1    3    3  502    0 -0.61449484056E+02 -0.42262845572E+02  0.62479858622E+02  0.97382710683E+02  0.41800000000E+01 0.  1.
         -5    1    3    3    0  502  0.48916643801E+02  0.16681717844E+01  0.10521366540E+03  0.11611635812E+03  0.41800000000E+01 0.  1.
        -11    1    1    2    0    0 -0.14960499339E+02  0.61518573743E+02 -0.16104969105E+03  0.17304726072E+03  0.00000000000E+00 0.  1.
         11    1    1    2    0    0  0.27493339595E+02 -0.20923899955E+02 -0.50242215007E+02  0.60975187415E+02  0.00000000000E+00 0. -1.
</event>
<event>
 7    1  0.1538147E-010  0.1377076E+03  0.7561462E-02  0.1216447E+00
         -4   -1    0    0    0  501 -0.00000000000E+00  0.00000000000E+00  0.41324666553E+03  0.41324666553E+03  0.00000000000E+00 0. -1.
          4   -1    0    0  501    0  0.00000000000E+00 -0.00000000000E+00 -0.60401830312E+02  0.60401830312E+02  0.00000000000E+00 0.  1.
         25    2    1    2    0    0  0.10861931166E+03  0.39465474978E+01  0.12976453457E+03  0.21045825525E+03  0.12506043606E+03 0.  0.
          5    1    3    3  502    0 -0.22314666151E+02  0.32201770431E+01 -0.39469703428E+01  0.23267248237E+02  0.41800000000E+01 0. -1.
         -5    1    3    3    0  502  0.13093397781E+03  0.72637045467E+00  0.13371150492E+03  0.18719100701E+03  0.41800000000E+01 0. -1.
        -11    1    1    2    0    0 -0.63986553708E+02  0.24543036518E+02  0.57854296916E+02  0.89687007803E+02  0.00000000000E+00 0.  1.
         11    1    1    2    0    0 -0.44632757953E+02 -0.28489584015E+02  0.16522600373E+03  0.17350323279E+03  0.00000000000E+00 0. -1.
</event>
<event>
 6    1  0.1538147E-010  0.1015781E+03  0.7561462E-02  0.1277012E+00
          3   -1    0    0  501    0  0.00000000000E+00  0.00000000000E+00  0.28199766151E+03  0.28199766151E+03  0.00000000000E+00 0. -1.
         -3   -1    0    0    0  501 -0.00000000000E+00 -0.00000000000E+00 -0.63184669009E+02  0.63184669009E+02  0.00000000000E+00 0.  1.
          5    1    1    2  502    0 -0.14011984205E+02  0.10572327723E+02 -0.10142437850E+02  0.20699064239E+02  0.41800000000E+01 0. -1.
         -5    1    1    2    0  502  0.22502636738E+02 -0.73657051743E+02  0.19150302610E+03  0.20645244328E+03  0.41800000000E+01 0. -1.
        -11    1    1    2    0    0 -0.26622948389E+02 -0.13097957936E+02  0.24871230240E+02  0.38715836252E+02  0.00000000000E+00 0. -1.
         11    1    1    2    0    0  0.18132295856E+02  0.76182681956E+02  0.12581174010E+02  0.79314986746E+02  0.00000000000E+00 0.  1.
</event>
<event>
 7    1  0.1538147E-010  0.1366458E+03  0.7561462E-02  0.1217915E+00
         -1   -1    0    0    0  501 -0.00000000000E+00  0.00000000000E+00  0.27465451308E+03  0.27465451308E+03  0.00000000000E+00 0.  1.
          1   -1    0    0  501    0  0.00000000000E+00 -0.00000000000E+00 -0.11078848117E+03  0.11078848117E+03  0.00000000000E+00 0. -1.
         25    2    1    2    0    0 -0.11488252865E+03  0.47685531570E+02  0.25373834899E+02  0.17824250250E+03  0.12511855534E+03 0.  0.
          5    1    3    3  502    0 -0.21908923979E+02  0.48187166554E+02 -0.38305347254E+02  0.65473475536E+02  0.41800000000E+01 0.  1.
         -5    1    3    3    0  502 -0.92973604666E+02 -0.50163498416E+00  0.63679182153E+02  0.11276902696E+03  0.41800000000E+01 0.  1.
        -11    1    1    2    0    0  0.62885688645E+02 -0.11897115352E+02  0.12814050853E+03  0.14323456676E+03  0.00000000000E+00 0.  1.
         11    1    1    2    0    0  0.51996840001E+02 -0.35788416218E+02  0.10351688485E+02  0.63965924991E+02  0.00000000000E+00 0. -1.
</event>
<event>
 6    1  0.1538147E-010  0.1016302E+03  0.7561462E-02  0.1276905E+00
          2   -1    0    0  501    0  0.00000000000E+00  0.00000000000E+00  0.64285519481E+03  0.64285519481E+03  0.00000000000E+00 0.  1.
         -2   -1    0    0    0  501 -0.00000000000E+00 -0.00000000000E+00 -0.19435268255E+02  0.19435268255E+02  0.00000000000E+00 0. -1.
          5    1    1    2  502    0  0.28821950940E+02 -0.48899365487E+02  0.99783169857E+02  0.11487387078E+03  0.41800000000E+01 0. -1.
         -5    1    1    2    0  502 -0.39015295842E+01  0.60743522769E+02  0.25841108716E+03  0.26551602561E+03  0.41800000000E+01 0. -1.
        -11    1    1    2    0    0 -0.13342078796E+02  0.34801930776E+02  0.18214911627E+03  0.18592333369E+03  0.00000000000E+00 0.  1.
         11    1    1    2    0    0 -0.11578342560E+02 -0.46646088058E+02  0.83076553265E+02  0.95977232977E+02  0.00000000000E+00 0. -1.
</event>
<event>
 7    1  0.1538147E-010  0.4132974E+03  0.7561462E-02  0.1039270E+00
         -2   -1    0    0    0  501 -0.00000000000E+00  0.00000000000E+00  0.11689952502E+03  0.11689952502E+03  0.00000000000E+00 0.  1.
          2   -1    0    0  501    0  0.00000000000E+00 -0.00000000000E+00 -0.15526447882E+04  0.15526447882E+04  0.00000000000E+00 0. -1.
         25    2    1    2    0    0 -0.34460589120E+03  0.21059271451E+03 -0.88173158617E+03  0.97786027607E+03  0.12513040322E+03 0.  0.
          5    1    3    3  502    0 -0.31735075645E+03  0.22739841739E+03 -0.81911920007E+03  0.90741130650E+03  0.41800000000E+01 0. -1.
         -5    1    3    3    0  502 -0.27255134748E+02 -0.16805702880E+02 -0.62612386107E+02  0.70448969569E+02  0.41800000000E+01 0. -1.
        -11    1    1    2    0    0  0.16128605925E+03 -0.96954996068E+02 -0.33537344571E+03  0.38456314470E+03  0.00000000000E+00 0. -1.
         11    1    1    2    0    0  0.18331983194E+03 -0.11363771844E+03 -0.21864023126E+03  0.30712089242E+03  0.00000000000E+00 0.  1.
</event>
<event>
 6    1  0.1538147E-010  0.2338759E+03  0.7561462E-02  0.1123941E+00
         -1   -1    0    0    0  501 -0.00000000000E+00  0.00000000000E+00  0.50508722509E+02  0.50508722509E+02  0.00000000000E+00 0.  1.
          1   -1    0    0  501    0  0.00000000000E+00 -0.00000000000E+00 -0.11823313993E+04  0.11823313993E+04  0.00000000000E+00 0. -1.
          5    1    1    2  502    0 -0.26338452756E+02 -0.14125043414E+03 -0.35065212156E+03  0.37897200687E+03  0.41800000000E+01 0. -1.
         -5    1    1    2    0  502  0.61469253121E+02 -0.68962505442E+02 -0.10953594345E+03  0.14335233358E+03  0.41800000000E+01 0. -1.
        -11    1    1    2    0    0 -0.17817290849E+02 -0.26071485916E+01 -0.43430142055E+02  0.47015213664E+02  0.00000000000E+00 0. -1.
         11    1    1    2    0    0 -0.17313509516E+02  0.21282008817E+03 -0.62820446970E+03  0.66350056767E+03  0.00000000000E+00 0.  1.
</event>
<event>
 6    1  0.1538147E-010  0.9668065E+02  0.7561462E-02  0.1287435E+00
         -2   -1    0    0    0  501 -0.00000000000E+00  0.00000000000E+00  0.18872262969E+02  0.18872262969E+02  0.00000000000E+00 0.  1.
          2   -1    0    0  501    0  0.00000000000E+00 -0.00000000000E+00 -0.77096488134E+03  0.77096488134E+03  0.00000000000E+00 0. -1.
          5    1    1    2  502    0 -0.53638853241E+02  0.18493503342E+02 -0.13695866228E+03  0.14830469924E+03  0.41800000000E+01 0. -1.
         -5    1    1    2    0  502  0.44181052059E+02  0.18771647056E+01 -0.44504401608E+03  0.44725511485E+03  0.41800000000E+01 0. -1.
        -11    1    1    2    0    0 -0.38542987069E+02  0.30090175309E+01 -0.53129583443E+02  0.65706686688E+02  0.00000000000E+00 0.  1.
         11    1    1    2    0    0  0.48000788252E+02 -0.23379685579E+02 -0.11696035657E+03  0.12857064354E+03  0.00000000000E+00 0. -1.
</event>
<event>
 6    1  0.1538147E-010  0.1245674E+03  0.7561462E-02  0.1235747E+00
          1   -1    0    0  501    0  0.00000000000E+00  0.00000000000E+00  0.80994351128E+03  0.80994351128E+03  0.00000000000E+00 0. -1.
         -1   -1    0    0    0  501 -0.00000000000E+00 -0.00000000000E+00 -0.28149668590E+02  0.28149668590E+02  0.00000000000E+00 0.  1.
          5    1    1    2  502    0  0.59112344819E+01  0.30772834349E+01  0.24369537743E+03  0.24382231594E+03  0.41800000000E+01 0.  1.
         -5    1    1    2    0  502  0.44332556418E+02 -0.91535615876E+02  0.14522783972E+03  0.17734921021E+03  0.41800000000E+01 0.  1.
        -11    1    1    2    0    0  0.20313744578E+02  0.60087380137E+02  0.18577911581E+03  0.19630848515E+03  0.00000000000E+00 0. -1.
         11    1    1    2    0    0 -0.70557535478E+02  0.28370952304E+02  0.20709150973E+03  0.22061316857E+03  0.00000000000E+00 0.  1.
</event>
<event>
 7    1  0.1538147E-010  0.2153463E+03  0.7561462E-02  0.1137401E+00
         -1   -1    0    0    0  501 -0.00000000000E+00  0.00000000000E+00  0.52699454572E+03  0.52699454572E+03  0.00000000000E+00 0.  1.
          1   -1    0    0  501    0  0.00000000000E+00 -0.00000000000E+00 -0.10306990306E+03  0.10306990306E+03  0.00000000000E+00 0. -1.
         25    2    1    2    0    0 -0.16074993204E+03  0.93272361049E+02  0.10448753864E+03  0.24720807748E+03  0.12511560196E+03 0.  0.
          5    1    3    3  502    0 -0.17309779621E+03  0.10566172480E+03  0.82944588752E+02  0.21914498475E+03  0.41800000000E+01 0.  1.
         -5    1    3    3    0  502  0.12347864166E+02 -0.12389363750E+02  0.21542949888E+02  0.28063092728E+02  0.41800000000E+01 0.  1.
        -11    1    1    2    0    0  0.10649745191E+03 -0.54482963856E+01  0.14210505724E+03  0.17766608705E+03  0.00000000000E+00 0. -1.
         11    1    1    2    0    0  0.54252480134E+02 -0.87824064663E+02  0.17733204678E+03  0.20519028425E+03  0.00000000000E+00 0.  1.
</event>
<event>
 6    1  0.1538147E-010  0.8775281E+02  0.7561462E-02  0.1308387E+00
          1   -1    0    0  501    0  0.00000000000E+00  0.00000000000E+00  0.24682777897E+03  0.24682777897E+03  0.00000000000E+00 0. -1.
         -1   -1    0    0    0  501 -0.00000000000E+00 -0.00000000000E+00 -0.70540227664E+02  0.70540227664E+02  0.00000000000E+00 0.  1.
          5    1    1    2  502    0 -0.30520963365E+02  0.45188273261E+02  0.51973177976E+02  0.75446622681E+02  0.41800000000E+01 0. -1.
         -5    1    1    2    0  502  0.11888770679E+02 -0.31959030426E+02 -0.39399335536E+02  0.52273344399E+02  0.41800000000E+01 0. -1.
        -11    1    1    2    0    0 -0.70487303365E+01 -0.45034561080E+02  0.12614375545E+03  0.13412696720E+03  0.00000000000E+00 0. -1.
         11    1    1    2    0    0  0.25680923022E+02  0.31805318244E+02  0.37569953418E+02  0.55521072357E+02  0.00000000000E+00 0.  1.
</event>
<event>
 6    1  0.1538147E-010  0.7946115E+02  0.7561462E-02  0.1330588E+00
          1   -1    0    0  501    0  0.00000000000E+00  0.00000000000E+00  0.23415997439E+03  0.23415997439E+03  0.00000000000E+00 0. -1.
         -1   -1    0    0    0  501 -0.00000000000E+00 -0.00000000000E+00 -0.59992292147E+02  0.59992292147E+02  0.00000000000E+00 0.  1.
          5    1    1    2  502    0  0.15785050588E+02 -0.11646525119E+02  0.97369325204E+02  0.99413617076E+02  0.41800000000E+01 0. -1.
         -5    1    1    2    0  502 -0.31779684036E+02 -0.29433810106E+02 -0.26649424638E+02  0.51029028291E+02  0.41800000000E+01 0. -1.
        -11    1    1    2    0    0  0.37447572227E+02 -0.10993680499E+02  0.22352411924E+02  0.44975682268E+02  0.00000000000E+00 0.  1.
         11    1    1    2    0    0 -0.21452938779E+02  0.52074015724E+02  0.81095369748E+02  0.98733938899E+02  0.00000000000E+00 0. -1.
</event>
<event>
 7    1  0.1794141E-010  0.1131773E+03  0.7561462E-02  0.1254797E+00
         -1   -1    0    0    0  501 -0.00000000000E+00  0.00000000000E+00  0.78171927561E+01  0.78171927561E+01  0.00000000000E+00 0.  1.
          1   -1    0    0  501    0  0.00000000000E+00 -0.00000000000E+00 -0.22582016248E+04  0.22582016248E+04  0.00000000000E+00 0. -1.
         25    2    1    2    0    0 -0.22489417173E+02  0.36419960067E+02 -0.17855983147E+04  0.17904847939E+04  0.12506905468E+03 0.  0.
          5    1    3    3  502    0  0.48792141782E+02  0.20916899568E+02 -0.50402009276E+03  0.50682533095E+03  0.41800000000E+01 0. -1.
         -5    1    3    3    0  502 -0.71281558954E+02  0.15503060498E+02 -0.12815782220E+04  0.12836594630E+04  0.41800000000E+01 0. -1.
        -11    1    1    2    0    0  0.86814212159E+01  0.30497356834E+02 -0.17010741927E+03  0.17303753910E+03  0.00000000000E+00 0. -1.
         11    1    1    2    0    0  0.13807995957E+02 -0.66917316901E+02 -0.29467869807E+03  0.30249648453E+03  0.00000000000E+00 0.  1.
</event>
<event>
 7    1  0.1538147E-010  0.6971836E+02  0.7561462E-02  0.1361053E+00
          2   -1    0    0  501    0  0.00000000000E+00  0.00000000000E+00  0.12807489689E+03  0.12807489689E+03  0.00000000000E+00 0. -1.
         -2   -1    0    0    0  501 -0.00000000000E+00 -0.00000000000E+00 -0.11270332849E+03  0.11270332849E+03  0.00000000000E+00 0.  1.
         25    2    1    2    0    0 -0.50654567293E+02 -0.19882986076E+02  0.22788672220E+01  0.13647528798E+03  0.12513629637E+03 0.  0.
          5    1    3    3  502    0 -0.39404610965E+02 -0.19542745142E+02 -0.59180474457E+02  0.73854202385E+02  0.41800000000E+01 0. -1.
         -5    1    3    3    0  502 -0.11249956328E+02 -0.34024093438E+00  0.61459341679E+02  0.62621085594E+02  0.41800000000E+01 0. -1.
        -11    1    1    2    0    0  0.46927196975E+01 -0.21131792750E+02  0.33086368412E+02  0.39538361848E+02  0.00000000000E+00 0. -1.
         11    1    1    2    0    0  0.45961847595E+02  0.41014778826E+02 -0.19993667230E+02  0.64764575547E+02  0.00000000000E+00 0.  1.
</event>
<event>
 7    1  0.1538147E-010  0.1166758E+03  0.7561462E-02  0.1248684E+00
          1   -1    0    0  501    0  0.00000000000E+00  0.00000000000E+00  0.35480749733E+03  0.35480749733E+03  0.00000000000E+00 0. -1.
         -1   -1    0    0    0  501 -0.00000000000E+00 -0.00000000000E+00 -0.61134338383E+02  0.61134338383E+02  0.00000000000E+00 0.  1.
         25    2    1    2    0    0 -0.80160369696E+02 -0.42459890953E+02  0.93207974602E+02  0.18044017407E+03  0.12506959135E+03 0.  0.
          5    1    3    3  502    0  0.17910460108E+02 -0.31715224535E+02 -0.95925521565E+01  0.37896299364E+02  0.41800000000E+01 0.  1.
         -5    1    3    3    0  502 -0.98070829804E+02 -0.10744666418E+02  0.10280052676E+03  0.14254387471E+03  0.41800000000E+01 0.  1.
        -11    1    1    2    0    0  0.39419225204E+02  0.44880184790E+00  0.17003793869E+02  0.42932572072E+02  0.00000000000E+00 0.  1.
         11    1    1    2    0    0  0.40741144493E+02  0.42011089105E+02  0.18346139048E+03  0.19256908957E+03  0.00000000000E+00 0. -1.
</event>
<event>
 7    1  0.1538147E-010  0.1065030E+03  0.7561462E-02  0.1267186E+00
          1   -1    0    0  501    0  0.00000000000E+00  0.00000000000E+00  0.37882555804E+02  0.37882555804E+02  0.00000000000E+00 0. -1.
         -1   -1    0    0    0  501 -0.00000000000E+00 -0.00000000000E+00 -0.45977894095E+03  0.45977894095E+03  0.00000000000E+00 0.  1.
         25    2    1    2    0    0  0.72517739020E+02 -0.12022790019E+02 -0.26811112676E+03  0.30486243185E+03  0.12511657009E+03 0.  0.
          5    1    3    3  502    0 -0.10923846809E+02 -0.28439201673E+02 -0.17896776855E+03  0.18159034446E+03  0.41800000000E+01 0. -1.
         -5    1    3    3    0  502  0.83441585830E+02  0.16416411654E+02 -0.89143358202E+02  0.12327208739E+03  0.41800000000E+01 0. -1.
        -11    1    1    2    0    0 -0.68190221126E+02  0.32955611250E+02 -0.60040017005E+02  0.96647722229E+02  0.00000000000E+00 0. -1.
         11    1    1    2    0    0 -0.43275178942E+01 -0.20932821231E+02 -0.93745241381E+02  0.96151342670E+02  0.00000000000E+00 0.  1.
</event>
<event>
 6    1  0.1538147E-010  0.1053825E+03  0.7561462E-02  0.1269368E+00
         -2   -1    0    0    0  501 -0.00000000000E+00  0.00000000000E+00  0.20918666056E+03  0.20918666056E+03  0.00000000000E+00 0.  1.
          2   -1    0    0  501    0  0.00000000000E+00 -0.00000000000E+00 -0.17492466394E+03  0.17492466394E+03  0.00000000000E+00 0. -1.
          5    1    1    2  502    0 -0.45987235336E+02  0.90382956613E+01  0.11318290379E+03  0.12257389082E+03  0.41800000000E+01 0.  1.
         -5    1    1    2    0  502  0.10986847811E+02 -0.80480388686E+02  0.40364965417E+02  0.90799816194E+02  0.41800000000E+01 0.  1.
        -11    1    1    2    0    0  0.20624984556E+01  0.26904563605E+02  0.11019389727E+02  0.29146807589E+02  0.00000000000E+00 0.  1.
         11    1    1    2    0    0  0.32937889069E+02  0.44537529419E+02 -0.13030526231E+03  0.14159080990E+03  0.00000000000E+00 0. -1.
</event>
<event>
 7    1  0.1538147E-010  0.1150082E+03  0.7561462E-02  0.1251567E+00
          1   -1    0    0  501    0  0.00000000000E+00  0.00000000000E+00  0.35462248435E+03  0.35462248435E+03  0.00000000000E+00 0. -1.
         -1   -1    0    0    0  501 -0.00000000000E+00 -0.00000000000E+00 -0.43395366257E+02  0.43395366257E+02  0.00000000000E+00 0.  1.
         25    2    1    2    0    0  0.63143367962E+02  0.40264959216E+00  0.14716196778E+03  0.20323450098E+03  0.12514140235E+03 0.  0.
          5    1    3    3  502    0  0.82662927044E+02 -0.36134503765E+02  0.12979326261E+03  0.15812218468E+03  0.41800000000E+01 0. -1.
         -5    1    3    3    0  502 -0.19519559082E+02  0.36537153357E+02  0.17368705178E+02  0.45112316298E+02  0.41800000000E+01 0. -1.
        -11    1    1    2    0    0 -0.31899213850E+02  0.37315125304E+02  0.11689286656E+03  0.12678296681E+03  0.00000000000E+00 0. -1.
         11    1    1    2    0    0 -0.31244154112E+02 -0.37717774896E+02  0.47172283747E+02  0.68000382817E+02  0.00000000000E+00 0.  1.
</event>
<event>
 6    1  0.1538147E-010  0.1785662E+03  0.7561462E-02  0.1169198E+00
         -3   -1    0    0    0  501 -0.00000000000E+00  0.00000000000E+00  0.45456936232E+03  0.45456936232E+03  0.00000000000E+00 0.  1.
          3   -1    0    0  501    0  0.00000000000E+00 -0.00000000000E+00 -0.11505019673E+03  0.11505019673E+03  0.00000000000E+00 0. -1.
          5    1    1    2  502    0 -0.28045349005E+02  0.13827976042E+03  0.13429704508E+03  0.19483583464E+03  0.41800000000E+01 0. -1.
         -5    1    1    2    0  502  0.34660652941E+02  0.25454820706E+02  0.18117918815E+03  0.18625970949E+03  0.41800000000E+01 0. -1.
        -11    1    1    2    0    0  0.22544586789E+02 -0.10244681374E+03  0.49557751499E+02  0.11601542472E+03  0.00000000000E+00 0. -1.
         11    1    1    2    0    0 -0.29159890725E+02 -0.61287767391E+02 -0.25514819125E+02  0.72508590207E+02  0.00000000000E+00 0.  1.
</event>
<event>
 7    1  0.1538147E-010  0.2251566E+03  0.7561462E-02  0.1130096E+00
          1   -1    0    0  501    0  0.00000000000E+00  0.00000000000E+00  0.69904833689E+03  0.69904833689E+03  0.00000000000E+00 0. -1.
         -1   -1    0    0    0  501 -0.00000000000E+00 -0.00000000000E+00 -0.83342664014E+02  0.83342664014E+02  0.00000000000E+00 0.  1.
         25    2    1    2    0    0  0.55888755166E+02 -0.19339400488E+03  0.18967333885E+03  0.30354686349E+03  0.12505970089E+03 0.  0.
          5    1    3    3  502    0 -0.93008486799E+01 -0.15958726081E+03  0.10459384872E+03  0.19108099118E+03  0.41800000000E+01 0. -1.
         -5    1    3    3    0  502  0.65189603846E+02 -0.33806744064E+02  0.85079490133E+02  0.11246587231E+03  0.41800000000E+01 0. -1.
        -11    1    1    2    0    0 -0.38642700659E+02  0.21757792578E+02  0.64596843899E+02  0.78354400603E+02  0.00000000000E+00 0.  1.
         11    1    1    2    0    0 -0.17246054508E+02  0.17163621230E+03  0.36143549012E+03  0.40048973681E+03  0.00000000000E+00 0. -1.
</event>
<event>
 6    1  0.1538147E-010  0.8631130E+02  0.7561462E-02  0.1312039E+00
         -4   -1    0    0    0  501 -0.00000000000E+00  0.00000000000E+00  0.38525065699E+02  0.38525065699E+02  0.00000000000E+00 0.  1.
          4   -1    0    0  501    0  0.00000000000E+00 -0.00000000000E+00 -0.31143492195E+03  0.31143492195E+03  0.00000000000E+00 0. -1.
          5    1    1    2  502    0 -0.51215259557E+02 -0.36600648236E+02 -0.13078880256E+03  0.14520948157E+03  0.41800000000E+01 0.  1.
         -5    1    1    2    0  502  0.35158413201E+02  0.31147604935E+02 -0.19588385780E+02  0.51063338800E+02  0.41800000000E+01 0.  1.
        -11    1    1    2    0    0  0.16923972992E+02  0.31796629730E+02 -0.12212495484E+03  0.12732616039E+03  0.00000000000E+00 0. -1.
         11    1    1    2    0    0 -0.86712663584E+00 -0.26343586429E+02 -0.40771307378E+00  0.26361006895E+02  0.00000000000E+00 0.  1.
</event>
<event>
 7    1  0.1538147E-010  0.2611154E+03  0.7561462E-02  0.1106475E+00
         -1   -1    0    0    0  501 -0.00000000000E+00  0.00000000000E+00  0.57204948017E+03  0.57204948017E+03  0.00000000000E+00 0.  1.
          1   -1    0    0  501    0  0.00000000000E+00 -0.00000000000E+00 -0.19053864307E+03  0.19053864307E+03  0.00000000000E+00 0. -1.
         25    2    1    2    0    0  0.21808339432E+03  0.12882739955E+03  0.40329989745E+03  0.49240647299E+03  0.12512578313E+03 0.  0.
          5    1    3    3  502    0  0.26500510574E+02  0.10213240840E+02 -0.18790253892E+01  0.28767872454E+02  0.41800000000E+01 0.  1.
         -5    1    3    3    0  502  0.19158288374E+03  0.11861415871E+03  0.40517892284E+03  0.46363860054E+03  0.41800000000E+01 0.  1.
        -11    1    1    2    0    0 -0.97361030528E+02 -0.85376771819E+01 -0.19950854058E+02  0.99750181828E+02  0.00000000000E+00 0. -1.
         11    1    1    2    0    0 -0.12072236379E+03 -0.12028972237E+03 -0.18382062928E+01  0.17043146842E+03  0.00000000000E+00 0.  1.
</event>
<event>
 7    1  0.1538147E-010  0.1123398E+03  0.7561462E-02  0.1256297E+00
         -2   -1    0    0    0  501 -0.00000000000E+00  0.00000000000E+00  0.49104307998E+02  0.49104307998E+02  0.00000000000E+00 0.  1.
          2   -1    0    0  501    0  0.00000000000E+00 -0.00000000000E+00 -0.33032470993E+03  0.33032470993E+03  0.00000000000E+00 0. -1.
         25    2    1    2    0    0 -0.46460863663E+02 -0.27135997036E+02 -0.21811673309E+03  0.25714473767E+03  0.12511407861E+03 0.  0.
          5    1    3    3  502    0  0.22070676329E+02 -0.56425069026E+02 -0.84006019771E+02  0.10365995816E+03  0.41800000000E+01 0. -1.
         -5    1    3    3    0  502 -0.68531539992E+02  0.29289071990E+02 -0.13411071332E+03  0.15348477951E+03  0.41800000000E+01 0. -1.
        -11    1    1    2    0    0 -0.17821679484E+02  0.16224042996E+02 -0.50386340887E+02  0.55853515367E+02  0.00000000000E+00 0. -1.
         11    1    1    2    0    0  0.64282543147E+02  0.10911954040E+02 -0.12717327950E+02  0.66430764896E+02  0.00000000000E+00 0.  1.
</event>
<event>
 6    1  0.1538147E-010  0.9131052E+02  0.7561462E-02  0.1299709E+00
          1   -1    0    0  501    0  0.00000000000E+00  0.00000000000E+00  0.14575926613E+04  0.14575926613E+04  0.00000000000E+00 0. -1.
         -1   -1    0    0    0  501 -0.00000000000E+00 -0.00000000000E+00 -0.10578378377E+02  0.10578378377E+02  0.00000000000E+00 0.  1.
          5    1    1    2  502    0  0.28135014309E+02 -0.33389216031E+01  0.85325268025E+03  0.85373317622E+03  0.41800000000E+01 0. -1.
         -5    1    1    2    0  502 -0.55979262843E+02  0.17217880739E+02  0.23869285054E+03  0.24580863001E+03  0.41800000000E+01 0. -1.
        -11    1    1    2    0    0 -0.32845237847E+02 -0.10497497502E+02  0.18094161811E+03  0.18419792688E+03  0.00000000000E+00 0.  1.
         11    1    1    2    0    0  0.60689486380E+02 -0.33814616342E+01  0.17412713400E+03  0.18443130654E+03  0.00000000000E+00 0. -1.
</event>
<event>
 7    1  0.1538147E-010  0.1549297E+03  0.7561462E-02  0.1194543E+00
         -1   -1    0    0    0  501 -0.00000000000E+00  0.00000000000E+00  0.34774917570E+02  0.34774917570E+02  0.00000000000E+00 0.  1.
          1   -1    0    0  501    0  0.00000000000E+00 -0.00000000000E+00 -0.75120981838E+03  0.75120981838E+03  0.00000000000E+00 0. -1.
         25    2    1    2    0    0  0.78737377573E+01 -0.11108319501E+03 -0.28361172674E+03  0.32935891288E+03  0.12506082517E+03 0.  0.
          5    1    3    3  502    0  0.48089987102E+02 -0.19798829058E+01 -0.11249996122E+03  0.12243480090E+03  0.41800000000E+01 0.  1.
         -5    1    3    3    0  502 -0.40216249344E+02 -0.10910331210E+03 -0.17111176552E+03  0.20692411199E+03  0.41800000000E+01 0.  1.
        -11    1    1    2    0    0  0.39223026319E+02  0.23429259472E+02 -0.15038228763E+03  0.15716936224E+03  0.00000000000E+00 0.  1.
         11    1    1    2    0    0 -0.47096764076E+02  0.87653935533E+02 -0.28244088645E+03  0.29945646084E+03  0.00000000000E+00 0. -1.
</event>
<event>
 7    1  0.1538147E-010  0.8568262E+02  0.7561462E-02  0.1313657E+00
         -1   -1    0    0    0  501 -0.00000000000E+00  0.00000000000E+00  0.12008235576E+03  0.12008235576E+03  0.00000000000E+00 0.  1.
          1   -1    0    0  501    0  0.00000000000E+00 -0.00000000000E+00 -0.19779073780E+03  0.19779073780E+03  0.00000000000E+00 0. -1.
         25    2    1    2    0    0 -0.64661017100E+02  0.13374699361E+02  0.47738548976E+02  0.14930902661E+03  0.12511709177E+03 0.  0.
          5    1    3    3  502    0 -0.76684577820E+02 -0.10148823556E+02  0.77304911478E+02  0.10943968583E+03  0.41800000000E+01 0.  1.
         -5    1    3    3    0  502  0.12023560720E+02  0.23523522917E+02 -0.29566362502E+02  0.39869340782E+02  0.41800000000E+01 0.  1.
        -11    1    1    2    0    0  0.16766654948E+02 -0.90756582424E+01  0.12283962099E+02  0.22680035615E+02  0.00000000000E+00 0.  1.
         11    1    1    2    0    0  0.47894362152E+02 -0.42990411190E+01 -0.13773089311E+03  0.14588403133E+03  0.00000000000E+00 0. -1.
</event>
<event>
 6    1  0.1538147E-010  0.1450316E+03  0.7561462E-02  0.1206715E+00
          1   -1    0    0  501    0  0.00000000000E+00  0.00000000000E+00  0.30002879206E+03  0.30002879206E+03  0.00000000000E+00 0. -1.
         -1   -1    0    0    0  501 -0.00000000000E+00 -0.00000000000E+00 -0.77813290704E+02  0.77813290704E+02  0.00000000000E+00 0.  1.
          5    1    1    2  502    0 -0.15254900101E+02 -0.20906957992E+02  0.57918040541E+02  0.63575031967E+02  0.41800000000E+01 0.  1.
         -5    1    1    2    0  502  0.33968803358E+02  0.12416089447E+03  0.94728091979E+02  0.15987711258E+03  0.41800000000E+01 0.  1.
        -11    1    1    2    0    0  0.33049144347E+02 -0.55688217305E+02  0.18022686421E+02  0.67217860086E+02  0.00000000000E+00 0.  1.
         11    1    1    2    0    0 -0.51763047604E+02 -0.47565719172E+02  0.51546682416E+02  0.87172078132E+02  0.00000000000E+00 0. -1.
</event>
<event>
 7    1  0.1538147E-010  0.8664677E+02  0.7561462E-02  0.1311181E+00
         -1   -1    0    0    0  501 -0.00000000000E+00  0.00000000000E+00  0.13183376963E+03  0.13183376963E+03  0.00000000000E+00 0.  1.
          1   -1    0    0  501    0  0.00000000000E+00 -0.00000000000E+00 -0.11974956010E+03  0.11974956010E+03  0.00000000000E+00 0. -1.
         25    2    1    2    0    0 -0.53947459653E+02 -0.35830770000E+01 -0.29508870601E+02  0.13940884384E+03  0.12506352567E+03 0.  0.
          5    1    3    3  502    0 -0.54192074694E+02 -0.49094574135E+02  0.15936265029E+02  0.74956621537E+02  0.41800000000E+01 0. -1.
         -5    1    3    3    0  502  0.24461504130E+00  0.45511497135E+02 -0.45445135630E+02  0.64452222308E+02  0.41800000000E+01 0. -1.
        -11    1    1    2    0    0  0.24532179494E+02  0.43833656501E+01  0.68133214189E+02  0.72547753934E+02  0.00000000000E+00 0.  1.
         11    1    1    2    0    0  0.29415280159E+02 -0.80028865006E+00 -0.26540134068E+02  0.39626731951E+02  0.00000000000E+00 0. -1.
</event>
<event>
 7    1  0.1538147E-010  0.1744505E+03  0.7561462E-02  0.1173285E+00
         -2   -1    0    0    0  501 -0.00000000000E+00  0.00000000000E+00  0.12112069109E+03  0.12112069109E+03  0.00000000000E+00 0.  1.
          2   -1    0    0  501    0  0.00000000000E+00 -0.00000000000E+00 -0.36290666724E+03  0.36290666724E+03  0.00000000000E+00 0. -1.
         25    2    1    2    0    0 -0.14265424246E+03 -0.48506068207E+02 -0.25152434714E+03  0.31876297441E+03  0.12506904136E+03 0.  0.
          5    1    3    3  502    0 -0.10986727553E+03 -0.90161891739E+02 -0.19247590711E+03  0.23929987917E+03  0.41800000000E+01 0. -1.
         -5    1    3    3    0  502 -0.32786966928E+02  0.41655823533E+02 -0.59048440029E+02  0.79463095236E+02  0.41800000000E+01 0. -1.
        -11    1    1    2    0    0  0.97739991412E+02  0.47356203852E+02 -0.21273342441E+02  0.11067190729E+03  0.00000000000E+00 0.  1.
         11    1    1    2    0    0  0.44914251046E+02  0.11498643546E+01  0.31011713430E+02  0.54592476633E+02  0.00000000000E+00 0. -1.
</event>
<event>
 6    1  0.1538147E-010  0.1004126E+03  0.7561462E-02  0.1279431E+00
          2   -1    0    0  501    0  0.00000000000E+00  0.00000000000E+00  0.15263784970E+03  0.15263784970E+03  0.00000000000E+00 0. -1.
         -2   -1    0    0    0  501 -0.00000000000E+00 -0.00000000000E+00 -0.93125281156E+02  0.93125281156E+02  0.00000000000E+00 0.  1.
          5    1    1    2  502    0 -0.44376314837E+02 -0.10467222311E+02  0.18269555867E+02  0.49295731388E+02  0.41800000000E+01 0.  1.
         -5    1    1    2    0  502  0.73259002696E+02  0.49412703030E+02  0.35481896017E+02  0.95314920352E+02  0.41800000000E+01 0.  1.
        -11    1    1    2    0    0  0.12505995194E+02 -0.10795843255E+02  0.38122235165E+02  0.41548224527E+02  0.00000000000E+00 0. -1.
         11    1    1    2    0    0 -0.41388683053E+02 -0.28149637464E+02 -0.32361118505E+02  0.59604254589E+02  0.00000000000E+00 0.  1.
</event>
<event>
 7    1  0.1538147E-010  0.2062742E+03  0.7561462E-02  0.1144551E+00
          2   -1    0    0  501    0  0.00000000000E+00  0.00000000000E+00  0.42723062642E+03  0.42723062642E+03  0.00000000000E+00 0. -1.
         -2   -1    0    0    0  501 -0.00000000000E+00 -0.00000000000E+00 -0.11691228770E+03  0.11691228770E+03  0.00000000000E+00 0.  1.
         25    2    1    2    0    0  0.18175680936E+03 -0.51502922069E+01  0.24798343346E+03  0.33195415968E+03  0.12504286307E+03 0.  0.
          5    1    3    3  502    0  0.13862810898E+03 -0.58611472190E+02  0.15299662842E+03  0.21465902725E+03  0.41800000000E+01 0.  1.
         -5    1    3    3    0  502  0.43128700379E+02  0.53461179983E+02  0.94986805037E+02  0.11729513243E+03  0.41800000000E+01 0.  1.
        -11    1    1    2    0    0 -0.13003902684E+03 -0.26248808028E+02  0.11490515111E+02  0.13315847837E+03  0.00000000000E+00 0.  1.
         11    1    1    2    0    0 -0.51717782516E+02  0.31399100235E+02  0.50844390157E+02  0.79030276061E+02  0.00000000000E+00 0. -1.
</event>
<event>
 6    1  0.1538147E-010  0.1822040E+03  0.7561462E-02  0.1165687E+00
         -1   -1    0    0    0  501 -0.00000000000E+00  0.00000000000E+00  0.68229828081E+02  0.68229828081E+02  0.00000000000E+00 0.  1.
          1   -1    0    0  501    0  0.00000000000E+00 -0.00000000000E+00 -0.91879952095E+03  0.91879952095E+03  0.00000000000E+00 0. -1.
          5    1    1    2  502    0 -0.13191319317E+02 -0.10317486260E+03 -0.61878647651E+03  0.62748166434E+03  0.41800000000E+01 0. -1.
         -5    1    1    2    0  502  0.11647333603E+02 -0.70235820165E+02 -0.10288578421E+03  0.12518661193E+03  0.41800000000E+01 0. -1.
        -11    1    1    2    0    0 -0.33500007760E+02  0.12379805890E+03 -0.57299070749E+02  0.14046847837E+03  0.00000000000E+00 0.  1.
         11    1    1    2    0    0  0.35043993474E+02  0.49612623861E+02 -0.71598361400E+02  0.93892594384E+02  0.00000000000E+00 0. -1.
</event>
<event>
 7    1  0.1538147E-010  0.7083127E+02  0.7561462E-02  0.1357289E+00
         -1   -1    0    0    0  501 -0.00000000000E+00  0.00000000000E+00  0.85165425574E+02  0.85165425574E+02  0.00000000000E+00 0.  1.
          1   -1    0    0  501    0  0.00000000000E+00 -0.00000000000E+00 -0.15701088184E+03  0.15701088184E+03  0.00000000000E+00 0. -1.
         25    2    1    2    0    0 -0.10455244906E+02 -0.25857471720E+02 -0.92105100050E+01  0.12844132968E+03  0.12503767707E+03 0.  0.
          5    1    3    3  502    0  0.17855746957E+02 -0.22286553985E+02 -0.61943448576E+02  0.68337262232E+02  0.41800000000E+01 0.  1.
         -5    1    3    3    0  502 -0.28310991862E+02 -0.35709177354E+01  0.52732938571E+02  0.60104067450E+02  0.41800000000E+01 0.  1.
        -11    1    1    2    0    0 -0.26926236521E+02 -0.13122437229E+02  0.13746053713E+01  0.29985164864E+02  0.00000000000E+00 0.  1.
         11    1    1    2    0    0  0.37381481427E+02  0.38979908949E+02 -0.64009551633E+02  0.83749812869E+02  0.00000000000E+00 0. -1.
</event>
<event>
 6    1  0.1538147E-010  0.8414496E+02  0.7561462E-02  0.1317684E+00
          3   -1    0    0  501    0  0.00000000000E+00  0.00000000000E+00  0.28034916438E+03  0.28034916438E+03  0.00000000000E+00 0. -1.
         -3   -1    0    0    0  501 -0.00000000000E+00 -0.00000000000E+00 -0.45593074530E+02  0.45593074530E+02  0.00000000000E+00 0.  1.
          5    1    1    2  502    0 -0.64224534154E+02 -0.28287480212E+02  0.12386089453E+03  0.14242178877E+03  0.41800000000E+01 0.  1.
         -5    1    1    2    0  502  0.42184260389E+02  0.23623799886E+01  0.89570624938E+01  0.43391174590E+02  0.41800000000E+01 0.  1.
        -11    1    1    2    0    0 -0.13094907211E+01  0.31497970059E+02 -0.37515798209E+01  0.31747617783E+02  0.00000000000E+00 0.  1.
         11    1    1    2    0    0  0.23349764486E+02 -0.55728698351E+01  0.10568971265E+03  0.10838165776E+03  0.00000000000E+00 0. -1.
</event>
<event>
 7    1  0.1538147E-010  0.8347649E+02  0.7561462E-02  0.1319465E+00
         -2   -1    0    0    0  501 -0.00000000000E+00  0.00000000000E+00  0.48897564820E+02  0.48897564820E+02  0.00000000000E+00 0. -1.
          2   -1    0    0  501    0  0.00000000000E+00 -0.00000000000E+00 -0.52652340444E+03  0.52652340444E+03  0.00000000000E+00 0.  1.
         25    2    1    2    0    0 -0.71920209771E+02 -0.61905331833E+01 -0.42673346876E+03  0.45049898184E+03  0.12504815076E+03 0.  0.
          5    1    3    3  502    0 -0.58169350191E+02  0.78384808507E+01 -0.62982103746E+02  0.86193577928E+02  0.41800000000E+01 0. -1.
         -5    1    3    3    0  502 -0.13750859580E+02 -0.14029014034E+02 -0.36375136501E+03  0.36430540391E+03  0.41800000000E+01 0. -1.
        -11    1    1    2    0    0  0.75762832589E+02 -0.52617693366E+01 -0.35125634408E+01  0.76026515903E+02  0.00000000000E+00 0. -1.
         11    1    1    2    0    0 -0.38426228178E+01  0.11452302520E+02 -0.47379807423E+02  0.48895471514E+02  0.00000000000E+00 0.  1.
</event>
<event>
 7    1  0.1538147E-010  0.1719493E+03  0.7561462E-02  0.1175830E+00
         -3   -1    0    0    0  501 -0.00000000000E+00  0.00000000000E+00  0.98356370760E+02  0.98356370760E+02  0.00000000000E+00 0.  1.
          3   -1    0    0  501    0  0.00000000000E+00 -0.00000000000E+00 -0.39661915547E+03  0.39661915547E+03  0.00000000000E+00 0. -1.
         25    2    1    2    0    0 -0.14874575320E+03  0.14187122864E+01 -0.66723435884E+02  0.20546090400E+03  0.12503941114E+03 0.  0.
          5    1    3    3  502    0 -0.44037828154E+02 -0.47793287073E+02 -0.61498462893E+02  0.89571546464E+02  0.41800000000E+01 0.  1.
         -5    1    3    3    0  502 -0.10470792504E+03  0.49211999359E+02 -0.52249729913E+01  0.11588935754E+03  0.41800000000E+01 0.  1.
        -11    1    1    2    0    0  0.61418043463E+02  0.32299128701E+02 -0.15038538752E+03  0.16562359299E+03  0.00000000000E+00 0.  1.
         11    1    1    2    0    0  0.87327709734E+02 -0.33717840988E+02 -0.81153961305E+02  0.12389102923E+03  0.00000000000E+00 0. -1.
</event>
<event>
 7    1  0.1538147E-010  0.1285214E+03  0.7561462E-02  0.1229666E+00
         -1   -1    0    0    0  501 -0.00000000000E+00  0.00000000000E+00  0.13951059594E+03  0.13951059594E+03  0.00000000000E+00 0.  1.
          1   -1    0    0  501    0  0.00000000000E+00 -0.00000000000E+00 -0.39250370099E+03  0.39250370099E+03  0.00000000000E+00 0. -1.
         25    2    1    2    0    0 -0.72213784534E+02  0.45052646791E+02 -0.34509067055E+03  0.37681001258E+03  0.12511451962E+03 0.  0.
          5    1    3    3  502    0  0.28877294460E+02 -0.55386281857E+01 -0.13471214272E+03  0.13794712152E+03  0.41800000000E+01 0. -1.
         -5    1    3    3    0  502 -0.10109107899E+03  0.50591274977E+02 -0.21037852783E+03  0.23886289106E+03  0.41800000000E+01 0. -1.
        -11    1    1    2    0    0  0.48004912807E+02 -0.66407082647E+02  0.33947930079E+02  0.88695175945E+02  0.00000000000E+00 0. -1.
         11    1    1    2    0    0  0.24208871727E+02  0.21354435856E+02  0.58149635420E+02  0.66509108402E+02  0.00000000000E+00 0.  1.
</event>
<event>
 6    1  0.1538147E-010  0.1514288E+03  0.7561462E-02  0.1198728E+00
         -1   -1    0    0    0  501 -0.00000000000E+00  0.00000000000E+00  0.99119814816E+02  0.99119814816E+02  0.00000000000E+00 0.  1.
          1   -1    0    0  501    0  0.00000000000E+00 -0.00000000000E+00 -0.37591091083E+03  0.37591091083E+03  0.00000000000E+00 0. -1.
          5    1    1    2  502    0 -0.10445434695E+03  0.81067705371E+02 -0.26500119190E+03  0.29618539390E+03  0.41800000000E+01 0. -1.
         -5    1    1    2    0  502  0.71271534528E+01  0.82629953864E+01  0.11173231891E+02  0.16167464859E+02  0.41800000000E+01 0. -1.
        -11    1    1    2    0    0  0.22824064421E+02 -0.80720258850E+02  0.11652711865E+01  0.83893122259E+02  0.00000000000E+00 0.  1.
         11    1    1    2    0    0  0.74503129080E+02 -0.86104419071E+01 -0.24128407195E+02  0.78784744630E+02  0.00000000000E+00 0. -1.
</event>
<event>
 6    1  0.1538147E-010  0.7361956E+02  0.7561462E-02  0.1348200E+00
         -1   -1    0    0    0  501 -0.00000000000E+00  0.00000000000E+00  0.41423656059E+02  0.41423656059E+02  0.00000000000E+00 0.  1.
          1   -1    0    0  501    0  0.00000000000E+00 -0.00000000000E+00 -0.33315920368E+03  0.33315920368E+03  0.00000000000E+00 0. -1.
          5    1    1    2  502    0 -0.22620997064E+01  0.41374390656E+01 -0.18709098109E+03  0.18719707023E+03  0.41800000000E+01 0. -1.
         -5    1    1    2    0  502  0.32761007258E+01  0.39504861433E+02  0.26875183854E+01  0.39950745523E+02  0.41800000000E+01 0. -1.
        -11    1    1    2    0    0 -0.45370756822E+02 -0.31014540773E+02 -0.58732988072E+02  0.80436131196E+02  0.00000000000E+00 0.  1.
         11    1    1    2    0    0  0.44356755802E+02 -0.12627759726E+02 -0.48599096843E+02  0.66998912789E+02  0.00000000000E+00 0. -1.
</event>
<event>
 7    1  0.1538147E-010  0.1191719E+03  0.7561462E-02  0.1244469E+00
          1   -1    0    0  501    0  0.00000000000E+00  0.00000000000E+00  0.38330198182E+02  0.38330198182E+02  0.00000000000E+00 0. -1.
         -1   -1    0    0    0  501 -0.00000000000E+00 -0.00000000000E+00 -0.45121770868E+03  0.45121770868E+03  0.00000000000E+00 0.  1.
         25    2    1    2    0    0 -0.64415657565E+02 -0.36612219890E+02 -0.24014589584E+03  0.28073720734E+03  0.12511393492E+03 0.  0.
          5    1    3    3  502    0 -0.84069097382E+02 -0.63217578521E+02 -0.13982747542E+03  0.17502362883E+03  0.41800000000E+01 0. -1.
         -5    1    3    3    0  502  0.19653439817E+02  0.26605358631E+02 -0.10031842042E+03  0.10571357850E+03  0.41800000000E+01 0. -1.
        -11    1    1    2    0    0  0.15377995886E+02 -0.19746709250E+02 -0.10507575412E+03  0.10801541273E+03  0.00000000000E+00 0.  1.
         11    1    1    2    0    0  0.49037661679E+02  0.56358929140E+02 -0.67665860538E+02  0.10079528679E+03  0.00000000000E+00 0. -1.
</event>
<event>
 6    1  0.1538147E-010  0.7310240E+02  0.7561462E-02  0.1349850E+00
         -1   -1    0    0    0  501 -0.00000000000E+00  0.00000000000E+00  0.17295445188E+02  0.17295445188E+02  0.00000000000E+00 0.  1.
          1   -1    0    0  501    0  0.00000000000E+00 -0.00000000000E+00 -0.84011771365E+03  0.84011771365E+03  0.00000000000E+00 0. -1.
          5    1    1    2  502    0  0.23092251690E+02 -0.23745330967E+02 -0.43280682401E+03  0.43409251565E+03  0.41800000000E+01 0. -1.
         -5    1    1    2    0  502  0.25242845204E+02  0.30479445115E+01 -0.77319712320E+01  0.26902545955E+02  0.41800000000E+01 0. -1.
        -11    1    1    2    0    0  0.74301070865E+01 -0.17800557462E+02 -0.19752574828E+02  0.27608523133E+02  0.00000000000E+00 0.  1.
         11    1    1    2    0    0 -0.55765203980E+02  0.38497943917E+02 -0.36253089839E+03  0.36880957410E+03  0.00000000000E+00 0. -1.
</event>
<event>
 6    1  0.1538147E-010  0.1173023E+03  0.7561462E-02  0.1247615E+00
         -1   -1    0    0    0  501 -0.00000000000E+00  0.00000000000E+00  0.27800194504E+03  0.27800194504E+03  0.00000000000E+00 0.  1.
          1   -1    0    0  501    0  0.00000000000E+00 -0.00000000000E+00 -0.13729073651E+03  0.13729073651E+03  0.00000000000E+00 0. -1.
          5    1    1    2  502    0 -0.31055114084E+02 -0.32663277458E+02 -0.52714222897E+02  0.69480727549E+02  0.41800000000E+01 0.  1.
         -5    1    1    2    0  502  0.93926701084E+02 -0.27085826981E+02 -0.23851803406E+02  0.10070872914E+03  0.41800000000E+01 0.  1.
        -11    1    1    2    0    0 -0.41558394687E+02  0.19395806325E+02  0.18124453245E+03  0.18695688812E+03  0.00000000000E+00 0.  1.
         11    1    1    2    0    0 -0.21313192314E+02  0.40353298114E+02  0.36032702392E+02  0.58146336746E+02  0.00000000000E+00 0. -1.
</event>
<event>
 7    1  0.1538147E-010  0.1994286E+03  0.7561462E-02  0.1150222E+00
         -2   -1    0    0    0  501 -0.00000000000E+00  0.00000000000E+00  0.46479702633E+03  0.46479702633E+03  0.00000000000E+00 0. -1.
          2   -1    0    0  501    0  0.00000000000E+00 -0.00000000000E+00 -0.11219618926E+03  0.11219618926E+03  0.00000000000E+00 0.  1.
         25    2    1    2    0    0  0.48226905370E+02 -0.17908537261E+03  0.84464483178E+02  0.23910719430E+03  0.12506236989E+03 0.  0.
          5    1    3    3  502    0 -0.20104064550E+02 -0.77439178127E+02 -0.14710827424E+02  0.81454776188E+02  0.41800000000E+01 0.  1.
         -5    1    3    3    0  502  0.68330969920E+02 -0.10164619448E+03  0.99175310602E+02  0.15765241811E+03  0.41800000000E+01 0.  1.
        -11    1    1    2    0    0  0.15186978265E+02  0.51864375606E+02  0.33603521205E+02  0.63637680687E+02  0.00000000000E+00 0.  1.
         11    1    1    2    0    0 -0.63413883635E+02  0.12722099700E+03  0.23453283268E+03  0.27424834060E+03  0.00000000000E+00 0. -1.
</event>
<event>
 7    1  0.1538147E-010  0.8799053E+02  0.7561462E-02  0.1307792E+00
          1   -1    0    0  501    0  0.00000000000E+00  0.00000000000E+00  0.36311184235E+03  0.36311184235E+03  0.00000000000E+00 0. -1.
         -1   -1    0    0    0  501 -0.00000000000E+00 -0.00000000000E+00 -0.38182763756E+02  0.38182763756E+02  0.00000000000E+00 0.  1.
         25    2    1    2    0    0  0.91486208214E+01 -0.32640129191E+02  0.16181727106E+03  0.20733341189E+03  0.12511290571E+03 0.  0.
          5    1    3    3  502    0  0.57561011845E+02 -0.44384004134E+02  0.61718930746E+02  0.95445841816E+02  0.41800000000E+01 0. -1.
         -5    1    3    3    0  502 -0.48412391024E+02  0.11743874943E+02  0.10009834032E+03  0.11188757008E+03  0.41800000000E+01 0. -1.
        -11    1    1    2    0    0 -0.21539611682E+02  0.39047728081E+01 -0.54175971136E+01  0.22551108190E+02  0.00000000000E+00 0.  1.
         11    1    1    2    0    0  0.12390990861E+02  0.28735356383E+02  0.16852940464E+03  0.17141008602E+03  0.00000000000E+00 0. -1.
</event>
<event>
 6    1  0.1538147E-010  0.1107822E+03  0.7561462E-02  0.1259128E+00
          3   -1    0    0  501    0  0.00000000000E+00  0.00000000000E+00  0.22674104019E+03  0.22674104019E+03  0.00000000000E+00 0. -1.
         -3   -1    0    0    0  501 -0.00000000000E+00 -0.00000000000E+00 -0.75097774335E+02  0.75097774335E+02  0.00000000000E+00 0.  1.
          5    1    1    2  502    0  0.41331843857E+02  0.16443601235E+02  0.74223338777E+02  0.86633075424E+02  0.41800000000E+01 0. -1.
         -5    1    1    2    0  502 -0.19137546097E+02 -0.83704549045E+02  0.30739320148E+02  0.91296634136E+02  0.41800000000E+01 0. -1.
        -11    1    1    2    0    0 -0.31652371734E+02  0.10459021557E+02  0.56395693216E+02  0.65511357654E+02  0.00000000000E+00 0. -1.
         11    1    1    2    0    0  0.94580739731E+01  0.56801926253E+02 -0.97150862863E+01  0.58397747310E+02  0.00000000000E+00 0.  1.
</event>
<event>
 7    1  0.1538147E-010  0.1090178E+03  0.7561462E-02  0.1262400E+00
          1   -1    0    0  501    0  0.00000000000E+00  0.00000000000E+00  0.23700149276E+03  0.23700149276E+03  0.00000000000E+00 0. -1.
         -1   -1    0    0    0  501 -0.00000000000E+00 -0.00000000000E+00 -0.61734558046E+02  0.61734558046E+02  0.00000000000E+00 0.  1.
         25    2    1    2    0    0  0.47436655481E+02  0.26251389409E+01  0.66639285206E+02  0.14950703726E+03  0.12511767349E+03 0.  0.
          5    1    3    3  502    0 -0.11152191607E+02  0.53150486475E+02  0.39994068864E+02  0.67574725560E+02  0.41800000000E+01 0. -1.
         -5    1    3    3    0  502  0.58588847087E+02 -0.50525347534E+02  0.26645216341E+02  0.81932311699E+02  0.41800000000E+01 0. -1.
        -11    1    1    2    0    0 -0.51009449025E+01 -0.33375796028E+02  0.85681207717E+02  0.92093608656E+02  0.00000000000E+00 0. -1.
         11    1    1    2    0    0 -0.42335710578E+02  0.30750657087E+02  0.22946441797E+02  0.57135404896E+02  0.00000000000E+00 0.  1.
</event>
<event>
 6    1  0.1538147E-010  0.7082562E+02  0.7561462E-02  0.1357308E+00
         -2   -1    0    0    0  501 -0.00000000000E+00  0.00000000000E+00  0.55881157133E+03  0.55881157133E+03  0.00000000000E+00 0.  1.
          2   -1    0    0  501    0  0.00000000000E+00 -0.00000000000E+00 -0.23220273537E+02  0.23220273537E+02  0.00000000000E+00 0. -1.
          5    1    1    2  502    0 -0.77802989075E+01 -0.10829487191E+02 -0.10525658444E+02  0.17494934398E+02  0.41800000000E+01 0. -1.
         -5    1    1    2    0  502 -0.20187008948E+02  0.24240533957E+02  0.27339793467E+03  0.27524356832E+03  0.41800000000E+01 0. -1.
        -11    1    1    2    0    0  0.41543553075E+02 -0.45138128968E+02  0.15781351816E+03  0.16931752420E+03  0.00000000000E+00 0.  1.
         11    1    1    2    0    0 -0.13576245219E+02  0.31727082201E+02  0.11490550340E+03  0.11997581795E+03  0.00000000000E+00 0. -1.
</event>
<event>
 7    1  0.1538147E-010  0.9920594E+02  0.7561462E-02  0.1281975E+00
          1   -1    0    0  501    0  0.00000000000E+00  0.00000000000E+00  0.15641541779E+04  0.15641541779E+04  0.00000000000E+00 0. -1.
         -1   -1    0    0    0  501 -0.00000000000E+00 -0.00000000000E+00 -0.84679727869E+01  0.84679727869E+01  0.00000000000E+00 0.  1.
         25    2    1    2    0    0 -0.11321236231E+02 -0.16963944708E+02  0.11066506637E+04  0.11138896677E+04  0.12513414595E+03 0.  0.
          5    1    3    3  502    0 -0.53438871752E+02 -0.29287935424E+02  0.30658590141E+03  0.31261139378E+03  0.41800000000E+01 0.  1.
         -5    1    3    3    0  502  0.42117635521E+02  0.12323990716E+02  0.80006476233E+03  0.80127827394E+03  0.41800000000E+01 0.  1.
        -11    1    1    2    0    0  0.49321397646E+02 -0.46344022937E+01  0.21309610673E+03  0.21877849221E+03  0.00000000000E+00 0. -1.
         11    1    1    2    0    0 -0.38000161415E+02  0.21598347002E+02  0.23593943460E+03  0.23995399072E+03  0.00000000000E+00 0.  1.
</event>
<event>
 7    1  0.1538147E-010  0.1755217E+03  0.7561462E-02  0.1172209E+00
         -2   -1    0    0    0  501 -0.00000000000E+00  0.00000000000E+00  0.62212090649E+02  0.62212090649E+02  0.00000000000E+00 0.  1.
          2   -1    0    0  501    0  0.00000000000E+00 -0.00000000000E+00 -0.57488971315E+03  0.57488971315E+03  0.00000000000E+00 0. -1.
         25    2    1    2    0    0  0.11351249480E+03  0.81322262880E+02 -0.38956419445E+03  0.43231186727E+03  0.12503956200E+03 0.  0.
          5    1    3    3  502    0 -0.10618622125E+02  0.60421711220E+02 -0.12848560215E+03  0.14244142896E+03  0.41800000000E+01 0.  1.
         -5    1    3    3    0  502  0.12413111692E+03  0.20900551660E+02 -0.26107859230E+03  0.28987043831E+03  0.41800000000E+01 0.  1.
        -11    1    1    2    0    0 -0.63456694782E+02  0.51766632806E+01 -0.50294139987E+02  0.81135999855E+02  0.00000000000E+00 0. -1.
         11    1    1    2    0    0 -0.50055800015E+02 -0.86498926161E+02 -0.72819288059E+02  0.12365393668E+03  0.00000000000E+00 0.  1.
</event>
<event>
 7    1  0.1538147E-010  0.8328288E+02  0.7561462E-02  0.1319985E+00
         -1   -1    0    0    0  501 -0.00000000000E+00  0.00000000000E+00  0.57792838927E+02  0.57792838927E+02  0.00000000000E+00 0.  1.
          1   -1    0    0  501    0  0.00000000000E+00 -0.00000000000E+00 -0.26174274061E+03  0.26174274061E+03  0.00000000000E+00 0. -1.
         25    2    1    2    0    0  0.41490171390E+02  0.34941189533E+01 -0.65080520272E+02  0.14700678632E+03  0.12506749345E+03 0.  0.
          5    1    3    3  502    0  0.54783027541E+02 -0.18677657358E+02 -0.92433296153E+02  0.10913945954E+03  0.41800000000E+01 0. -1.
         -5    1    3    3    0  502 -0.13292856151E+02  0.22171776311E+02  0.27352775881E+02  0.37867326785E+02  0.41800000000E+01 0. -1.
        -11    1    1    2    0    0 -0.60636041643E+02  0.60839284042E+01 -0.13827975489E+03  0.15111265448E+03  0.00000000000E+00 0. -1.
         11    1    1    2    0    0  0.19145870253E+02 -0.95780473575E+01 -0.58962652363E+00  0.21416138737E+02  0.00000000000E+00 0.  1.
</event>
<event>
 7    1  0.1538147E-010  0.7681255E+02  0.7561462E-02  0.1338348E+00
         -2   -1    0    0    0  501 -0.00000000000E+00  0.00000000000E+00  0.23912049021E+02  0.23912049021E+02  0.00000000000E+00 0.  1.
          2   -1    0    0  501    0  0.00000000000E+00 -0.00000000000E+00 -0.67371828230E+03  0.67371828230E+03  0.00000000000E+00 0. -1.
         25    2    1    2    0    0  0.51769653967E+02 -0.37693029843E+02 -0.36060062780E+03  0.38700338803E+03  0.12505178130E+03 0.  0.
          5    1    3    3  502    0  0.61437214520E+00 -0.14527901784E+01 -0.29893162436E+03  0.29896500882E+03  0.41800000000E+01 0. -1.
         -5    1    3    3    0  502  0.51155281822E+02 -0.36240239665E+02 -0.61669003431E+02  0.88038379207E+02  0.41800000000E+01 0. -1.
        -11    1    1    2    0    0 -0.33711364696E+02 -0.10136004004E+02 -0.29475234959E+02  0.45912788662E+02  0.00000000000E+00 0.  1.
         11    1    1    2    0    0 -0.18058289271E+02  0.47829033847E+02 -0.25973037053E+03  0.26471415464E+03  0.00000000000E+00 0. -1.
</event>
<event>
 7    1  0.1538147E-010  0.1746447E+03  0.7561462E-02  0.1173089E+00
         -1   -1    0    0    0  501 -0.00000000000E+00  0.00000000000E+00  0.40606983602E+02  0.40606983602E+02  0.00000000000E+00 0.  1.
          1   -1    0    0  501    0  0.00000000000E+00 -0.00000000000E+00 -0.10700941899E+04  0.10700941899E+04  0.00000000000E+00 0. -1.
         25    2    1    2    0    0 -0.10408589481E+03 -0.10807909710E+03 -0.78201905169E+03  0.80604575929E+03  0.12506400013E+03 0.  0.
          5    1    3    3  502    0 -0.23794940657E+02  0.12973435820E+02 -0.33232396448E+03  0.33345344354E+03  0.41800000000E+01 0. -1.
         -5    1    3    3    0  502 -0.80290954158E+02 -0.12105253292E+03 -0.44969508720E+03  0.47259231575E+03  0.41800000000E+01 0. -1.
        -11    1    1    2    0    0  0.59606208506E+02 -0.72626253127E-01 -0.10040471893E+03  0.11676477616E+03  0.00000000000E+00 0.  1.
         11    1    1    2    0    0  0.44479686309E+02  0.10815172336E+03 -0.14706343570E+03  0.18789063809E+03  0.00000000000E+00 0. -1.
</event>
<event>
 7    1  0.1538147E-010  0.1157967E+03  0.7561462E-02  0.1250197E+00
         -1   -1    0    0    0  501 -0.00000000000E+00  0.00000000000E+00  0.76583421125E+02  0.76583421125E+02  0.00000000000E+00 0.  1.
          1   -1    0    0  501    0  0.00000000000E+00 -0.00000000000E+00 -0.26654987313E+03  0.26654987313E+03  0.00000000000E+00 0. -1.
         25    2    1    2    0    0 -0.33991219777E+02 -0.67060295342E+02 -0.39101853293E+02  0.15111744438E+03  0.12512010563E+03 0.  0.
          5    1    3    3  502    0  0.19415132273E+02 -0.66836483030E+02 -0.61577669143E+02  0.93023354928E+02  0.41800000000E+01 0. -1.
         -5    1    3    3    0  502 -0.53406352051E+02 -0.22381231236E+00  0.22475815850E+02  0.58094089453E+02  0.41800000000E+01 0. -1.
        -11    1    1    2    0    0  0.50490163387E+02  0.13513070545E+02 -0.33830868871E+02  0.62260640560E+02  0.00000000000E+00 0.  1.
         11    1    1    2    0    0 -0.16498943609E+02  0.53547224797E+02 -0.11703372984E+03  0.12975520931E+03  0.00000000000E+00 0. -1.
</event>
<event>
 7    1  0.1538147E-010  0.6438734E+02  0.7561462E-02  0.1380291E+00
          3   -1    0    0  501    0  0.00000000000E+00  0.00000000000E+00  0.79527601835E+03  0.79527601835E+03  0.00000000000E+00 0. -1.
         -3   -1    0    0    0  501 -0.00000000000E+00 -0.00000000000E+00 -0.16805605041E+02  0.16805605041E+02  0.00000000000E+00 0.  1.
         25    2    1    2    0    0 -0.36315238968E+02  0.84277526621E+01  0.48880762024E+03  0.50592863897E+03  0.12506428158E+03 0.  0.
          5    1    3    3  502    0 -0.26993871317E+02  0.29061619487E+01  0.49286340728E+03  0.49362832729E+03  0.41800000000E+01 0.  1.
         -5    1    3    3    0  502 -0.93213676508E+01  0.55215907134E+01 -0.40557870408E+01  0.12300311679E+02  0.41800000000E+01 0.  1.
        -11    1    1    2    0    0 -0.25291481808E+02 -0.11976123108E+02  0.38967244233E+02  0.47974292072E+02  0.00000000000E+00 0.  1.
         11    1    1    2    0    0  0.61606720776E+02  0.35483704456E+01  0.25069554883E+03  0.25817869235E+03  0.00000000000E+00 0. -1.
</event>
<event>
 6    1  0.1538147E-010  0.1272050E+03  0.7561462E-02  0.1231663E+00
         -2   -1    0    0    0  501 -0.00000000000E+00  0.00000000000E+00  0.21735209962E+02  0.21735209962E+02  0.00000000000E+00 0.  1.
          2   -1    0    0  501    0  0.00000000000E+00 -0.00000000000E+00 -0.15333930279E+04  0.15333930279E+04  0.00000000000E+00 0. -1.
          5    1    1    2  502    0 -0.20517342711E+01  0.42287793909E+02 -0.80933565101E+02  0.91434028060E+02  0.41800000000E+01 0. -1.
         -5    1    1    2    0  502  0.24205469484E+02  0.78123792959E+02 -0.10260954072E+04  0.10293582899E+04  0.41800000000E+01 0. -1.
        -11    1    1    2    0    0  0.12325667291E+02 -0.17249031309E+02 -0.73540158715E+01  0.22439534414E+02  0.00000000000E+00 0.  1.
         11    1    1    2    0    0 -0.34479402505E+02 -0.10316255556E+03 -0.39727482980E+03  0.41189638559E+03  0.00000000000E+00 0. -1.
</event>
<event>
 6    1  0.1538147E-010  0.1188835E+03  0.7561462E-02  0.1244950E+00
         -2   -1    0    0    0  501 -0.00000000000E+00  0.00000000000E+00  0.85075969896E+02  0.85075969896E+02  0.00000000000E+00 0.  1.
          2   -1    0    0  501    0  0.00000000000E+00 -0.00000000000E+00 -0.23353793171E+03  0.23353793171E+03  0.00000000000E+00 0. -1.
          5    1    1    2  502    0  0.75749860277E+02  0.44150710643E+02 -0.25360112840E+02  0.91367030736E+02  0.41800000000E+01 0.  1.
         -5    1    1    2    0  502  0.13062804067E+02 -0.53262088392E+02 -0.71659955870E+02  0.90333319353E+02  0.41800000000E+01 0.  1.
        -11    1    1    2    0    0 -0.48142724474E+02 -0.11351116338E+02  0.19044394993E+02  0.53002440912E+02  0.00000000000E+00 0.  1.
         11    1    1    2    0    0 -0.40669939870E+02  0.20462494087E+02 -0.70486288092E+02  0.83911110601E+02  0.00000000000E+00 0. -1.
</event>
<event>
 7    1  0.1538147E-010  0.1013033E+03  0.7561462E-02  0.1277579E+00
         -2   -1    0    0    0  501 -0.00000000000E+00  0.00000000000E+00  0.43154765297E+02  0.43154765297E+02  0.00000000000E+00 0.  1.
          2   -1    0    0  501    0  0.00000000000E+00 -0.00000000000E+00 -0.30711039175E+03  0.30711039175E+03  0.00000000000E+00 0. -1.
         25    2    1    2    0    0  0.11877562517E+02  0.34170333806E+02 -0.17478864776E+03  0.21793739254E+03  0.12504778079E+03 0.  0.
          5    1    3    3  502    0 -0.44699168235E+02 -0.45840785772E+01 -0.21565187277E+02  0.50015588766E+02  0.41800000000E+01 0.  1.
         -5    1    3    3    0  502  0.56576730752E+02  0.38754412383E+02 -0.15322346048E+03  0.16792180378E+03  0.41800000000E+01 0.  1.
        -11    1    1    2    0    0 -0.45815986630E+02 -0.29560087275E+02 -0.25851900341E+02  0.60342556640E+02  0.00000000000E+00 0.  1.
         11    1    1    2    0    0  0.33938424113E+02 -0.46102465310E+01 -0.63315078356E+02  0.71985207866E+02  0.00000000000E+00 0. -1.
</event>
<event>
 6    1  0.1538147E-010  0.2242627E+03  0.7561462E-02  0.1130744E+00
          2   -1    0    0  501    0  0.00000000000E+00  0.00000000000E+00  0.84940448414E+03  0.84940448414E+03  0.00000000000E+00 0. -1.
         -2   -1    0    0    0  501 -0.00000000000E+00 -0.00000000000E+00 -0.92926181227E+02  0.92926181227E+02  0.00000000000E+00 0.  1.
          5    1    1    2  502    0 -0.11960040816E+03  0.77477239448E+01  0.34945587053E+03  0.36946063756E+03  0.41800000000E+01 0.  1.
         -5    1    1    2    0  502 -0.61465982672E+02 -0.10281062557E+03  0.30360863472E+03  0.32641042758E+03  0.41800000000E+01 0.  1.
        -11    1    1    2    0    0  0.15564564214E+03  0.63208877056E+02  0.42694287893E+02  0.17333127321E+03  0.00000000000E+00 0.  1.
         11    1    1    2    0    0  0.25420748696E+02  0.31854024569E+02  0.60719509768E+02  0.73128327014E+02  0.00000000000E+00 0. -1.
</event>
<event>
 7    1  0.1538147E-010  0.9185125E+02  0.7561462E-02  0.1298430E+00
          2   -1    0    0  501    0  0.00000000000E+00  0.00000000000E+00  0.21901170876E+03  0.21901170876E+03  0.00000000000E+00 0. -1.
         -2   -1    0    0    0  501 -0.00000000000E+00 -0.00000000000E+00 -0.10372027117E+03  0.10372027117E+03  0.00000000000E+00 0.  1.
         25    2    1    2    0    0  0.58601988571E+02 -0.59843554838E+02 -0.54212301654E+01  0.15061536131E+03  0.12506059813E+03 0.  0.
          5    1    3    3  502    0  0.18305591076E+02  0.81755961224E+01 -0.53983925323E+02  0.57737956578E+02  0.41800000000E+01 0.  1.
         -5    1    3    3    0  502  0.40296397495E+02 -0.68019150960E+02  0.48562695157E+02  0.92877404730E+02  0.41800000000E+01 0.  1.
        -11    1    1    2    0    0 -0.30399194805E+02  0.26021798943E+02 -0.36553008472E+01  0.40182163820E+02  0.00000000000E+00 0.  1.
         11    1    1    2    0    0 -0.28202793766E+02  0.33821755895E+02  0.12436796861E+03  0.13193445480E+03  0.00000000000E+00 0. -1.
</event>
<event>
 7    1  0.1538147E-010  0.1408605E+03  0.7561462E-02  0.1212176E+00
         -1   -1    0    0    0  501 -0.00000000000E+00  0.00000000000E+00  0.17044183681E+02  0.17044183681E+02  0.00000000000E+00 0.  1.
          1   -1    0    0  501    0  0.00000000000E+00 -0.00000000000E+00 -0.22502042535E+04  0.22502042535E+04  0.00000000000E+00 0. -1.
         25    2    1    2    0    0  0.10852234093E+03 -0.60370030590E+02 -0.17860509366E+04  0.17947255021E+04  0.12506014774E+03 0.  0.
          5    1    3    3  502    0  0.86613975931E+02  0.32673089430E+01 -0.14106308936E+04  0.14132974374E+04  0.41800000000E+01 0.  1.
         -5    1    3    3    0  502  0.21908364997E+02 -0.63637339533E+02 -0.37542004298E+03  0.38142806466E+03  0.41800000000E+01 0.  1.
        -11    1    1    2    0    0 -0.45917313792E+02  0.42098882356E+02 -0.89684430368E+02  0.10919712749E+03  0.00000000000E+00 0. -1.
         11    1    1    2    0    0 -0.62605027136E+02  0.18271148233E+02 -0.35742470285E+03  0.36332580763E+03  0.00000000000E+00 0.  1.
</event>
<event>
 7    1  0.1538147E-010  0.8843533E+02  0.7561462E-02  0.1306686E+00
          1   -1    0    0  501    0  0.00000000000E+00  0.00000000000E+00  0.19467675037E+03  0.19467675037E+03  0.00000000000E+00 0. -1.
         -1   -1    0    0    0  501 -0.00000000000E+00 -0.00000000000E+00 -0.94695103477E+02  0.94695103477E+02  0.00000000000E+00 0.  1.
         25    2    1    2    0    0 -0.56601270569E+02 -0.12404496940E+02 -0.59515999990E+01  0.13800953945E+03  0.12511449181E+03 0.  0.
          5    1    3    3  502    0 -0.99915096178E+01  0.28810334702E+02 -0.52044754403E+02  0.60464820441E+02  0.41800000000E+01 0. -1.
         -5    1    3    3    0  502 -0.46609760951E+02 -0.41214831642E+02  0.46093154404E+02  0.77544719009E+02  0.41800000000E+01 0. -1.
        -11    1    1    2    0    0  0.10279031537E+02 -0.23156288234E+02 -0.51599114400E+01  0.25855306229E+02  0.00000000000E+00 0.  1.
         11    1    1    2    0    0  0.46322239033E+02  0.35560785174E+02  0.11109315833E+03  0.12550700817E+03  0.00000000000E+00 0. -1.
</event>
<event>
 7    1  0.1538147E-010  0.1789811E+03  0.7561462E-02  0.1168793E+00
         -1   -1    0    0    0  501 -0.00000000000E+00  0.00000000000E+00  0.29710539902E+03  0.29710539902E+03  0.00000000000E+00 0.  1.
          1   -1    0    0  501    0  0.00000000000E+00 -0.00000000000E+00 -0.12475587318E+03  0.12475587318E+03  0.00000000000E+00 0. -1.
         25    2    1    2    0    0 -0.15236194591E+03 -0.45226984405E+02  0.83232932771E+02  0.21872518175E+03  0.12511331405E+03 0.  0.
          5    1    3    3  502    0 -0.16341363362E+03 -0.24056431980E+02  0.96238928899E+02  0.19121226794E+03  0.41800000000E+01 0. -1.
         -5    1    3    3    0  502  0.11051687711E+02 -0.21170552425E+02 -0.13005996128E+02  0.27512913813E+02  0.41800000000E+01 0. -1.
        -11    1    1    2    0    0  0.46212447494E+02  0.41757165961E+02 -0.32710938656E+01  0.62369473844E+02  0.00000000000E+00 0. -1.
         11    1    1    2    0    0  0.10614949842E+03  0.34698184432E+01  0.92387686938E+02  0.14076661661E+03  0.00000000000E+00 0.  1.
</event>
<event>
 7    1  0.1538147E-010  0.1183569E+03  0.7561462E-02  0.1245832E+00
          4   -1    0    0  501    0  0.00000000000E+00  0.00000000000E+00  0.79912610361E+02  0.79912610361E+02  0.00000000000E+00 0. -1.
         -4   -1    0    0    0  501 -0.00000000000E+00 -0.00000000000E+00 -0.18795246137E+03  0.18795246137E+03  0.00000000000E+00 0.  1.
         25    2    1    2    0    0 -0.37135079977E+02  0.36074489737E+02 -0.77846617927E+02  0.15614293434E+03  0.12506053353E+03 0.  0.
          5    1    3    3  502    0  0.10944160057E+02  0.71026772138E+02 -0.60630719056E+02  0.94117657711E+02  0.41800000000E+01 0. -1.
         -5    1    3    3    0  502 -0.48079240034E+02 -0.34952282402E+02 -0.17215898871E+02  0.62025276632E+02  0.41800000000E+01 0. -1.
        -11    1    1    2    0    0  0.34099618405E+02 -0.66409585958E+02 -0.31911429644E+02  0.81187169087E+02  0.00000000000E+00 0.  1.
         11    1    1    2    0    0  0.30354615726E+01  0.30335096221E+02  0.17181965628E+01  0.30534968301E+02  0.00000000000E+00 0. -1.
</event>
<event>
 6    1  0.1538147E-010  0.7611913E+02  0.7561462E-02  0.1340440E+00
          2   -1    0    0  501    0  0.00000000000E+00  0.00000000000E+00  0.20756675442E+03  0.20756675442E+03  0.00000000000E+00 0. -1.
         -2   -1    0    0    0  501 -0.00000000000E+00 -0.00000000000E+00 -0.62842469463E+02  0.62842469463E+02  0.00000000000E+00 0.  1.
          5    1    1    2  502    0 -0.18333840127E+02  0.49033397361E+02  0.75717428100E+02  0.92146649796E+02  0.41800000000E+01 0.  1.
         -5    1    1    2    0  502 -0.14755536672E+02 -0.61719875334E+02  0.11634762980E+02  0.64652215611E+02  0.41800000000E+01 0.  1.
        -11    1    1    2    0    0  0.11319294583E+02  0.79898850951E+01 -0.24835842299E+02  0.28439123693E+02  0.00000000000E+00 0.  1.
         11    1    1    2    0    0  0.21770082216E+02  0.46965928781E+01  0.82207936171E+02  0.85171234780E+02  0.00000000000E+00 0. -1.
</event>
<event>
 7    1  0.1538147E-010  0.4887111E+02  0.7561462E-02  0.1451527E+00
          2   -1    0    0  501    0  0.00000000000E+00  0.00000000000E+00  0.32274996474E+03  0.32274996474E+03  0.00000000000E+00 0. -1.
         -2   -1    0    0    0  501 -0.00000000000E+00 -0.00000000000E+00 -0.41948956361E+02  0.41948956361E+02  0.00000000000E+00 0.  1.
         25    2    1    2    0    0  0.17467166420E+02  0.34866307766E+02  0.14146024307E+03  0.19280366885E+03  0.12506595472E+03 0.  0.
          5    1    3    3  502    0  0.19349567850E+02  0.56676021967E+01 -0.19973258185E+02  0.28686772791E+02  0.41800000000E+01 0. -1.
         -5    1    3    3    0  502 -0.18824014296E+01  0.29198705570E+02  0.16143350126E+03  0.16411689606E+03  0.41800000000E+01 0. -1.
        -11    1    1    2    0    0 -0.11994550723E+02  0.30658580141E+00 -0.11674858224E+02  0.16741133667E+02  0.00000000000E+00 0.  1.
         11    1    1    2    0    0 -0.54726156969E+01 -0.35172893568E+02  0.15101562353E+03  0.15515411859E+03  0.00000000000E+00 0. -1.
</event>
<event>
 7    1  0.1538147E-010  0.9976537E+02  0.7561462E-02  0.1280790E+00
         -1   -1    0    0    0  501 -0.00000000000E+00  0.00000000000E+00  0.37035479802E+02  0.37035479802E+02  0.00000000000E+00 0. -1.
          1   -1    0    0  501    0  0.00000000000E+00 -0.00000000000E+00 -0.29990689600E+03  0.29990689600E+03  0.00000000000E+00 0.  1.
         25    2    1    2    0    0 -0.60818470274E+01 -0.68314541197E+01 -0.17049776363E+03  0.21163978430E+03  0.12505300183E+03 0.  0.
          5    1    3    3  502    0 -0.55257831017E+02  0.19729431622E+02 -0.12939111103E+03  0.14213447989E+03  0.41800000000E+01 0. -1.
         -5    1    3    3    0  502  0.49175983990E+02 -0.26560885741E+02 -0.41106652605E+02  0.69505304410E+02  0.41800000000E+01 0. -1.
        -11    1    1    2    0    0 -0.15095961514E+02 -0.34810710455E+02 -0.40957477101E+02  0.55831787961E+02  0.00000000000E+00 0.  1.
         11    1    1    2    0    0  0.21177808541E+02  0.41642164575E+02 -0.51416175464E+02  0.69470803539E+02  0.00000000000E+00 0. -1.
</event>
<event>
 7    1  0.1538147E-010  0.8060206E+02  0.7561462E-02  0.1327351E+00
          2   -1    0    0  501    0  0.00000000000E+00  0.00000000000E+00  0.39486679254E+02  0.39486679254E+02  0.00000000000E+00 0. -1.
         -2   -1    0    0    0  501 -0.00000000000E+00 -0.00000000000E+00 -0.35713281926E+03  0.35713281926E+03  0.00000000000E+00 0.  1.
         25    2    1    2    0    0  0.38955916944E+02  0.68197949970E+01 -0.21584941843E+03  0.25257283756E+03  0.12505196426E+03 0.  0.
          5    1    3    3  502    0 -0.10890255332E+02  0.32158114625E+01 -0.19943851389E+03  0.19980523599E+03  0.41800000000E+01 0. -1.
         -5    1    3    3    0  502  0.49846172277E+02  0.36039835344E+01 -0.16410904543E+02  0.52767601574E+02  0.41800000000E+01 0. -1.
        -11    1    1    2    0    0  0.16280046231E+02 -0.33772954490E+02 -0.22519532859E+02  0.43735360070E+02  0.00000000000E+00 0.  1.
         11    1    1    2    0    0 -0.55235963176E+02  0.26953159493E+02 -0.79277188713E+02  0.10031130088E+03  0.00000000000E+00 0. -1.
</event>
<event>
 7    1  0.1538147E-010  0.1110587E+03  0.7561462E-02  0.1258622E+00
          1   -1    0    0  501    0  0.00000000000E+00  0.00000000000E+00  0.61951123555E+03  0.61951123555E+03  0.00000000000E+00 0. -1.
         -1   -1    0    0    0  501 -0.00000000000E+00 -0.00000000000E+00 -0.28283401041E+02  0.28283401041E+02  0.00000000000E+00 0.  1.
         25    2    1    2    0    0 -0.39068790713E+02 -0.63421750678E+02  0.34965367980E+03  0.37874525306E+03  0.12506631061E+03 0.  0.
          5    1    3    3  502    0  0.20862589955E+02 -0.22608219184E+02  0.26665318075E+03  0.26845441036E+03  0.41800000000E+01 0. -1.
         -5    1    3    3    0  502 -0.59931380668E+02 -0.40813531495E+02  0.83000499050E+02  0.11029084270E+03  0.41800000000E+01 0. -1.
        -11    1    1    2    0    0  0.15394318852E+02  0.85016154723E+02  0.17525674282E+03  0.19539615534E+03  0.00000000000E+00 0.  1.
         11    1    1    2    0    0  0.23674471861E+02 -0.21594404045E+02  0.66317411886E+02  0.73653228193E+02  0.00000000000E+00 0. -1.
</event>
<event>
 7    1  0.4574469E-010  0.8860991E+02  0.7561462E-02  0.1306253E+00
          2   -1    0    0  501    0  0.00000000000E+00  0.00000000000E+00  0.67767163072E+03  0.67767163072E+03  0.00000000000E+00 0. -1.
         -2   -1    0    0    0  501 -0.00000000000E+00 -0.00000000000E+00 -0.27819910949E+02  0.27819910949E+02  0.00000000000E+00 0.  1.
         25    2    1    2    0    0 -0.64916252709E+02  0.10318216232E+02  0.22507569675E+03  0.26574294408E+03  0.12505861671E+03 0.  0.
          5    1    3    3  502    0 -0.51805061826E+02  0.20868175594E+02  0.23775452917E+03  0.24426201858E+03  0.41800000000E+01 0.  1.
         -5    1    3    3    0  502 -0.13111190883E+02 -0.10549959363E+02 -0.12678832419E+02  0.21480925502E+02  0.41800000000E+01 0.  1.
        -11    1    1    2    0    0  0.65308580067E+02 -0.38418291110E+02  0.37508136879E+03  0.38265808359E+03  0.00000000000E+00 0.  1.
         11    1    1    2    0    0 -0.39232735831E+00  0.28100074879E+02  0.49694654234E+02  0.57090513996E+02  0.00000000000E+00 0. -1.
</event>
<event>
 6    1  0.1538147E-010  0.9680760E+02  0.7561462E-02  0.1287156E+00
         -1   -1    0    0    0  501 -0.00000000000E+00  0.00000000000E+00  0.60792476472E+02  0.60792476472E+02  0.00000000000E+00 0.  1.
          1   -1    0    0  501    0  0.00000000000E+00 -0.00000000000E+00 -0.26362964995E+03  0.26362964995E+03  0.00000000000E+00 0. -1.
          5    1    1    2  502    0  0.27830040355E+02  0.89986532362E+02 -0.13520316460E+03  0.16483159670E+03  0.41800000000E+01 0. -1.
         -5    1    1    2    0  502 -0.10952336659E+02 -0.33575293234E+02 -0.12928003445E+02  0.37839921605E+02  0.41800000000E+01 0. -1.
        -11    1    1    2    0    0  0.64092142623E+01 -0.13536433172E+02 -0.69239926113E+02  0.70841233887E+02  0.00000000000E+00 0. -1.
         11    1    1    2    0    0 -0.23286917959E+02 -0.42874805956E+02  0.14533920684E+02  0.50909374227E+02  0.00000000000E+00 0.  1.
</event>
<event>
 7    1  0.1538147E-010  0.1783658E+03  0.7561462E-02  0.1169394E+00
          1   -1    0    0  501    0  0.00000000000E+00  0.00000000000E+00  0.17758866811E+04  0.17758866811E+04  0.00000000000E+00 0.  1.
         -1   -1    0    0    0  501 -0.00000000000E+00 -0.00000000000E+00 -0.28384929794E+02  0.28384929794E+02  0.00000000000E+00 0. -1.
         25    2    1    2    0    0 -0.73553426341E+02 -0.14485166984E+03  0.13471601271E+04  0.13626714290E+04  0.12506359432E+03 0.  0.
          5    1    3    3  502    0 -0.56092894979E+02 -0.14430873464E+03  0.13255633897E+04  0.13345812813E+04  0.41800000000E+01 0.  1.
         -5    1    3    3    0  502 -0.17460531362E+02 -0.54293520208E+00  0.21596737331E+02  0.28090147693E+02  0.41800000000E+01 0. -1.
        -11    1    1    2    0    0  0.60591921411E+02  0.28756536110E+02  0.18214844358E+03  0.19410403089E+03  0.00000000000E+00 0. -1.
         11    1    1    2    0    0  0.12961504930E+02  0.11609513373E+03  0.21819318068E+03  0.24749615105E+03  0.00000000000E+00 0.  1.
</event>
<event>
 7    1  0.1538147E-010  0.1168487E+03  0.7561462E-02  0.1248388E+00
          1   -1    0    0  501    0  0.00000000000E+00  0.00000000000E+00  0.15123492888E+03  0.15123492888E+03  0.00000000000E+00 0. -1.
         -1   -1    0    0    0  501 -0.00000000000E+00 -0.00000000000E+00 -0.92939822890E+02  0.92939822890E+02  0.00000000000E+00 0.  1.
         25    2    1    2    0    0  0.44938019826E+02  0.15690384893E+02  0.23172733820E+02  0.13586774904E+03  0.12512975598E+03 0.  0.
          5    1    3    3  502    0  0.32512959652E+02 -0.52453643749E+02 -0.24295175665E+01  0.61901956702E+02  0.41800000000E+01 0.  1.
         -5    1    3    3    0  502  0.12425060174E+02  0.68144028642E+02  0.25602251386E+02  0.73965792336E+02  0.41800000000E+01 0.  1.
        -11    1    1    2    0    0  0.10225432426E+02 -0.40639718226E+02  0.14863079015E+02  0.44464112311E+02  0.00000000000E+00 0. -1.
         11    1    1    2    0    0 -0.55163452252E+02  0.24949333333E+02  0.20259293155E+02  0.63842890421E+02  0.00000000000E+00 0.  1.
</event>
<event>
 7    1  0.1538147E-010  0.1248151E+03  0.7561462E-02  0.1235358E+00
         -1   -1    0    0    0  501 -0.00000000000E+00  0.00000000000E+00  0.23486591760E+02  0.23486591760E+02  0.00000000000E+00 0.  1.
          1   -1    0    0  501    0  0.00000000000E+00 -0.00000000000E+00 -0.70803049433E+03  0.70803049433E+03  0.00000000000E+00 0. -1.
         25    2    1    2    0    0  0.65076423540E+02 -0.26000457734E+02 -0.35358482344E+03  0.38153049483E+03  0.12502930224E+03 0.  0.
          5    1    3    3  502    0 -0.47647043410E+01 -0.63557056116E+02 -0.15271698259E+03  0.16553595066E+03  0.41800000000E+01 0.  1.
         -5    1    3    3    0  502  0.69841127881E+02  0.37556598382E+02 -0.20086784085E+03  0.21599454418E+03  0.41800000000E+01 0.  1.
        -11    1    1    2    0    0 -0.23088103972E+01  0.41606518648E+02 -0.73133611750E+02  0.84172193550E+02  0.00000000000E+00 0. -1.
         11    1    1    2    0    0 -0.62767613143E+02 -0.15606060914E+02 -0.25782546738E+03  0.26581439771E+03  0.00000000000E+00 0.  1.
</event>
<event>
 6    1  0.1538147E-010  0.9816567E+02  0.7561462E-02  0.1284201E+00
          1   -1    0    0  501    0  0.00000000000E+00  0.00000000000E+00  0.55339176882E+03  0.55339176882E+03  0.00000000000E+00 0. -1.
         -1   -1    0    0    0  501 -0.00000000000E+00 -0.00000000000E+00 -0.24454137450E+02  0.24454137450E+02  0.00000000000E+00 0.  1.
          5    1    1    2  502    0  0.31492546490E+02 -0.34468754703E+02  0.87245099115E+02  0.99040674750E+02  0.41800000000E+01 0. -1.
         -5    1    1    2    0  502 -0.39232164210E+02  0.69046611096E+02  0.25470836084E+03  0.26683406584E+03  0.41800000000E+01 0. -1.
        -11    1    1    2    0    0 -0.25465015095E+02 -0.24233143365E+02  0.18091816051E+02  0.39535124119E+02  0.00000000000E+00 0.  1.
         11    1    1    2    0    0  0.33204632815E+02 -0.10344713029E+02  0.16889235537E+03  0.17243604157E+03  0.00000000000E+00 0. -1.
</event>
<event>
 7    1  0.1538147E-010  0.1174898E+03  0.7561462E-02  0.1247296E+00
         -1   -1    0    0    0  501 -0.00000000000E+00  0.00000000000E+00  0.62768105421E+02  0.62768105421E+02  0.00000000000E+00 0.  1.
          1   -1    0    0  501    0  0.00000000000E+00 -0.00000000000E+00 -0.35356979743E+03  0.35356979743E+03  0.00000000000E+00 0. -1.
         25    2    1    2    0    0  0.86089577105E+01  0.96992034465E+02 -0.13113570693E+03  0.20569872839E+03  0.12503529232E+03 0.  0.
          5    1    3    3  502    0  0.60500742604E+01  0.73390068647E+02 -0.15507735760E+03  0.17172409503E+03  0.41800000000E+01 0. -1.
         -5    1    3    3    0  502  0.25588834502E+01  0.23601965818E+02  0.23941650670E+02  0.33974633358E+02  0.41800000000E+01 0. -1.
        -11    1    1    2    0    0  0.41940531787E+02 -0.23975536814E+02 -0.62677223631E+02  0.79134499014E+02  0.00000000000E+00 0.  1.
         11    1    1    2    0    0 -0.50549489498E+02 -0.73016497651E+02 -0.96988761454E+02  0.13150467545E+03  0.00000000000E+00 0. -1.
</event>
<event>
 7    1  0.1538147E-010  0.9825140E+02  0.7561462E-02  0.1284017E+00
          1   -1    0    0  501    0  0.00000000000E+00  0.00000000000E+00  0.39042767394E+02  0.39042767394E+02  0.00000000000E+00 0. -1.
         -1   -1    0    0    0  501 -0.00000000000E+00 -0.00000000000E+00 -0.42804580083E+03  0.42804580083E+03  0.00000000000E+00 0.  1.
         25    2    1    2    0    0 -0.64298922902E+02 -0.20475555426E+01 -0.26819524579E+03  0.30285358561E+03  0.12511219160E+03 0.  0.
          5    1    3    3  502    0 -0.17068957057E+02 -0.33703340791E+02 -0.23250786685E+03  0.23559423809E+03  0.41800000000E+01 0. -1.
         -5    1    3    3    0  502 -0.47229965846E+02  0.31655785249E+02 -0.35687378938E+02  0.67259347521E+02  0.41800000000E+01 0. -1.
        -11    1    1    2    0    0 -0.56794987186E+01 -0.25613253145E+02 -0.66352127586E+02  0.71350545041E+02  0.00000000000E+00 0.  1.
         11    1    1    2    0    0  0.69978421621E+02  0.27660808687E+02 -0.54455660060E+02  0.92884437568E+02  0.00000000000E+00 0. -1.
</event>
<event>
 7    1  0.1538147E-010  0.7741058E+02  0.7561462E-02  0.1336565E+00
          1   -1    0    0  501    0  0.00000000000E+00  0.00000000000E+00  0.38070289866E+03  0.38070289866E+03  0.00000000000E+00 0. -1.
         -1   -1    0    0    0  501 -0.00000000000E+00 -0.00000000000E+00 -0.41867651018E+02  0.41867651018E+02  0.00000000000E+00 0.  1.
         25    2    1    2    0    0  0.32055602494E+02  0.27067838824E+02  0.27516922933E+03  0.30517499555E+03  0.12511372262E+03 0.  0.
          5    1    3    3  502    0 -0.46199172482E+01  0.54755883935E+02  0.24238543902E+03  0.24857136583E+03  0.41800000000E+01 0.  1.
         -5    1    3    3    0  502  0.36675519743E+02 -0.27688045111E+02  0.32783790311E+02  0.56603629721E+02  0.41800000000E+01 0.  1.
        -11    1    1    2    0    0 -0.26537472287E+02 -0.61298912589E+00  0.81034410296E+02  0.85271266222E+02  0.00000000000E+00 0. -1.
         11    1    1    2    0    0 -0.55181302077E+01 -0.26454849698E+02 -0.17368391983E+02  0.32124287908E+02  0.00000000000E+00 0.  1.
</event>
<event>
 7    1  0.1538147E-010  0.1276050E+03  0.7561462E-02  0.1231053E+00
          2   -1    0    0  501    0  0.00000000000E+00  0.00000000000E+00  0.49770866823E+03  0.49770866823E+03  0.00000000000E+00 0. -1.
         -2   -1    0    0    0  501 -0.00000000000E+00 -0.00000000000E+00 -0.40121420000E+02  0.40121420000E+02  0.00000000000E+00 0.  1.
         25    2    1    2    0    0  0.69545717755E+02  0.31302087709E+02  0.16116819277E+03  0.21782157969E+03  0.12511845053E+03 0.  0.
          5    1    3    3  502    0  0.40519020946E+02  0.74458969456E+02  0.13496618054E+03  0.15943422305E+03  0.41800000000E+01 0. -1.
         -5    1    3    3    0  502  0.29026696809E+02 -0.43156881747E+02  0.26202012232E+02  0.58387356634E+02  0.41800000000E+01 0. -1.
        -11    1    1    2    0    0 -0.80346556778E+02  0.47865058868E+01  0.22963976588E+03  0.24333701301E+03  0.00000000000E+00 0.  1.
         11    1    1    2    0    0  0.10800839023E+02 -0.36088593596E+02  0.66779289571E+02  0.76671495531E+02  0.00000000000E+00 0. -1.
</event>
<event>
 6    1  0.1538147E-010  0.7939154E+02  0.7561462E-02  0.1330787E+00
          1   -1    0    0  501    0  0.00000000000E+00  0.00000000000E+00  0.16886916926E+02  0.16886916926E+02  0.00000000000E+00 0. -1.
         -1   -1    0    0    0  501 -0.00000000000E+00 -0.00000000000E+00 -0.82136446079E+03  0.82136446079E+03  0.00000000000E+00 0.  1.
          5    1    1    2  502    0  0.45032650676E+02 -0.16758772198E+02 -0.35872705434E+03  0.36195492535E+03  0.41800000000E+01 0.  1.
         -5    1    1    2    0  502 -0.12661987107E+02 -0.25122540162E+01  0.55401348027E+01  0.14656153362E+02  0.41800000000E+01 0.  1.
        -11    1    1    2    0    0 -0.31130553044E+01 -0.35101092556E+02 -0.14930311934E+03  0.15340534299E+03  0.00000000000E+00 0. -1.
         11    1    1    2    0    0 -0.29257608265E+02  0.54372118771E+02 -0.30198750499E+03  0.30823495602E+03  0.00000000000E+00 0.  1.
</event>
<event>
 7    1  0.1538147E-010  0.8095409E+02  0.7561462E-02  0.1326365E+00
         -1   -1    0    0    0  501 -0.00000000000E+00  0.00000000000E+00  0.49177072549E+02  0.49177072549E+02  0.00000000000E+00 0.  1.
          1   -1    0    0  501    0  0.00000000000E+00 -0.00000000000E+00 -0.25872976010E+03  0.25872976010E+03  0.00000000000E+00 0. -1.
         25    2    1    2    0    0  0.57506047907E+01 -0.78293840196E+01 -0.16364433073E+03  0.20618219397E+03  0.12504903607E+03 0.  0.
          5    1    3    3  502    0  0.62643095611E+02 -0.19226945376E+02 -0.10298828453E+03  0.12213882269E+03  0.41800000000E+01 0. -1.
         -5    1    3    3    0  502 -0.56892490821E+02  0.11397561356E+02 -0.60656046198E+02  0.84043371285E+02  0.41800000000E+01 0. -1.
        -11    1    1    2    0    0 -0.63494742229E+01 -0.14451795722E+02  0.23789141452E+02  0.28549841918E+02  0.00000000000E+00 0.  1.
         11    1    1    2    0    0  0.59886943218E+00  0.22281179742E+02 -0.69697498267E+02  0.73174796754E+02  0.00000000000E+00 0. -1.
</event>
<event>
 6    1  0.1538147E-010  0.7667723E+02  0.7561462E-02  0.1338754E+00
         -1   -1    0    0    0  501 -0.00000000000E+00  0.00000000000E+00  0.38085652537E+02  0.38085652537E+02  0.00000000000E+00 0.  1.
          1   -1    0    0  501    0  0.00000000000E+00 -0.00000000000E+00 -0.57106429244E+03  0.57106429244E+03  0.00000000000E+00 0. -1.
          5    1    1    2  502    0 -0.32330852781E+02 -0.21423395728E+02 -0.44972313961E+03  0.45141180825E+03  0.41800000000E+01 0. -1.
         -5    1    1    2    0  502 -0.53914505748E+01 -0.30292685957E+02 -0.15700334013E+02  0.34794934257E+02  0.41800000000E+01 0. -1.
        -11    1    1    2    0    0  0.33317002421E+02  0.19935432172E+01 -0.64871087438E+02  0.72953785716E+02  0.00000000000E+00 0.  1.
         11    1    1    2    0    0  0.44053009346E+01  0.49722538468E+02 -0.26840788394E+01  0.49989416752E+02  0.00000000000E+00 0. -1.
</event>
<event>
 7    1  0.1538147E-010  0.2004246E+03  0.7561462E-02  0.1149381E+00
         -1   -1    0    0    0  501 -0.00000000000E+00  0.00000000000E+00  0.28557302632E+03  0.28557302632E+03  0.00000000000E+00 0.  1.
          1   -1    0    0  501    0  0.00000000000E+00 -0.00000000000E+00 -0.17245577475E+03  0.17245577475E+03  0.00000000000E+00 0. -1.
         25    2    1    2    0    0  0.62721271381E+02  0.15712164111E+03  0.15422602702E+03  0.26089381375E+03  0.12513491380E+03 0.  0.
          5    1    3    3  502    0  0.32255212187E+02 -0.13184887097E+02  0.41534116159E+02  0.54376421049E+02  0.41800000000E+01 0. -1.
         -5    1    3    3    0  502  0.30466059193E+02  0.17030652821E+03  0.11269191086E+03  0.20651739270E+03  0.41800000000E+01 0. -1.
        -11    1    1    2    0    0 -0.14356042104E+02 -0.14097427833E+03 -0.33133653935E+02  0.14552553768E+03  0.00000000000E+00 0.  1.
         11    1    1    2    0    0 -0.48365229277E+02 -0.16147362784E+02 -0.79751215167E+01  0.51609449630E+02  0.00000000000E+00 0. -1.
</event>
<event>
 7    1  0.1538147E-010  0.1263008E+03  0.7561462E-02  0.1233050E+00
          2   -1    0    0  501    0  0.00000000000E+00  0.00000000000E+00  0.36723861610E+03  0.36723861610E+03  0.00000000000E+00 0. -1.
         -2   -1    0    0    0  501 -0.00000000000E+00 -0.00000000000E+00 -0.66662717555E+02  0.66662717555E+02  0.00000000000E+00 0.  1.
         25    2    1    2    0    0  0.92477518922E+02  0.15248456915E+02  0.75809368789E+02  0.17373815966E+03  0.12511307199E+03 0.  0.
          5    1    3    3  502    0  0.88683201245E+02  0.55316395034E+02  0.81856204969E+02  0.13282516491E+03  0.41800000000E+01 0. -1.
         -5    1    3    3    0  502  0.37943176771E+01 -0.40067938119E+02 -0.60468361793E+01  0.40912994751E+02  0.41800000000E+01 0. -1.
        -11    1    1    2    0    0 -0.47098361334E+02  0.18891745541E+02  0.18236027521E+03  0.18928925924E+03  0.00000000000E+00 0. -1.
         11    1    1    2    0    0 -0.45379157588E+02 -0.34140202456E+02  0.42406254548E+02  0.70873914749E+02  0.00000000000E+00 0.  1.
</event>
<event>
 6    1  0.1538147E-010  0.1149602E+03  0.7561462E-02  0.1251651E+00
          3   -1    0    0  501    0  0.00000000000E+00  0.00000000000E+00  0.16246158648E+03  0.16246158648E+03  0.00000000000E+00 0. -1.
         -3   -1    0    0    0  501 -0.00000000000E+00 -0.00000000000E+00 -0.11758551862E+03  0.11758551862E+03  0.00000000000E+00 0.  1.
          5    1    1    2  502    0  0.53893161652E+02 -0.67766145976E+02 -0.20373036554E+02  0.89046372367E+02  0.41800000000E+01 0.  1.
         -5    1    1    2    0  502  0.13416737444E+02  0.16812062091E+02  0.64983433213E+02  0.68578227358E+02  0.41800000000E+01 0.  1.
        -11    1    1    2    0    0 -0.87661647524E+02  0.31441734761E+02 -0.67318096077E+01  0.93372717600E+02  0.00000000000E+00 0.  1.
         11    1    1    2    0    0  0.20351748428E+02  0.19512349124E+02  0.69974808080E+01  0.29049787780E+02  0.00000000000E+00 0. -1.
</event>
<event>
 7    1  0.1538147E-010  0.1027343E+03  0.7561462E-02  0.1274649E+00
          3   -1    0    0  501    0  0.00000000000E+00  0.00000000000E+00  0.21397154235E+03  0.21397154235E+03  0.00000000000E+00 0. -1.
         -3   -1    0    0    0  501 -0.00000000000E+00 -0.00000000000E+00 -0.63696877346E+02  0.63696877346E+02  0.00000000000E+00 0.  1.
         25    2    1    2    0    0 -0.42159778519E+01 -0.35299816565E+02  0.11409558887E+03  0.17302129866E+03  0.12511880304E+03 0.  0.
          5    1    3    3  502    0  0.30001060909E+02  0.36491094773E+02  0.25324365467E+02  0.53762994148E+02  0.41800000000E+01 0. -1.
         -5    1    3    3    0  502 -0.34217038761E+02 -0.71790911338E+02  0.88771223398E+02  0.11925830452E+03  0.41800000000E+01 0. -1.
        -11    1    1    2    0    0  0.72134803482E+00 -0.21493060545E+02 -0.16499674309E+02  0.27105557491E+02  0.00000000000E+00 0.  1.
         11    1    1    2    0    0  0.34946298171E+01  0.56792877110E+02  0.52678750450E+02  0.77541563545E+02  0.00000000000E+00 0. -1.
</event>
<event>
 7    1  0.1538147E-010  0.1157955E+03  0.7561462E-02  0.1250199E+00
          2   -1    0    0  501    0  0.00000000000E+00  0.00000000000E+00  0.12249210475E+04  0.12249210475E+04  0.00000000000E+00 0. -1.
         -2   -1    0    0    0  501 -0.00000000000E+00 -0.00000000000E+00 -0.19803181572E+02  0.19803181572E+02  0.00000000000E+00 0.  1.
         25    2    1    2    0    0 -0.10769120224E+03 -0.15653349028E+02  0.75653965560E+03  0.77449000910E+03  0.12506039072E+03 0.  0.
          5    1    3    3  502    0 -0.25941505699E+02  0.20033271310E+02  0.37721876629E+02  0.50146844902E+02  0.41800000000E+01 0.  1.
         -5    1    3    3    0  502 -0.81749696538E+02 -0.35686620338E+02  0.71881777897E+03  0.72434316419E+03  0.41800000000E+01 0.  1.
        -11    1    1    2    0    0  0.23445084771E+02  0.74836101434E+01  0.15775188901E+02  0.29232396507E+02  0.00000000000E+00 0.  1.
         11    1    1    2    0    0  0.84246117465E+02  0.81697388843E+01  0.43280302140E+03  0.44100182344E+03  0.00000000000E+00 0. -1.
</event>
<event>
 7    1  0.1538147E-010  0.1287116E+03  0.7561462E-02  0.1229380E+00
         -2   -1    0    0    0  501 -0.00000000000E+00  0.00000000000E+00  0.22796082075E+02  0.22796082075E+02  0.00000000000E+00 0.  1.
          2   -1    0    0  501    0  0.00000000000E+00 -0.00000000000E+00 -0.75660388304E+03  0.75660388304E+03  0.00000000000E+00 0. -1.
         25    2    1    2    0    0 -0.51169451487E+01  0.73322813677E+02 -0.42928074384E+03  0.45312411321E+03  0.12504833792E+03 0.  0.
          5    1    3    3  502    0  0.40296115215E+02 -0.13574347404E+02 -0.85069147490E+02  0.95195966635E+02  0.41800000000E+01 0.  1.
         -5    1    3    3    0  502 -0.45413060363E+02  0.86897161081E+02 -0.34421159635E+03  0.35792814658E+03  0.41800000000E+01 0.  1.
        -11    1    1    2    0    0 -0.16917503966E+02 -0.88307233929E+02 -0.22059020711E+03  0.23821084983E+03  0.00000000000E+00 0.  1.
         11    1    1    2    0    0  0.22034449115E+02  0.14984420252E+02 -0.83936850021E+02  0.88065002070E+02  0.00000000000E+00 0. -1.
</event>
<event>
 7    1  0.1538147E-010  0.1072187E+03  0.7561462E-02  0.1265809E+00
         -4   -1    0    0    0  501 -0.00000000000E+00  0.00000000000E+00  0.90727177202E+02  0.90727177202E+02  0.00000000000E+00 0.  1.
          4   -1    0    0  501    0  0.00000000000E+00 -0.00000000000E+00 -0.18485245120E+03  0.18485245120E+03  0.00000000000E+00 0. -1.
         25    2    1    2    0    0  0.65834814335E+01 -0.66043089326E+02 -0.86326215214E+02  0.16587310190E+03  0.12512649050E+03 0.  0.
          5    1    3    3  502    0  0.41102052990E+02 -0.78848178628E+02 -0.92424912414E+02  0.12832089022E+03  0.41800000000E+01 0. -1.
         -5    1    3    3    0  502 -0.34518571556E+02  0.12805089302E+02  0.60986972002E+01  0.37552211678E+02  0.41800000000E+01 0. -1.
        -11    1    1    2    0    0 -0.31781824238E+02  0.47201247790E+02  0.26835549341E+02  0.62914138739E+02  0.00000000000E+00 0.  1.
         11    1    1    2    0    0  0.25198342805E+02  0.18841841536E+02 -0.34634608127E+02  0.46792387764E+02  0.00000000000E+00 0. -1.
</event>
<event>
 6    1  0.1538147E-010  0.1190685E+03  0.7561462E-02  0.1244642E+00
          2   -1    0    0  501    0  0.00000000000E+00  0.00000000000E+00  0.88073562774E+03  0.88073562774E+03  0.00000000000E+00 0. -1.
         -2   -1    0    0    0  501 -0.00000000000E+00 -0.00000000000E+00 -0.22799868322E+02  0.22799868322E+02  0.00000000000E+00 0.  1.
          5    1    1    2  502    0 -0.58693334255E+02  0.23079295984E+02  0.66646783044E+02  0.91852204541E+02  0.41800000000E+01 0. -1.
         -5    1    1    2    0  502  0.85323908297E+01  0.49188544728E+02  0.32027441702E+03  0.32416892081E+03  0.41800000000E+01 0. -1.
        -11    1    1    2    0    0  0.69327219313E+02 -0.24779328445E+02  0.24810048988E+03  0.25879360799E+03  0.00000000000E+00 0.  1.
         11    1    1    2    0    0 -0.19166275888E+02 -0.47488512267E+02  0.22291406947E+03  0.22872076272E+03  0.00000000000E+00 0. -1.
</event>
<event>
 7    1  0.1538147E-010  0.1281457E+03  0.7561462E-02  0.1230233E+00
          4   -1    0    0  501    0  0.00000000000E+00  0.00000000000E+00  0.24134103258E+03  0.24134103258E+03  0.00000000000E+00 0. -1.
         -4   -1    0    0    0  501 -0.00000000000E+00 -0.00000000000E+00 -0.11867392170E+03  0.11867392170E+03  0.00000000000E+00 0.  1.
         25    2    1    2    0    0  0.10110115359E+03 -0.53454504021E+02  0.12945670895E+03  0.21330731477E+03  0.12514848694E+03 0.  0.
          5    1    3    3  502    0 -0.13793499023E+02 -0.16705870463E+01  0.74254505906E+02  0.75658809955E+02  0.41800000000E+01 0. -1.
         -5    1    3    3    0  502  0.11489465261E+03 -0.51783916974E+02  0.55202203043E+02  0.13764850481E+03  0.41800000000E+01 0. -1.
        -11    1    1    2    0    0 -0.13038254479E+02  0.14181358779E+02 -0.40267198572E+02  0.44638036444E+02  0.00000000000E+00 0.  1.
         11    1    1    2    0    0 -0.88062899110E+02  0.39273145242E+02  0.33477600500E+02  0.10206960308E+03  0.00000000000E+00 0. -1.
</event>
<event>
 7    1  0.1538147E-010  0.7048877E+02  0.7561462E-02  0.1358439E+00
          1   -1    0    0  501    0  0.00000000000E+00  0.00000000000E+00  0.51709519993E+03  0.51709519993E+03  0.00000000000E+00 0. -1.
         -1   -1    0    0    0  501 -0.00000000000E+00 -0.00000000000E+00 -0.24956903894E+02  0.24956903894E+02  0.00000000000E+00 0.  1.
         25    2    1    2    0    0 -0.76517527273E+01 -0.43406479708E+02  0.34681264346E+03  0.37129539528E+03  0.12505434455E+03 0.  0.
          5    1    3    3  502    0  0.10333050298E+02 -0.28248885689E+02  0.34606490705E+03  0.34739482403E+03  0.41800000000E+01 0. -1.
         -5    1    3    3    0  502 -0.17984803026E+02 -0.15157594019E+02  0.74773641127E+00  0.23900571250E+02  0.41800000000E+01 0. -1.
        -11    1    1    2    0    0 -0.12647068898E+01 -0.21332564719E+02  0.19301025382E+02  0.28795961207E+02  0.00000000000E+00 0.  1.
         11    1    1    2    0    0  0.89164596170E+01  0.64739044427E+02  0.12602462719E+03  0.14196074733E+03  0.00000000000E+00 0. -1.
</event>
<event>
 6    1  0.1538147E-010  0.1217724E+03  0.7561462E-02  0.1240201E+00
          2   -1    0    0  501    0  0.00000000000E+00  0.00000000000E+00  0.18902954067E+03  0.18902954067E+03  0.00000000000E+00 0. -1.
         -2   -1    0    0    0  501 -0.00000000000E+00 -0.00000000000E+00 -0.11267188287E+03  0.11267188287E+03  0.00000000000E+00 0.  1.
          5    1    1    2  502    0 -0.20054610614E+02  0.30421801061E+02  0.23166269914E+02  0.43379970590E+02  0.41800000000E+01 0.  1.
         -5    1    1    2    0  502 -0.29725219949E+02 -0.10772270628E+03 -0.12333277100E+02  0.11250489888E+03  0.41800000000E+01 0.  1.
        -11    1    1    2    0    0  0.31030559702E+02  0.26207596350E+02 -0.19350382337E+02  0.44990788374E+02  0.00000000000E+00 0.  1.
         11    1    1    2    0    0  0.18749270860E+02  0.51093308866E+02  0.84875047326E+02  0.10082576569E+03  0.00000000000E+00 0. -1.
</event>
<event>
 6    1  0.1538147E-010  0.1217072E+03  0.7561462E-02  0.1240307E+00
         -1   -1    0    0    0  501 -0.00000000000E+00  0.00000000000E+00  0.40324971968E+03  0.40324971968E+03  0.00000000000E+00 0.  1.
          1   -1    0    0  501    0  0.00000000000E+00 -0.00000000000E+00 -0.45463459009E+02  0.45463459009E+02  0.00000000000E+00 0. -1.
          5    1    1    2  502    0  0.28407055716E+02 -0.20855295196E+02  0.49800771432E+02  0.61151397265E+02  0.41800000000E+01 0. -1.
         -5    1    1    2    0  502 -0.74691373649E+02  0.76260273102E+02  0.86007032134E+02  0.13714631795E+03  0.41800000000E+01 0. -1.
        -11    1    1    2    0    0  0.32433516735E+02 -0.72306998007E+02  0.21212415803E+03  0.22644401822E+03  0.00000000000E+00 0.  1.
         11    1    1    2    0    0  0.13850801198E+02  0.16902020101E+02  0.98542990790E+01  0.23971445256E+02  0.00000000000E+00 0. -1.
</event>
<event>
 6    1  0.1538147E-010  0.9264004E+02  0.7561462E-02  0.1296582E+00
          1   -1    0    0  501    0  0.00000000000E+00  0.00000000000E+00  0.22300878019E+03  0.22300878019E+03  0.00000000000E+00 0. -1.
         -1   -1    0    0    0  501 -0.00000000000E+00 -0.00000000000E+00 -0.68012617418E+02  0.68012617418E+02  0.00000000000E+00 0.  1.
          5    1    1    2  502    0  0.53684792267E+02  0.14995475767E+02  0.82750230258E+02  0.99859872932E+02  0.41800000000E+01 0.  1.
         -5    1    1    2    0  502 -0.64374977199E+02 -0.23317393828E+02  0.68691979936E+02  0.97076768857E+02  0.41800000000E+01 0.  1.
        -11    1    1    2    0    0  0.34879041302E+02 -0.92805159551E+00  0.37608973456E+02  0.51301497896E+02  0.00000000000E+00 0. -1.
         11    1    1    2    0    0 -0.24188856370E+02  0.92499696566E+01 -0.34055020880E+02  0.42783257921E+02  0.00000000000E+00 0.  1.
</event>
<event>
 7    1  0.1538147E-010  0.7163170E+02  0.7561462E-02  0.1354631E+00
         -1   -1    0    0    0  501 -0.00000000000E+00  0.00000000000E+00  0.26230688965E+02  0.26230688965E+02  0.00000000000E+00 0.  1.
          1   -1    0    0  501    0  0.00000000000E+00 -0.00000000000E+00 -0.47044041390E+03  0.47044041390E+03  0.00000000000E+00 0. -1.
         25    2    1    2    0    0 -0.17731496428E+02 -0.98003678506E+00 -0.27642675610E+03  0.30394361091E+03  0.12511834673E+03 0.  0.
          5    1    3    3  502    0  0.39022439712E+01  0.31096861006E+02 -0.25964627006E+03  0.26156433287E+03  0.41800000000E+01 0. -1.
         -5    1    3    3    0  502 -0.21633740399E+02 -0.32076897791E+02 -0.16780486034E+02  0.42379278039E+02  0.41800000000E+01 0. -1.
        -11    1    1    2    0    0 -0.11012113084E+01 -0.33459266932E+02 -0.18250387893E+02  0.38128884959E+02  0.00000000000E+00 0.  1.
         11    1    1    2    0    0  0.18832707736E+02  0.34439303717E+02 -0.14953258094E+03  0.15459860700E+03  0.00000000000E+00 0. -1.
</event>
<event>
 6    1  0.1538147E-010  0.1060143E+03  0.7561462E-02  0.1268134E+00
          1   -1    0    0  501    0  0.00000000000E+00  0.00000000000E+00  0.72954429131E+03  0.72954429131E+03  0.00000000000E+00 0. -1.
         -1   -1    0    0    0  501 -0.00000000000E+00 -0.00000000000E+00 -0.19989240647E+02  0.19989240647E+02  0.00000000000E+00 0.  1.
          5    1    1    2  502    0  0.36064409539E+02  0.15555807623E+02  0.27721888301E+03  0.28001858203E+03  0.41800000000E+01 0.  1.
         -5    1    1    2    0  502 -0.50851211258E+02 -0.57389418342E+02  0.18375567566E+03  0.19915574749E+03  0.41800000000E+01 0.  1.
        -11    1    1    2    0    0 -0.16348481244E+02 -0.20405645326E+02  0.13218037337E+03  0.13474165764E+03  0.00000000000E+00 0. -1.
         11    1    1    2    0    0  0.31135282962E+02  0.62239256044E+02  0.11640011864E+03  0.13561754480E+03  0.00000000000E+00 0.  1.
</event>
<event>
 6    1  0.1538147E-010  0.1073565E+03  0.7561462E-02  0.1265545E+00
          1   -1    0    0  501    0  0.00000000000E+00  0.00000000000E+00  0.51306883448E+03  0.51306883448E+03  0.00000000000E+00 0. -1.
         -1   -1    0    0    0  501 -0.00000000000E+00 -0.00000000000E+00 -0.30127388509E+02  0.30127388509E+02  0.00000000000E+00 0.  1.
          5    1    1    2  502    0 -0.27075579802E+02  0.40169800489E+02  0.17817276937E+03  0.18468813724E+03  0.41800000000E+01 0.  1.
         -5    1    1    2    0  502 -0.24741350032E+02 -0.55335711392E+02  0.40009513306E+02  0.72748944402E+02  0.41800000000E+01 0.  1.
        -11    1    1    2    0    0  0.59386033165E+02 -0.25018031838E+02  0.13278853590E+03  0.14759877411E+03  0.00000000000E+00 0.  1.
         11    1    1    2    0    0 -0.75691033310E+01  0.40183942740E+02  0.13197062740E+03  0.13816036724E+03  0.00000000000E+00 0. -1.
</event>
<event>
 7    1  0.1538147E-010  0.1006806E+03  0.7561462E-02  0.1278871E+00
          2   -1    0    0  501    0  0.00000000000E+00  0.00000000000E+00  0.13769212084E+04  0.13769212084E+04  0.00000000000E+00 0. -1.
         -2   -1    0    0    0  501 -0.00000000000E+00 -0.00000000000E+00 -0.97523329429E+01  0.97523329429E+01  0.00000000000E+00 0.  1.
         25    2    1    2    0    0 -0.65351433874E+01 -0.54996332749E+01  0.97293242200E+03  0.98097418660E+03  0.12505959752E+03 0.  0.
          5    1    3    3  502    0 -0.31886885717E+02  0.41261803897E+02  0.74689641964E+03  0.74872628110E+03  0.41800000000E+01 0. -1.
         -5    1    3    3    0  502  0.25351742329E+02 -0.46761437172E+02  0.22603600236E+03  0.23224790550E+03  0.41800000000E+01 0. -1.
        -11    1    1    2    0    0  0.50070984345E+02  0.12471757672E+02  0.20503170149E+03  0.21142527481E+03  0.00000000000E+00 0. -1.
         11    1    1    2    0    0 -0.43535840958E+02 -0.69721243972E+01  0.18920475196E+03  0.19427407992E+03  0.00000000000E+00 0.  1.
</event>
<event>
 6    1  0.1538147E-010  0.1498231E+03  0.7561462E-02  0.1200691E+00
         -3   -1    0    0    0  501 -0.00000000000E+00  0.00000000000E+00  0.22431444331E+03  0.22431444331E+03  0.00000000000E+00 0.  1.
          3   -1    0    0  501    0  0.00000000000E+00 -0.00000000000E+00 -0.11057164477E+03  0.11057164477E+03  0.00000000000E+00 0. -1.
          5    1    1    2  502    0 -0.85171290471E+02 -0.63041078278E+02  0.55616930137E+02  0.11974573725E+03  0.41800000000E+01 0.  1.
         -5    1    1    2    0  502 -0.25578217317E+02  0.45721907441E+02 -0.11894339615E+02  0.53885858405E+02  0.41800000000E+01 0.  1.
        -11    1    1    2    0    0  0.90334059280E+02  0.49443910531E+02  0.32951549554E+02  0.10812375859E+03  0.00000000000E+00 0.  1.
         11    1    1    2    0    0  0.20415448507E+02 -0.32124739694E+02  0.37068658456E+02  0.53130733835E+02  0.00000000000E+00 0. -1.
</event>
<event>
 7    1  0.1538147E-010  0.1391209E+03  0.7561462E-02  0.1214517E+00
         -2   -1    0    0    0  501 -0.00000000000E+00  0.00000000000E+00  0.51185844958E+03  0.51185844958E+03  0.00000000000E+00 0. -1.
          2   -1    0    0  501    0  0.00000000000E+00 -0.00000000000E+00 -0.42197144985E+02  0.42197144985E+02  0.00000000000E+00 0.  1.
         25    2    1    2    0    0  0.22664284731E+02  0.88272687109E+02  0.18387324576E+03  0.24032241885E+03  0.12505901568E+03 0.  0.
          5    1    3    3  502    0 -0.11021377904E+02 -0.29251367523E+02  0.27948517701E+02  0.42139118578E+02  0.41800000000E+01 0. -1.
         -5    1    3    3    0  502  0.33685662636E+02  0.11752405463E+03  0.15592472806E+03  0.19818330027E+03  0.41800000000E+01 0. -1.
        -11    1    1    2    0    0  0.10172035738E+02  0.13804983349E+02  0.78518901237E+02  0.80369557221E+02  0.00000000000E+00 0.  1.
         11    1    1    2    0    0 -0.32836320469E+02 -0.10207767046E+03  0.20726915760E+03  0.23336361850E+03  0.00000000000E+00 0. -1.
</event>
<event>
 6    1  0.1538147E-010  0.1103963E+03  0.7561462E-02  0.1259838E+00
         -1   -1    0    0    0  501 -0.00000000000E+00  0.00000000000E+00  0.18269727752E+03  0.18269727752E+03  0.00000000000E+00 0.  1.
          1   -1    0    0  501    0  0.00000000000E+00 -0.00000000000E+00 -0.12664618279E+03  0.12664618279E+03  0.00000000000E+00 0. -1.
          5    1    1    2  502    0  0.45401442051E+02  0.15226682255E+02 -0.52678610945E+02  0.71313752137E+02  0.41800000000E+01 0.  1.
         -5    1    1    2    0  502  0.50381288789E+02  0.29843338897E+02  0.73126330779E+02  0.93775432762E+02  0.41800000000E+01 0.  1.
        -11    1    1    2    0    0 -0.87318193236E+02 -0.53227398177E+02 -0.46015595713E+01  0.10236599600E+03  0.00000000000E+00 0. -1.
         11    1    1    2    0    0 -0.84645376048E+01  0.81573770258E+01  0.40204934465E+02  0.41888279412E+02  0.00000000000E+00 0.  1.
</event>
<event>
 7    1  0.1538147E-010  0.1658518E+03  0.7561462E-02  0.1182244E+00
         -1   -1    0    0    0  501 -0.00000000000E+00  0.00000000000E+00  0.36760744465E+02  0.36760744465E+02  0.00000000000E+00 0.  1.
          1   -1    0    0  501    0  0.00000000000E+00 -0.00000000000E+00 -0.87824743725E+03  0.87824743725E+03  0.00000000000E+00 0. -1.
         25    2    1    2    0    0  0.72372839078E+02  0.11886685942E+03 -0.53966417406E+03  0.57117511149E+03  0.12504570811E+03 0.  0.
          5    1    3    3  502    0  0.95905627286E+02  0.77039470802E+02 -0.26337933452E+03  0.29072171515E+03  0.41800000000E+01 0.  1.
         -5    1    3    3    0  502 -0.23532788208E+02  0.41827388616E+02 -0.27628483954E+03  0.28045339635E+03  0.41800000000E+01 0.  1.
        -11    1    1    2    0    0 -0.54099489340E+02 -0.12875918437E+03 -0.23016964662E+03  0.26922806045E+03  0.00000000000E+00 0.  1.
         11    1    1    2    0    0 -0.18273349738E+02  0.98923249484E+01 -0.71652872099E+02  0.74605009776E+02  0.00000000000E+00 0. -1.
</event>
<event>
 7    1  0.1538147E-010  0.1123413E+03  0.7561462E-02  0.1256295E+00
          1   -1    0    0  501    0  0.00000000000E+00  0.00000000000E+00  0.24438334934E+03  0.24438334934E+03  0.00000000000E+00 0. -1.
         -1   -1    0    0    0  501 -0.00000000000E+00 -0.00000000000E+00 -0.63884566167E+02  0.63884566167E+02  0.00000000000E+00 0.  1.
         25    2    1    2    0    0 -0.62849838998E+01 -0.61320624008E+02  0.81573326966E+02  0.16159889612E+03  0.12514102287E+03 0.  0.
          5    1    3    3  502    0  0.32070630164E+02  0.27574319775E+02  0.22200411924E+02  0.47949964753E+02  0.41800000000E+01 0. -1.
         -5    1    3    3    0  502 -0.38355614064E+02 -0.88894943783E+02  0.59372915041E+02  0.11364893137E+03  0.41800000000E+01 0. -1.
        -11    1    1    2    0    0 -0.25673148162E+02  0.37364433142E+02  0.62625809513E+01  0.45764957344E+02  0.00000000000E+00 0.  1.
         11    1    1    2    0    0  0.31958132062E+02  0.23956190867E+02  0.92662875254E+02  0.10090406204E+03  0.00000000000E+00 0. -1.
</event>
<event>
 6    1  0.1538147E-010  0.1344909E+03  0.7561462E-02  0.1220940E+00
          2   -1    0    0  501    0  0.00000000000E+00  0.00000000000E+00  0.71969471790E+03  0.71969471790E+03  0.00000000000E+00 0. -1.
         -2   -1    0    0    0  501 -0.00000000000E+00 -0.00000000000E+00 -0.51539414628E+02  0.51539414628E+02  0.00000000000E+00 0.  1.
          5    1    1    2  502    0  0.12683302112E+03  0.41832021993E+02  0.53958424237E+03  0.55588232597E+03  0.41800000000E+01 0. -1.
         -5    1    1    2    0  502 -0.25109418677E+02 -0.69861280556E+01  0.43665732011E+02  0.51024086896E+02  0.41800000000E+01 0. -1.
        -11    1    1    2    0    0 -0.76344396899E+02 -0.34000797436E+02  0.87261819697E+01  0.84027777645E+02  0.00000000000E+00 0.  1.
         11    1    1    2    0    0 -0.25379205548E+02 -0.84509650070E+00  0.76179146927E+02  0.80299942023E+02  0.00000000000E+00 0. -1.
</event>
<event>
 7    1  0.2987658E-010  0.2879164E+03  0.7561462E-02  0.1091442E+00
         -1   -1    0    0    0  501 -0.00000000000E+00  0.00000000000E+00  0.79727098423E+02  0.79727098423E+02  0.00000000000E+00 0.  1.
          1   -1    0    0  501    0  0.00000000000E+00 -0.00000000000E+00 -0.13264238422E+04  0.13264238422E+04  0.00000000000E+00 0. -1.
         25    2    1    2    0    0  0.12248206030E+03 -0.24840641977E+03 -0.91731469617E+03  0.96634784338E+03  0.12511713755E+03 0.  0.
          5    1    3    3  502    0  0.65254398579E+02 -0.53810467408E+02 -0.14584210834E+03  0.16864488104E+03  0.41800000000E+01 0.  1.
         -5    1    3    3    0  502  0.57227661719E+02 -0.19459595236E+03 -0.77147258784E+03  0.79770296234E+03  0.41800000000E+01 0.  1.
        -11    1    1    2    0    0 -0.62449525337E+02  0.20469786181E+03 -0.27116675006E+03  0.34544545761E+03  0.00000000000E+00 0.  1.
         11    1    1    2    0    0 -0.60032534961E+02  0.43708557957E+02 -0.58215297576E+02  0.94357639671E+02  0.00000000000E+00 0. -1.
</event>
<event>
 7    1  0.1538147E-010  0.7215543E+02  0.7561462E-02  0.1352913E+00
         -1   -1    0    0    0  501 -0.00000000000E+00  0.00000000000E+00  0.34450950162E+03  0.34450950162E+03  0.00000000000E+00 0.  1.
          1   -1    0    0  501    0  0.00000000000E+00 -0.00000000000E+00 -0.64875426101E+02  0.64875426101E+02  0.00000000000E+00 0. -1.
         25    2    1    2    0    0 -0.37057333478E+02  0.53893130881E+02  0.19206820732E+03  0.23834211610E+03  0.12505619747E+03 0.  0.
          5    1    3    3  502    0 -0.16411418684E+02  0.36594150412E+02 -0.38781187608E+01  0.40508995454E+02  0.41800000000E+01 0.  1.
         -5    1    3    3    0  502 -0.20645914794E+02  0.17298980470E+02  0.19594632608E+03  0.19783312065E+03  0.41800000000E+01 0.  1.
        -11    1    1    2    0    0  0.82520778736E+01 -0.46178205515E+02  0.11888039446E+03  0.12780090626E+03  0.00000000000E+00 0.  1.
         11    1    1    2    0    0  0.28805255605E+02 -0.77149253661E+01 -0.31314526260E+02  0.43241905355E+02  0.00000000000E+00 0. -1.
</event>
<event>
 7    1  0.1538147E-010  0.9255373E+02  0.7561462E-02  0.1296783E+00
          1   -1    0    0  501    0  0.00000000000E+00  0.00000000000E+00  0.24494549556E+03  0.24494549556E+03  0.00000000000E+00 0. -1.
         -1   -1    0    0    0  501 -0.00000000000E+00 -0.00000000000E+00 -0.72659667398E+02  0.72659667398E+02  0.00000000000E+00 0.  1.
         25    2    1    2    0    0  0.68488517278E+02 -0.29814123404E+02  0.11987368318E+03  0.18865033924E+03  0.12505875268E+03 0.  0.
          5    1    3    3  502    0 -0.17537344832E+02 -0.40430145953E+00  0.91587204184E+02  0.93345649570E+02  0.41800000000E+01 0. -1.
         -5    1    3    3    0  502  0.86025862110E+02 -0.29409821945E+02  0.28286478993E+02  0.95304689666E+02  0.41800000000E+01 0. -1.
        -11    1    1    2    0    0 -0.51692181273E+02  0.15418078898E+02 -0.16636004509E+02  0.56449582883E+02  0.00000000000E+00 0.  1.
         11    1    1    2    0    0 -0.16796336005E+02  0.14396044507E+02  0.69048149493E+02  0.72505240839E+02  0.00000000000E+00 0. -1.
</event>
<event>
 7    1  0.1664442E-010  0.2064640E+03  0.7561462E-02  0.1144397E+00
          2   -1    0    0  501    0  0.00000000000E+00  0.00000000000E+00  0.18621014166E+04  0.18621014166E+04  0.00000000000E+00 0.  1.
         -2   -1    0    0    0  501 -0.00000000000E+00 -0.00000000000E+00 -0.36353156912E+02  0.36353156912E+02  0.00000000000E+00 0. -1.
         25    2    1    2    0    0 -0.11933101378E+03 -0.14469043099E+03  0.14663150919E+04  0.14835456964E+04  0.12511064310E+03 0.  0.
          5    1    3    3  502    0  0.86975300046E+01 -0.75919422544E+02  0.38822862029E+03  0.39569981016E+03  0.41800000000E+01 0.  1.
         -5    1    3    3    0  502 -0.12802854379E+03 -0.68771008446E+02  0.10780864716E+04  0.10878458863E+04  0.41800000000E+01 0.  1.
        -11    1    1    2    0    0  0.88079176311E+02  0.79233710941E+02  0.29495452496E+03  0.31785860700E+03  0.00000000000E+00 0.  1.
         11    1    1    2    0    0  0.31251837470E+02  0.65456720049E+02  0.64478642897E+02  0.97050270142E+02  0.00000000000E+00 0. -1.
</event>
<event>
 7    1  0.1538147E-010  0.2602542E+03  0.7561462E-02  0.1106991E+00
          2   -1    0    0  501    0  0.00000000000E+00  0.00000000000E+00  0.50034601662E+03  0.50034601662E+03  0.00000000000E+00 0.  1.
         -2   -1    0    0    0  501 -0.00000000000E+00 -0.00000000000E+00 -0.17080321545E+03  0.17080321545E+03  0.00000000000E+00 0. -1.
         25    2    1    2    0    0 -0.16188741187E+03  0.19762319895E+03  0.27315981936E+03  0.39435676774E+03  0.12505403019E+03 0.  0.
          5    1    3    3  502    0 -0.87765584444E+02  0.12564472323E+03  0.24178318842E+03  0.28629700818E+03  0.41800000000E+01 0.  1.
         -5    1    3    3    0  502 -0.74121827426E+02  0.71978475719E+02  0.31376630938E+02  0.10805975956E+03  0.41800000000E+01 0.  1.
        -11    1    1    2    0    0  0.71991344496E+02 -0.40075818970E+02 -0.11342002434E+02  0.83171304954E+02  0.00000000000E+00 0. -1.
         11    1    1    2    0    0  0.89896067375E+02 -0.15754737998E+03  0.67724984242E+02  0.19362115938E+03  0.00000000000E+00 0.  1.
</event>
<event>
 6    1  0.1538147E-010  0.1133645E+03  0.7561462E-02  0.1254463E+00
         -4   -1    0    0    0  501 -0.00000000000E+00  0.00000000000E+00  0.22150150908E+03  0.22150150908E+03  0.00000000000E+00 0.  1.
          4   -1    0    0  501    0  0.00000000000E+00 -0.00000000000E+00 -0.71806586911E+02  0.71806586911E+02  0.00000000000E+00 0. -1.
          5    1    1    2  502    0 -0.15275466039E+02  0.70125854222E+02  0.20000067850E+02  0.74622050407E+02  0.41800000000E+01 0. -1.
         -5    1    1    2    0  502  0.50242631340E+02 -0.18851699787E+02  0.83252985905E+02  0.99137483582E+02  0.41800000000E+01 0. -1.
        -11    1    1    2    0    0  0.69455450895E+01 -0.58128682357E+02  0.49920796629E+02  0.76936793832E+02  0.00000000000E+00 0.  1.
         11    1    1    2    0    0 -0.41912710391E+02  0.68545279225E+01 -0.34789282119E+01  0.42611768173E+02  0.00000000000E+00 0. -1.
</event>
<event>
 6    1  0.1538147E-010  0.1504132E+03  0.7561462E-02  0.1199966E+00
         -2   -1    0    0    0  501 -0.00000000000E+00  0.00000000000E+00  0.58133025137E+02  0.58133025137E+02  0.00000000000E+00 0. -1.
          2   -1    0    0  501    0  0.00000000000E+00 -0.00000000000E+00 -0.42734469901E+03  0.42734469901E+03  0.00000000000E+00 0.  1.
          5    1    1    2  502    0 -0.50708719309E+02  0.22390119957E+02 -0.42768040370E+02  0.70137503254E+02  0.41800000000E+01 0. -1.
         -5    1    1    2    0  502 -0.10071150767E+02 -0.10684129122E+03 -0.83718136836E+02  0.13617154043E+03  0.41800000000E+01 0. -1.
        -11    1    1    2    0    0  0.22927022528E+02  0.95655335843E+02 -0.16912736653E+03  0.19565187898E+03  0.00000000000E+00 0. -1.
         11    1    1    2    0    0  0.37852847548E+02 -0.11204164581E+02 -0.73598130136E+02  0.83516801489E+02  0.00000000000E+00 0.  1.
</event>
<event>
 6    1  0.1538147E-010  0.2016827E+03  0.7561462E-02  0.1148327E+00
         -1   -1    0    0    0  501 -0.00000000000E+00  0.00000000000E+00  0.45333017512E+02  0.45333017512E+02  0.00000000000E+00 0.  1.
          1   -1    0    0  501    0  0.00000000000E+00 -0.00000000000E+00 -0.97910566000E+03  0.97910566000E+03  0.00000000000E+00 0. -1.
          5    1    1    2  502    0  0.17896608779E+02 -0.95478343406E+02 -0.30696314384E+03  0.32199417190E+03  0.41800000000E+01 0. -1.
         -5    1    1    2    0  502  0.11459643753E+03 -0.18350041906E+02 -0.28637172479E+03  0.30902314589E+03  0.41800000000E+01 0. -1.
        -11    1    1    2    0    0 -0.42013085679E+02 -0.31323621301E+01 -0.37855225704E+02  0.56638583791E+02  0.00000000000E+00 0.  1.
         11    1    1    2    0    0 -0.90479960628E+02  0.11696074744E+03 -0.30258254815E+03  0.33678277593E+03  0.00000000000E+00 0. -1.
</event>
<event>
 7    1  0.1538147E-010  0.1572004E+03  0.7561462E-02  0.1191894E+00
         -2   -1    0    0    0  501 -0.00000000000E+00  0.00000000000E+00  0.32012969968E+02  0.32012969968E+02  0.00000000000E+00 0.  1.
          2   -1    0    0  501    0  0.00000000000E+00 -0.00000000000E+00 -0.10517202050E+04  0.10517202050E+04  0.00000000000E+00 0. -1.
         25    2    1    2    0    0  0.49838978192E+01 -0.12278275897E+03 -0.30681290095E+03  0.35339475833E+03  0.12511296451E+03 0.  0.
          5    1    3    3  502    0  0.46046665033E+02 -0.97312318649E+02 -0.12404238663E+03  0.16429841388E+03  0.41800000000E+01 0.  1.
         -5    1    3    3    0  502 -0.41062767214E+02 -0.25470440321E+02 -0.18277051432E+03  0.18909634446E+03  0.41800000000E+01 0.  1.
        -11    1    1    2    0    0 -0.49068788645E+02  0.36116711770E+02 -0.30355149236E+03  0.30960567082E+03  0.00000000000E+00 0.  1.
         11    1    1    2    0    0  0.44084890826E+02  0.86666047200E+02 -0.40934284171E+03  0.42073274581E+03  0.00000000000E+00 0. -1.
</event>
<event>
 6    1  0.1538147E-010  0.2530657E+03  0.7561462E-02  0.1111383E+00
          2   -1    0    0  501    0  0.00000000000E+00  0.00000000000E+00  0.49178584949E+03  0.49178584949E+03  0.00000000000E+00 0. -1.
         -2   -1    0    0    0  501 -0.00000000000E+00 -0.00000000000E+00 -0.14727272633E+03  0.14727272633E+03  0.00000000000E+00 0.  1.
          5    1    1    2  502    0  0.80975538174E+02 -0.21352104700E+03  0.83329128090E+02  0.24312443580E+03  0.41800000000E+01 0. -1.
         -5    1    1    2    0  502 -0.14646467741E+02 -0.21394405012E+02  0.60854454141E+02  0.66279533582E+02  0.41800000000E+01 0. -1.
        -11    1    1    2    0    0  0.79830893214E+01  0.71595869328E+02  0.18886893181E+02  0.74474243561E+02  0.00000000000E+00 0.  1.
         11    1    1    2    0    0 -0.74312159754E+02  0.16331958269E+03  0.18144264775E+03  0.25518036288E+03  0.00000000000E+00 0. -1.
</event>
<event>
 7    1  0.1538147E-010  0.1133486E+03  0.7561462E-02  0.1254491E+00
          2   -1    0    0  501    0  0.00000000000E+00  0.00000000000E+00  0.80175032909E+03  0.80175032909E+03  0.00000000000E+00 0. -1.
         -2   -1    0    0    0  501 -0.00000000000E+00 -0.00000000000E+00 -0.28934698683E+02  0.28934698683E+02  0.00000000000E+00 0.  1.
         25    2    1    2    0    0  0.17392762352E+02 -0.96090641563E+02  0.30075774427E+03  0.34004821235E+03  0.12506656791E+03 0.  0.
          5    1    3    3  502    0 -0.28830605687E+02 -0.30931491379E+02  0.17920089279E+02  0.46114672101E+02  0.41800000000E+01 0.  1.
         -5    1    3    3    0  502  0.46223368039E+02 -0.65159150183E+02  0.28283765499E+03  0.29393354025E+03  0.41800000000E+01 0.  1.
        -11    1    1    2    0    0  0.10857525035E+02  0.16492990856E+02  0.12473770113E+02  0.23355931540E+02  0.00000000000E+00 0.  1.
         11    1    1    2    0    0 -0.28250287387E+02  0.79597650706E+02  0.45958411603E+03  0.46728088388E+03  0.00000000000E+00 0. -1.
</event>
<event>
 6    1  0.1538147E-010  0.1581921E+03  0.7561462E-02  0.1190753E+00
          2   -1    0    0  501    0  0.00000000000E+00  0.00000000000E+00  0.17409521334E+04  0.17409521334E+04  0.00000000000E+00 0. -1.
         -2   -1    0    0    0  501 -0.00000000000E+00 -0.00000000000E+00 -0.25988543278E+02  0.25988543278E+02  0.00000000000E+00 0.  1.
          5    1    1    2  502    0 -0.80632915242E+02  0.76180787880E+02  0.69439288276E+03  0.70320987443E+03  0.41800000000E+01 0.  1.
         -5    1    1    2    0  502 -0.37119662209E+02 -0.37256540705E+02  0.75902385826E+03  0.76085518264E+03  0.41800000000E+01 0.  1.
        -11    1    1    2    0    0  0.85533584211E+02 -0.67961090678E+02  0.18189089137E+03  0.21217681362E+03  0.00000000000E+00 0. -1.
         11    1    1    2    0    0  0.32218993240E+02  0.29036843503E+02  0.79655957739E+02  0.90698805997E+02  0.00000000000E+00 0.  1.
</event>
<event>
 6    1  0.1538147E-010  0.1958390E+03  0.7561462E-02  0.1153298E+00
         -1   -1    0    0    0  501 -0.00000000000E+00  0.00000000000E+00  0.56887658919E+03  0.56887658919E+03  0.00000000000E+00 0.  1.
          1   -1    0    0  501    0  0.00000000000E+00 -0.00000000000E+00 -0.87031796660E+02  0.87031796660E+02  0.00000000000E+00 0. -1.
          5    1    1    2  502    0  0.11848274894E+03  0.60870821931E+02  0.38839942585E+02  0.13881438074E+03  0.41800000000E+01 0.  1.
         -5    1    1    2    0  502  0.29208957439E+02  0.51724941838E+02  0.12568477192E+03  0.13907827686E+03  0.41800000000E+01 0.  1.
        -11    1    1    2    0    0 -0.29646881156E+02  0.73755325954E+01  0.20479458256E+02  0.36779671746E+02  0.00000000000E+00 0.  1.
         11    1    1    2    0    0 -0.11804482522E+03 -0.11997129636E+03  0.29684061977E+03  0.34123605651E+03  0.00000000000E+00 0. -1.
</event>
<event>
 7    1  0.1538147E-010  0.1944857E+03  0.7561462E-02  0.1154477E+00
          2   -1    0    0  501    0  0.00000000000E+00  0.00000000000E+00  0.10235002205E+04  0.10235002205E+04  0.00000000000E+00 0. -1.
         -2   -1    0    0    0  501 -0.00000000000E+00 -0.00000000000E+00 -0.58529673479E+02  0.58529673479E+02  0.00000000000E+00 0.  1.
         25    2    1    2    0    0 -0.12014881760E+03  0.13989106006E+03  0.75847628244E+03  0.79052655836E+03  0.12506286974E+03 0.  0.
          5    1    3    3  502    0 -0.10945486036E+03  0.62903292455E+02  0.30026897179E+03  0.32575469065E+03  0.41800000000E+01 0.  1.
         -5    1    3    3    0  502 -0.10693957242E+02  0.76987767606E+02  0.45820731065E+03  0.46477186771E+03  0.41800000000E+01 0.  1.
        -11    1    1    2    0    0  0.37683620213E+02 -0.52948622911E+02  0.14026167694E+03  0.15458638336E+03  0.00000000000E+00 0. -1.
         11    1    1    2    0    0  0.82465197391E+02 -0.86942437151E+02  0.66232587682E+02  0.13691695231E+03  0.00000000000E+00 0.  1.
</event>
<event>
 6    1  0.1538147E-010  0.1612244E+03  0.7561462E-02  0.1187321E+00
         -1   -1    0    0    0  501 -0.00000000000E+00  0.00000000000E+00  0.16510347404E+03  0.16510347404E+03  0.00000000000E+00 0.  1.
          1   -1    0    0  501    0  0.00000000000E+00 -0.00000000000E+00 -0.18238580792E+03  0.18238580792E+03  0.00000000000E+00 0. -1.
          5    1    1    2  502    0  0.10312401694E+03 -0.21136117320E+02 -0.81188924948E+01  0.10566308315E+03  0.41800000000E+01 0.  1.
         -5    1    1    2    0  502  0.20967410100E+02  0.76233770844E+02 -0.70010571785E+01  0.79484006599E+02  0.41800000000E+01 0.  1.
        -11    1    1    2    0    0 -0.11066567088E+03 -0.39886103187E+02 -0.35885694467E+02  0.12298607647E+03  0.00000000000E+00 0. -1.
         11    1    1    2    0    0 -0.13425756158E+02 -0.15211550337E+02  0.33723310251E+02  0.39356115743E+02  0.00000000000E+00 0.  1.
</event>
<event>
 6    1  0.1538147E-010  0.1351396E+03  0.7561462E-02  0.1220023E+00
         -1   -1    0    0    0  501 -0.00000000000E+00  0.00000000000E+00  0.23046344544E+02  0.23046344544E+02  0.00000000000E+00 0.  1.
          1   -1    0    0  501    0  0.00000000000E+00 -0.00000000000E+00 -0.11393680809E+04  0.11393680809E+04  0.00000000000E+00 0. -1.
          5    1    1    2  502    0 -0.22440054964E+02 -0.46792543320E+02 -0.13652430819E+03  0.14611453489E+03  0.41800000000E+01 0. -1.
         -5    1    1    2    0  502 -0.77412407028E+02  0.41619048750E+02 -0.70765038693E+03  0.71309983067E+03  0.41800000000E+01 0. -1.
        -11    1    1    2    0    0 -0.15134938732E+02  0.72532489192E+00 -0.14274728734E+02  0.20817308833E+02  0.00000000000E+00 0.  1.
         11    1    1    2    0    0  0.11498740072E+03  0.44481696781E+01 -0.25787231249E+03  0.28238275104E+03  0.00000000000E+00 0. -1.
</event>
<event>
 6    1  0.1538147E-010  0.1440144E+03  0.7561462E-02  0.1208027E+00
          1   -1    0    0  501    0  0.00000000000E+00  0.00000000000E+00  0.59971098996E+03  0.59971098996E+03  0.00000000000E+00 0. -1.
         -1   -1    0    0    0  501 -0.00000000000E+00 -0.00000000000E+00 -0.44106551738E+02  0.44106551738E+02  0.00000000000E+00 0.  1.
          5    1    1    2  502    0 -0.32592136055E+02  0.83986863557E+02  0.28381061999E+03  0.29779519977E+03  0.41800000000E+01 0. -1.
         -5    1    1    2    0  502 -0.50233000000E+02 -0.40753818756E+02  0.15865227352E+03  0.17138332569E+03  0.41800000000E+01 0. -1.
        -11    1    1    2    0    0  0.10326111404E+03 -0.44727550065E+02  0.94910719447E+02  0.14721228235E+03  0.00000000000E+00 0.  1.
         11    1    1    2    0    0 -0.20435977986E+02  0.14945052644E+01  0.18230825261E+02  0.27426733891E+02  0.00000000000E+00 0. -1.
</event>
<event>
 7    1  0.1538147E-010  0.1037986E+03  0.7561462E-02  0.1272505E+00
          1   -1    0    0  501    0  0.00000000000E+00  0.00000000000E+00  0.20532052684E+03  0.20532052684E+03  0.00000000000E+00 0. -1.
         -1   -1    0    0    0  501 -0.00000000000E+00 -0.00000000000E+00 -0.11069291672E+03  0.11069291672E+03  0.00000000000E+00 0.  1.
         25    2    1    2    0    0 -0.81763235696E+02  0.37349024769E+02 -0.43483239751E+01  0.15413470749E+03  0.12513362365E+03 0.  0.
          5    1    3    3  502    0 -0.76020055285E+02  0.42092292880E+02 -0.54897532710E+02  0.10286895267E+03  0.41800000000E+01 0.  1.
         -5    1    3    3    0  502 -0.57431804113E+01 -0.47432681116E+01  0.50549208735E+02  0.51265754821E+02  0.41800000000E+01 0.  1.
        -11    1    1    2    0    0 -0.11292564917E+02  0.11575612699E+01 -0.88076634836E+01  0.14367912393E+02  0.00000000000E+00 0.  1.
         11    1    1    2    0    0  0.93055800613E+02 -0.38506586039E+02  0.10778359758E+03  0.14751082368E+03  0.00000000000E+00 0. -1.
</event>
<event>
 7    1  0.1538147E-010  0.1974165E+03  0.7561462E-02  0.1151937E+00
         -2   -1    0    0    0  501 -0.00000000000E+00  0.00000000000E+00  0.54657535377E+02  0.54657535377E+02  0.00000000000E+00 0.  1.
          2   -1    0    0  501    0  0.00000000000E+00 -0.00000000000E+00 -0.97365146637E+03  0.97365146637E+03  0.00000000000E+00 0. -1.
         25    2    1    2    0    0 -0.53526980994E+02 -0.16214864656E+03 -0.22826840766E+03  0.31129760715E+03  0.12506963265E+03 0.  0.
          5    1    3    3  502    0 -0.56186266649E+02 -0.18114516889E+03 -0.21852575463E+03  0.28938114419E+03  0.41800000000E+01 0. -1.
         -5    1    3    3    0  502  0.26592856553E+01  0.18996522334E+02 -0.97426530213E+01  0.21916462964E+02  0.41800000000E+01 0. -1.
        -11    1    1    2    0    0 -0.12336293110E+02  0.76310846614E+02 -0.38557936732E+03  0.39325179967E+03  0.00000000000E+00 0. -1.
         11    1    1    2    0    0  0.65863274104E+02  0.85837799945E+02 -0.30514615601E+03  0.32375959492E+03  0.00000000000E+00 0.  1.
</event>
<event>
 6    1  0.1538147E-010  0.1319619E+03  0.7561462E-02  0.1224573E+00
         -2   -1    0    0    0  501 -0.00000000000E+00  0.00000000000E+00  0.41520057030E+02  0.41520057030E+02  0.00000000000E+00 0.  1.
          2   -1    0    0  501    0  0.00000000000E+00 -0.00000000000E+00 -0.74285383754E+03  0.74285383754E+03  0.00000000000E+00 0. -1.
          5    1    1    2  502    0 -0.77250113181E+02  0.29710717367E+02 -0.14381932656E+03  0.16598728206E+03  0.41800000000E+01 0.  1.
         -5    1    1    2    0  502 -0.32540976717E+02 -0.29315513087E+02 -0.40905587362E+03  0.41141523382E+03  0.41800000000E+01 0.  1.
        -11    1    1    2    0    0  0.67258818507E+02 -0.40570416885E+02 -0.52146593916E+02  0.94281358975E+02  0.00000000000E+00 0.  1.
         11    1    1    2    0    0  0.42532271391E+02  0.40175212604E+02 -0.96311986407E+02  0.11269001971E+03  0.00000000000E+00 0. -1.
</event>
<event>
 7    1  0.1630493E-010  0.5368674E+02  0.7561462E-02  0.1426413E+00
          1   -1    0    0  501    0  0.00000000000E+00  0.00000000000E+00  0.12837547087E+03  0.12837547087E+03  0.00000000000E+00 0. -1.
         -1   -1    0    0    0  501 -0.00000000000E+00 -0.00000000000E+00 -0.93003876257E+02  0.93003876257E+02  0.00000000000E+00 0.  1.
         25    2    1    2    0    0 -0.84100101222E+00 -0.15997647276E+02  0.20724212723E+02  0.12783100019E+03  0.12511850229E+03 0.  0.
          5    1    3    3  502    0  0.10144440025E+02 -0.39667305163E+02  0.64608470475E+02  0.76603731106E+02  0.41800000000E+01 0. -1.
         -5    1    3    3    0  502 -0.10985441037E+02  0.23669657887E+02 -0.43884257751E+02  0.51227269083E+02  0.41800000000E+01 0. -1.
        -11    1    1    2    0    0  0.13879367917E+02  0.21538017933E+02 -0.34174158276E+02  0.42712950777E+02  0.00000000000E+00 0.  1.
         11    1    1    2    0    0 -0.13038366904E+02 -0.55403706574E+01  0.48821540161E+02  0.50835396155E+02  0.00000000000E+00 0. -1.
</event>
<event>
 6    1  0.1538147E-010  0.1135320E+03  0.7561462E-02  0.1254165E+00
          2   -1    0    0  501    0  0.00000000000E+00  0.00000000000E+00  0.19104287806E+03  0.19104287806E+03  0.00000000000E+00 0. -1.
         -2   -1    0    0    0  501 -0.00000000000E+00 -0.00000000000E+00 -0.82621379281E+02  0.82621379281E+02  0.00000000000E+00 0.  1.
          5    1    1    2  502    0 -0.20925355243E+02 -0.59534064891E+02  0.25378727856E+02  0.68144901512E+02  0.41800000000E+01 0.  1.
         -5    1    1    2    0  502 -0.45294634517E+02  0.62783247090E+02  0.50589711432E+02  0.92575003829E+02  0.41800000000E+01 0.  1.
        -11    1    1    2    0    0  0.21041937447E+01 -0.19930755953E+02 -0.20097579330E+02  0.28382659479E+02  0.00000000000E+00 0.  1.
         11    1    1    2    0    0  0.64115796016E+02  0.16681573754E+02  0.52550638825E+02  0.84561692524E+02  0.00000000000E+00 0. -1.
</event>
<event>
 6    1  0.1538147E-010  0.3223758E+03  0.7561462E-02  0.1074561E+00
          2   -1    0    0  501    0  0.00000000000E+00  0.00000000000E+00  0.18050745978E+04  0.18050745978E+04  0.00000000000E+00 0. -1.
         -2   -1    0    0    0  501 -0.00000000000E+00 -0.00000000000E+00 -0.87664854719E+02  0.87664854719E+02  0.00000000000E+00 0.  1.
          5    1    1    2  502    0 -0.35081049061E+02 -0.12139036059E+00  0.13780641380E+03  0.14226304799E+03  0.41800000000E+01 0. -1.
         -5    1    1    2    0  502 -0.73219643191E+02 -0.28367762145E+03  0.12842858370E+04  0.13172857293E+04  0.41800000000E+01 0. -1.
        -11    1    1    2    0    0  0.11978277621E+03  0.21024391590E+03  0.21518359937E+03  0.32381228989E+03  0.00000000000E+00 0. -1.
         11    1    1    2    0    0 -0.11482083962E+02  0.73555095910E+02  0.80133892868E+02  0.10937838531E+03  0.00000000000E+00 0.  1.
</event>
<event>
 7    1  0.1538147E-010  0.1407383E+03  0.7561462E-02  0.1212339E+00
          2   -1    0    0  501    0  0.00000000000E+00  0.00000000000E+00  0.37010590882E+03  0.37010590882E+03  0.00000000000E+00 0.  1.
         -2   -1    0    0    0  501 -0.00000000000E+00 -0.00000000000E+00 -0.71163983752E+02  0.71163983752E+02  0.00000000000E+00 0. -1.
         25    2    1    2    0    0  0.97079493736E+02  0.58252329116E+02  0.21628207018E+03  0.27428253405E+03  0.12504084393E+03 0.  0.
          5    1    3    3  502    0  0.86710880860E+02  0.95588457319E+02  0.17534762961E+03  0.21776178187E+03  0.41800000000E+01 0. -1.
         -5    1    3    3    0  502  0.10368612876E+02 -0.37336128203E+02  0.40934440565E+02  0.56520752176E+02  0.41800000000E+01 0. -1.
        -11    1    1    2    0    0 -0.78008005116E+02 -0.49545386708E+02  0.11885687589E+02  0.93173299693E+02  0.00000000000E+00 0. -1.
         11    1    1    2    0    0 -0.19071488620E+02 -0.87069424078E+01  0.70774167300E+02  0.73814058832E+02  0.00000000000E+00 0.  1.
</event>
<event>
 7    1  0.1538147E-010  0.1016681E+03  0.7561462E-02  0.1276827E+00
         -2   -1    0    0    0  501 -0.00000000000E+00  0.00000000000E+00  0.10628020839E+02  0.10628020839E+02  0.00000000000E+00 0.  1.
          2   -1    0    0  501    0  0.00000000000E+00 -0.00000000000E+00 -0.12200031796E+04  0.12200031796E+04  0.00000000000E+00 0. -1.
         25    2    1    2    0    0  0.12378919569E+02  0.37840511855E+01 -0.91042229325E+03  0.91906380610E+03  0.12506786534E+03 0.  0.
          5    1    3    3  502    0 -0.51577596413E+02 -0.74207422001E+01 -0.57624083971E+03  0.57860720149E+03  0.41800000000E+01 0.  1.
         -5    1    3    3    0  502  0.63956515982E+02  0.11204793386E+02 -0.33418145354E+03  0.34045660461E+03  0.41800000000E+01 0.  1.
        -11    1    1    2    0    0  0.34240429743E+02  0.12740313988E+02 -0.15862651966E+03  0.16277928421E+03  0.00000000000E+00 0. -1.
         11    1    1    2    0    0 -0.46619349312E+02 -0.16524365174E+02 -0.14032634581E+03  0.14878811009E+03  0.00000000000E+00 0.  1.
</event>
<event>
 6    1  0.1538147E-010  0.1750563E+03  0.7561462E-02  0.1172675E+00
          2   -1    0    0  501    0  0.00000000000E+00  0.00000000000E+00  0.30446150224E+03  0.30446150224E+03  0.00000000000E+00 0.  1.
         -2   -1    0    0    0  501 -0.00000000000E+00 -0.00000000000E+00 -0.11062881125E+03  0.11062881125E+03  0.00000000000E+00 0. -1.
          5    1    1    2  502    0 -0.76041079619E+02 -0.15171511736E+02  0.88672487531E+01  0.78157028209E+02  0.41800000000E+01 0. -1.
         -5    1    1    2    0  502 -0.16100313756E+02 -0.96646049997E+02  0.10925748619E+03  0.14681399720E+03  0.41800000000E+01 0. -1.
        -11    1    1    2    0    0  0.77019887743E+02  0.17646274229E+02  0.34748787927E+02  0.86318783382E+02  0.00000000000E+00 0.  1.
         11    1    1    2    0    0  0.15121505632E+02  0.94171287504E+02  0.40959168116E+02  0.10380050470E+03  0.00000000000E+00 0. -1.
</event>
<event>
 6    1  0.1538147E-010  0.1114501E+03  0.7561462E-02  0.1257908E+00
         -1   -1    0    0    0  501 -0.00000000000E+00  0.00000000000E+00  0.24713182763E+03  0.24713182763E+03  0.00000000000E+00 0.  1.
          1   -1    0    0  501    0  0.00000000000E+00 -0.00000000000E+00 -0.72762474274E+02  0.72762474274E+02  0.00000000000E+00 0. -1.
          5    1    1    2  502    0 -0.15909643655E+01  0.77696043910E+02 -0.21248662834E+01  0.77853669557E+02  0.41800000000E+01 0.  1.
         -5    1    1    2    0  502  0.36376519094E+02 -0.38787167984E+02  0.28117453237E+02  0.60297256307E+02  0.41800000000E+01 0.  1.
        -11    1    1    2    0    0 -0.49390042670E+02 -0.52289803040E+02  0.14470885752E+03  0.16159905093E+03  0.00000000000E+00 0.  1.
         11    1    1    2    0    0  0.14604487942E+02  0.13380927115E+02  0.36679088807E+01  0.20144325108E+02  0.00000000000E+00 0. -1.
</event>
<event>
 7    1  0.1538147E-010  0.8798029E+02  0.7561462E-02  0.1307818E+00
          2   -1    0    0  501    0  0.00000000000E+00  0.00000000000E+00  0.41566712264E+03  0.41566712264E+03  0.00000000000E+00 0. -1.
         -2   -1    0    0    0  501 -0.00000000000E+00 -0.00000000000E+00 -0.44331210118E+02  0.44331210118E+02  0.00000000000E+00 0.  1.
         25    2    1    2    0    0 -0.36387130044E+02 -0.12399177596E+02  0.82766883173E+02  0.15486446057E+03  0.12511946835E+03 0.  0.
          5    1    3    3  502    0 -0.71778005702E+02  0.11114122990E+02  0.14253155315E+02  0.74136567690E+02  0.41800000000E+01 0. -1.
         -5    1    3    3    0  502  0.35390875658E+02 -0.23513300586E+02  0.68513727857E+02  0.80727892882E+02  0.41800000000E+01 0. -1.
        -11    1    1    2    0    0  0.46936728630E+02  0.15643253462E+02  0.28983228267E+03  0.29402469276E+03  0.00000000000E+00 0. -1.
         11    1    1    2    0    0 -0.10549598586E+02 -0.32440758659E+01 -0.12632533228E+01  0.11109179425E+02  0.00000000000E+00 0.  1.
</event>
<event>
 7    1  0.1538147E-010  0.1261885E+03  0.7561462E-02  0.1233223E+00
         -3   -1    0    0    0  501 -0.00000000000E+00  0.00000000000E+00  0.25853074937E+02  0.25853074937E+02  0.00000000000E+00 0.  1.
          3   -1    0    0  501    0  0.00000000000E+00 -0.00000000000E+00 -0.96012355819E+03  0.96012355819E+03  0.00000000000E+00 0. -1.
         25    2    1    2    0    0 -0.78255686367E+02 -0.10391437141E+02 -0.76657233067E+03  0.78072205442E+03  0.12514732796E+03 0.  0.
          5    1    3    3  502    0 -0.22712827082E+02 -0.57905108557E+02 -0.51356943561E+03  0.51733926171E+03  0.41800000000E+01 0.  1.
         -5    1    3    3    0  502 -0.55542859286E+02  0.47513671416E+02 -0.25300289505E+03  0.26338279271E+03  0.41800000000E+01 0.  1.
        -11    1    1    2    0    0  0.66164689501E+02  0.45097576159E+02 -0.12943233920E+03  0.15219818640E+03  0.00000000000E+00 0.  1.
         11    1    1    2    0    0  0.12090996867E+02 -0.34706139018E+02 -0.38265813381E+02  0.53056392305E+02  0.00000000000E+00 0. -1.
</event>
<event>
 6    1  0.1538147E-010  0.1125848E+03  0.7561462E-02  0.1255857E+00
          2   -1    0    0  501    0  0.00000000000E+00  0.00000000000E+00  0.24582691796E+03  0.24582691796E+03  0.00000000000E+00 0. -1.
         -2   -1    0    0    0  501 -0.00000000000E+00 -0.00000000000E+00 -0.10927991360E+03  0.10927991360E+03  0.00000000000E+00 0.  1.
          5    1    1    2  502    0  0.66127729503E+02  0.16749720534E+02 -0.66985464310E+02  0.95697202550E+02  0.41800000000E+01 0.  1.
         -5    1    1    2    0  502  0.12927586457E+02  0.28021069454E+02  0.50716216552E+02  0.59513946653E+02  0.41800000000E+01 0.  1.
        -11    1    1    2    0    0 -0.93559651989E+02 -0.18055905606E+02  0.13299294732E+03  0.16360485397E+03  0.00000000000E+00 0. -1.
         11    1    1    2    0    0  0.14504336030E+02 -0.26714884383E+02  0.19823304805E+02  0.36290828382E+02  0.00000000000E+00 0.  1.
</event>
<event>
 7    1  0.1538147E-010  0.1998262E+03  0.7561462E-02  0.1149886E+00
          2   -1    0    0  501    0  0.00000000000E+00  0.00000000000E+00  0.11286194953E+04  0.11286194953E+04  0.00000000000E+00 0.  1.
         -2   -1    0    0    0  501 -0.00000000000E+00 -0.00000000000E+00 -0.43967492545E+02  0.43967492545E+02  0.00000000000E+00 0. -1.
         25    2    1    2    0    0  0.95455647678E+02  0.16858101230E+03  0.58729660980E+03  0.63094454902E+03  0.12506949137E+03 0.  0.
          5    1    3    3  502    0  0.50725584728E+02  0.12329513150E+03  0.21349128905E+03  0.25173553046E+03  0.41800000000E+01 0. -1.
         -5    1    3    3    0  502  0.44730062950E+02  0.45285880799E+02  0.37380532076E+03  0.37920901856E+03  0.41800000000E+01 0. -1.
        -11    1    1    2    0    0 -0.15284817694E+02 -0.86120683768E+02  0.12984738305E+03  0.15655906460E+03  0.00000000000E+00 0. -1.
         11    1    1    2    0    0 -0.80170829984E+02 -0.82460328530E+02  0.36750800994E+03  0.38508337426E+03  0.00000000000E+00 0.  1.
</event>
<event>
 7    1  0.1538147E-010  0.1443552E+03  0.7561462E-02  0.1207586E+00
         -2   -1    0    0    0  501 -0.00000000000E+00  0.00000000000E+00  0.20245378132E+02  0.20245378132E+02  0.00000000000E+00 0.  1.
          2   -1    0    0  501    0  0.00000000000E+00 -0.00000000000E+00 -0.19755055597E+04  0.19755055597E+04  0.00000000000E+00 0. -1.
         25    2    1    2    0    0 -0.48905695532E+02  0.10671648669E+03 -0.16336900619E+04  0.16426737005E+04  0.12511391749E+03 0.  0.
          5    1    3    3  502    0  0.22274270158E+02  0.13496651875E+02 -0.73754464970E+02  0.78329408436E+02  0.41800000000E+01 0. -1.
         -5    1    3    3    0  502 -0.71179965689E+02  0.93219834819E+02 -0.15599355970E+04  0.15643442921E+04  0.41800000000E+01 0. -1.
        -11    1    1    2    0    0  0.71484820700E+02 -0.60968096630E+02 -0.18994604501E+03  0.21191198270E+03  0.00000000000E+00 0.  1.
         11    1    1    2    0    0 -0.22579125168E+02 -0.45748390065E+02 -0.13162407459E+03  0.14116525457E+03  0.00000000000E+00 0. -1.
</event>
<event>
 7    1  0.1538147E-010  0.1203914E+03  0.7561462E-02  0.1242453E+00
          3   -1    0    0  501    0  0.00000000000E+00  0.00000000000E+00  0.12460847109E+03  0.12460847109E+03  0.00000000000E+00 0. -1.
         -3   -1    0    0    0  501 -0.00000000000E+00 -0.00000000000E+00 -0.12035679040E+03  0.12035679040E+03  0.00000000000E+00 0.  1.
         25    2    1    2    0    0 -0.53194579621E+02 -0.23186104943E+02 -0.33201205049E+01  0.13795747116E+03  0.12511587383E+03 0.  0.
          5    1    3    3  502    0 -0.52954793702E+02 -0.71279075204E+02  0.47063502651E+01  0.89019879076E+02  0.41800000000E+01 0.  1.
         -5    1    3    3    0  502 -0.23978591921E+00  0.48092970261E+02 -0.80264707700E+01  0.48937592083E+02  0.41800000000E+01 0.  1.
        -11    1    1    2    0    0 -0.22223717900E+02  0.16925048453E+02  0.13640324307E+02  0.31087125143E+02  0.00000000000E+00 0. -1.
         11    1    1    2    0    0  0.75418297521E+02  0.62610564899E+01 -0.60685231076E+01  0.75920665185E+02  0.00000000000E+00 0.  1.
</event>
<event>
 7    1  0.1538147E-010  0.1276525E+03  0.7561462E-02  0.1230981E+00
          1   -1    0    0  501    0  0.00000000000E+00  0.00000000000E+00  0.97170725401E+02  0.97170725401E+02  0.00000000000E+00 0. -1.
         -1   -1    0    0    0  501 -0.00000000000E+00 -0.00000000000E+00 -0.23638137235E+03  0.23638137235E+03  0.00000000000E+00 0.  1.
         25    2    1    2    0    0 -0.80861157400E+02  0.24834700976E+02 -0.41293052857E+01  0.15104273234E+03  0.12506624917E+03 0.  0.
          5    1    3    3  502    0 -0.68058334838E+02 -0.43400524509E+02  0.45311362170E+01  0.80953974973E+02  0.41800000000E+01 0.  1.
         -5    1    3    3    0  502 -0.12802822562E+02  0.68235225484E+02 -0.86604415027E+01  0.70088757368E+02  0.41800000000E+01 0.  1.
        -11    1    1    2    0    0  0.67952553584E+02  0.91563985113E+01 -0.37015647585E+02  0.77920134358E+02  0.00000000000E+00 0. -1.
         11    1    1    2    0    0  0.12908603816E+02 -0.33991099487E+02 -0.98065694074E+02  0.10458923105E+03  0.00000000000E+00 0.  1.
</event>
<event>
 7    1  0.1538147E-010  0.1302326E+03  0.7561462E-02  0.1227111E+00
          1   -1    0    0  501    0  0.00000000000E+00  0.00000000000E+00  0.10114035412E+04  0.10114035412E+04  0.00000000000E+00 0. -1.
         -1   -1    0    0    0  501 -0.00000000000E+00 -0.00000000000E+00 -0.23659898883E+02  0.23659898883E+02  0.00000000000E+00 0.  1.
         25    2    1    2    0    0 -0.10512054295E+03 -0.12342815150E+02  0.65387412392E+03  0.67408730495E+03  0.12505859079E+03 0.  0.
          5    1    3    3  502    0  0.27549157829E+01  0.33084265375E+02  0.59320418646E+02  0.68106847268E+02  0.41800000000E+01 0.  1.
         -5    1    3    3    0  502 -0.10787545873E+03 -0.45427080525E+02  0.59455370527E+03  0.60598045768E+03  0.41800000000E+01 0.  1.
        -11    1    1    2    0    0  0.55007862040E+02 -0.83963433639E+01  0.27644213056E+03  0.28198690575E+03  0.00000000000E+00 0. -1.
         11    1    1    2    0    0  0.50112680910E+02  0.20739158514E+02  0.57427387843E+02  0.78989229382E+02  0.00000000000E+00 0.  1.
</event>
<event>
 7    1  0.1538147E-010  0.9637644E+02  0.7561462E-02  0.1288106E+00
          3   -1    0    0  501    0  0.00000000000E+00  0.00000000000E+00  0.31300283427E+03  0.31300283427E+03  0.00000000000E+00 0. -1.
         -3   -1    0    0    0  501 -0.00000000000E+00 -0.00000000000E+00 -0.99270477175E+02  0.99270477175E+02  0.00000000000E+00 0.  1.
         25    2    1    2    0    0  0.58518428777E+02  0.35428364841E+02 -0.29116160296E+02  0.14554052537E+03  0.12511881631E+03 0.  0.
          5    1    3    3  502    0 -0.11807898061E+02  0.11801541810E+02 -0.61955029817E+02  0.64300862866E+02  0.41800000000E+01 0. -1.
         -5    1    3    3    0  502  0.70326326838E+02  0.23626823032E+02  0.32838869521E+02  0.81239662509E+02  0.41800000000E+01 0. -1.
        -11    1    1    2    0    0  0.10956930317E+02  0.12659141127E+02  0.94824322099E+02  0.96291018468E+02  0.00000000000E+00 0. -1.
         11    1    1    2    0    0 -0.69475359094E+02 -0.48087505969E+02  0.14802419529E+03  0.17044176760E+03  0.00000000000E+00 0.  1.
</event>
<event>
 7    1  0.1538147E-010  0.7286099E+02  0.7561462E-02  0.1350626E+00
         -2   -1    0    0    0  501 -0.00000000000E+00  0.00000000000E+00  0.24760676073E+02  0.24760676073E+02  0.00000000000E+00 0.  1.
          2   -1    0    0  501    0  0.00000000000E+00 -0.00000000000E+00 -0.51891985262E+03  0.51891985262E+03  0.00000000000E+00 0. -1.
         25    2    1    2    0    0 -0.14349959390E+00  0.35895739213E+02 -0.30637502890E+03  0.33287924918E+03  0.12511759074E+03 0.  0.
          5    1    3    3  502    0 -0.17482949381E+02  0.20698676265E+02 -0.18746954783E+01  0.27478639001E+02  0.41800000000E+01 0.  1.
         -5    1    3    3    0  502  0.17339449787E+02  0.15197062947E+02 -0.30450033343E+03  0.30540061018E+03  0.41800000000E+01 0.  1.
        -11    1    1    2    0    0 -0.37622278774E+02  0.64104802408E+01 -0.61682924214E+02  0.72534910606E+02  0.00000000000E+00 0.  1.
         11    1    1    2    0    0  0.37765778368E+02 -0.42306219454E+02 -0.12610122343E+03  0.13826636890E+03  0.00000000000E+00 0. -1.
</event>
<event>
 7    1  0.1538147E-010  0.1936774E+03  0.7561462E-02  0.1155186E+00
         -2   -1    0    0    0  501 -0.00000000000E+00  0.00000000000E+00  0.43243707877E+02  0.43243707877E+02  0.00000000000E+00 0.  1.
          2   -1    0    0  501    0  0.00000000000E+00 -0.00000000000E+00 -0.99777808751E+03  0.99777808751E+03  0.00000000000E+00 0. -1.
         25    2    1    2    0    0  0.16185501225E+03 -0.67093209848E+02 -0.51415487111E+03  0.55740002569E+03  0.12506403702E+03 0.  0.
          5    1    3    3  502    0  0.14078650051E+03 -0.25246714337E+01 -0.40470114368E+03  0.42851802855E+03  0.41800000000E+01 0.  1.
         -5    1    3    3    0  502  0.21068511737E+02 -0.64568538415E+02 -0.10945372743E+03  0.12888199714E+03  0.41800000000E+01 0.  1.
        -11    1    1    2    0    0 -0.78659035602E+02  0.50864999172E+02 -0.33782656145E+03  0.35057278509E+03  0.00000000000E+00 0. -1.
         11    1    1    2    0    0 -0.83195976647E+02  0.16228210676E+02 -0.10255294707E+03  0.13304898461E+03  0.00000000000E+00 0.  1.
</event>
<event>
 7    1  0.1538147E-010  0.1401496E+03  0.7561462E-02  0.1213128E+00
         -1   -1    0    0    0  501 -0.00000000000E+00  0.00000000000E+00  0.21298235926E+03  0.21298235926E+03  0.00000000000E+00 0.  1.
          1   -1    0    0  501    0  0.00000000000E+00 -0.00000000000E+00 -0.12188922073E+03  0.12188922073E+03  0.00000000000E+00 0. -1.
         25    2    1    2    0    0 -0.11088807192E+03  0.76357086819E+01  0.69041516296E+01  0.16746466722E+03  0.12506909657E+03 0.  0.
          5    1    3    3  502    0 -0.66493283357E+02 -0.33831647297E+02  0.52560696084E+02  0.91356643236E+02  0.41800000000E+01 0.  1.
         -5    1    3    3    0  502 -0.44394788567E+02  0.41467355979E+02 -0.45656544455E+02  0.76108023988E+02  0.41800000000E+01 0.  1.
        -11    1    1    2    0    0  0.11256272836E+03 -0.34528461700E+02  0.67634699378E+02  0.13578304402E+03  0.00000000000E+00 0.  1.
         11    1    1    2    0    0 -0.16746564350E+01  0.26892753019E+02  0.16554287518E+02  0.31623868744E+02  0.00000000000E+00 0. -1.
</event>
<event>
 7    1  0.1538147E-010  0.8900195E+02  0.7561462E-02  0.1305287E+00
          1   -1    0    0  501    0  0.00000000000E+00  0.00000000000E+00  0.30751865989E+02  0.30751865989E+02  0.00000000000E+00 0. -1.
         -1   -1    0    0    0  501 -0.00000000000E+00 -0.00000000000E+00 -0.44115068375E+03  0.44115068375E+03  0.00000000000E+00 0.  1.
         25    2    1    2    0    0  0.22214142657E+02  0.29884157455E+02 -0.18779416125E+03  0.22870568457E+03  0.12511239808E+03 0.  0.
          5    1    3    3  502    0  0.48191011019E+02  0.16155220005E+02 -0.19206684683E+03  0.19872219486E+03  0.41800000000E+01 0.  1.
         -5    1    3    3    0  502 -0.25976868362E+02  0.13728937449E+02  0.42726855794E+01  0.29983489714E+02  0.41800000000E+01 0.  1.
        -11    1    1    2    0    0 -0.32494437291E+02 -0.58501474083E+02 -0.13996329894E+03  0.15513876361E+03  0.00000000000E+00 0.  1.
         11    1    1    2    0    0  0.10280294634E+02  0.28617316629E+02 -0.82641357568E+02  0.88058101555E+02  0.00000000000E+00 0. -1.
</event>
<event>
 7    1  0.1538147E-010  0.1333638E+03  0.7561462E-02  0.1222548E+00
         -2   -1    0    0    0  501 -0.00000000000E+00  0.00000000000E+00  0.38024190152E+02  0.38024190152E+02  0.00000000000E+00 0.  1.
          2   -1    0    0  501    0  0.00000000000E+00 -0.00000000000E+00 -0.92133326707E+03  0.92133326707E+03  0.00000000000E+00 0. -1.
         25    2    1    2    0    0 -0.72358248262E+02 -0.85195181708E+02 -0.19889897398E+03  0.26017788301E+03  0.12505116504E+03 0.  0.
          5    1    3    3  502    0 -0.26681679603E+02 -0.73228062686E+02 -0.19793250138E+03  0.21276514916E+03  0.41800000000E+01 0.  1.
         -5    1    3    3    0  502 -0.45676568659E+02 -0.11967119022E+02 -0.96647260065E+00  0.47412733853E+02  0.41800000000E+01 0.  1.
        -11    1    1    2    0    0  0.28731210453E+02  0.92661735784E+02 -0.41740694464E+03  0.42853265589E+03  0.00000000000E+00 0.  1.
         11    1    1    2    0    0  0.43627037809E+02 -0.74665540765E+01 -0.26700315830E+03  0.27064691832E+03  0.00000000000E+00 0. -1.
</event>
<event>
 6    1  0.1538147E-010  0.1238894E+03  0.7561462E-02  0.1236815E+00
         -3   -1    0    0    0  501 -0.00000000000E+00  0.00000000000E+00  0.11105469534E+03  0.11105469534E+03  0.00000000000E+00 0.  1.
          3   -1    0    0  501    0  0.00000000000E+00 -0.00000000000E+00 -0.15504485797E+03  0.15504485797E+03  0.00000000000E+00 0. -1.
          5    1    1    2  502    0  0.35317619284E+02 -0.28309646174E+02  0.23468880852E+02  0.51156925893E+02  0.41800000000E+01 0. -1.
         -5    1    1    2    0  502 -0.88212998344E+02 -0.11749626133E+02 -0.16234818010E+02  0.90557321664E+02  0.41800000000E+01 0. -1.
        -11    1    1    2    0    0  0.79031736122E+02  0.35758013771E+02 -0.36837542990E+02  0.94242535178E+02  0.00000000000E+00 0.  1.
         11    1    1    2    0    0 -0.26136357061E+02  0.43012585366E+01 -0.14386682484E+02  0.30142770581E+02  0.00000000000E+00 0. -1.
</event>
<event>
 6    1  0.1538147E-010  0.3984649E+03  0.7561462E-02  0.1044313E+00
          2   -1    0    0  501    0  0.00000000000E+00  0.00000000000E+00  0.98703778957E+03  0.98703778957E+03  0.00000000000E+00 0. -1.
         -2   -1    0    0    0  501 -0.00000000000E+00 -0.00000000000E+00 -0.16221957986E+03  0.16221957986E+03  0.00000000000E+00 0.  1.
          5    1    1    2  502    0 -0.38511934869E+03  0.79465379141E+02  0.42626691123E+03  0.57995914617E+03  0.41800000000E+01 0. -1.
         -5    1    1    2    0  502  0.79627003069E+01 -0.37675386031E+01  0.20366090702E+02  0.22579836000E+02  0.41800000000E+01 0. -1.
        -11    1    1    2    0    0  0.17438353249E+03  0.79764166692E+01  0.14948409283E+03  0.22982326609E+03  0.00000000000E+00 0. -1.
         11    1    1    2    0    0  0.20277311589E+03 -0.83674257207E+02  0.22870111495E+03  0.31689512117E+03  0.00000000000E+00 0.  1.
</event>
<event>
 7    1  0.1538147E-010  0.9553945E+02  0.7561462E-02  0.1289966E+00
          1   -1    0    0  501    0  0.00000000000E+00  0.00000000000E+00  0.51304930889E+03  0.51304930889E+03  0.00000000000E+00 0. -1.
         -1   -1    0    0    0  501 -0.00000000000E+00 -0.00000000000E+00 -0.27720989364E+02  0.27720989364E+02  0.00000000000E+00 0.  1.
         25    2    1    2    0    0 -0.27652954810E+01 -0.42828817823E+00  0.37591618105E+03  0.39618479850E+03  0.12506633879E+03 0.  0.
          5    1    3    3  502    0 -0.81989116553E+00  0.47876510468E+02  0.61542861254E+02  0.78088594861E+02  0.41800000000E+01 0. -1.
         -5    1    3    3    0  502 -0.19454043155E+01 -0.48304798646E+02  0.31437331980E+03  0.31809620364E+03  0.41800000000E+01 0. -1.
        -11    1    1    2    0    0 -0.45824918982E+02  0.20617848741E+01  0.54956734409E+02  0.71585032049E+02  0.00000000000E+00 0. -1.
         11    1    1    2    0    0  0.48590214463E+02 -0.16334966958E+01  0.54455404066E+02  0.73000467704E+02  0.00000000000E+00 0.  1.
</event>
<event>
 7    1  0.1538147E-010  0.1167393E+03  0.7561462E-02  0.1248575E+00
         -3   -1    0    0    0  501 -0.00000000000E+00  0.00000000000E+00  0.49234738979E+02  0.49234738979E+02  0.00000000000E+00 0.  1.
          3   -1    0    0  501    0  0.00000000000E+00 -0.00000000000E+00 -0.30093869756E+03  0.30093869756E+03  0.00000000000E+00 0. -1.
         25    2    1    2    0    0 -0.21517419355E+02 -0.46282735541E+02 -0.11316807074E+03  0.17622004973E+03  0.12506559378E+03 0.  0.
          5    1    3    3  502    0 -0.35151979678E+02 -0.85171950149E+02 -0.65828982282E+02  0.11331747471E+03  0.41800000000E+01 0.  1.
         -5    1    3    3    0  502  0.13634560323E+02  0.38889214607E+02 -0.47339088455E+02  0.62902575017E+02  0.41800000000E+01 0.  1.
        -11    1    1    2    0    0 -0.30983885767E+02  0.18455282047E+01 -0.20054840777E+02  0.36954076773E+02  0.00000000000E+00 0.  1.
         11    1    1    2    0    0  0.52501305122E+02  0.44437207337E+02 -0.11848104706E+03  0.13699931003E+03  0.00000000000E+00 0. -1.
</event>
<event>
 7    1  0.1538147E-010  0.1939189E+03  0.7561462E-02  0.1154973E+00
          2   -1    0    0  501    0  0.00000000000E+00  0.00000000000E+00  0.92134912269E+02  0.92134912269E+02  0.00000000000E+00 0. -1.
         -2   -1    0    0    0  501 -0.00000000000E+00 -0.00000000000E+00 -0.43930682381E+03  0.43930682381E+03  0.00000000000E+00 0.  1.
         25    2    1    2    0    0 -0.66381678345E+02  0.15312211962E+03 -0.16319548753E+03  0.26485049749E+03  0.12514035373E+03 0.  0.
          5    1    3    3  502    0  0.25959319426E+02  0.17642521173E+02  0.24343928040E+01  0.31757573691E+02  0.41800000000E+01 0. -1.
         -5    1    3    3    0  502 -0.92340997771E+02  0.13547959844E+03 -0.16562988034E+03  0.23309292380E+03  0.41800000000E+01 0. -1.
        -11    1    1    2    0    0  0.14459212649E+02  0.12176150987E+02 -0.25822166808E+02  0.32001746545E+02  0.00000000000E+00 0.  1.
         11    1    1    2    0    0  0.51922465696E+02 -0.16529827060E+03 -0.15815425720E+03  0.23458949205E+03  0.00000000000E+00 0. -1.
</event>
<event>
 6    1  0.1538147E-010  0.1227796E+03  0.7561462E-02  0.1238581E+00
          4   -1    0    0  501    0  0.00000000000E+00  0.00000000000E+00  0.87254401930E+02  0.87254401930E+02  0.00000000000E+00 0. -1.
         -4   -1    0    0    0  501 -0.00000000000E+00 -0.00000000000E+00 -0.24481766377E+03  0.24481766377E+03  0.00000000000E+00 0.  1.
          5    1    1    2  502    0  0.16489036943E+02  0.49530602007E+02 -0.40630508073E+02  0.66283327170E+02  0.41800000000E+01 0. -1.
         -5    1    1    2    0  502 -0.89431048538E+02 -0.23815172575E+02 -0.12108830917E+03  0.15246286730E+03  0.41800000000E+01 0. -1.
        -11    1    1    2    0    0  0.62449155059E+02 -0.46099189239E+02  0.25800312041E+02  0.81796627788E+02  0.00000000000E+00 0.  1.
         11    1    1    2    0    0  0.10492856535E+02  0.20383759808E+02 -0.21644756638E+02  0.31529243443E+02  0.00000000000E+00 0. -1.
</event>
<event>
 6    1  0.1538147E-010  0.9040399E+02  0.7561462E-02  0.1301876E+00
         -1   -1    0    0    0  501 -0.00000000000E+00  0.00000000000E+00  0.24346608676E+03  0.24346608676E+03  0.00000000000E+00 0.  1.
          1   -1    0    0  501    0  0.00000000000E+00 -0.00000000000E+00 -0.66706546854E+02  0.66706546854E+02  0.00000000000E+00 0. -1.
          5    1    1    2  502    0  0.12316198934E+02 -0.32401539243E+02  0.13703984130E+03  0.14141760500E+03  0.41800000000E+01 0.  1.
         -5    1    1    2    0  502 -0.36835685689E+02  0.53450558439E+02  0.34195896639E+02  0.73489194338E+02  0.41800000000E+01 0.  1.
        -11    1    1    2    0    0  0.20153121876E+02  0.26390205999E+02  0.27202842020E+02  0.42925352741E+02  0.00000000000E+00 0.  1.
         11    1    1    2    0    0  0.43663648795E+01 -0.47439225195E+02 -0.21679040052E+02  0.52340481531E+02  0.00000000000E+00 0. -1.
</event>
<event>
 7    1  0.1809693E-010  0.1374635E+03  0.7561462E-02  0.1216783E+00
         -3   -1    0    0    0  501 -0.00000000000E+00  0.00000000000E+00  0.87303863506E+02  0.87303863506E+02  0.00000000000E+00 0.  1.
          3   -1    0    0  501    0  0.00000000000E+00 -0.00000000000E+00 -0.23928154880E+03  0.23928154880E+03  0.00000000000E+00 0. -1.
         25    2    1    2    0    0  0.43286531869E+02 -0.78973619078E+02 -0.49545669241E+02  0.16191977691E+03  0.12511068885E+03 0.  0.
          5    1    3    3  502    0 -0.31141550714E+02 -0.68898224312E+02 -0.84277817832E+01  0.76192266012E+02  0.41800000000E+01 0. -1.
         -5    1    3    3    0  502  0.74428082583E+02 -0.10075394767E+02 -0.41117887458E+02  0.85727510903E+02  0.41800000000E+01 0. -1.
        -11    1    1    2    0    0 -0.21065443271E+02 -0.15992271417E+02 -0.52142177484E+01  0.26957257130E+02  0.00000000000E+00 0.  1.
         11    1    1    2    0    0 -0.22221088597E+02  0.94965890495E+02 -0.97217798306E+02  0.13770837826E+03  0.00000000000E+00 0. -1.
</event>
<event>
 6    1  0.1538147E-010  0.9040505E+02  0.7561462E-02  0.1301874E+00
         -2   -1    0    0    0  501 -0.00000000000E+00  0.00000000000E+00  0.11661577785E+03  0.11661577785E+03  0.00000000000E+00 0.  1.
          2   -1    0    0  501    0  0.00000000000E+00 -0.00000000000E+00 -0.13296438193E+03  0.13296438193E+03  0.00000000000E+00 0. -1.
          5    1    1    2  502    0  0.17434472623E+02 -0.37548578839E+02  0.58780558592E+02  0.72017241525E+02  0.41800000000E+01 0.  1.
         -5    1    1    2    0  502  0.38462365113E+02  0.16956928268E+02 -0.51222053940E+02  0.66393238784E+02  0.41800000000E+01 0.  1.
        -11    1    1    2    0    0 -0.44388670876E+02 -0.24307655745E+02 -0.37361830549E+02  0.62905664387E+02  0.00000000000E+00 0. -1.
         11    1    1    2    0    0 -0.11508166859E+02  0.44899306316E+02  0.13454721817E+02  0.48264015076E+02  0.00000000000E+00 0.  1.
</event>
<event>
 7    1  0.1538147E-010  0.1142644E+03  0.7561462E-02  0.1252871E+00
         -2   -1    0    0    0  501 -0.00000000000E+00  0.00000000000E+00  0.63860351381E+02  0.63860351381E+02  0.00000000000E+00 0.  1.
          2   -1    0    0  501    0  0.00000000000E+00 -0.00000000000E+00 -0.35779455067E+03  0.35779455067E+03  0.00000000000E+00 0. -1.
         25    2    1    2    0    0 -0.84614101210E+02 -0.53009595653E+02 -0.20251673018E+03  0.25810703932E+03  0.12504660887E+03 0.  0.
          5    1    3    3  502    0  0.80209676561E+01 -0.31025832166E+02 -0.14104865628E+03  0.14470360749E+03  0.41800000000E+01 0.  1.
         -5    1    3    3    0  502 -0.92635068866E+02 -0.21983763487E+02 -0.61468073901E+02  0.11340343183E+03  0.41800000000E+01 0.  1.
        -11    1    1    2    0    0  0.44235778683E+02  0.19098407171E+02  0.10029794470E+02  0.49215343637E+02  0.00000000000E+00 0.  1.
         11    1    1    2    0    0  0.40378322527E+02  0.33911188482E+02 -0.10144726358E+03  0.11433251909E+03  0.00000000000E+00 0. -1.
</event>
<event>
 7    1  0.1538147E-010  0.7186423E+02  0.7561462E-02  0.1353866E+00
          2   -1    0    0  501    0  0.00000000000E+00  0.00000000000E+00  0.47771207037E+03  0.47771207037E+03  0.00000000000E+00 0.  1.
         -2   -1    0    0    0  501 -0.00000000000E+00 -0.00000000000E+00 -0.34658021790E+02  0.34658021790E+02  0.00000000000E+00 0. -1.
         25    2    1    2    0    0  0.12990925416E+02 -0.22304884799E+02  0.38264342340E+03  0.40338611392E+03  0.12505237066E+03 0.  0.
          5    1    3    3  502    0  0.47084828030E+02 -0.17999576979E+02  0.35633187271E+03  0.35990393400E+03  0.41800000000E+01 0.  1.
         -5    1    3    3    0  502 -0.34093902614E+02 -0.43053078201E+01  0.26311550686E+02  0.43482179917E+02  0.41800000000E+01 0.  1.
        -11    1    1    2    0    0  0.19441775591E+02  0.16671996929E+02 -0.12859843220E+02  0.28658570923E+02  0.00000000000E+00 0. -1.
         11    1    1    2    0    0 -0.32432701006E+02  0.56328878697E+01  0.73270468408E+02  0.80325407320E+02  0.00000000000E+00 0.  1.
</event>
<event>
 7    1  0.1538147E-010  0.1346435E+03  0.7561462E-02  0.1220724E+00
         -2   -1    0    0    0  501 -0.00000000000E+00  0.00000000000E+00  0.51283740749E+02  0.51283740749E+02  0.00000000000E+00 0.  1.
          2   -1    0    0  501    0  0.00000000000E+00 -0.00000000000E+00 -0.41444674674E+03  0.41444674674E+03  0.00000000000E+00 0. -1.
         25    2    1    2    0    0  0.83931207006E+00  0.63390916437E+02 -0.21238895860E+03  0.25449669895E+03  0.12506153408E+03 0.  0.
          5    1    3    3  502    0  0.39819703466E+02  0.85957367215E+02 -0.13815903869E+03  0.16756989626E+03  0.41800000000E+01 0. -1.
         -5    1    3    3    0  502 -0.38980391396E+02 -0.22566450778E+02 -0.74229919917E+02  0.86926802684E+02  0.41800000000E+01 0. -1.
        -11    1    1    2    0    0 -0.11447865438E+02 -0.95102203895E+02 -0.14976721798E+03  0.17777992685E+03  0.00000000000E+00 0. -1.
         11    1    1    2    0    0  0.10608553368E+02  0.31711287458E+02 -0.10068294070E+01  0.33453861694E+02  0.00000000000E+00 0.  1.
</event>
<event>
 6    1  0.1538147E-010  0.1017404E+03  0.7561462E-02  0.1276678E+00
         -2   -1    0    0    0  501 -0.00000000000E+00  0.00000000000E+00  0.76149077107E+02  0.76149077107E+02  0.00000000000E+00 0.  1.
          2   -1    0    0  501    0  0.00000000000E+00 -0.00000000000E+00 -0.31546808959E+03  0.31546808959E+03  0.00000000000E+00 0. -1.
          5    1    1    2  502    0  0.46274125562E+02 -0.90281341943E-01 -0.10119213730E+03  0.11134910821E+03  0.41800000000E+01 0. -1.
         -5    1    1    2    0  502  0.54214129155E+02 -0.88796265077E+01  0.31726521629E+02  0.63577229742E+02  0.41800000000E+01 0. -1.
        -11    1    1    2    0    0 -0.47387931544E+02 -0.30257583727E+01 -0.15224072445E+03  0.15947416547E+03  0.00000000000E+00 0. -1.
         11    1    1    2    0    0 -0.53100323173E+02  0.11995666222E+02 -0.17612672359E+02  0.57216663280E+02  0.00000000000E+00 0.  1.
</event>
<event>
 6    1  0.1538147E-010  0.9251169E+02  0.7561462E-02  0.1296881E+00
         -2   -1    0    0    0  501 -0.00000000000E+00  0.00000000000E+00  0.17686611936E+03  0.17686611936E+03  0.00000000000E+00 0.  1.
          2   -1    0    0  501    0  0.00000000000E+00 -0.00000000000E+00 -0.11345984259E+03  0.11345984259E+03  0.00000000000E+00 0. -1.
          5    1    1    2  502    0  0.25539889170E+01  0.53351692802E+02  0.11645505827E+03  0.12818806099E+03  0.41800000000E+01 0. -1.
         -5    1    1    2    0  502  0.28932490579E+02 -0.48630751069E+02 -0.38172488658E+02  0.68386038421E+02  0.41800000000E+01 0. -1.
        -11    1    1    2    0    0 -0.23267010586E+02 -0.35723780325E+02  0.19373981596E+02  0.46828339979E+02  0.00000000000E+00 0.  1.
         11    1    1    2    0    0 -0.82194689091E+01  0.31002838592E+02 -0.34250274438E+02  0.46923522555E+02  0.00000000000E+00 0. -1.
</event>
<event>
 6    1  0.1538147E-010  0.1334134E+03  0.7561462E-02  0.1222477E+00
         -1   -1    0    0    0  501 -0.00000000000E+00  0.00000000000E+00  0.73553154583E+02  0.73553154583E+02  0.00000000000E+00 0.  1.
          1   -1    0    0  501    0  0.00000000000E+00 -0.00000000000E+00 -0.35838670848E+03  0.35838670848E+03  0.00000000000E+00 0. -1.
          5    1    1    2  502    0 -0.72443018898E+02 -0.56099570565E+02 -0.83127266820E+02  0.12378516750E+03  0.41800000000E+01 0.  1.
         -5    1    1    2    0  502  0.29439893821E+02 -0.35323723940E+02  0.18101955777E+02  0.49594616886E+02  0.41800000000E+01 0.  1.
        -11    1    1    2    0    0 -0.23053266202E+02  0.35783270171E+02 -0.37091724442E+02  0.56459645135E+02  0.00000000000E+00 0.  1.
         11    1    1    2    0    0  0.66056391279E+02  0.55640024334E+02 -0.18271651842E+03  0.20210043354E+03  0.00000000000E+00 0. -1.
</event>
<event>
 7    1  0.1538147E-010  0.2446741E+03  0.7561462E-02  0.1116718E+00
         -3   -1    0    0    0  501 -0.00000000000E+00  0.00000000000E+00  0.80509481499E+02  0.80509481499E+02  0.00000000000E+00 0.  1.
          3   -1    0    0  501    0  0.00000000000E+00 -0.00000000000E+00 -0.12165231042E+04  0.12165231042E+04  0.00000000000E+00 0. -1.
         25    2    1    2    0    0  0.16663225290E+03 -0.15222338558E+03 -0.96564850970E+03  0.99953481709E+03  0.12511810201E+03 0.  0.
          5    1    3    3  502    0  0.26902162459E+02  0.12843575341E+02 -0.47383836410E+02  0.56137190217E+02  0.41800000000E+01 0. -1.
         -5    1    3    3    0  502  0.13973009044E+03 -0.16506696093E+03 -0.91826467329E+03  0.94339762687E+03  0.41800000000E+01 0. -1.
        -11    1    1    2    0    0 -0.22099370374E+02  0.76785175845E+02 -0.68581272175E+02  0.10529832047E+03  0.00000000000E+00 0. -1.
         11    1    1    2    0    0 -0.14453288252E+03  0.75438209739E+02 -0.10178384085E+03  0.19219944817E+03  0.00000000000E+00 0.  1.
</event>
<event>
 6    1  0.1538147E-010  0.1304754E+03  0.7561462E-02  0.1226752E+00
         -1   -1    0    0    0  501 -0.00000000000E+00  0.00000000000E+00  0.73182145631E+02  0.73182145631E+02  0.00000000000E+00 0.  1.
          1   -1    0    0  501    0  0.00000000000E+00 -0.00000000000E+00 -0.40094352460E+03  0.40094352460E+03  0.00000000000E+00 0. -1.
          5    1    1    2  502    0 -0.86184996119E+02  0.17998324978E+02  0.32644004831E+01  0.88203865950E+02  0.41800000000E+01 0. -1.
         -5    1    1    2    0  502 -0.37492336901E+02 -0.49235101964E+01 -0.11087929610E+03  0.11722460059E+03  0.41800000000E+01 0. -1.
        -11    1    1    2    0    0  0.71205233762E+02  0.18439768249E+02 -0.52898215266E+02  0.90600394847E+02  0.00000000000E+00 0.  1.
         11    1    1    2    0    0  0.52472099258E+02 -0.31514583031E+02 -0.16724826809E+03  0.17809680885E+03  0.00000000000E+00 0. -1.
</event>
<event>
 6    1  0.1538147E-010  0.1228219E+03  0.7561462E-02  0.1238513E+00
          1   -1    0    0  501    0  0.00000000000E+00  0.00000000000E+00  0.22536243394E+03  0.22536243394E+03  0.00000000000E+00 0. -1.
         -1   -1    0    0    0  501 -0.00000000000E+00 -0.00000000000E+00 -0.10269514902E+03  0.10269514902E+03  0.00000000000E+00 0.  1.
          5    1    1    2  502    0 -0.25691968822E+02 -0.23182566104E+02 -0.30572697254E+02  0.46364543032E+02  0.41800000000E+01 0. -1.
         -5    1    1    2    0  502  0.19951434480E+02  0.96674162783E+02  0.14152594330E+02  0.99808425565E+02  0.41800000000E+01 0. -1.
        -11    1    1    2    0    0  0.35756904882E+02 -0.73759560985E+02  0.74948187620E+02  0.11106871707E+03  0.00000000000E+00 0. -1.
         11    1    1    2    0    0 -0.30016370540E+02  0.26796430609E+00  0.64139200217E+02  0.70815897295E+02  0.00000000000E+00 0.  1.
</event>
<event>
 6    1  0.1538147E-010  0.1139722E+03  0.7561462E-02  0.1253386E+00
          4   -1    0    0  501    0  0.00000000000E+00  0.00000000000E+00  0.16688910871E+03  0.16688910871E+03  0.00000000000E+00 0. -1.
         -4   -1    0    0    0  501 -0.00000000000E+00 -0.00000000000E+00 -0.10220199525E+03  0.10220199525E+03  0.00000000000E+00 0.  1.
          5    1    1    2  502    0  0.89013698087E+01 -0.34089455712E+02 -0.11566009227E+01  0.35498387300E+02  0.41800000000E+01 0. -1.
         -5    1    1    2    0  502 -0.18761561939E+02  0.10604210809E+03  0.33156890410E+02  0.11275538424E+03  0.41800000000E+01 0. -1.
        -11    1    1    2    0    0  0.24679338183E+02 -0.23694768152E+02  0.55691374951E+02  0.65360852311E+02  0.00000000000E+00 0. -1.
         11    1    1    2    0    0 -0.14819146053E+02 -0.48257884225E+02 -0.23004550975E+02  0.55476480108E+02  0.00000000000E+00 0.  1.
</event>
<event>
 7    1  0.1538147E-010  0.1239211E+03  0.7561462E-02  0.1236765E+00
          2   -1    0    0  501    0  0.00000000000E+00  0.00000000000E+00  0.73567318740E+03  0.73567318740E+03  0.00000000000E+00 0. -1.
         -2   -1    0    0    0  501 -0.00000000000E+00 -0.00000000000E+00 -0.42168984352E+02  0.42168984352E+02  0.00000000000E+00 0.  1.
         25    2    1    2    0    0 -0.31335651569E+02 -0.96571416854E+02  0.57546933430E+03  0.59759040258E+03  0.12506547454E+03 0.  0.
          5    1    3    3  502    0  0.42572955361E+01 -0.60419391093E+02  0.51491546844E+03  0.51848243888E+03  0.41800000000E+01 0. -1.
         -5    1    3    3    0  502 -0.35592947105E+02 -0.36152025762E+02  0.60553865857E+02  0.79107963698E+02  0.41800000000E+01 0. -1.
        -11    1    1    2    0    0 -0.21383800576E+02  0.77121661721E+02  0.68561918901E+02  0.10538384296E+03  0.00000000000E+00 0.  1.
         11    1    1    2    0    0  0.52719452145E+02  0.19449755133E+02  0.49472949854E+02  0.74867926220E+02  0.00000000000E+00 0. -1.
</event>
<event>
 6    1  0.1538147E-010  0.1740541E+03  0.7561462E-02  0.1173685E+00
         -2   -1    0    0    0  501 -0.00000000000E+00  0.00000000000E+00  0.31180321934E+03  0.31180321934E+03  0.00000000000E+00 0.  1.
          2   -1    0    0  501    0  0.00000000000E+00 -0.00000000000E+00 -0.15770135008E+03  0.15770135008E+03  0.00000000000E+00 0. -1.
          5    1    1    2  502    0  0.37796157021E+01 -0.46126714011E+02 -0.34869311773E+02  0.58097336805E+02  0.41800000000E+01 0.  1.
         -5    1    1    2    0  502  0.14565962263E+03  0.16954420598E+01 -0.58778298756E+01  0.14584793955E+03  0.41800000000E+01 0.  1.
        -11    1    1    2    0    0 -0.11150045608E+03  0.33690485485E+02  0.72940026365E+02  0.13743233959E+03  0.00000000000E+00 0. -1.
         11    1    1    2    0    0 -0.37938782253E+02  0.10740786466E+02  0.12190898455E+03  0.12812695347E+03  0.00000000000E+00 0.  1.
</event>
<event>
 6    1  0.1538147E-010  0.1907536E+03  0.7561462E-02  0.1157783E+00
         -1   -1    0    0    0  501 -0.00000000000E+00  0.00000000000E+00  0.11991645157E+03  0.11991645157E+03  0.00000000000E+00 0. -1.
          1   -1    0    0  501    0  0.00000000000E+00 -0.00000000000E+00 -0.32509764993E+03  0.32509764993E+03  0.00000000000E+00 0.  1.
          5    1    1    2  502    0 -0.21055907026E+02 -0.15108529071E+03 -0.73546528472E+02  0.16940094610E+03  0.41800000000E+01 0. -1.
         -5    1    1    2    0  502  0.49590117341E+02 -0.11442493547E+02 -0.51081356134E+02  0.72228026007E+02  0.41800000000E+01 0. -1.
        -11    1    1    2    0    0 -0.50342120460E+02  0.11616435543E+03 -0.84156451974E+02  0.15202235024E+03  0.00000000000E+00 0.  1.
         11    1    1    2    0    0  0.21807910145E+02  0.46363428824E+02  0.36031382237E+01  0.51362779153E+02  0.00000000000E+00 0. -1.
</event>
<event>
 7    1  0.1538147E-010  0.8143650E+02  0.7561462E-02  0.1325024E+00
          1   -1    0    0  501    0  0.00000000000E+00  0.00000000000E+00  0.13951475547E+03  0.13951475547E+03  0.00000000000E+00 0. -1.
         -1   -1    0    0    0  501 -0.00000000000E+00 -0.00000000000E+00 -0.98907450740E+02  0.98907450740E+02  0.00000000000E+00 0.  1.
         25    2    1    2    0    0  0.10284475962E+02 -0.22281415426E+02  0.60141386390E+02  0.14097502468E+03  0.12511890068E+03 0.  0.
          5    1    3    3  502    0  0.46971352598E+02 -0.16962269918E+02 -0.18909533470E+02  0.53563694997E+02  0.41800000000E+01 0. -1.
         -5    1    3    3    0  502 -0.36686876637E+02 -0.53191455073E+01  0.79050919860E+02  0.87411329683E+02  0.41800000000E+01 0. -1.
        -11    1    1    2    0    0  0.30636818825E+02  0.14081371381E+02 -0.38865074587E+02  0.51452829954E+02  0.00000000000E+00 0.  1.
         11    1    1    2    0    0 -0.40921294786E+02  0.82000440451E+01  0.19330992926E+02  0.45994351575E+02  0.00000000000E+00 0. -1.
</event>
<event>
 7    1  0.1538147E-010  0.1454954E+03  0.7561462E-02  0.1206120E+00
          3   -1    0    0  501    0  0.00000000000E+00  0.00000000000E+00  0.78674830973E+02  0.78674830973E+02  0.00000000000E+00 0. -1.
         -3   -1    0    0    0  501 -0.00000000000E+00 -0.00000000000E+00 -0.31894318233E+03  0.31894318233E+03  0.00000000000E+00 0.  1.
         25    2    1    2    0    0  0.85590887591E+02 -0.73700155456E+02 -0.15513206175E+03  0.22904911896E+03  0.12506010300E+03 0.  0.
          5    1    3    3  502    0  0.11214039799E+03 -0.67119354507E+02 -0.91304680873E+02  0.15948195434E+03  0.41800000000E+01 0.  1.
         -5    1    3    3    0  502 -0.26549510401E+02 -0.65808009494E+01 -0.63827380877E+02  0.69567164620E+02  0.41800000000E+01 0.  1.
        -11    1    1    2    0    0 -0.81901198806E+02  0.27767031695E+02 -0.19970019809E+02  0.88755935611E+02  0.00000000000E+00 0.  1.
         11    1    1    2    0    0 -0.36896887849E+01  0.45933123761E+02 -0.65166269798E+02  0.79812958730E+02  0.00000000000E+00 0. -1.
</event>
<event>
 7    1  0.1538147E-010  0.1240373E+03  0.7561462E-02  0.1236582E+00
          2   -1    0    0  501    0  0.00000000000E+00  0.00000000000E+00  0.86188917342E+02  0.86188917342E+02  0.00000000000E+00 0.  1.
         -2   -1    0    0    0  501 -0.00000000000E+00 -0.00000000000E+00 -0.23681280457E+03  0.23681280457E+03  0.00000000000E+00 0. -1.
         25    2    1    2    0    0 -0.69436014763E+02 -0.25409199964E+02 -0.19906026143E+02  0.14663793988E+03  0.12505777843E+03 0.  0.
          5    1    3    3  502    0  0.34230268884E+02 -0.16255268759E+02  0.76877108157E+01  0.38891109111E+02  0.41800000000E+01 0.  1.
         -5    1    3    3    0  502 -0.10366628365E+03 -0.91539312054E+01 -0.27593736959E+02  0.10774683077E+03  0.41800000000E+01 0.  1.
        -11    1    1    2    0    0 -0.12896638988E+02  0.19334275556E+02 -0.18430394945E+01  0.23313822146E+02  0.00000000000E+00 0.  1.
         11    1    1    2    0    0  0.82332653752E+02  0.60749244077E+01 -0.12887482159E+03  0.15304995988E+03  0.00000000000E+00 0. -1.
</event>
<event>
 7    1  0.1538147E-010  0.1729720E+03  0.7561462E-02  0.1174783E+00
          2   -1    0    0  501    0  0.00000000000E+00  0.00000000000E+00  0.12899308927E+04  0.12899308927E+04  0.00000000000E+00 0. -1.
         -2   -1    0    0    0  501 -0.00000000000E+00 -0.00000000000E+00 -0.24424978282E+02  0.24424978282E+02  0.00000000000E+00 0.  1.
         25    2    1    2    0    0 -0.12425186537E+03 -0.56461897195E+02  0.79796169585E+03  0.81914758325E+03  0.12503368836E+03 0.  0.
          5    1    3    3  502    0  0.25361763250E+02 -0.15064815983E+02  0.13153745214E+03  0.13486934949E+03  0.41800000000E+01 0.  1.
         -5    1    3    3    0  502 -0.14961362862E+03 -0.41397081212E+02  0.66642424371E+03  0.68427823376E+03  0.41800000000E+01 0.  1.
        -11    1    1    2    0    0  0.10586026583E+02  0.45444084302E+02  0.17643890540E+03  0.18250456459E+03  0.00000000000E+00 0. -1.
         11    1    1    2    0    0  0.11366583879E+03  0.11017812893E+02  0.29110531315E+03  0.31270372312E+03  0.00000000000E+00 0.  1.
</event>
<event>
 6    1  0.1538147E-010  0.1055098E+03  0.7561462E-02  0.1269118E+00
          1   -1    0    0  501    0  0.00000000000E+00  0.00000000000E+00  0.11379752043E+03  0.11379752043E+03  0.00000000000E+00 0. -1.
         -1   -1    0    0    0  501 -0.00000000000E+00 -0.00000000000E+00 -0.16796064929E+03  0.16796064929E+03  0.00000000000E+00 0.  1.
          5    1    1    2  502    0  0.42680433150E+02  0.87254020054E+02 -0.81937559483E+02  0.12714605556E+03  0.41800000000E+01 0.  1.
         -5    1    1    2    0  502  0.12038079830E+02 -0.37984168973E+02 -0.86503454049E+00  0.40074095665E+02  0.41800000000E+01 0.  1.
        -11    1    1    2    0    0 -0.26487789877E+02 -0.26431259594E+02 -0.28361717511E+02  0.46953184306E+02  0.00000000000E+00 0.  1.
         11    1    1    2    0    0 -0.28230723102E+02 -0.22838591487E+02  0.57001182670E+02  0.67584834199E+02  0.00000000000E+00 0. -1.
</event>
<event>
 7    1  0.1538147E-010  0.9805576E+02  0.7561462E-02  0.1284438E+00
          2   -1    0    0  501    0  0.00000000000E+00  0.00000000000E+00  0.55379039349E+02  0.55379039349E+02  0.00000000000E+00 0. -1.
         -2   -1    0    0    0  501 -0.00000000000E+00 -0.00000000000E+00 -0.25342377301E+03  0.25342377301E+03  0.00000000000E+00 0.  1.
         25    2    1    2    0    0 -0.19977496922E+02  0.18513288533E+02 -0.66950177489E+02  0.14449152435E+03  0.12511447601E+03 0.  0.
          5    1    3    3  502    0 -0.46434977015E+02 -0.31612467548E+02 -0.67162552012E+02  0.87657492479E+02  0.41800000000E+01 0. -1.
         -5    1    3    3    0  502  0.26457480093E+02  0.50125756081E+02  0.21237452329E+00  0.56834031869E+02  0.41800000000E+01 0. -1.
        -11    1    1    2    0    0  0.48571056191E+02 -0.23443475884E+02 -0.35889055999E+02  0.64782469863E+02  0.00000000000E+00 0. -1.
         11    1    1    2    0    0 -0.28593559268E+02  0.49301873509E+01 -0.95205500169E+02  0.99528818145E+02  0.00000000000E+00 0.  1.
</event>
<event>
 7    1  0.1538147E-010  0.5262003E+03  0.7561462E-02  0.1007158E+00
          1   -1    0    0  501    0  0.00000000000E+00  0.00000000000E+00  0.23074209448E+04  0.23074209448E+04  0.00000000000E+00 0. -1.
         -1   -1    0    0    0  501 -0.00000000000E+00 -0.00000000000E+00 -0.12881777971E+03  0.12881777971E+03  0.00000000000E+00 0.  1.
         25    2    1    2    0    0 -0.52358871078E+03  0.30335392359E+02  0.87211091198E+03  0.10253276518E+04  0.12511585333E+03 0.  0.
          5    1    3    3  502    0 -0.93722268280E+01 -0.69497182371E+00  0.78483464541E+02  0.79154584377E+02  0.41800000000E+01 0.  1.
         -5    1    3    3    0  502 -0.51421648395E+03  0.31030364183E+02  0.79362744744E+03  0.94617306747E+03  0.41800000000E+01 0.  1.
        -11    1    1    2    0    0  0.41263136132E+03 -0.28757935295E+01  0.92964867518E+03  0.10171133515E+04  0.00000000000E+00 0. -1.
         11    1    1    2    0    0  0.11095734946E+03 -0.27459598829E+02  0.37684357795E+03  0.39379772118E+03  0.00000000000E+00 0.  1.
</event>
<event>
 7    1  0.1538147E-010  0.7372955E+02  0.7561462E-02  0.1347851E+00
         -1   -1    0    0    0  501 -0.00000000000E+00  0.00000000000E+00  0.49606468812E+02  0.49606468812E+02  0.00000000000E+00 0.  1.
          1   -1    0    0  501    0  0.00000000000E+00 -0.00000000000E+00 -0.27157415610E+03  0.27157415610E+03  0.00000000000E+00 0. -1.
         25    2    1    2    0    0  0.10326775057E+02 -0.15106485367E+02 -0.12359234533E+03  0.17681366929E+03  0.12511257986E+03 0.  0.
          5    1    3    3  502    0 -0.45906831351E+02 -0.94680564610E+01 -0.10835220545E+03  0.11813024204E+03  0.41800000000E+01 0. -1.
         -5    1    3    3    0  502  0.56233606408E+02 -0.56384289063E+01 -0.15240139880E+02  0.58683427250E+02  0.41800000000E+01 0. -1.
        -11    1    1    2    0    0 -0.25429871729E+02  0.12740185443E+02 -0.11692208041E+03  0.12033188933E+03  0.00000000000E+00 0. -1.
         11    1    1    2    0    0  0.15103096672E+02  0.23662999240E+01  0.18546738456E+02  0.24035066294E+02  0.00000000000E+00 0.  1.
</event>
<event>
 6    1  0.1538147E-010  0.8732544E+02  0.7561462E-02  0.1309461E+00
          1   -1    0    0  501    0  0.00000000000E+00  0.00000000000E+00  0.91554904970E+02  0.91554904970E+02  0.00000000000E+00 0. -1.
         -1   -1    0    0    0  501 -0.00000000000E+00 -0.00000000000E+00 -0.18860569934E+03  0.18860569934E+03  0.00000000000E+00 0.  1.
          5    1    1    2  502    0  0.45510666813E+02  0.16678399420E+02  0.24876412582E+02  0.54641541925E+02  0.41800000000E+01 0.  1.
         -5    1    1    2    0  502  0.13343807274E+02  0.18380689363E+02 -0.10775933176E+03  0.11020641050E+03  0.41800000000E+01 0.  1.
        -11    1    1    2    0    0  0.75062872539E+01 -0.35761707758E+02  0.18929293405E+02  0.41152912885E+02  0.00000000000E+00 0. -1.
         11    1    1    2    0    0 -0.66360761341E+02  0.70261897476E+00 -0.33097168594E+02  0.74159738997E+02  0.00000000000E+00 0.  1.
</event>
<event>
 7    1  0.1538147E-010  0.1619202E+03  0.7561462E-02  0.1186546E+00
         -1   -1    0    0    0  501 -0.00000000000E+00  0.00000000000E+00  0.48175591228E+02  0.48175591228E+02  0.00000000000E+00 0.  1.
          1   -1    0    0  501    0  0.00000000000E+00 -0.00000000000E+00 -0.67972313121E+03  0.67972313121E+03  0.00000000000E+00 0. -1.
         25    2    1    2    0    0 -0.23258725506E+02  0.12878776492E+03 -0.46607731212E+03  0.50000876026E+03  0.12511371930E+03 0.  0.
          5    1    3    3  502    0 -0.52789351659E+02  0.13957305271E+03 -0.37949082562E+03  0.40779665499E+03  0.41800000000E+01 0.  1.
         -5    1    3    3    0  502  0.29530626153E+02 -0.10785287789E+02 -0.86586486496E+02  0.92212105265E+02  0.41800000000E+01 0.  1.
        -11    1    1    2    0    0 -0.17644970941E+02 -0.62580751952E+02 -0.12325555281E+03  0.13935432112E+03  0.00000000000E+00 0. -1.
         11    1    1    2    0    0  0.40903696447E+02 -0.66207012970E+02 -0.42214675055E+02  0.88535641068E+02  0.00000000000E+00 0.  1.
</event>
<event>
 7    1  0.1538147E-010  0.1109914E+03  0.7561462E-02  0.1258745E+00
          2   -1    0    0  501    0  0.00000000000E+00  0.00000000000E+00  0.38781207443E+03  0.38781207443E+03  0.00000000000E+00 0.  1.
         -2   -1    0    0    0  501 -0.00000000000E+00 -0.00000000000E+00 -0.43033281904E+02  0.43033281904E+02  0.00000000000E+00 0. -1.
         25    2    1    2    0    0  0.17625746803E+02 -0.40037935661E+02  0.23044204647E+03  0.26584219238E+03  0.12511926801E+03 0.  0.
          5    1    3    3  502    0  0.37835284982E+02  0.33109804746E+02  0.13311863197E+03  0.14235803643E+03  0.41800000000E+01 0. -1.
         -5    1    3    3    0  502 -0.20209538179E+02 -0.73147740408E+02  0.97323414499E+02  0.12348415595E+03  0.41800000000E+01 0. -1.
        -11    1    1    2    0    0 -0.42729914480E+01  0.66104098814E+02  0.11816602360E+03  0.13546667291E+03  0.00000000000E+00 0.  1.
         11    1    1    2    0    0 -0.13352755355E+02 -0.26066163152E+02 -0.38292775359E+01  0.29536491049E+02  0.00000000000E+00 0. -1.
</event>
<event>
 6    1  0.1538147E-010  0.1367106E+03  0.7561462E-02  0.1217825E+00
          1   -1    0    0  501    0  0.00000000000E+00  0.00000000000E+00  0.14145708521E+03  0.14145708521E+03  0.00000000000E+00 0. -1.
         -1   -1    0    0    0  501 -0.00000000000E+00 -0.00000000000E+00 -0.15534093393E+03  0.15534093393E+03  0.00000000000E+00 0.  1.
          5    1    1    2  502    0 -0.57988432773E+02 -0.19574487881E+02 -0.37866690570E+02  0.72091452795E+02  0.41800000000E+01 0. -1.
         -5    1    1    2    0  502  0.57330253180E+02 -0.67608522822E+02 -0.19363963688E+02  0.90830092907E+02  0.41800000000E+01 0. -1.
        -11    1    1    2    0    0 -0.38824762913E+02  0.70473172775E+02  0.13371682102E+02  0.81563669477E+02  0.00000000000E+00 0. -1.
         11    1    1    2    0    0  0.39482942506E+02  0.16709837928E+02  0.29975123436E+02  0.52312803954E+02  0.00000000000E+00 0.  1.
</event>
<event>
 7    1  0.1538147E-010  0.1182980E+03  0.7561462E-02  0.1245932E+00
         -1   -1    0    0    0  501 -0.00000000000E+00  0.00000000000E+00  0.44391987035E+03  0.44391987035E+03  0.00000000000E+00 0.  1.
          1   -1    0    0  501    0  0.00000000000E+00 -0.00000000000E+00 -0.53640004603E+02  0.53640004603E+02  0.00000000000E+00 0. -1.
         25    2    1    2    0    0  0.10647833045E+03  0.21558594746E+02  0.22578526947E+03  0.28007138154E+03  0.12513425984E+03 0.  0.
          5    1    3    3  502    0  0.77217238788E+02  0.41006011075E+02  0.50089832086E+02  0.10084869156E+03  0.41800000000E+01 0.  1.
         -5    1    3    3    0  502  0.29261091658E+02 -0.19447416328E+02  0.17569543739E+03  0.17922268998E+03  0.41800000000E+01 0.  1.
        -11    1    1    2    0    0 -0.76275227188E+02  0.51103371432E+00  0.16310046244E+03  0.18005535895E+03  0.00000000000E+00 0.  1.
         11    1    1    2    0    0 -0.30203103257E+02 -0.22069628461E+02  0.13941338369E+01  0.37433134466E+02  0.00000000000E+00 0. -1.
</event>
<event>
 7    1  0.1538147E-010  0.2355712E+03  0.7561462E-02  0.1122779E+00
          2   -1    0    0  501    0  0.00000000000E+00  0.00000000000E+00  0.52354641711E+03  0.52354641711E+03  0.00000000000E+00 0. -1.
         -2   -1    0    0    0  501 -0.00000000000E+00 -0.00000000000E+00 -0.11909248673E+03  0.11909248673E+03  0.00000000000E+00 0.  1.
         25    2    1    2    0    0  0.13726634032E+03 -0.16810490070E+03  0.28358572961E+03  0.37836250968E+03  0.12504405972E+03 0.  0.
          5    1    3    3  502    0  0.11979966736E+03 -0.48296150610E+02  0.14128035650E+03  0.19147347074E+03  0.41800000000E+01 0. -1.
         -5    1    3    3    0  502  0.17466672960E+02 -0.11980875009E+03  0.14230537311E+03  0.18688903894E+03  0.41800000000E+01 0. -1.
        -11    1    1    2    0    0 -0.62727508407E+02  0.10846497974E+03  0.11259832326E+03  0.16845704064E+03  0.00000000000E+00 0. -1.
         11    1    1    2    0    0 -0.74538831910E+02  0.59639920953E+02  0.82698775154E+01  0.95819353514E+02  0.00000000000E+00 0.  1.
</event>
<event>
 7    1  0.1538147E-010  0.3252579E+03  0.7561462E-02  0.1073255E+00
         -2   -1    0    0    0  501 -0.00000000000E+00  0.00000000000E+00  0.52927487396E+02  0.52927487396E+02  0.00000000000E+00 0.  1.
          2   -1    0    0  501    0  0.00000000000E+00 -0.00000000000E+00 -0.21730728486E+04  0.21730728486E+04  0.00000000000E+00 0. -1.
         25    2    1    2    0    0  0.28474877663E+03  0.11782560368E+03 -0.78119786912E+03  0.84905110487E+03  0.12511166724E+03 0.  0.
          5    1    3    3  502    0  0.12213151639E+03  0.11805362583E+03 -0.40218484912E+03  0.43660381484E+03  0.41800000000E+01 0.  1.
         -5    1    3    3    0  502  0.16261726024E+03 -0.22802215147E+00 -0.37901302000E+03  0.41244729003E+03  0.41800000000E+01 0.  1.
        -11    1    1    2    0    0 -0.24725081914E+03 -0.12889944967E+03 -0.12296847107E+04  0.12609014725E+04  0.00000000000E+00 0. -1.
         11    1    1    2    0    0 -0.37497957489E+02  0.11073845989E+02 -0.10926278133E+03  0.11604775856E+03  0.00000000000E+00 0.  1.
</event>
<event>
 6    1  0.1538147E-010  0.1282661E+03  0.7561462E-02  0.1230051E+00
          3   -1    0    0  501    0  0.00000000000E+00  0.00000000000E+00  0.25118703227E+03  0.25118703227E+03  0.00000000000E+00 0. -1.
         -3   -1    0    0    0  501 -0.00000000000E+00 -0.00000000000E+00 -0.90734134761E+02  0.90734134761E+02  0.00000000000E+00 0.  1.
          5    1    1    2  502    0 -0.44235477582E+02  0.71839364256E+02  0.65326782051E+01  0.84722016136E+02  0.41800000000E+01 0.  1.
         -5    1    1    2    0  502  0.42162323680E+02  0.15918754408E+02  0.11630930617E+03  0.12480543010E+03  0.41800000000E+01 0.  1.
        -11    1    1    2    0    0  0.11207859436E+02  0.17699158238E+02  0.39513168372E+01  0.21318752783E+02  0.00000000000E+00 0. -1.
         11    1    1    2    0    0 -0.91347055344E+01 -0.10545727690E+03  0.33659596297E+02  0.11107496802E+03  0.00000000000E+00 0.  1.
</event>
<event>
 6    1  0.1538147E-010  0.6068863E+02  0.7561462E-02  0.1394964E+00
          2   -1    0    0  501    0  0.00000000000E+00  0.00000000000E+00  0.10736836771E+04  0.10736836771E+04  0.00000000000E+00 0.  1.
         -2   -1    0    0    0  501 -0.00000000000E+00 -0.00000000000E+00 -0.13838529878E+02  0.13838529878E+02  0.00000000000E+00 0. -1.
          5    1    1    2  502    0  0.72588094087E+01  0.63705866210E+01  0.97052405440E+00  0.10568301891E+02  0.41800000000E+01 0.  1.
         -5    1    1    2    0  502 -0.70664465109E+01  0.17532001456E+02  0.81856598505E+03  0.81879487665E+03  0.41800000000E+01 0.  1.
        -11    1    1    2    0    0 -0.35853507524E+02  0.14870935962E+02  0.13408615049E+03  0.13959124074E+03  0.00000000000E+00 0. -1.
         11    1    1    2    0    0  0.35661144626E+02 -0.38773524039E+02  0.10622248762E+03  0.11856778770E+03  0.00000000000E+00 0.  1.
</event>
<event>
 7    1  0.1538147E-010  0.8335805E+02  0.7561462E-02  0.1319783E+00
         -1   -1    0    0    0  501 -0.00000000000E+00  0.00000000000E+00  0.15174131371E+03  0.15174131371E+03  0.00000000000E+00 0.  1.
          1   -1    0    0  501    0  0.00000000000E+00 -0.00000000000E+00 -0.15530374644E+03  0.15530374644E+03  0.00000000000E+00 0. -1.
         25    2    1    2    0    0 -0.32599721078E+02  0.37348522701E+02 -0.98271036349E+02  0.16664140677E+03  0.12511797594E+03 0.  0.
          5    1    3    3  502    0 -0.20555786555E+02 -0.11080605132E+02 -0.11218458748E+03  0.11466548844E+03  0.41800000000E+01 0. -1.
         -5    1    3    3    0  502 -0.12043934523E+02  0.48429127833E+02  0.13913551131E+02  0.51975918333E+02  0.41800000000E+01 0. -1.
        -11    1    1    2    0    0 -0.17540348508E+02 -0.38982727681E+02  0.75350725757E+02  0.86631684477E+02  0.00000000000E+00 0.  1.
         11    1    1    2    0    0  0.50140069586E+02  0.16342049805E+01  0.19357877859E+02  0.53771968898E+02  0.00000000000E+00 0. -1.
</event>
<event>
 7    1  0.1538147E-010  0.1380305E+03  0.7561462E-02  0.1216004E+00
          1   -1    0    0  501    0  0.00000000000E+00  0.00000000000E+00  0.55695941577E+03  0.55695941577E+03  0.00000000000E+00 0. -1.
         -1   -1    0    0    0  501 -0.00000000000E+00 -0.00000000000E+00 -0.87015274686E+02  0.87015274686E+02  0.00000000000E+00 0.  1.
         25    2    1    2    0    0  0.20022853861E+02  0.12340038991E+03  0.45575346339E+03  0.48887465806E+03  0.12513449162E+03 0.  0.
          5    1    3    3  502    0  0.17181093253E+02  0.10411998277E+03  0.15557476833E+03  0.18803494813E+03  0.41800000000E+01 0. -1.
         -5    1    3    3    0  502  0.28417606085E+01  0.19280407144E+02  0.30017869506E+03  0.30083970993E+03  0.41800000000E+01 0. -1.
        -11    1    1    2    0    0  0.33065351736E+02 -0.45349152984E+02  0.22225120178E+02  0.60364054939E+02  0.00000000000E+00 0.  1.
         11    1    1    2    0    0 -0.53088205597E+02 -0.78051236926E+02 -0.80344424834E+01  0.94735977459E+02  0.00000000000E+00 0. -1.
</event>
<event>
 7    1  0.1538147E-010  0.1116322E+03  0.7561462E-02  0.1257577E+00
          3   -1    0    0  501    0  0.00000000000E+00  0.00000000000E+00  0.21543244237E+03  0.21543244237E+03  0.00000000000E+00 0. -1.
         -3   -1    0    0    0  501 -0.00000000000E+00 -0.00000000000E+00 -0.76438990456E+02  0.76438990456E+02  0.00000000000E+00 0.  1.
         25    2    1    2    0    0  0.40195114120E+02 -0.37571054852E+02  0.30307379904E+02  0.14002578223E+03  0.12514571927E+03 0.  0.
          5    1    3    3  502    0  0.65946814601E+01  0.45466747929E+02  0.27620586054E+01  0.46214893255E+02  0.41800000000E+01 0. -1.
         -5    1    3    3    0  502  0.33600432660E+02 -0.83037802781E+02  0.27545321299E+02  0.93810888980E+02  0.41800000000E+01 0. -1.
        -11    1    1    2    0    0 -0.35348721243E+02 -0.12241654506E+02  0.63726828537E+01  0.37947348857E+02  0.00000000000E+00 0.  1.
         11    1    1    2    0    0 -0.48463928771E+01  0.49812709358E+02  0.10231338916E+03  0.11389830174E+03  0.00000000000E+00 0. -1.
</event>
<event>
 7    1  0.1542779E-010  0.1254807E+03  0.7561462E-02  0.1234320E+00
          1   -1    0    0  501    0  0.00000000000E+00  0.00000000000E+00  0.95993372051E+03  0.95993372051E+03  0.00000000000E+00 0. -1.
         -1   -1    0    0    0  501 -0.00000000000E+00 -0.00000000000E+00 -0.17590283926E+02  0.17590283926E+02  0.00000000000E+00 0.  1.
         25    2    1    2    0    0  0.26514524950E+02 -0.64132385999E+02  0.58521127902E+03  0.60244683936E+03  0.12511582713E+03 0.  0.
          5    1    3    3  502    0 -0.45603166982E+02 -0.50442654617E+02  0.23938243406E+03  0.24888859431E+03  0.41800000000E+01 0. -1.
         -5    1    3    3    0  502  0.72117691932E+02 -0.13689731382E+02  0.34582884496E+03  0.35355824504E+03  0.41800000000E+01 0. -1.
        -11    1    1    2    0    0  0.29195249296E+02  0.37596486713E+02  0.21365182652E+03  0.21889029528E+03  0.00000000000E+00 0. -1.
         11    1    1    2    0    0 -0.55709774246E+02  0.26535899286E+02  0.14348033105E+03  0.15618686979E+03  0.00000000000E+00 0.  1.
</event>
<event>
 7    1  0.1538147E-010  0.1235266E+03  0.7561462E-02  0.1237390E+00
          1   -1    0    0  501    0  0.00000000000E+00  0.00000000000E+00  0.62629759409E+03  0.62629759409E+03  0.00000000000E+00 0. -1.
         -1   -1    0    0    0  501 -0.00000000000E+00 -0.00000000000E+00 -0.25826515545E+02  0.25826515545E+02  0.00000000000E+00 0.  1.
         25    2    1    2    0    0  0.23692047499E+02 -0.52807848462E+02  0.34488088658E+03  0.37141094946E+03  0.12511309073E+03 0.  0.
          5    1    3    3  502    0  0.54091311597E+02  0.20751284370E+02  0.15099029452E+03  0.16177770932E+03  0.41800000000E+01 0. -1.
         -5    1    3    3    0  502 -0.30399264097E+02 -0.73559132832E+02  0.19389059206E+03  0.20963324014E+03  0.41800000000E+01 0. -1.
        -11    1    1    2    0    0 -0.51435401056E+02  0.61516525734E+02  0.13822993910E+03  0.15980425364E+03  0.00000000000E+00 0.  1.
         11    1    1    2    0    0  0.27743353556E+02 -0.87086772729E+01  0.11736025286E+03  0.12090890653E+03  0.00000000000E+00 0. -1.
</event>
<event>
 6    1  0.1538147E-010  0.8856235E+02  0.7561462E-02  0.1306371E+00
          1   -1    0    0  501    0  0.00000000000E+00  0.00000000000E+00  0.12631602188E+03  0.12631602188E+03  0.00000000000E+00 0. -1.
         -1   -1    0    0    0  501 -0.00000000000E+00 -0.00000000000E+00 -0.14950863065E+03  0.14950863065E+03  0.00000000000E+00 0.  1.
          5    1    1    2  502    0  0.49872854473E+02 -0.56765945002E+02 -0.35581714040E+02  0.83625384300E+02  0.41800000000E+01 0.  1.
         -5    1    1    2    0  502  0.16147298536E+02  0.19382708869E+02  0.59206113577E+02  0.64492332397E+02  0.41800000000E+01 0.  1.
        -11    1    1    2    0    0 -0.29782718884E+02  0.17408554143E+02 -0.71598310917E+02  0.79475695830E+02  0.00000000000E+00 0.  1.
         11    1    1    2    0    0 -0.36237434125E+02  0.19974681990E+02  0.24781302610E+02  0.48231239996E+02  0.00000000000E+00 0. -1.
</event>
<event>
 7    1  0.1538147E-010  0.1006347E+03  0.7561462E-02  0.1278967E+00
          1   -1    0    0  501    0  0.00000000000E+00  0.00000000000E+00  0.47406835351E+03  0.47406835351E+03  0.00000000000E+00 0. -1.
         -1   -1    0    0    0  501 -0.00000000000E+00 -0.00000000000E+00 -0.27804917292E+02  0.27804917292E+02  0.00000000000E+00 0.  1.
         25    2    1    2    0    0  0.29531612761E+02  0.79780477862E+00  0.19215766284E+03  0.23116226615E+03  0.12505468108E+03 0.  0.
          5    1    3    3  502    0  0.50407029436E+02 -0.42980758168E+02  0.15889892535E+03  0.17220497980E+03  0.41800000000E+01 0. -1.
         -5    1    3    3    0  502 -0.20875416675E+02  0.43778562947E+02  0.33258737484E+02  0.58957286353E+02  0.41800000000E+01 0. -1.
        -11    1    1    2    0    0 -0.57641347669E+02  0.36367172360E+01  0.11458744269E+03  0.12832004012E+03  0.00000000000E+00 0.  1.
         11    1    1    2    0    0  0.28109734909E+02 -0.44345220146E+01  0.13951833068E+03  0.14239096453E+03  0.00000000000E+00 0. -1.
</event>
<event>
 7    1  0.1538147E-010  0.8280069E+02  0.7561462E-02  0.1321286E+00
          3   -1    0    0  501    0  0.00000000000E+00  0.00000000000E+00  0.56824859655E+03  0.56824859655E+03  0.00000000000E+00 0. -1.
         -3   -1    0    0    0  501 -0.00000000000E+00 -0.00000000000E+00 -0.26878845982E+02  0.26878845982E+02  0.00000000000E+00 0.  1.
         25    2    1    2    0    0  0.26028143174E+02  0.26327653110E+02  0.43464673544E+03  0.45380811205E+03  0.12511358191E+03 0.  0.
          5    1    3    3  502    0 -0.12543791058E+02  0.40184539184E+02  0.44156923053E+02  0.61151043630E+02  0.41800000000E+01 0. -1.
         -5    1    3    3    0  502  0.38571934233E+02 -0.13856886075E+02  0.39048981238E+03  0.39265706842E+03  0.41800000000E+01 0. -1.
        -11    1    1    2    0    0 -0.45167712277E+02  0.49420280013E+01  0.90422543829E+02  0.10119675047E+03  0.00000000000E+00 0.  1.
         11    1    1    2    0    0  0.19139569103E+02 -0.31269681111E+02  0.16300471297E+02  0.40122580011E+02  0.00000000000E+00 0. -1.
</event>
<event>
 6    1  0.1538147E-010  0.8254769E+02  0.7561462E-02  0.1321973E+00
         -3   -1    0    0    0  501 -0.00000000000E+00  0.00000000000E+00  0.24359213371E+02  0.24359213371E+02  0.00000000000E+00 0.  1.
          3   -1    0    0  501    0  0.00000000000E+00 -0.00000000000E+00 -0.51766137779E+03  0.51766137779E+03  0.00000000000E+00 0. -1.
          5    1    1    2  502    0 -0.24166915477E+02 -0.32416560890E+02 -0.27141814018E+03  0.27444517202E+03  0.41800000000E+01 0. -1.
         -5    1    1    2    0  502  0.25642656676E+02  0.86379020945E+01 -0.23721285588E+01  0.27481968414E+02  0.41800000000E+01 0. -1.
        -11    1    1    2    0    0 -0.44329303204E+02 -0.62105385048E+01 -0.10878750180E+03  0.11763663741E+03  0.00000000000E+00 0.  1.
         11    1    1    2    0    0  0.42853562005E+02  0.29989197300E+02 -0.11072439388E+03  0.12245681333E+03  0.00000000000E+00 0. -1.
</event>
<event>
 6    1  0.1538147E-010  0.1231715E+03  0.7561462E-02  0.1237955E+00
         -1   -1    0    0    0  501 -0.00000000000E+00  0.00000000000E+00  0.71204103746E+03  0.71204103746E+03  0.00000000000E+00 0.  1.
          1   -1    0    0  501    0  0.00000000000E+00 -0.00000000000E+00 -0.25177445325E+02  0.25177445325E+02  0.00000000000E+00 0. -1.
          5    1    1    2  502    0 -0.85073045952E+01  0.72570601618E+02  0.20976745841E+03  0.22216823683E+03  0.41800000000E+01 0. -1.
         -5    1    1    2    0  502  0.58118443057E+02 -0.32053364859E+02  0.15395334161E+03  0.16770293801E+03  0.41800000000E+01 0. -1.
        -11    1    1    2    0    0 -0.67333366658E+02 -0.56866690919E+01  0.99250314684E+02  0.12006975238E+03  0.00000000000E+00 0.  1.
         11    1    1    2    0    0  0.17722228196E+02 -0.34830567667E+02  0.22389247743E+03  0.22727755557E+03  0.00000000000E+00 0. -1.
</event>
<event>
 7    1  0.1538147E-010  0.1483332E+03  0.7561462E-02  0.1202536E+00
         -2   -1    0    0    0  501 -0.00000000000E+00  0.00000000000E+00  0.61159026599E+03  0.61159026599E+03  0.00000000000E+00 0.  1.
          2   -1    0    0  501    0  0.00000000000E+00 -0.00000000000E+00 -0.72069896539E+02  0.72069896539E+02  0.00000000000E+00 0. -1.
         25    2    1    2    0    0  0.42721313209E+01  0.12417755897E+03  0.49069002481E+03  0.52141173137E+03  0.12512064542E+03 0.  0.
          5    1    3    3  502    0 -0.10020886335E+02  0.14450887930E+03  0.45641464589E+03  0.47886849525E+03  0.41800000000E+01 0. -1.
         -5    1    3    3    0  502  0.14293017656E+02 -0.20331320328E+02  0.34275378913E+02  0.42543236121E+02  0.41800000000E+01 0. -1.
        -11    1    1    2    0    0  0.97657488500E+01 -0.64955563725E+02  0.71691926434E+02  0.97233365803E+02  0.00000000000E+00 0.  1.
         11    1    1    2    0    0 -0.14037880171E+02 -0.59221995244E+02 -0.22861581794E+02  0.65015065350E+02  0.00000000000E+00 0. -1.
</event>
<event>
 7    1  0.1538147E-010  0.1129381E+03  0.7561462E-02  0.1255224E+00
          2   -1    0    0  501    0  0.00000000000E+00  0.00000000000E+00  0.28410542016E+03  0.28410542016E+03  0.00000000000E+00 0. -1.
         -2   -1    0    0    0  501 -0.00000000000E+00 -0.00000000000E+00 -0.62018595233E+02  0.62018595233E+02  0.00000000000E+00 0.  1.
         25    2    1    2    0    0 -0.40469599377E+02 -0.62491778015E+02  0.15230271798E+03  0.21069753232E+03  0.12511723074E+03 0.  0.
          5    1    3    3  502    0  0.21609328502E+02 -0.78215585683E+02  0.90039259207E+02  0.12128141457E+03  0.41800000000E+01 0. -1.
         -5    1    3    3    0  502 -0.62078927880E+02  0.15723807668E+02  0.62263458775E+02  0.89416117747E+02  0.41800000000E+01 0. -1.
        -11    1    1    2    0    0  0.43197012272E+02  0.43656485596E+02 -0.17132650653E+01  0.61439448899E+02  0.00000000000E+00 0.  1.
         11    1    1    2    0    0 -0.27274128949E+01  0.18835292419E+02  0.71497372013E+02  0.73987034178E+02  0.00000000000E+00 0. -1.
</event>
<event>
 7    1  0.1538147E-010  0.6738083E+02  0.7561462E-02  0.1369233E+00
          1   -1    0    0  501    0  0.00000000000E+00  0.00000000000E+00  0.37506706228E+03  0.37506706228E+03  0.00000000000E+00 0. -1.
         -1   -1    0    0    0  501 -0.00000000000E+00 -0.00000000000E+00 -0.67682987611E+02  0.67682987611E+02  0.00000000000E+00 0.  1.
         25    2    1    2    0    0 -0.64139520298E+02 -0.18823775709E+02  0.28852899535E+03  0.32149200626E+03  0.12505965110E+03 0.  0.
          5    1    3    3  502    0 -0.22960188628E+02 -0.30849414555E+01  0.27382100237E+03  0.27483104058E+03  0.41800000000E+01 0. -1.
         -5    1    3    3    0  502 -0.41179331669E+02 -0.15738834253E+02  0.14707992977E+02  0.46660965676E+02  0.41800000000E+01 0. -1.
        -11    1    1    2    0    0  0.28781104644E+02  0.10288550283E+02  0.59391313010E+02  0.66794717699E+02  0.00000000000E+00 0. -1.
         11    1    1    2    0    0  0.35358415654E+02  0.85352254260E+01 -0.40536233689E+02  0.54463325939E+02  0.00000000000E+00 0.  1.
</event>
<event>
 7    1  0.1538147E-010  0.1335132E+03  0.7561462E-02  0.1222334E+00
         -3   -1    0    0    0  501 -0.00000000000E+00  0.00000000000E+00  0.58326699892E+02  0.58326699892E+02  0.00000000000E+00 0.  1.
          3   -1    0    0  501    0  0.00000000000E+00 -0.00000000000E+00 -0.39778065510E+03  0.39778065510E+03  0.00000000000E+00 0. -1.
         25    2    1    2    0    0  0.43979960001E+02  0.94344865082E+02 -0.19858153105E+03  0.25676591569E+03  0.12513560859E+03 0.  0.
          5    1    3    3  502    0  0.21717207635E+02  0.10021166720E+03 -0.20768670757E+03  0.23165762723E+03  0.41800000000E+01 0. -1.
         -5    1    3    3    0  502  0.22262752366E+02 -0.58668021162E+01  0.91051765227E+01  0.25108288462E+02  0.41800000000E+01 0. -1.
        -11    1    1    2    0    0  0.12835523560E+02 -0.81825059857E+02 -0.84917984788E+02  0.11862190028E+03  0.00000000000E+00 0.  1.
         11    1    1    2    0    0 -0.56815483560E+02 -0.12519805224E+02 -0.55954439373E+02  0.80719539026E+02  0.00000000000E+00 0. -1.
</event>
<event>
 7    1  0.1538147E-010  0.6621253E+02  0.7561462E-02  0.1373468E+00
         -1   -1    0    0    0  501 -0.00000000000E+00  0.00000000000E+00  0.84749873180E+02  0.84749873180E+02  0.00000000000E+00 0.  1.
          1   -1    0    0  501    0  0.00000000000E+00 -0.00000000000E+00 -0.13939938332E+03  0.13939938332E+03  0.00000000000E+00 0. -1.
         25    2    1    2    0    0 -0.63064872035E+01  0.98802515982E+01 -0.28919411022E+02  0.12894506167E+03  0.12511237126E+03 0.  0.
          5    1    3    3  502    0 -0.50573923488E+02  0.72689363002E+01  0.26610090546E+02  0.57759228620E+02  0.41800000000E+01 0.  1.
         -5    1    3    3    0  502  0.44267436285E+02  0.26113152980E+01 -0.55529501568E+02  0.71185833051E+02  0.41800000000E+01 0.  1.
        -11    1    1    2    0    0 -0.33070706753E+01  0.12145355673E+02 -0.55520004578E+02  0.56929054877E+02  0.00000000000E+00 0. -1.
         11    1    1    2    0    0  0.96135578788E+01 -0.22025607271E+02  0.29789905462E+02  0.38275139950E+02  0.00000000000E+00 0.  1.
</event>
<event>
 7    1  0.1538147E-010  0.1159402E+03  0.7561462E-02  0.1249949E+00
          1   -1    0    0  501    0  0.00000000000E+00  0.00000000000E+00  0.83620248952E+03  0.83620248952E+03  0.00000000000E+00 0. -1.
         -1   -1    0    0    0  501 -0.00000000000E+00 -0.00000000000E+00 -0.25499884003E+02  0.25499884003E+02  0.00000000000E+00 0.  1.
         25    2    1    2    0    0 -0.34107839730E+02 -0.91523540981E+02  0.45858231664E+03  0.48527938756E+03  0.12513368680E+03 0.  0.
          5    1    3    3  502    0 -0.25746735366E+02 -0.89832764248E+02  0.46467303180E+03  0.47399506200E+03  0.41800000000E+01 0. -1.
         -5    1    3    3    0  502 -0.83611043648E+01 -0.16907767323E+01 -0.60907151640E+01  0.11284325561E+02  0.41800000000E+01 0. -1.
        -11    1    1    2    0    0 -0.11691156550E+02  0.81007905002E+02  0.17531110927E+03  0.19347596452E+03  0.00000000000E+00 0.  1.
         11    1    1    2    0    0  0.45798996280E+02  0.10515635979E+02  0.17680917961E+03  0.18294702144E+03  0.00000000000E+00 0. -1.
</event>
<event>
 7    1  0.1538147E-010  0.6846616E+02  0.7561462E-02  0.1365388E+00
         -3   -1    0    0    0  501 -0.00000000000E+00  0.00000000000E+00  0.15563414313E+03  0.15563414313E+03  0.00000000000E+00 0.  1.
          3   -1    0    0  501    0  0.00000000000E+00 -0.00000000000E+00 -0.87257185122E+02  0.87257185122E+02  0.00000000000E+00 0. -1.
         25    2    1    2    0    0  0.15233940684E+01 -0.33226607764E+02  0.12283122868E+02  0.13004618523E+03  0.12511917117E+03 0.  0.
          5    1    3    3  502    0 -0.40208269691E-01 -0.41834000393E+02  0.64469544269E+02  0.76966744402E+02  0.41800000000E+01 0.  1.
         -5    1    3    3    0  502  0.15636023381E+01  0.86073926284E+01 -0.52186421402E+02  0.53079440830E+02  0.41800000000E+01 0.  1.
        -11    1    1    2    0    0  0.63521218124E+01  0.58437662093E+02  0.62361979523E+02  0.85699044875E+02  0.00000000000E+00 0.  1.
         11    1    1    2    0    0 -0.78755158808E+01 -0.25211054329E+02 -0.62681443781E+01  0.27146098149E+02  0.00000000000E+00 0. -1.
</event>
<event>
 7    1  0.1538147E-010  0.1008934E+03  0.7561462E-02  0.1278428E+00
         -1   -1    0    0    0  501 -0.00000000000E+00  0.00000000000E+00  0.30551243933E+03  0.30551243933E+03  0.00000000000E+00 0.  1.
          1   -1    0    0  501    0  0.00000000000E+00 -0.00000000000E+00 -0.79119766885E+02  0.79119766885E+02  0.00000000000E+00 0. -1.
         25    2    1    2    0    0  0.25191161867E+02  0.55629007769E+01 -0.11937199903E+02  0.12830073500E+03  0.12511211515E+03 0.  0.
          5    1    3    3  502    0  0.66477912286E+02 -0.63149559539E+01  0.25063580602E+02  0.71448211757E+02  0.41800000000E+01 0.  1.
         -5    1    3    3    0  502 -0.41286750419E+02  0.11877856731E+02 -0.37000780505E+02  0.56852523239E+02  0.41800000000E+01 0.  1.
        -11    1    1    2    0    0  0.52863571216E+01 -0.43065945746E+02  0.14322506320E+03  0.14965306540E+03  0.00000000000E+00 0.  1.
         11    1    1    2    0    0 -0.30477518989E+02  0.37503044969E+02  0.95104809154E+02  0.10667840583E+03  0.00000000000E+00 0. -1.
</event>
<event>
 7    1  0.1538147E-010  0.1522258E+03  0.7561462E-02  0.1197764E+00
          1   -1    0    0  501    0  0.00000000000E+00  0.00000000000E+00  0.86286283634E+03  0.86286283634E+03  0.00000000000E+00 0. -1.
         -1   -1    0    0    0  501 -0.00000000000E+00 -0.00000000000E+00 -0.29619817856E+02  0.29619817856E+02  0.00000000000E+00 0.  1.
         25    2    1    2    0    0 -0.65849387056E+02  0.97824210189E+02  0.45149817937E+03  0.48311130928E+03  0.12506083844E+03 0.  0.
          5    1    3    3  502    0 -0.55914422310E+02  0.12681768087E+03  0.39601145896E+03  0.41958514610E+03  0.41800000000E+01 0. -1.
         -5    1    3    3    0  502 -0.99349647459E+01 -0.28993470682E+02  0.55486720408E+02  0.63526163180E+02  0.41800000000E+01 0. -1.
        -11    1    1    2    0    0  0.58602895431E+02 -0.28514376205E+02  0.10173194321E+03  0.12081704049E+03  0.00000000000E+00 0.  1.
         11    1    1    2    0    0  0.72464916244E+01 -0.69309833985E+02  0.28001289590E+03  0.28855430442E+03  0.00000000000E+00 0. -1.
</event>
<event>
 6    1  0.1538147E-010  0.1149374E+03  0.7561462E-02  0.1251690E+00
          2   -1    0    0  501    0  0.00000000000E+00  0.00000000000E+00  0.11922513534E+04  0.11922513534E+04  0.00000000000E+00 0.  1.
         -2   -1    0    0    0  501 -0.00000000000E+00 -0.00000000000E+00 -0.12351920608E+02  0.12351920608E+02  0.00000000000E+00 0. -1.
          5    1    1    2  502    0 -0.77902624481E+02  0.16231782489E+02  0.30914144847E+03  0.31924629556E+03  0.41800000000E+01 0.  1.
         -5    1    1    2    0  502  0.41357761942E+02  0.10889919590E+01  0.38592922483E+03  0.38816296752E+03  0.41800000000E+01 0.  1.
        -11    1    1    2    0    0  0.21641159109E+02  0.42104749575E+02  0.25394225732E+03  0.25831728506E+03  0.00000000000E+00 0. -1.
         11    1    1    2    0    0  0.14903703431E+02 -0.59425524023E+02  0.23088650213E+03  0.23887672584E+03  0.00000000000E+00 0.  1.
</event>
<event>
 7    1  0.1538147E-010  0.2076987E+03  0.7561462E-02  0.1143401E+00
          1   -1    0    0  501    0  0.00000000000E+00  0.00000000000E+00  0.14059410768E+03  0.14059410768E+03  0.00000000000E+00 0. -1.
         -1   -1    0    0    0  501 -0.00000000000E+00 -0.00000000000E+00 -0.33899145013E+03  0.33899145013E+03  0.00000000000E+00 0.  1.
         25    2    1    2    0    0 -0.97270146083E+02  0.15390550106E+03 -0.73251735637E+02  0.23275095316E+03  0.12513514632E+03 0.  0.
          5    1    3    3  502    0 -0.10505143449E+03  0.17115112490E+03 -0.71839575981E+02  0.21332348328E+03  0.41800000000E+01 0.  1.
         -5    1    3    3    0  502  0.77812884091E+01 -0.17245623836E+02 -0.14121596551E+01  0.19427469874E+02  0.41800000000E+01 0.  1.
        -11    1    1    2    0    0  0.10617559538E+03 -0.12058111378E+03 -0.13618562140E+03  0.21061715393E+03  0.00000000000E+00 0.  1.
         11    1    1    2    0    0 -0.89054492933E+01 -0.33324387280E+02  0.11040014589E+02  0.36217450723E+02  0.00000000000E+00 0. -1.
</event>
<event>
 7    1  0.1538147E-010  0.1325388E+03  0.7561462E-02  0.1223736E+00
          2   -1    0    0  501    0  0.00000000000E+00  0.00000000000E+00  0.16534642000E+04  0.16534642000E+04  0.00000000000E+00 0. -1.
         -2   -1    0    0    0  501 -0.00000000000E+00 -0.00000000000E+00 -0.18758222831E+02  0.18758222831E+02  0.00000000000E+00 0.  1.
         25    2    1    2    0    0  0.14112375005E+02 -0.11855936536E+03  0.11915889954E+04  0.12040754527E+04  0.12513144966E+03 0.  0.
          5    1    3    3  502    0  0.56657846729E+01  0.10309177600E+02  0.11627375977E+02  0.17060144514E+02  0.41800000000E+01 0.  1.
         -5    1    3    3    0  502  0.84465903322E+01 -0.12886854296E+03  0.11799616194E+04  0.11870153082E+04  0.41800000000E+01 0.  1.
        -11    1    1    2    0    0  0.91837492037E+01  0.18612429541E+02  0.10001461143E+02  0.23038945458E+02  0.00000000000E+00 0.  1.
         11    1    1    2    0    0 -0.23296124209E+02  0.99946935824E+02  0.43311552064E+03  0.44510802464E+03  0.00000000000E+00 0. -1.
</event>
<event>
 6    1  0.1538147E-010  0.1375140E+03  0.7561462E-02  0.1216714E+00
          1   -1    0    0  501    0  0.00000000000E+00  0.00000000000E+00  0.58581007965E+03  0.58581007965E+03  0.00000000000E+00 0. -1.
         -1   -1    0    0    0  501 -0.00000000000E+00 -0.00000000000E+00 -0.42943051624E+02  0.42943051624E+02  0.00000000000E+00 0.  1.
          5    1    1    2  502    0  0.11538324718E+03 -0.45981123282E+02  0.23420122255E+03  0.26513249984E+03  0.41800000000E+01 0. -1.
         -5    1    1    2    0  502 -0.25631433184E+02 -0.12376564409E+02  0.15106172419E+03  0.15377667778E+03  0.41800000000E+01 0. -1.
        -11    1    1    2    0    0 -0.48001777712E+02 -0.26283576582E+01  0.16986313382E+02  0.50986407697E+02  0.00000000000E+00 0.  1.
         11    1    1    2    0    0 -0.41750036283E+02  0.60986045349E+02  0.14061776790E+03  0.15885754595E+03  0.00000000000E+00 0. -1.
</event>
<event>
 7    1  0.1538147E-010  0.1489977E+03  0.7561462E-02  0.1201710E+00
         -2   -1    0    0    0  501 -0.00000000000E+00  0.00000000000E+00  0.10366353514E+03  0.10366353514E+03  0.00000000000E+00 0.  1.
          2   -1    0    0  501    0  0.00000000000E+00 -0.00000000000E+00 -0.24048787674E+03  0.24048787674E+03  0.00000000000E+00 0. -1.
         25    2    1    2    0    0 -0.10991622777E+03  0.19855610681E+02 -0.43709656579E+02  0.17328674053E+03  0.12506773350E+03 0.  0.
          5    1    3    3  502    0 -0.64626869915E+02  0.64299686052E+02  0.75996190899E+01  0.91576790464E+02  0.41800000000E+01 0. -1.
         -5    1    3    3    0  502 -0.45289357851E+02 -0.44444075370E+02 -0.51309275669E+02  0.81709950066E+02  0.41800000000E+01 0. -1.
        -11    1    1    2    0    0  0.69591480349E+00 -0.33113652248E+02 -0.18633352222E+02  0.38002632510E+02  0.00000000000E+00 0. -1.
         11    1    1    2    0    0  0.10922031296E+03  0.13258041566E+02 -0.74481332792E+02  0.13286203884E+03  0.00000000000E+00 0.  1.
</event>
<event>
 7    1  0.1538147E-010  0.1372555E+03  0.7561462E-02  0.1217070E+00
          1   -1    0    0  501    0  0.00000000000E+00  0.00000000000E+00  0.82663276212E+03  0.82663276212E+03  0.00000000000E+00 0. -1.
         -1   -1    0    0    0  501 -0.00000000000E+00 -0.00000000000E+00 -0.29555742984E+02  0.29555742984E+02  0.00000000000E+00 0.  1.
         25    2    1    2    0    0 -0.81990341679E+02 -0.56986650818E+02  0.50621883622E+03  0.53090787751E+03  0.12504307159E+03 0.  0.
          5    1    3    3  502    0 -0.10282637859E+03 -0.25739765962E+02  0.24513919487E+03  0.26710765049E+03  0.41800000000E+01 0. -1.
         -5    1    3    3    0  502  0.20836036915E+02 -0.31246884856E+02  0.26107964135E+03  0.26380022702E+03  0.41800000000E+01 0. -1.
        -11    1    1    2    0    0  0.15516204855E+01 -0.19548132694E+02  0.75862668553E+01  0.21025899808E+02  0.00000000000E+00 0.  1.
         11    1    1    2    0    0  0.80438721193E+02  0.76534783512E+02  0.28327191606E+03  0.30425472779E+03  0.00000000000E+00 0. -1.
</event>
<event>
 6    1  0.1538147E-010  0.5913676E+02  0.7561462E-02  0.1401490E+00
         -1   -1    0    0    0  501 -0.00000000000E+00  0.00000000000E+00  0.16286912696E+03  0.16286912696E+03  0.00000000000E+00 0.  1.
          1   -1    0    0  501    0  0.00000000000E+00 -0.00000000000E+00 -0.78023766597E+02  0.78023766597E+02  0.00000000000E+00 0. -1.
          5    1    1    2  502    0 -0.56762909652E+01  0.70613306084E+01  0.11510505870E+03  0.11553670243E+03  0.41800000000E+01 0.  1.
         -5    1    1    2    0  502 -0.10203953185E+02 -0.26617654741E+02 -0.27184410288E+02  0.39611674632E+02  0.41800000000E+01 0.  1.
        -11    1    1    2    0    0 -0.29395735396E+02 -0.17457829943E+01  0.14353045924E+02  0.32759226869E+02  0.00000000000E+00 0.  1.
         11    1    1    2    0    0  0.45275979546E+02  0.21302107127E+02 -0.17428333975E+02  0.52985289629E+02  0.00000000000E+00 0. -1.
</event>
<event>
 7    1  0.1723407E-010  0.1079248E+03  0.7561462E-02  0.1264462E+00
         -1   -1    0    0    0  501 -0.00000000000E+00  0.00000000000E+00  0.24929385826E+02  0.24929385826E+02  0.00000000000E+00 0.  1.
          1   -1    0    0  501    0  0.00000000000E+00 -0.00000000000E+00 -0.83986390649E+03  0.83986390649E+03  0.00000000000E+00 0. -1.
         25    2    1    2    0    0 -0.69851262584E+02 -0.69108664862E+01 -0.66005681383E+03  0.67546643709E+03  0.12511175483E+03 0.  0.
          5    1    3    3  502    0 -0.58994558902E+02  0.47391943824E+02 -0.23810232052E+03  0.24987305128E+03  0.41800000000E+01 0.  1.
         -5    1    3    3    0  502 -0.10856703681E+02 -0.54302810310E+02 -0.42195449331E+03  0.42559338581E+03  0.41800000000E+01 0.  1.
        -11    1    1    2    0    0 -0.30094507195E+01  0.11143826289E+02  0.57500445992E+01  0.12895916830E+02  0.00000000000E+00 0.  1.
         11    1    1    2    0    0  0.72860713303E+02 -0.42329598023E+01 -0.16062775144E+03  0.17643093840E+03  0.00000000000E+00 0. -1.
</event>
<event>
 7    1  0.1538147E-010  0.1324967E+03  0.7561462E-02  0.1223797E+00
         -1   -1    0    0    0  501 -0.00000000000E+00  0.00000000000E+00  0.31246506760E+02  0.31246506760E+02  0.00000000000E+00 0.  1.
          1   -1    0    0  501    0  0.00000000000E+00 -0.00000000000E+00 -0.67732109947E+03  0.67732109947E+03  0.00000000000E+00 0. -1.
         25    2    1    2    0    0 -0.41585100241E+02  0.87574208291E+02 -0.36693978589E+03  0.39959895135E+03  0.12504380404E+03 0.  0.
          5    1    3    3  502    0 -0.64906157181E+02 -0.10134409059E+01 -0.17966531109E+03  0.19107834182E+03  0.41800000000E+01 0.  1.
         -5    1    3    3    0  502  0.23321056940E+02  0.88587649197E+02 -0.18727447480E+03  0.20852060953E+03  0.41800000000E+01 0.  1.
        -11    1    1    2    0    0  0.51583889936E+02 -0.81773848693E+02 -0.28108270317E+03  0.29724627172E+03  0.00000000000E+00 0. -1.
         11    1    1    2    0    0 -0.99987896948E+01 -0.58003595983E+01  0.19478963495E+01  0.11722383163E+02  0.00000000000E+00 0.  1.
</event>
<event>
 6    1  0.1538147E-010  0.1813153E+03  0.7561462E-02  0.1166536E+00
          2   -1    0    0  501    0  0.00000000000E+00  0.00000000000E+00  0.22448916906E+03  0.22448916906E+03  0.00000000000E+00 0. -1.
         -2   -1    0    0    0  501 -0.00000000000E+00 -0.00000000000E+00 -0.18786797972E+03  0.18786797972E+03  0.00000000000E+00 0.  1.
          5    1    1    2  502    0 -0.15856961891E+03 -0.71264559695E+02  0.97670734724E+01  0.17417183938E+03  0.41800000000E+01 0. -1.
         -5    1    1    2    0  502  0.12192910333E+01  0.11095708908E+02 -0.35034232829E+02  0.37006368327E+02  0.41800000000E+01 0. -1.
        -11    1    1    2    0    0  0.12093581430E+03  0.69147270158E+02  0.13504920794E+02  0.13996141981E+03  0.00000000000E+00 0.  1.
         11    1    1    2    0    0  0.36414513572E+02 -0.89784193702E+01  0.48383427911E+02  0.61217521262E+02  0.00000000000E+00 0. -1.
</event>
<event>
 7    1  0.1538147E-010  0.9237324E+02  0.7561462E-02  0.1297204E+00
         -2   -1    0    0    0  501 -0.00000000000E+00  0.00000000000E+00  0.31255389863E+02  0.31255389863E+02  0.00000000000E+00 0.  1.
          2   -1    0    0  501    0  0.00000000000E+00 -0.00000000000E+00 -0.55927713590E+03  0.55927713590E+03  0.00000000000E+00 0. -1.
         25    2    1    2    0    0 -0.48696811792E+02 -0.23015618147E+02 -0.41087421787E+03  0.43284840994E+03  0.12505608709E+03 0.  0.
          5    1    3    3  502    0 -0.25309286395E+02 -0.48034188707E+02 -0.38718790353E+03  0.39099845051E+03  0.41800000000E+01 0.  1.
         -5    1    3    3    0  502 -0.23387525397E+02  0.25018570560E+02 -0.23686314344E+02  0.41849959429E+02  0.41800000000E+01 0.  1.
        -11    1    1    2    0    0  0.69192784149E+02  0.28086588272E+02 -0.57017186228E+02  0.93954549354E+02  0.00000000000E+00 0.  1.
         11    1    1    2    0    0 -0.20495972357E+02 -0.50709701250E+01 -0.60130341939E+02  0.63729566471E+02  0.00000000000E+00 0. -1.
</event>
<event>
 7    1  0.1538147E-010  0.1099033E+03  0.7561462E-02  0.1260749E+00
         -1   -1    0    0    0  501 -0.00000000000E+00  0.00000000000E+00  0.28997996526E+03  0.28997996526E+03  0.00000000000E+00 0.  1.
          1   -1    0    0  501    0  0.00000000000E+00 -0.00000000000E+00 -0.45929592438E+02  0.45929592438E+02  0.00000000000E+00 0. -1.
         25    2    1    2    0    0  0.10485833456E+02 -0.38434916109E+02  0.12745283103E+03  0.18295856451E+03  0.12506964744E+03 0.  0.
          5    1    3    3  502    0  0.61332832598E+02 -0.34962637742E+02  0.38933679931E+02  0.80730454138E+02  0.41800000000E+01 0. -1.
         -5    1    3    3    0  502 -0.50846999142E+02 -0.34722783668E+01  0.88519151094E+02  0.10222811037E+03  0.41800000000E+01 0. -1.
        -11    1    1    2    0    0  0.26440650458E+02 -0.16931633455E+02  0.48158338091E+02  0.57489248872E+02  0.00000000000E+00 0. -1.
         11    1    1    2    0    0 -0.36926483913E+02  0.55366549564E+02  0.68439203701E+02  0.95461744317E+02  0.00000000000E+00 0.  1.
</event>
<event>
 7    1  0.1679109E-010  0.1000782E+03  0.7561462E-02  0.1280132E+00
         -1   -1    0    0    0  501 -0.00000000000E+00  0.00000000000E+00  0.24267036646E+02  0.24267036646E+02  0.00000000000E+00 0.  1.
          1   -1    0    0  501    0  0.00000000000E+00 -0.00000000000E+00 -0.79169903793E+03  0.79169903793E+03  0.00000000000E+00 0. -1.
         25    2    1    2    0    0 -0.43074263095E+02 -0.68785901138E+02 -0.33014154587E+03  0.36224668584E+03  0.12506929582E+03 0.  0.
          5    1    3    3  502    0 -0.26148967256E+02 -0.51458116480E+00 -0.26489339766E+03  0.26621423292E+03  0.41800000000E+01 0. -1.
         -5    1    3    3    0  502 -0.16925295839E+02 -0.68271319973E+02 -0.65248148207E+02  0.96032452924E+02  0.41800000000E+01 0. -1.
        -11    1    1    2    0    0 -0.14054379120E+02  0.32815956363E+02 -0.55386118790E+02  0.65894117485E+02  0.00000000000E+00 0.  1.
         11    1    1    2    0    0  0.57128642215E+02  0.35969944775E+02 -0.38190433663E+03  0.38782527125E+03  0.00000000000E+00 0. -1.
</event>
<event>
 7    1  0.1538147E-010  0.1198458E+03  0.7561462E-02  0.1243352E+00
         -2   -1    0    0    0  501 -0.00000000000E+00  0.00000000000E+00  0.57029539042E+02  0.57029539042E+02  0.00000000000E+00 0.  1.
          2   -1    0    0  501    0  0.00000000000E+00 -0.00000000000E+00 -0.37891865374E+03  0.37891865374E+03  0.00000000000E+00 0. -1.
         25    2    1    2    0    0  0.80098603292E+02  0.53075972006E+02 -0.13859454216E+03  0.21000897438E+03  0.12514981882E+03 0.  0.
          5    1    3    3  502    0  0.32106270726E+02 -0.32192656483E+02 -0.89461777416E+02  0.10043934373E+03  0.41800000000E+01 0. -1.
         -5    1    3    3    0  502  0.47992332566E+02  0.85268628488E+02 -0.49132764745E+02  0.10956963065E+03  0.41800000000E+01 0. -1.
        -11    1    1    2    0    0 -0.22463349490E+02 -0.15627055527E+02 -0.14438854276E+03  0.14695869561E+03  0.00000000000E+00 0. -1.
         11    1    1    2    0    0 -0.57635253802E+02 -0.37448916479E+02 -0.38906029770E+02  0.78980522781E+02  0.00000000000E+00 0.  1.
</event>
<event>
 6    1  0.1538147E-010  0.8283313E+02  0.7561462E-02  0.1321198E+00
          2   -1    0    0  501    0  0.00000000000E+00  0.00000000000E+00  0.28983807420E+03  0.28983807420E+03  0.00000000000E+00 0. -1.
         -2   -1    0    0    0  501 -0.00000000000E+00 -0.00000000000E+00 -0.45783785795E+02  0.45783785795E+02  0.00000000000E+00 0.  1.
          5    1    1    2  502    0  0.20360977720E+02  0.32819592731E+02  0.41688582376E+00  0.38850241628E+02  0.41800000000E+01 0. -1.
         -5    1    1    2    0  502  0.13520323696E+01 -0.56030902977E+02  0.13956911228E+03  0.15046029238E+03  0.41800000000E+01 0. -1.
        -11    1    1    2    0    0  0.31864866152E+01  0.40293685032E+02  0.10850714173E+03  0.11579090878E+03  0.00000000000E+00 0. -1.
         11    1    1    2    0    0 -0.24899496704E+02 -0.17082374786E+02 -0.44388514274E+01  0.30520417207E+02  0.00000000000E+00 0.  1.
</event>
<event>
 7    1  0.1538147E-010  0.1057833E+03  0.7561462E-02  0.1268584E+00
         -2   -1    0    0    0  501 -0.00000000000E+00  0.00000000000E+00  0.33721594857E+02  0.33721594857E+02  0.00000000000E+00 0.  1.
          2   -1    0    0  501    0  0.00000000000E+00 -0.00000000000E+00 -0.48218100566E+03  0.48218100566E+03  0.00000000000E+00 0. -1.
         25    2    1    2    0    0 -0.51890400976E+02 -0.41427268212E+02 -0.23829426598E+03  0.27719034933E+03  0.12506598376E+03 0.  0.
          5    1    3    3  502    0 -0.89092671954E+02 -0.19317518503E+02 -0.19752718485E+03  0.21758936526E+03  0.41800000000E+01 0. -1.
         -5    1    3    3    0  502  0.37202270978E+02 -0.22109749709E+02 -0.40767081130E+02  0.59600984069E+02  0.41800000000E+01 0. -1.
        -11    1    1    2    0    0  0.54111243555E+02  0.23885828003E+02 -0.21277131932E+03  0.22083974684E+03  0.00000000000E+00 0. -1.
         11    1    1    2    0    0 -0.22208425786E+01  0.17541440209E+02  0.26061744995E+01  0.17872504354E+02  0.00000000000E+00 0.  1.
</event>
<event>
 7    1  0.1538147E-010  0.1228329E+03  0.7561462E-02  0.1238495E+00
          2   -1    0    0  501    0  0.00000000000E+00  0.00000000000E+00  0.10067543400E+04  0.10067543400E+04  0.00000000000E+00 0. -1.
         -2   -1    0    0    0  501 -0.00000000000E+00 -0.00000000000E+00 -0.21197874613E+02  0.21197874613E+02  0.00000000000E+00 0.  1.
         25    2    1    2    0    0 -0.90516016576E+02  0.19529342532E+02  0.41897203844E+03  0.44693818832E+03  0.12506650513E+03 0.  0.
          5    1    3    3  502    0 -0.76370723208E+02 -0.24350970429E+02  0.11979300149E+03  0.14419879587E+03  0.41800000000E+01 0.  1.
         -5    1    3    3    0  502 -0.14145293368E+02  0.43880312962E+02  0.29917903695E+03  0.30273939245E+03  0.41800000000E+01 0.  1.
        -11    1    1    2    0    0 -0.62118795090E+01 -0.21477146848E+02  0.41972350792E+02  0.47555583424E+02  0.00000000000E+00 0.  1.
         11    1    1    2    0    0  0.96727896085E+02  0.19478043154E+01  0.52461207612E+03  0.53345844284E+03  0.00000000000E+00 0. -1.
</event>
<event>
 7    1  0.1538147E-010  0.1381356E+03  0.7561462E-02  0.1215860E+00
          1   -1    0    0  501    0  0.00000000000E+00  0.00000000000E+00  0.59888714047E+02  0.59888714047E+02  0.00000000000E+00 0. -1.
         -1   -1    0    0    0  501 -0.00000000000E+00 -0.00000000000E+00 -0.41267804062E+03  0.41267804062E+03  0.00000000000E+00 0.  1.
         25    2    1    2    0    0  0.30414072097E+02 -0.10648265084E+03 -0.22732170841E+03  0.28212144114E+03  0.12511505795E+03 0.  0.
          5    1    3    3  502    0  0.72396837854E+02 -0.59465520811E+02 -0.85664850381E+02  0.12701727948E+03  0.41800000000E+01 0. -1.
         -5    1    3    3    0  502 -0.41982765756E+02 -0.47017130032E+02 -0.14165685803E+03  0.15510416166E+03  0.41800000000E+01 0. -1.
        -11    1    1    2    0    0 -0.40765642842E+02  0.66352848293E+02 -0.12699845635E+03  0.14897364206E+03  0.00000000000E+00 0.  1.
         11    1    1    2    0    0  0.10351570745E+02  0.40129802550E+02  0.15308381769E+01  0.41471671477E+02  0.00000000000E+00 0. -1.
</event>
<event>
 6    1  0.1538147E-010  0.1354036E+03  0.7561462E-02  0.1219651E+00
         -1   -1    0    0    0  501 -0.00000000000E+00  0.00000000000E+00  0.16321452489E+02  0.16321452489E+02  0.00000000000E+00 0.  1.
          1   -1    0    0  501    0  0.00000000000E+00 -0.00000000000E+00 -0.16589262224E+04  0.16589262224E+04  0.00000000000E+00 0. -1.
          5    1    1    2  502    0  0.86318669919E+01 -0.80806378746E+02 -0.28037506662E+03  0.29194490979E+03  0.41800000000E+01 0. -1.
         -5    1    1    2    0  502 -0.34830000645E+02 -0.30122029539E+02 -0.83382772191E+03  0.83510874012E+03  0.41800000000E+01 0. -1.
        -11    1    1    2    0    0 -0.23057282933E+02  0.83902697530E+02 -0.26693187251E+03  0.28075598927E+03  0.00000000000E+00 0. -1.
         11    1    1    2    0    0  0.49255416586E+02  0.27025710756E+02 -0.26147010886E+03  0.26743803569E+03  0.00000000000E+00 0.  1.
</event>
<event>
 7    1  0.1538147E-010  0.8846528E+02  0.7561462E-02  0.1306611E+00
          2   -1    0    0  501    0  0.00000000000E+00  0.00000000000E+00  0.38978676822E+02  0.38978676822E+02  0.00000000000E+00 0. -1.
         -2   -1    0    0    0  501 -0.00000000000E+00 -0.00000000000E+00 -0.43105656324E+03  0.43105656324E+03  0.00000000000E+00 0.  1.
         25    2    1    2    0    0 -0.48631417775E+02  0.21096091359E+02 -0.29825161367E+03  0.32772512967E+03  0.12505868899E+03 0.  0.
          5    1    3    3  502    0 -0.68844443002E+02 -0.23025839500E+02 -0.10039922553E+03  0.12396460585E+03  0.41800000000E+01 0.  1.
         -5    1    3    3    0  502  0.20213025227E+02  0.44121930859E+02 -0.19785238815E+03  0.20376052382E+03  0.41800000000E+01 0.  1.
        -11    1    1    2    0    0  0.16711653035E+02  0.90890239802E+00  0.17626688589E+02  0.24306492987E+02  0.00000000000E+00 0. -1.
         11    1    1    2    0    0  0.31919764740E+02 -0.22004993757E+02 -0.11145296134E+03  0.11800361741E+03  0.00000000000E+00 0.  1.
</event>
<event>
 7    1  0.1538147E-010  0.9095991E+02  0.7561462E-02  0.1300544E+00
          1   -1    0    0  501    0  0.00000000000E+00  0.00000000000E+00  0.26218688956E+03  0.26218688956E+03  0.00000000000E+00 0. -1.
         -1   -1    0    0    0  501 -0.00000000000E+00 -0.00000000000E+00 -0.48375482124E+02  0.48375482124E+02  0.00000000000E+00 0.  1.
         25    2    1    2    0    0 -0.17774769255E+02  0.31558989898E+01  0.90043336039E+02  0.15516459157E+03  0.12506936473E+03 0.  0.
          5    1    3    3  502    0 -0.64510705515E+02 -0.26102040154E+02  0.38860024192E+02  0.79815546772E+02  0.41800000000E+01 0.  1.
         -5    1    3    3    0  502  0.46735936261E+02  0.29257939144E+02  0.51183311847E+02  0.75349044803E+02  0.41800000000E+01 0.  1.
        -11    1    1    2    0    0 -0.17237581603E+02 -0.11741476698E+02 -0.51925778192E+01  0.21493239844E+02  0.00000000000E+00 0.  1.
         11    1    1    2    0    0  0.35012350858E+02  0.85855777086E+01  0.12896064922E+03  0.13390454026E+03  0.00000000000E+00 0. -1.
</event>
<event>
 7    1  0.1538147E-010  0.1292565E+03  0.7561462E-02  0.1228563E+00
         -4   -1    0    0    0  501 -0.00000000000E+00  0.00000000000E+00  0.34690237635E+03  0.34690237635E+03  0.00000000000E+00 0.  1.
          4   -1    0    0  501    0  0.00000000000E+00 -0.00000000000E+00 -0.73081339667E+02  0.73081339667E+02  0.00000000000E+00 0. -1.
         25    2    1    2    0    0  0.25411671602E+02  0.95478362390E+02  0.66621827555E+02  0.17274834773E+03  0.12506659425E+03 0.  0.
          5    1    3    3  502    0  0.69175188173E+02  0.69353977754E+02  0.13427733105E+02  0.98959371994E+02  0.41800000000E+01 0. -1.
         -5    1    3    3    0  502 -0.43763516571E+02  0.26124384637E+02  0.53194094450E+02  0.73788975732E+02  0.41800000000E+01 0. -1.
        -11    1    1    2    0    0  0.33600517160E+01 -0.72313793537E+02  0.55816907380E+02  0.91411716058E+02  0.00000000000E+00 0. -1.
         11    1    1    2    0    0 -0.28771723318E+02 -0.23164568854E+02  0.15138230175E+03  0.15582365223E+03  0.00000000000E+00 0.  1.
</event>
<event>
 7    1  0.1538147E-010  0.4144800E+03  0.7561462E-02  0.1038878E+00
         -1   -1    0    0    0  501 -0.00000000000E+00  0.00000000000E+00  0.60393866689E+03  0.60393866689E+03  0.00000000000E+00 0.  1.
          1   -1    0    0  501    0  0.00000000000E+00 -0.00000000000E+00 -0.29348186411E+03  0.29348186411E+03  0.00000000000E+00 0. -1.
         25    2    1    2    0    0 -0.32235952891E+03 -0.24576579234E+03  0.19445340029E+03  0.46665876955E+03  0.12506714896E+03 0.  0.
          5    1    3    3  502    0 -0.21887621149E+03 -0.23097929957E+03  0.12990981421E+03  0.34373283959E+03  0.41800000000E+01 0.  1.
         -5    1    3    3    0  502 -0.10348331742E+03 -0.14786492775E+02  0.64543586072E+02  0.12292592996E+03  0.41800000000E+01 0.  1.
        -11    1    1    2    0    0  0.22577746728E+03  0.15770103202E+03  0.11903199732E+03  0.30002282682E+03  0.00000000000E+00 0.  1.
         11    1    1    2    0    0  0.96582061632E+02  0.88064760322E+02 -0.30285948236E+01  0.13073893462E+03  0.00000000000E+00 0. -1.
</event>
<event>
 6    1  0.1538147E-010  0.1562127E+03  0.7561462E-02  0.1193040E+00
         -4   -1    0    0    0  501 -0.00000000000E+00  0.00000000000E+00  0.19155060811E+04  0.19155060811E+04  0.00000000000E+00 0. -1.
          4   -1    0    0  501    0  0.00000000000E+00 -0.00000000000E+00 -0.20722550977E+02  0.20722550977E+02  0.00000000000E+00 0.  1.
          5    1    1    2  502    0  0.36939465670E+02 -0.11075484696E+01  0.81471485132E+03  0.81556330971E+03  0.41800000000E+01 0.  1.
         -5    1    1    2    0  502  0.11886264773E+03 -0.61682228268E+01  0.48276544722E+03  0.49723870065E+03  0.41800000000E+01 0.  1.
        -11    1    1    2    0    0 -0.91815809792E+02  0.74244640118E+00  0.48833423442E+03  0.49689135499E+03  0.00000000000E+00 0. -1.
         11    1    1    2    0    0 -0.63986303602E+02  0.65333248953E+01  0.10896899717E+03  0.12653526673E+03  0.00000000000E+00 0.  1.
</event>
<event>
 7    1  0.1538147E-010  0.7992604E+02  0.7561462E-02  0.1329261E+00
          2   -1    0    0  501    0  0.00000000000E+00  0.00000000000E+00  0.26999959891E+03  0.26999959891E+03  0.00000000000E+00 0. -1.
         -2   -1    0    0    0  501 -0.00000000000E+00 -0.00000000000E+00 -0.59685935871E+02  0.59685935871E+02  0.00000000000E+00 0.  1.
         25    2    1    2    0    0 -0.32216126071E+02 -0.24355937788E+02  0.50689242377E+02  0.14084936347E+03  0.12505220275E+03 0.  0.
          5    1    3    3  502    0 -0.95947638333E+01  0.15085497865E+02  0.82940205244E+02  0.84948112308E+02  0.41800000000E+01 0.  1.
         -5    1    3    3    0  502 -0.22621362238E+02 -0.39441435652E+02 -0.32250962867E+02  0.55901251164E+02  0.41800000000E+01 0.  1.
        -11    1    1    2    0    0 -0.96439324108E+01 -0.27527130462E+02  0.79048322347E+02  0.84257851917E+02  0.00000000000E+00 0. -1.
         11    1    1    2    0    0  0.41860058482E+02  0.51883068250E+02  0.80576098314E+02  0.10457831939E+03  0.00000000000E+00 0.  1.
</event>
<event>
 7    1  0.1538147E-010  0.1173067E+03  0.7561462E-02  0.1247608E+00
         -2   -1    0    0    0  501 -0.00000000000E+00  0.00000000000E+00  0.50361288075E+02  0.50361288075E+02  0.00000000000E+00 0.  1.
          2   -1    0    0  501    0  0.00000000000E+00 -0.00000000000E+00 -0.49551424357E+03  0.49551424357E+03  0.00000000000E+00 0. -1.
         25    2    1    2    0    0  0.91573854882E+02 -0.19415350276E+02 -0.35737571745E+03  0.39002797033E+03  0.12506673218E+03 0.  0.
          5    1    3    3  502    0  0.84507724509E+02 -0.55088109037E+02 -0.15931764903E+03  0.18861559043E+03  0.41800000000E+01 0. -1.
         -5    1    3    3    0  502  0.70661303734E+01  0.35672758761E+02 -0.19805806841E+03  0.20141237991E+03  0.41800000000E+01 0. -1.
        -11    1    1    2    0    0 -0.58345362798E+02  0.24772266758E+02 -0.16837594394E+01  0.63408844857E+02  0.00000000000E+00 0.  1.
         11    1    1    2    0    0 -0.33228492085E+02 -0.53569164820E+01 -0.86093478609E+02  0.92438716453E+02  0.00000000000E+00 0. -1.
</event>
<event>
 7    1  0.1538147E-010  0.7485299E+02  0.7561462E-02  0.1344327E+00
         -2   -1    0    0    0  501 -0.00000000000E+00  0.00000000000E+00  0.19876760803E+02  0.19876760803E+02  0.00000000000E+00 0.  1.
          2   -1    0    0  501    0  0.00000000000E+00 -0.00000000000E+00 -0.60388403719E+03  0.60388403719E+03  0.00000000000E+00 0. -1.
         25    2    1    2    0    0  0.13123622934E+02 -0.21067087103E+01 -0.30556483201E+03  0.33042662734E+03  0.12504088048E+03 0.  0.
          5    1    3    3  502    0 -0.11898584977E+02  0.20664360627E+02 -0.12846792534E+01  0.24242832453E+02  0.41800000000E+01 0.  1.
         -5    1    3    3    0  502  0.25022207911E+02 -0.22771069337E+02 -0.30428015276E+03  0.30618379489E+03  0.41800000000E+01 0.  1.
        -11    1    1    2    0    0 -0.43476019912E+02  0.27830585329E+02 -0.13700619408E+03  0.14640834336E+03  0.00000000000E+00 0.  1.
         11    1    1    2    0    0  0.30352396979E+02 -0.25723876619E+02 -0.14143625030E+03  0.14692582730E+03  0.00000000000E+00 0. -1.
</event>
<event>
 6    1  0.1538147E-010  0.1509126E+03  0.7561462E-02  0.1199356E+00
          2   -1    0    0  501    0  0.00000000000E+00  0.00000000000E+00  0.31411820710E+02  0.31411820710E+02  0.00000000000E+00 0. -1.
         -2   -1    0    0    0  501 -0.00000000000E+00 -0.00000000000E+00 -0.81313398596E+03  0.81313398596E+03  0.00000000000E+00 0.  1.
          5    1    1    2  502    0  0.26441311146E+02  0.23085504133E+02 -0.12959517565E+03  0.13432968916E+03  0.41800000000E+01 0. -1.
         -5    1    1    2    0  502 -0.13007496234E+03  0.18367129090E+02 -0.36849105830E+03  0.39122880736E+03  0.41800000000E+01 0. -1.
        -11    1    1    2    0    0  0.89376401511E+02 -0.62899505721E+02 -0.26653873111E+03  0.28807530986E+03  0.00000000000E+00 0.  1.
         11    1    1    2    0    0  0.14257249679E+02  0.21446872498E+02 -0.17097200182E+02  0.30912000298E+02  0.00000000000E+00 0. -1.
</event>
<event>
 7    1  0.1538147E-010  0.1373048E+03  0.7561462E-02  0.1217002E+00
         -2   -1    0    0    0  501 -0.00000000000E+00  0.00000000000E+00  0.29788460954E+02  0.29788460954E+02  0.00000000000E+00 0.  1.
          2   -1    0    0  501    0  0.00000000000E+00 -0.00000000000E+00 -0.65199475563E+03  0.65199475563E+03  0.00000000000E+00 0. -1.
         25    2    1    2    0    0  0.78412567340E+02 -0.27257492849E+02 -0.39729509192E+03  0.42472767407E+03  0.12513474904E+03 0.  0.
          5    1    3    3  502    0  0.51690851194E+02  0.47703242155E+02 -0.18928654926E+03  0.20197626975E+03  0.41800000000E+01 0.  1.
         -5    1    3    3    0  502  0.26721716146E+02 -0.74960735005E+02 -0.20800854266E+03  0.22275140432E+03  0.41800000000E+01 0.  1.
        -11    1    1    2    0    0 -0.47979772841E+02 -0.32116627658E+02 -0.10249003775E+03  0.11763394158E+03  0.00000000000E+00 0. -1.
         11    1    1    2    0    0 -0.30432794499E+02  0.59374120507E+02 -0.12242116500E+03  0.13942160094E+03  0.00000000000E+00 0.  1.
</event>
<event>
 7    1  0.1538147E-010  0.1498705E+03  0.7561462E-02  0.1200632E+00
         -2   -1    0    0    0  501 -0.00000000000E+00  0.00000000000E+00  0.22673515220E+02  0.22673515220E+02  0.00000000000E+00 0.  1.
          2   -1    0    0  501    0  0.00000000000E+00 -0.00000000000E+00 -0.12167481915E+04  0.12167481915E+04  0.00000000000E+00 0. -1.
         25    2    1    2    0    0  0.49525972817E+02  0.92318161652E+02 -0.89726396449E+03  0.91197523265E+03  0.12506293630E+03 0.  0.
          5    1    3    3  502    0 -0.39727703192E+02  0.45702600977E+02 -0.40251337823E+03  0.40706450372E+03  0.41800000000E+01 0.  1.
         -5    1    3    3    0  502  0.89253676009E+02  0.46615560675E+02 -0.49475058627E+03  0.50491072893E+03  0.41800000000E+01 0.  1.
        -11    1    1    2    0    0 -0.75045327728E+02 -0.54960337382E+02 -0.19640372322E+03  0.21731742313E+03  0.00000000000E+00 0. -1.
         11    1    1    2    0    0  0.25519354911E+02 -0.37357824269E+02 -0.10040698857E+03  0.11012905095E+03  0.00000000000E+00 0.  1.
</event>
<event>
 7    1  0.1538147E-010  0.1269129E+03  0.7561462E-02  0.1232110E+00
          3   -1    0    0  501    0  0.00000000000E+00  0.00000000000E+00  0.78430174793E+02  0.78430174793E+02  0.00000000000E+00 0. -1.
         -3   -1    0    0    0  501 -0.00000000000E+00 -0.00000000000E+00 -0.31985587322E+03  0.31985587322E+03  0.00000000000E+00 0.  1.
         25    2    1    2    0    0  0.61010571907E+02  0.85516703248E+02 -0.70759136071E+02  0.17803060852E+03  0.12511053439E+03 0.  0.
          5    1    3    3  502    0  0.24333884439E+02 -0.26266722870E+01  0.30147138042E+02  0.39055853227E+02  0.41800000000E+01 0. -1.
         -5    1    3    3    0  502  0.36676687468E+02  0.88143375535E+02 -0.10090627411E+03  0.13897475530E+03  0.41800000000E+01 0. -1.
        -11    1    1    2    0    0 -0.65891750088E+02 -0.21613815892E+02 -0.11984358369E+03  0.13846069594E+03  0.00000000000E+00 0.  1.
         11    1    1    2    0    0  0.48811781812E+01 -0.63902887356E+02 -0.50822978668E+02  0.81794743557E+02  0.00000000000E+00 0. -1.
</event>
<event>
 7    1  0.1538147E-010  0.9643953E+02  0.7561462E-02  0.1287966E+00
         -2   -1    0    0    0  501 -0.00000000000E+00  0.00000000000E+00  0.19051458124E+03  0.19051458124E+03  0.00000000000E+00 0.  1.
          2   -1    0    0  501    0  0.00000000000E+00 -0.00000000000E+00 -0.11476201870E+03  0.11476201870E+03  0.00000000000E+00 0. -1.
         25    2    1    2    0    0  0.13983496136E+02 -0.90932367189E+02  0.56964105020E+02  0.16537725619E+03  0.12506196080E+03 0.  0.
          5    1    3    3  502    0  0.90167367528E+01 -0.91771860842E+02  0.91650025557E+02  0.13007911273E+03  0.41800000000E+01 0.  1.
         -5    1    3    3    0  502  0.49667593835E+01  0.83949365354E+00 -0.34685920538E+02  0.35298143463E+02  0.41800000000E+01 0.  1.
        -11    1    1    2    0    0  0.48815325047E+01  0.14534742326E+02  0.52201851295E+02  0.54406997461E+02  0.00000000000E+00 0.  1.
         11    1    1    2    0    0 -0.18865028641E+02  0.76397624863E+02 -0.33413393770E+02  0.85492346286E+02  0.00000000000E+00 0. -1.
</event>
<event>
 7    1  0.1538147E-010  0.1211167E+03  0.7561462E-02  0.1241266E+00
         -3   -1    0    0    0  501 -0.00000000000E+00  0.00000000000E+00  0.16924636016E+03  0.16924636016E+03  0.00000000000E+00 0.  1.
          3   -1    0    0  501    0  0.00000000000E+00 -0.00000000000E+00 -0.10977506974E+03  0.10977506974E+03  0.00000000000E+00 0. -1.
         25    2    1    2    0    0 -0.11050251335E+02  0.71169387778E+02 -0.65104233362E+01  0.14445501881E+03  0.12505069786E+03 0.  0.
          5    1    3    3  502    0  0.43009496849E+02  0.59008529848E+01  0.29103265560E+02  0.52431949720E+02  0.41800000000E+01 0. -1.
         -5    1    3    3    0  502 -0.54059748184E+02  0.65268534793E+02 -0.35613688896E+02  0.92023069088E+02  0.41800000000E+01 0. -1.
        -11    1    1    2    0    0 -0.30169739322E+02  0.15161728476E+01  0.32985343810E+02  0.44727450823E+02  0.00000000000E+00 0. -1.
         11    1    1    2    0    0  0.41219990657E+02 -0.72685560625E+02  0.32996369938E+02  0.89838960269E+02  0.00000000000E+00 0.  1.
</event>
<event>
 7    1  0.1538147E-010  0.1245134E+03  0.7561462E-02  0.1235832E+00
          1   -1    0    0  501    0  0.00000000000E+00  0.00000000000E+00  0.84862500678E+02  0.84862500678E+02  0.00000000000E+00 0. -1.
         -1   -1    0    0    0  501 -0.00000000000E+00 -0.00000000000E+00 -0.23390275538E+03  0.23390275538E+03  0.00000000000E+00 0.  1.
         25    2    1    2    0    0  0.29995062659E+01 -0.89763932762E+02 -0.74646731798E+02  0.17110891763E+03  0.12505825227E+03 0.  0.
          5    1    3    3  502    0 -0.39331682097E+02 -0.89476918302E+02 -0.16730630748E+02  0.99249617282E+02  0.41800000000E+01 0.  1.
         -5    1    3    3    0  502  0.42331188363E+02 -0.28701446004E+00 -0.57916101050E+02  0.71859300347E+02  0.41800000000E+01 0.  1.
        -11    1    1    2    0    0  0.17767959511E+02  0.13275982224E+01 -0.50751474638E+02  0.53788242955E+02  0.00000000000E+00 0.  1.
         11    1    1    2    0    0 -0.20767465777E+02  0.88436334540E+02 -0.23642048264E+02  0.93868095473E+02  0.00000000000E+00 0. -1.
</event>
<event>
 7    1  0.1538147E-010  0.1170433E+03  0.7561462E-02  0.1248056E+00
         -2   -1    0    0    0  501 -0.00000000000E+00  0.00000000000E+00  0.19076189598E+02  0.19076189598E+02  0.00000000000E+00 0.  1.
          2   -1    0    0  501    0  0.00000000000E+00 -0.00000000000E+00 -0.12025011797E+04  0.12025011797E+04  0.00000000000E+00 0. -1.
         25    2    1    2    0    0  0.55545762942E+02 -0.14172466132E+02 -0.10098945762E+04  0.10192309416E+04  0.12513379503E+03 0.  0.
          5    1    3    3  502    0  0.30547250592E+02  0.51918213655E+02 -0.62258201054E+03  0.62550337143E+03  0.41800000000E+01 0. -1.
         -5    1    3    3    0  502  0.24998512350E+02 -0.66090679786E+02 -0.38731256568E+03  0.39372757017E+03  0.41800000000E+01 0. -1.
        -11    1    1    2    0    0 -0.40473876563E+02  0.49836632006E+02 -0.12234111403E+03  0.13816357246E+03  0.00000000000E+00 0.  1.
         11    1    1    2    0    0 -0.15071886378E+02 -0.35664165875E+02 -0.51189299839E+02  0.64182855222E+02  0.00000000000E+00 0. -1.
</event>
<event>
 7    1  0.1538147E-010  0.1033964E+03  0.7561462E-02  0.1273312E+00
         -1   -1    0    0    0  501 -0.00000000000E+00  0.00000000000E+00  0.20484452985E+03  0.20484452985E+03  0.00000000000E+00 0.  1.
          1   -1    0    0  501    0  0.00000000000E+00 -0.00000000000E+00 -0.71697044731E+02  0.71697044731E+02  0.00000000000E+00 0. -1.
         25    2    1    2    0    0 -0.32932275233E+02  0.38112086336E+02  0.38674399525E+02  0.14025650105E+03  0.12505643138E+03 0.  0.
          5    1    3    3  502    0  0.32427981323E+02  0.29851922358E+02  0.56594419862E+02  0.71854798036E+02  0.41800000000E+01 0. -1.
         -5    1    3    3    0  502 -0.65360256556E+02  0.82601639783E+01 -0.17920020337E+02  0.68401703011E+02  0.41800000000E+01 0. -1.
        -11    1    1    2    0    0  0.33899591103E+02 -0.63030879842E+02  0.80443798673E+02  0.10767208940E+03  0.00000000000E+00 0.  1.
         11    1    1    2    0    0 -0.96731587063E+00  0.24918793505E+02  0.14029286925E+02  0.28612984140E+02  0.00000000000E+00 0. -1.
</event>
<event>
 6    1  0.1538147E-010  0.1756571E+03  0.7561462E-02  0.1172074E+00
         -1   -1    0    0    0  501 -0.00000000000E+00  0.00000000000E+00  0.17756054540E+03  0.17756054540E+03  0.00000000000E+00 0.  1.
          1   -1    0    0  501    0  0.00000000000E+00 -0.00000000000E+00 -0.20021060300E+03  0.20021060300E+03  0.00000000000E+00 0. -1.
          5    1    1    2  502    0  0.10578058720E+02 -0.16278626216E+02  0.14447085807E+02  0.24557680797E+02  0.41800000000E+01 0. -1.
         -5    1    1    2    0  502 -0.10567219583E+03  0.13596956726E+03 -0.10806253894E+02  0.17259369547E+03  0.41800000000E+01 0. -1.
        -11    1    1    2    0    0  0.28154778000E+02 -0.71137841837E+02  0.28253843554E+02  0.81557119499E+02  0.00000000000E+00 0.  1.
         11    1    1    2    0    0  0.66939359106E+02 -0.48553099212E+02 -0.54544733071E+02  0.99062652632E+02  0.00000000000E+00 0. -1.
</event>
<event>
 7    1  0.1538147E-010  0.2336854E+03  0.7561462E-02  0.1124072E+00
          2   -1    0    0  501    0  0.00000000000E+00  0.00000000000E+00  0.89000314006E+03  0.89000314006E+03  0.00000000000E+00 0. -1.
         -2   -1    0    0    0  501 -0.00000000000E+00 -0.00000000000E+00 -0.95311641546E+02  0.95311641546E+02  0.00000000000E+00 0.  1.
         25    2    1    2    0    0  0.40067335925E+02 -0.21120421883E+03  0.68242056874E+03  0.72632553318E+03  0.12505332481E+03 0.  0.
          5    1    3    3  502    0  0.49417075712E+02 -0.22549006888E+03  0.62534656835E+03  0.66660604669E+03  0.41800000000E+01 0. -1.
         -5    1    3    3    0  502 -0.93497397864E+01  0.14285850052E+02  0.57074000391E+02  0.59719486488E+02  0.41800000000E+01 0. -1.
        -11    1    1    2    0    0 -0.80521720352E+01  0.14651116526E+03  0.30410622754E+02  0.14985047547E+03  0.00000000000E+00 0. -1.
         11    1    1    2    0    0 -0.32015163890E+02  0.64693053564E+02  0.81860307024E+02  0.10913877297E+03  0.00000000000E+00 0.  1.
</event>
<event>
 7    1  0.1538147E-010  0.7858227E+02  0.7561462E-02  0.1333124E+00
          2   -1    0    0  501    0  0.00000000000E+00  0.00000000000E+00  0.18283570053E+03  0.18283570053E+03  0.00000000000E+00 0.  1.
         -2   -1    0    0    0  501 -0.00000000000E+00 -0.00000000000E+00 -0.74538725768E+02  0.74538725768E+02  0.00000000000E+00 0. -1.
         25    2    1    2    0    0 -0.80436399153E+01 -0.26334803320E+02  0.97664348849E+02  0.16108804411E+03  0.12511119418E+03 0.  0.
          5    1    3    3  502    0  0.33231460245E+02  0.15796082822E+02 -0.99103491566E+01  0.38334496252E+02  0.41800000000E+01 0.  1.
         -5    1    3    3    0  502 -0.41275100160E+02 -0.42130886142E+02  0.10757469801E+03  0.12275354786E+03  0.41800000000E+01 0.  1.
        -11    1    1    2    0    0 -0.10892800716E+02 -0.13232977408E+02 -0.31247006915E+02  0.35639026918E+02  0.00000000000E+00 0. -1.
         11    1    1    2    0    0  0.18936440631E+02  0.39567780728E+02  0.41879632825E+02  0.60647355269E+02  0.00000000000E+00 0.  1.
</event>
<event>
 7    1  0.1538147E-010  0.7306526E+02  0.7561462E-02  0.1349969E+00
         -1   -1    0    0    0  501 -0.00000000000E+00  0.00000000000E+00  0.56755077176E+02  0.56755077176E+02  0.00000000000E+00 0.  1.
          1   -1    0    0  501    0  0.00000000000E+00 -0.00000000000E+00 -0.27689180238E+03  0.27689180238E+03  0.00000000000E+00 0. -1.
         25    2    1    2    0    0 -0.21814839512E+02 -0.30432822613E+02 -0.19632045891E+03  0.23580477008E+03  0.12514041350E+03 0.  0.
          5    1    3    3  502    0  0.19152042880E+02 -0.95380885557E+01 -0.18753657483E+03  0.18879940460E+03  0.41800000000E+01 0. -1.
         -5    1    3    3    0  502 -0.40966882392E+02 -0.20894734057E+02 -0.87838840829E+01  0.47005365479E+02  0.41800000000E+01 0. -1.
        -11    1    1    2    0    0 -0.24720065841E+02  0.15939104668E+02  0.17258592943E+02  0.34102723398E+02  0.00000000000E+00 0.  1.
         11    1    1    2    0    0  0.46534905353E+02  0.14493717945E+02 -0.41074859235E+02  0.63739386076E+02  0.00000000000E+00 0. -1.
</event>
<event>
 6    1  0.1538147E-010  0.1523774E+03  0.7561462E-02  0.1197582E+00
          2   -1    0    0  501    0  0.00000000000E+00  0.00000000000E+00  0.12037784783E+04  0.12037784783E+04  0.00000000000E+00 0.  1.
         -2   -1    0    0    0  501 -0.00000000000E+00 -0.00000000000E+00 -0.23274283934E+02  0.23274283934E+02  0.00000000000E+00 0. -1.
          5    1    1    2  502    0 -0.89085190089E+02  0.10756346552E+03  0.69915352843E+03  0.71297910132E+03  0.41800000000E+01 0.  1.
         -5    1    1    2    0  502 -0.80923483531E+00 -0.21897332174E+02  0.31442594444E+02  0.38552005950E+02  0.41800000000E+01 0.  1.
        -11    1    1    2    0    0  0.81497356089E+02 -0.30654648203E+02  0.35481328080E+03  0.36534092399E+03  0.00000000000E+00 0.  1.
         11    1    1    2    0    0  0.83970688350E+01 -0.55011485144E+02  0.95094790724E+02  0.11018073101E+03  0.00000000000E+00 0. -1.
</event>
<event>
 7    1  0.1538147E-010  0.1083815E+03  0.7561462E-02  0.1263597E+00
          1   -1    0    0  501    0  0.00000000000E+00  0.00000000000E+00  0.37439194832E+03  0.37439194832E+03  0.00000000000E+00 0. -1.
         -1   -1    0    0    0  501 -0.00000000000E+00 -0.00000000000E+00 -0.54300971614E+02  0.54300971614E+02  0.00000000000E+00 0.  1.
         25    2    1    2    0    0 -0.53276639274E+02  0.73942963194E+02  0.13044723020E+03  0.20242425466E+03  0.12511249702E+03 0.  0.
          5    1    3    3  502    0 -0.11935862814E+01  0.28279869343E+02 -0.21229487547E+02  0.35627786906E+02  0.41800000000E+01 0. -1.
         -5    1    3    3    0  502 -0.52083052993E+02  0.45663093850E+02  0.15167671775E+03  0.16679646775E+03  0.41800000000E+01 0. -1.
        -11    1    1    2    0    0 -0.18605144118E+02 -0.52487990051E+01  0.12176336995E+02  0.22846541560E+02  0.00000000000E+00 0.  1.
         11    1    1    2    0    0  0.71881783392E+02 -0.68694164189E+02  0.17746740952E+03  0.20342212372E+03  0.00000000000E+00 0. -1.
</event>
<event>
 6    1  0.1538147E-010  0.9688611E+02  0.7561462E-02  0.1286984E+00
         -1   -1    0    0    0  501 -0.00000000000E+00  0.00000000000E+00  0.56892374335E+02  0.56892374335E+02  0.00000000000E+00 0.  1.
          1   -1    0    0  501    0  0.00000000000E+00 -0.00000000000E+00 -0.27903841453E+03  0.27903841453E+03  0.00000000000E+00 0. -1.
          5    1    1    2  502    0  0.26394851409E+02 -0.61539922566E+01  0.14357778774E+02  0.30954450616E+02  0.41800000000E+01 0.  1.
         -5    1    1    2    0  502 -0.62859633072E+02  0.55015269317E+02 -0.10896643563E+03  0.13736509681E+03  0.41800000000E+01 0.  1.
        -11    1    1    2    0    0  0.32029302418E+02  0.15855738933E+01 -0.18690917015E+01  0.32122947588E+02  0.00000000000E+00 0.  1.
         11    1    1    2    0    0  0.44354792440E+01 -0.50446850954E+02 -0.12566829164E+03  0.13548829385E+03  0.00000000000E+00 0. -1.
</event>
<event>
 6    1  0.1538147E-010  0.1092164E+03  0.7561462E-02  0.1262028E+00
         -1   -1    0    0    0  501 -0.00000000000E+00  0.00000000000E+00  0.80891916341E+02  0.80891916341E+02  0.00000000000E+00 0.  1.
          1   -1    0    0  501    0  0.00000000000E+00 -0.00000000000E+00 -0.23772427950E+03  0.23772427950E+03  0.00000000000E+00 0. -1.
          5    1    1    2  502    0 -0.58855714113E+00 -0.37959038818E+02 -0.76002120307E+02  0.85058977884E+02  0.41800000000E+01 0.  1.
         -5    1    1    2    0  502  0.75808282398E+02  0.59781630399E+02 -0.48329914922E+02  0.10804624977E+03  0.41800000000E+01 0.  1.
        -11    1    1    2    0    0 -0.95840786730E+01  0.70520846180E+01  0.28807895902E+02  0.31168595216E+02  0.00000000000E+00 0.  1.
         11    1    1    2    0    0 -0.65635646584E+02 -0.28874676200E+02 -0.61308223831E+02  0.94342372969E+02  0.00000000000E+00 0. -1.
</event>
<event>
 6    1  0.1538147E-010  0.6587085E+02  0.7561462E-02  0.1374725E+00
          2   -1    0    0  501    0  0.00000000000E+00  0.00000000000E+00  0.22694149911E+03  0.22694149911E+03  0.00000000000E+00 0.  1.
         -2   -1    0    0    0  501 -0.00000000000E+00 -0.00000000000E+00 -0.62682317760E+02  0.62682317760E+02  0.00000000000E+00 0. -1.
          5    1    1    2  502    0  0.30188700699E+02  0.19432902541E+02 -0.31634353996E+02  0.48033322848E+02  0.41800000000E+01 0. -1.
         -5    1    1    2    0  502  0.11231535561E+02 -0.74918893883E+01  0.99657490420E+02  0.10065467498E+03  0.41800000000E+01 0. -1.
        -11    1    1    2    0    0 -0.54098067091E+01 -0.37127128461E+02  0.27298769852E+01  0.37618371904E+02  0.00000000000E+00 0. -1.
         11    1    1    2    0    0 -0.36010429551E+02  0.25186115308E+02  0.93506167945E+02  0.10331744714E+03  0.00000000000E+00 0.  1.
</event>
<event>
 7    1  0.1538147E-010  0.1377363E+03  0.7561462E-02  0.1216408E+00
         -1   -1    0    0    0  501 -0.00000000000E+00  0.00000000000E+00  0.84651182638E+02  0.84651182638E+02  0.00000000000E+00 0.  1.
          1   -1    0    0  501    0  0.00000000000E+00 -0.00000000000E+00 -0.24776933528E+03  0.24776933528E+03  0.00000000000E+00 0. -1.
         25    2    1    2    0    0 -0.94637129732E+02  0.20276319472E+02 -0.99481038157E+02  0.18682179828E+03  0.12505435581E+03 0.  0.
          5    1    3    3  502    0 -0.11925318675E+03  0.11387539765E+02 -0.48393715802E+02  0.12926880033E+03  0.41800000000E+01 0.  1.
         -5    1    3    3    0  502  0.24616057014E+02  0.88887797061E+01 -0.51087322355E+02  0.57552997949E+02  0.41800000000E+01 0.  1.
        -11    1    1    2    0    0  0.10289115281E+03  0.44959982232E+01 -0.40349416094E+02  0.11061138596E+03  0.00000000000E+00 0.  1.
         11    1    1    2    0    0 -0.82540230750E+01 -0.24772317695E+02 -0.23287698387E+02  0.34987333666E+02  0.00000000000E+00 0. -1.
</event>
<event>
 7    1  0.1538147E-010  0.7816314E+02  0.7561462E-02  0.1334346E+00
          4   -1    0    0  501    0  0.00000000000E+00  0.00000000000E+00  0.22368475612E+03  0.22368475612E+03  0.00000000000E+00 0. -1.
         -4   -1    0    0    0  501 -0.00000000000E+00 -0.00000000000E+00 -0.60665674777E+02  0.60665674777E+02  0.00000000000E+00 0.  1.
         25    2    1    2    0    0 -0.35871198062E+02 -0.26014067160E+02  0.10629899818E+03  0.17006019560E+03  0.12513000668E+03 0.  0.
          5    1    3    3  502    0  0.81934036170E+01 -0.42966681713E+02 -0.94832765261E+01  0.44951891327E+02  0.41800000000E+01 0.  1.
         -5    1    3    3    0  502 -0.44064601679E+02  0.16952614552E+02  0.11578227471E+03  0.12510830427E+03  0.41800000000E+01 0.  1.
        -11    1    1    2    0    0  0.40888854131E+02  0.25222490511E+01 -0.11015115104E+02  0.42421608800E+02  0.00000000000E+00 0.  1.
         11    1    1    2    0    0 -0.50176560695E+01  0.23491818109E+02  0.67735198262E+02  0.71868626494E+02  0.00000000000E+00 0. -1.
</event>
<event>
 6    1  0.1538147E-010  0.6738622E+02  0.7561462E-02  0.1369214E+00
          2   -1    0    0  501    0  0.00000000000E+00  0.00000000000E+00  0.16559787804E+03  0.16559787804E+03  0.00000000000E+00 0. -1.
         -2   -1    0    0    0  501 -0.00000000000E+00 -0.00000000000E+00 -0.97168655600E+02  0.97168655600E+02  0.00000000000E+00 0.  1.
          5    1    1    2  502    0 -0.16783636459E+02  0.26829957187E+02  0.11263519666E+03  0.11707133288E+03  0.41800000000E+01 0.  1.
         -5    1    1    2    0  502  0.34693422589E+02  0.10923253093E+02 -0.22279100877E+02  0.42857692016E+02  0.41800000000E+01 0.  1.
        -11    1    1    2    0    0 -0.32177592808E+02 -0.40481735536E+02  0.22278021823E+02  0.56307003536E+02  0.00000000000E+00 0. -1.
         11    1    1    2    0    0  0.14267806679E+02  0.27285252561E+01 -0.44204895171E+02  0.46530505204E+02  0.00000000000E+00 0.  1.
</event>
<event>
 6    1  0.1538147E-010  0.1108672E+03  0.7561462E-02  0.1258972E+00
          4   -1    0    0  501    0  0.00000000000E+00  0.00000000000E+00  0.76580466414E+03  0.76580466414E+03  0.00000000000E+00 0. -1.
         -4   -1    0    0    0  501 -0.00000000000E+00 -0.00000000000E+00 -0.18276491237E+02  0.18276491237E+02  0.00000000000E+00 0.  1.
          5    1    1    2  502    0 -0.46883766008E+02 -0.14374314279E+02  0.18646254327E+03  0.19284828459E+03  0.41800000000E+01 0.  1.
         -5    1    1    2    0  502  0.70254854390E+02  0.34595520289E+02  0.22277280093E+03  0.23617321572E+03  0.41800000000E+01 0.  1.
        -11    1    1    2    0    0  0.28322829920E+02 -0.30248811064E+02  0.67580619235E+02  0.79273661210E+02  0.00000000000E+00 0.  1.
         11    1    1    2    0    0 -0.51693918302E+02  0.10027605054E+02  0.27071220946E+03  0.27578599385E+03  0.00000000000E+00 0. -1.
</event>
<event>
 6    1  0.1538147E-010  0.9830314E+02  0.7561462E-02  0.1283905E+00
          1   -1    0    0  501    0  0.00000000000E+00  0.00000000000E+00  0.45354132401E+03  0.45354132401E+03  0.00000000000E+00 0. -1.
         -1   -1    0    0    0  501 -0.00000000000E+00 -0.00000000000E+00 -0.29029929914E+02  0.29029929914E+02  0.00000000000E+00 0.  1.
          5    1    1    2  502    0  0.69367800835E+02 -0.10262097365E+02  0.13161203068E+03  0.14918579509E+03  0.41800000000E+01 0. -1.
         -5    1    1    2    0  502 -0.53409216849E+02 -0.10722267048E+02  0.16575621676E+03  0.17452824198E+03  0.41800000000E+01 0. -1.
        -11    1    1    2    0    0  0.65070461955E+01  0.41073888260E+02  0.17449386316E+02  0.45098636673E+02  0.00000000000E+00 0.  1.
         11    1    1    2    0    0 -0.22465630181E+02 -0.20089523847E+02  0.10969376034E+03  0.11375858019E+03  0.00000000000E+00 0. -1.
</event>
<event>
 7    1  0.1538147E-010  0.9616975E+02  0.7561462E-02  0.1288563E+00
         -1   -1    0    0    0  501 -0.00000000000E+00  0.00000000000E+00  0.44499505713E+03  0.44499505713E+03  0.00000000000E+00 0.  1.
          1   -1    0    0  501    0  0.00000000000E+00 -0.00000000000E+00 -0.27047079998E+02  0.27047079998E+02  0.00000000000E+00 0. -1.
         25    2    1    2    0    0 -0.17576708841E+02  0.25992603276E+01  0.32499021567E+03  0.34869632375E+03  0.12511909953E+03 0.  0.
          5    1    3    3  502    0 -0.18074467858E+02 -0.53854277200E+02  0.86429956959E+02  0.10351125263E+03  0.41800000000E+01 0.  1.
         -5    1    3    3    0  502  0.49775901707E+00  0.56453537527E+02  0.23856025872E+03  0.24518507112E+03  0.41800000000E+01 0.  1.
        -11    1    1    2    0    0  0.67846388493E+01 -0.39625564951E+02  0.32790968104E+02  0.51879324506E+02  0.00000000000E+00 0. -1.
         11    1    1    2    0    0  0.10792069992E+02  0.37026304623E+02  0.60166793354E+02  0.71466488869E+02  0.00000000000E+00 0.  1.
</event>
<event>
 6    1  0.1538147E-010  0.1111336E+03  0.7561462E-02  0.1258485E+00
          2   -1    0    0  501    0  0.00000000000E+00  0.00000000000E+00  0.63327651212E+02  0.63327651212E+02  0.00000000000E+00 0. -1.
         -2   -1    0    0    0  501 -0.00000000000E+00 -0.00000000000E+00 -0.25608066803E+03  0.25608066803E+03  0.00000000000E+00 0.  1.
          5    1    1    2  502    0 -0.11474689374E+02  0.47715449249E+02 -0.54077405264E+00  0.49256445566E+02  0.41800000000E+01 0.  1.
         -5    1    1    2    0  502  0.72464806028E+02 -0.35808556340E+02 -0.70504454852E+02  0.10733942134E+03  0.41800000000E+01 0.  1.
        -11    1    1    2    0    0 -0.58611951600E+02 -0.35393537692E+02 -0.43499090974E+02  0.81118643334E+02  0.00000000000E+00 0. -1.
         11    1    1    2    0    0 -0.23781650542E+01  0.23486644783E+02 -0.78208696941E+02  0.81693809003E+02  0.00000000000E+00 0.  1.
</event>
<event>
 7    1  0.1538147E-010  0.9790051E+02  0.7561462E-02  0.1284774E+00
          2   -1    0    0  501    0  0.00000000000E+00  0.00000000000E+00  0.45152120225E+03  0.45152120225E+03  0.00000000000E+00 0. -1.
         -2   -1    0    0    0  501 -0.00000000000E+00 -0.00000000000E+00 -0.31325288621E+02  0.31325288621E+02  0.00000000000E+00 0.  1.
         25    2    1    2    0    0 -0.44328331280E+02  0.54201915340E+01  0.29650945374E+03  0.32489029966E+03  0.12506586755E+03 0.  0.
          5    1    3    3  502    0 -0.25255417283E+02 -0.48033883822E+02  0.23446343787E+03  0.24069828872E+03  0.41800000000E+01 0. -1.
         -5    1    3    3    0  502 -0.19072913997E+02  0.53454075356E+02  0.62046015873E+02  0.84192010940E+02  0.41800000000E+01 0. -1.
        -11    1    1    2    0    0 -0.19014670308E+02  0.63275355440E+01  0.73810373578E+02  0.76482459693E+02  0.00000000000E+00 0. -1.
         11    1    1    2    0    0  0.63343001588E+02 -0.11747727078E+02  0.49876086315E+02  0.81473731520E+02  0.00000000000E+00 0.  1.
</event>
<event>
 7    1  0.1538147E-010  0.1028641E+03  0.7561462E-02  0.1274386E+00
          2   -1    0    0  501    0  0.00000000000E+00  0.00000000000E+00  0.63782255395E+02  0.63782255395E+02  0.00000000000E+00 0. -1.
         -2   -1    0    0    0  501 -0.00000000000E+00 -0.00000000000E+00 -0.22004332891E+03  0.22004332891E+03  0.00000000000E+00 0.  1.
         25    2    1    2    0    0  0.15928131392E+02 -0.44097383144E+02 -0.10571180478E+03  0.17031797158E+03  0.12503975850E+03 0.  0.
          5    1    3    3  502    0  0.65834811537E+02 -0.26031852670E+02 -0.28279488287E+02  0.76348422520E+02  0.41800000000E+01 0.  1.
         -5    1    3    3    0  502 -0.49906680145E+02 -0.18065530474E+02 -0.77432316488E+02  0.93969549063E+02  0.41800000000E+01 0.  1.
        -11    1    1    2    0    0  0.26291255020E+02  0.14669716932E+02 -0.54109402914E+02  0.61921387009E+02  0.00000000000E+00 0.  1.
         11    1    1    2    0    0 -0.42219386412E+02  0.29427666212E+02  0.35601341756E+01  0.51586225710E+02  0.00000000000E+00 0. -1.
</event>
<event>
 7    1  0.1538147E-010  0.6822906E+02  0.7561462E-02  0.1366221E+00
          2   -1    0    0  501    0  0.00000000000E+00  0.00000000000E+00  0.16869359360E+03  0.16869359360E+03  0.00000000000E+00 0. -1.
         -2   -1    0    0    0  501 -0.00000000000E+00 -0.00000000000E+00 -0.11546463093E+03  0.11546463093E+03  0.00000000000E+00 0.  1.
         25    2    1    2    0    0 -0.82943849698E+01  0.55921188901E+02 -0.41279447979E+02  0.14330616471E+03  0.12504674257E+03 0.  0.
          5    1    3    3  502    0  0.98035179183E+01  0.42976857075E+02 -0.84000913957E+02  0.94956543499E+02  0.41800000000E+01 0.  1.
         -5    1    3    3    0  502 -0.18097902888E+02  0.12944331826E+02  0.42721465979E+02  0.48349621206E+02  0.41800000000E+01 0.  1.
        -11    1    1    2    0    0 -0.15166403804E+02 -0.34843637309E+02  0.10164491239E+03  0.10851629869E+03  0.00000000000E+00 0. -1.
         11    1    1    2    0    0  0.23460788774E+02 -0.21077551592E+02 -0.71365017446E+01  0.32335761135E+02  0.00000000000E+00 0.  1.
</event>
<event>
 7    1  0.1538147E-010  0.2228673E+03  0.7561462E-02  0.1131763E+00
         -2   -1    0    0    0  501 -0.00000000000E+00  0.00000000000E+00  0.15040580808E+03  0.15040580808E+03  0.00000000000E+00 0.  1.
          2   -1    0    0  501    0  0.00000000000E+00 -0.00000000000E+00 -0.33565491255E+03  0.33565491255E+03  0.00000000000E+00 0. -1.
         25    2    1    2    0    0 -0.13882951629E+03  0.13825059369E+03 -0.10755606400E+03  0.25611555501E+03  0.12506002306E+03 0.  0.
          5    1    3    3  502    0 -0.92308370745E+02  0.15674714790E+03 -0.79395157813E+02  0.19852346755E+03  0.41800000000E+01 0.  1.
         -5    1    3    3    0  502 -0.46521145546E+02 -0.18496554213E+02 -0.28160906186E+02  0.57592087459E+02  0.41800000000E+01 0.  1.
        -11    1    1    2    0    0  0.68609935955E+02 -0.12425733529E+03 -0.33621755938E+02  0.14586854067E+03  0.00000000000E+00 0.  1.
         11    1    1    2    0    0  0.70219580336E+02 -0.13993258403E+02 -0.44071284526E+02  0.84076624951E+02  0.00000000000E+00 0. -1.
</event>
<event>
 7    1  0.1538147E-010  0.1634271E+03  0.7561462E-02  0.1184881E+00
         -2   -1    0    0    0  501 -0.00000000000E+00  0.00000000000E+00  0.23347003198E+03  0.23347003198E+03  0.00000000000E+00 0.  1.
          2   -1    0    0  501    0  0.00000000000E+00 -0.00000000000E+00 -0.19052421144E+03  0.19052421144E+03  0.00000000000E+00 0. -1.
         25    2    1    2    0    0 -0.14687418747E+03 -0.26459465972E+02  0.12375726669E+03  0.23074866467E+03  0.12512775434E+03 0.  0.
          5    1    3    3  502    0 -0.11524481540E+03 -0.31153806164E+02  0.14815330653E+03  0.19031237939E+03  0.41800000000E+01 0. -1.
         -5    1    3    3    0  502 -0.31629372063E+02  0.46943401920E+01 -0.24396039841E+02  0.40436285275E+02  0.41800000000E+01 0. -1.
        -11    1    1    2    0    0  0.55951295774E+02  0.56381525308E+02 -0.30291780473E+02  0.85011857167E+02  0.00000000000E+00 0. -1.
         11    1    1    2    0    0  0.90922891691E+02 -0.29922059336E+02 -0.50519665669E+02  0.10823372158E+03  0.00000000000E+00 0.  1.
</event>
<event>
 7    1  0.1538147E-010  0.1241584E+03  0.7561462E-02  0.1236390E+00
         -2   -1    0    0    0  501 -0.00000000000E+00  0.00000000000E+00  0.51596611214E+03  0.51596611214E+03  0.00000000000E+00 0.  1.
          2   -1    0    0  501    0  0.00000000000E+00 -0.00000000000E+00 -0.53039831365E+02  0.53039831365E+02  0.00000000000E+00 0. -1.
         25    2    1    2    0    0  0.53678996339E+02  0.10600802688E+03  0.31526652976E+03  0.35940658233E+03  0.12514379820E+03 0.  0.
          5    1    3    3  502    0  0.56033850372E+02  0.10865988713E+03  0.14782862984E+03  0.19187897138E+03  0.41800000000E+01 0. -1.
         -5    1    3    3    0  502 -0.23548540330E+01 -0.26518602544E+01  0.16743789992E+03  0.16752761095E+03  0.41800000000E+01 0. -1.
        -11    1    1    2    0    0 -0.39392877122E+02 -0.93721568863E+02  0.56088697906E+02  0.11610974667E+03  0.00000000000E+00 0. -1.
         11    1    1    2    0    0 -0.14286119217E+02 -0.12286458015E+02  0.91571053109E+02  0.93489614505E+02  0.00000000000E+00 0.  1.
</event>
<event>
 7    1  0.1538147E-010  0.1131392E+03  0.7561462E-02  0.1254865E+00
          2   -1    0    0  501    0  0.00000000000E+00  0.00000000000E+00  0.21168499892E+04  0.21168499892E+04  0.00000000000E+00 0. -1.
         -2   -1    0    0    0  501 -0.00000000000E+00 -0.00000000000E+00 -0.80331719281E+01  0.80331719281E+01  0.00000000000E+00 0.  1.
         25    2    1    2    0    0 -0.14004699118E+02  0.57209481635E+02  0.14707985499E+04  0.14772866077E+04  0.12513309125E+03 0.  0.
          5    1    3    3  502    0  0.42621439360E+02  0.31119758495E+02  0.10989440350E+04  0.11002183833E+04  0.41800000000E+01 0. -1.
         -5    1    3    3    0  502 -0.56626138479E+02  0.26089723140E+02  0.37185451488E+03  0.37706822440E+03  0.41800000000E+01 0. -1.
        -11    1    1    2    0    0  0.48444335243E+02 -0.55440003442E+01  0.26603522141E+03  0.27046687151E+03  0.00000000000E+00 0. -1.
         11    1    1    2    0    0 -0.34439636124E+02 -0.51665481290E+02  0.37198304597E+03  0.37712968191E+03  0.00000000000E+00 0.  1.
</event>
<event>
 6    1  0.1538147E-010  0.1083685E+03  0.7561462E-02  0.1263621E+00
         -2   -1    0    0    0  501 -0.00000000000E+00  0.00000000000E+00  0.91805490353E+02  0.91805490353E+02  0.00000000000E+00 0.  1.
          2   -1    0    0  501    0  0.00000000000E+00 -0.00000000000E+00 -0.20275939763E+03  0.20275939763E+03  0.00000000000E+00 0. -1.
          5    1    1    2  502    0  0.43340398558E+02  0.90584265320E+02 -0.87582302497E+02  0.13331178261E+03  0.41800000000E+01 0. -1.
         -5    1    1    2    0  502  0.75800564660E+01 -0.41966022074E+02 -0.30216487723E+02  0.52431982559E+02  0.41800000000E+01 0. -1.
        -11    1    1    2    0    0 -0.31902048461E+02 -0.43017647091E+02  0.42268555882E+02  0.68226750425E+02  0.00000000000E+00 0.  1.
         11    1    1    2    0    0 -0.19018406563E+02 -0.56005961557E+01 -0.35423672936E+02  0.40594372391E+02  0.00000000000E+00 0. -1.
</event>
<event>
 7    1  0.1538147E-010  0.2506731E+03  0.7561462E-02  0.1112880E+00
         -1   -1    0    0    0  501 -0.00000000000E+00  0.00000000000E+00  0.32077386534E+02  0.32077386534E+02  0.00000000000E+00 0. -1.
          1   -1    0    0  501    0  0.00000000000E+00 -0.00000000000E+00 -0.43911773318E+04  0.43911773318E+04  0.00000000000E+00 0.  1.
         25    2    1    2    0    0  0.18111388537E+03  0.15391839384E+03 -0.37949125156E+04  0.38044048503E+04  0.12506859026E+03 0.  0.
          5    1    3    3  502    0 -0.10938594079E+02  0.33284626456E+02 -0.28605154464E+03  0.28821949585E+03  0.41800000000E+01 0. -1.
         -5    1    3    3    0  502  0.19205247945E+03  0.12063376739E+03 -0.35088609710E+04  0.35161853544E+04  0.41800000000E+01 0. -1.
        -11    1    1    2    0    0 -0.12590300718E+03 -0.89988716910E+02 -0.45629461530E+03  0.48182394331E+03  0.00000000000E+00 0.  1.
         11    1    1    2    0    0 -0.55210878192E+02 -0.63929676934E+02 -0.10789281435E+03  0.13702592475E+03  0.00000000000E+00 0. -1.
</event>
<event>
 7    1  0.1538147E-010  0.1805034E+03  0.7561462E-02  0.1167317E+00
         -1   -1    0    0    0  501 -0.00000000000E+00  0.00000000000E+00  0.76294107474E+02  0.76294107474E+02  0.00000000000E+00 0.  1.
          1   -1    0    0  501    0  0.00000000000E+00 -0.00000000000E+00 -0.52488666895E+03  0.52488666895E+03  0.00000000000E+00 0. -1.
         25    2    1    2    0    0 -0.85970071449E+01  0.15886978320E+03 -0.29013262461E+03  0.35373440741E+03  0.12505028819E+03 0.  0.
          5    1    3    3  502    0 -0.63080264675E+02  0.11722681729E+03 -0.17971058875E+03  0.22368418494E+03  0.41800000000E+01 0.  1.
         -5    1    3    3    0  502  0.54483257530E+02  0.41642965910E+02 -0.11042203586E+03  0.13005022247E+03  0.41800000000E+01 0.  1.
        -11    1    1    2    0    0  0.25757789514E+01 -0.31361723769E+02  0.12694943839E+02  0.33931607006E+02  0.00000000000E+00 0.  1.
         11    1    1    2    0    0  0.60212281935E+01 -0.12750805943E+03 -0.17115488071E+03  0.21351476201E+03  0.00000000000E+00 0. -1.
</event>
<event>
 6    1  0.1538147E-010  0.1139369E+03  0.7561462E-02  0.1253448E+00
         -3   -1    0    0    0  501 -0.00000000000E+00  0.00000000000E+00  0.24533179630E+03  0.24533179630E+03  0.00000000000E+00 0.  1.
          3   -1    0    0  501    0  0.00000000000E+00 -0.00000000000E+00 -0.70435124579E+02  0.70435124579E+02  0.00000000000E+00 0. -1.
          5    1    1    2  502    0  0.27103428293E+02  0.70348391214E+02  0.41227366082E+02  0.86027089255E+02  0.41800000000E+01 0.  1.
         -5    1    1    2    0  502  0.13821489167E+02 -0.47000454545E+02 -0.12226975340E+02  0.50666040068E+02  0.41800000000E+01 0.  1.
        -11    1    1    2    0    0  0.23179827091E+02  0.15832090536E+02  0.48899102780E+02  0.56383346189E+02  0.00000000000E+00 0.  1.
         11    1    1    2    0    0 -0.64104744552E+02 -0.39180027205E+02  0.96997178197E+02  0.12269044537E+03  0.00000000000E+00 0. -1.
</event>
<event>
 6    1  0.1538147E-010  0.6191347E+02  0.7561462E-02  0.1389973E+00
         -1   -1    0    0    0  501 -0.00000000000E+00  0.00000000000E+00  0.20092031863E+03  0.20092031863E+03  0.00000000000E+00 0.  1.
          1   -1    0    0  501    0  0.00000000000E+00 -0.00000000000E+00 -0.88633687542E+02  0.88633687542E+02  0.00000000000E+00 0. -1.
          5    1    1    2  502    0 -0.37153391459E+02  0.33808887996E+02 -0.18006749779E+01  0.50439371872E+02  0.41800000000E+01 0.  1.
         -5    1    1    2    0  502  0.16976161973E+00 -0.13667598610E+02  0.13618606529E+03  0.13693410405E+03  0.41800000000E+01 0.  1.
        -11    1    1    2    0    0  0.37136680121E+02  0.18039246673E+01 -0.52717144246E+02  0.64509568686E+02  0.00000000000E+00 0. -1.
         11    1    1    2    0    0 -0.15305028116E+00 -0.21945214053E+02  0.30618385015E+02  0.37670961564E+02  0.00000000000E+00 0.  1.
</event>
<event>
 6    1  0.1538147E-010  0.1051642E+03  0.7561462E-02  0.1269796E+00
          1   -1    0    0  501    0  0.00000000000E+00  0.00000000000E+00  0.79455336938E+03  0.79455336938E+03  0.00000000000E+00 0. -1.
         -1   -1    0    0    0  501 -0.00000000000E+00 -0.00000000000E+00 -0.21110149305E+02  0.21110149305E+02  0.00000000000E+00 0.  1.
          5    1    1    2  502    0 -0.10929917451E+02  0.74242883109E+02  0.22869886195E+03  0.24073244619E+03  0.41800000000E+01 0. -1.
         -5    1    1    2    0  502 -0.80230825110E+01 -0.37601693428E+02  0.38428539270E+03  0.38622660789E+03  0.41800000000E+01 0. -1.
        -11    1    1    2    0    0  0.36062361309E+02 -0.58508246933E+02  0.92066768549E+02  0.11489124742E+03  0.00000000000E+00 0.  1.
         11    1    1    2    0    0 -0.17109361347E+02  0.21867057252E+02  0.68392196871E+02  0.73813217186E+02  0.00000000000E+00 0. -1.
</event>
<event>
 7    1  0.1538147E-010  0.1275044E+03  0.7561462E-02  0.1231206E+00
          1   -1    0    0  501    0  0.00000000000E+00  0.00000000000E+00  0.16925251247E+03  0.16925251247E+03  0.00000000000E+00 0. -1.
         -1   -1    0    0    0  501 -0.00000000000E+00 -0.00000000000E+00 -0.11944754529E+03  0.11944754529E+03  0.00000000000E+00 0.  1.
         25    2    1    2    0    0 -0.20552738267E+02 -0.82813945554E+02  0.60689469519E+02  0.16314650799E+03  0.12511197677E+03 0.  0.
          5    1    3    3  502    0 -0.63217150646E+02 -0.54880536619E+02  0.69943629241E-01  0.83819799138E+02  0.41800000000E+01 0. -1.
         -5    1    3    3    0  502  0.42664412379E+02 -0.27933408935E+02  0.60619525890E+02  0.79326708853E+02  0.41800000000E+01 0. -1.
        -11    1    1    2    0    0 -0.33152476679E+02  0.30446580374E+02 -0.21345909311E+02  0.49816953046E+02  0.00000000000E+00 0. -1.
         11    1    1    2    0    0  0.53705214947E+02  0.52367365180E+02  0.10461406970E+02  0.75736596729E+02  0.00000000000E+00 0.  1.
</event>
<event>
 7    1  0.1538147E-010  0.8335107E+02  0.7561462E-02  0.1319802E+00
         -2   -1    0    0    0  501 -0.00000000000E+00  0.00000000000E+00  0.16737136188E+03  0.16737136188E+03  0.00000000000E+00 0.  1.
          2   -1    0    0  501    0  0.00000000000E+00 -0.00000000000E+00 -0.10870546337E+03  0.10870546337E+03  0.00000000000E+00 0. -1.
         25    2    1    2    0    0  0.15966449717E+02  0.17151008180E+02 -0.31143788941E+02  0.13100127797E+03  0.12506923939E+03 0.  0.
          5    1    3    3  502    0  0.30387108365E+02  0.41873907475E+02 -0.67113705970E+02  0.84844106519E+02  0.41800000000E+01 0.  1.
         -5    1    3    3    0  502 -0.14420658648E+02 -0.24722899295E+02  0.35969917029E+02  0.46157171452E+02  0.41800000000E+01 0.  1.
        -11    1    1    2    0    0 -0.43658972485E+02  0.12386530917E+02  0.93988873463E+02  0.10437164539E+03  0.00000000000E+00 0.  1.
         11    1    1    2    0    0  0.27692522768E+02 -0.29537539097E+02 -0.41791860058E+01  0.40703901887E+02  0.00000000000E+00 0. -1.
</event>
<event>
 6    1  0.1538147E-010  0.1526716E+03  0.7561462E-02  0.1197228E+00
         -2   -1    0    0    0  501 -0.00000000000E+00  0.00000000000E+00  0.51848727450E+02  0.51848727450E+02  0.00000000000E+00 0.  1.
          2   -1    0    0  501    0  0.00000000000E+00 -0.00000000000E+00 -0.62275295165E+03  0.62275295165E+03  0.00000000000E+00 0. -1.
          5    1    1    2  502    0 -0.40805488740E+02  0.71906651348E+01 -0.15707872538E+03  0.16250535974E+03  0.41800000000E+01 0.  1.
         -5    1    1    2    0  502 -0.81156484461E+02 -0.62533833974E+02 -0.49987411330E+02  0.11407483970E+03  0.41800000000E+01 0.  1.
        -11    1    1    2    0    0  0.16401699046E+02  0.53099792346E+02 -0.11576830996E+03  0.12841691972E+03  0.00000000000E+00 0.  1.
         11    1    1    2    0    0  0.10556027416E+03  0.22433764933E+01 -0.24806977753E+03  0.26960455994E+03  0.00000000000E+00 0. -1.
</event>
<event>
 6    1  0.1538147E-010  0.1503668E+03  0.7561462E-02  0.1200023E+00
         -2   -1    0    0    0  501 -0.00000000000E+00  0.00000000000E+00  0.18946101125E+02  0.18946101125E+02  0.00000000000E+00 0.  1.
          2   -1    0    0  501    0  0.00000000000E+00 -0.00000000000E+00 -0.13741343041E+04  0.13741343041E+04  0.00000000000E+00 0. -1.
          5    1    1    2  502    0  0.28351718429E+02 -0.57032768053E+01 -0.39174752990E+02  0.48872087903E+02  0.41800000000E+01 0.  1.
         -5    1    1    2    0  502 -0.28642011536E+02  0.12217910230E+03 -0.58376735590E+03  0.59711799175E+03  0.41800000000E+01 0.  1.
        -11    1    1    2    0    0 -0.34592836782E+02 -0.13338069249E+02 -0.13485626690E+03  0.13985986261E+03  0.00000000000E+00 0. -1.
         11    1    1    2    0    0  0.34883129890E+02 -0.10313775625E+03 -0.59738982720E+03  0.60723046297E+03  0.00000000000E+00 0.  1.
</event>
<event>
 7    1  0.1539292E-010  0.1591378E+03  0.7561462E-02  0.1189674E+00
         -2   -1    0    0    0  501 -0.00000000000E+00  0.00000000000E+00  0.58448622180E+02  0.58448622180E+02  0.00000000000E+00 0.  1.
          2   -1    0    0  501    0  0.00000000000E+00 -0.00000000000E+00 -0.65799635026E+03  0.65799635026E+03  0.00000000000E+00 0. -1.
         25    2    1    2    0    0 -0.94761624498E+02  0.10982914151E+03 -0.17848292946E+03  0.26179741259E+03  0.12505807983E+03 0.  0.
          5    1    3    3  502    0 -0.22251796237E+02  0.14176168476E+02 -0.12927327838E+03  0.13200439042E+03  0.41800000000E+01 0. -1.
         -5    1    3    3    0  502 -0.72509828261E+02  0.95652973031E+02 -0.49209651082E+02  0.12979302217E+03  0.41800000000E+01 0. -1.
        -11    1    1    2    0    0  0.83466608167E+02 -0.26796292526E+02 -0.21102694263E+03  0.22851058288E+03  0.00000000000E+00 0.  1.
         11    1    1    2    0    0  0.11295016331E+02 -0.83032848981E+02 -0.21003785599E+03  0.22613697696E+03  0.00000000000E+00 0. -1.
</event>
<event>
 7    1  0.1538147E-010  0.9626469E+02  0.7561462E-02  0.1288353E+00
          2   -1    0    0  501    0  0.00000000000E+00  0.00000000000E+00  0.52192301527E+03  0.52192301527E+03  0.00000000000E+00 0. -1.
         -2   -1    0    0    0  501 -0.00000000000E+00 -0.00000000000E+00 -0.43201884251E+02  0.43201884251E+02  0.00000000000E+00 0.  1.
         25    2    1    2    0    0 -0.48153716665E+02 -0.38955153481E+02  0.10236243776E+03  0.17311731379E+03  0.12512094652E+03 0.  0.
          5    1    3    3  502    0 -0.42776513911E+02 -0.52421722427E+02  0.12715316423E+03  0.14409464494E+03  0.41800000000E+01 0.  1.
         -5    1    3    3    0  502 -0.53772027541E+01  0.13466568946E+02 -0.24790726469E+02  0.29022668855E+02  0.41800000000E+01 0.  1.
        -11    1    1    2    0    0 -0.25267409937E+02 -0.24025765019E+01  0.88678963743E+02  0.92239758181E+02  0.00000000000E+00 0.  1.
         11    1    1    2    0    0  0.73421126602E+02  0.41357729983E+02  0.28767972951E+03  0.29976782755E+03  0.00000000000E+00 0. -1.
</event>
<event>
 7    1  0.1538147E-010  0.1257019E+03  0.7561462E-02  0.1233976E+00
         -2   -1    0    0    0  501 -0.00000000000E+00  0.00000000000E+00  0.65115801146E+02  0.65115801146E+02  0.00000000000E+00 0.  1.
          2   -1    0    0  501    0  0.00000000000E+00 -0.00000000000E+00 -0.33872866060E+03  0.33872866060E+03  0.00000000000E+00 0. -1.
         25    2    1    2    0    0 -0.10316308230E+03  0.25053846569E+01 -0.12858525036E+03  0.20698738754E+03  0.12514277242E+03 0.  0.
          5    1    3    3  502    0 -0.11207631221E+03  0.13857620661E+00 -0.41919773612E+02  0.11973244665E+03  0.41800000000E+01 0. -1.
         -5    1    3    3    0  502  0.89132299054E+01  0.23668084503E+01 -0.86665476752E+02  0.87254940893E+02  0.41800000000E+01 0. -1.
        -11    1    1    2    0    0 -0.65062652342E+01  0.16576184598E+02 -0.60771225749E+01  0.18815759403E+02  0.00000000000E+00 0.  1.
         11    1    1    2    0    0  0.10966934753E+03 -0.19081569254E+02 -0.13895048652E+03  0.17804131481E+03  0.00000000000E+00 0. -1.
</event>
<event>
 6    1  0.1538147E-010  0.1364309E+03  0.7561462E-02  0.1218214E+00
         -1   -1    0    0    0  501 -0.00000000000E+00  0.00000000000E+00  0.23593418972E+03  0.23593418972E+03  0.00000000000E+00 0.  1.
          1   -1    0    0  501    0  0.00000000000E+00 -0.00000000000E+00 -0.97795004899E+02  0.97795004899E+02  0.00000000000E+00 0. -1.
          5    1    1    2  502    0  0.31499090014E+02  0.66060177849E+02  0.85261530278E+02  0.11244172141E+03  0.41800000000E+01 0.  1.
         -5    1    1    2    0  502  0.52062645470E+02 -0.55010170993E+02  0.57392070743E+02  0.95120766135E+02  0.41800000000E+01 0.  1.
        -11    1    1    2    0    0 -0.84748343571E+02  0.24431494738E+02 -0.14276548472E+02  0.89347632925E+02  0.00000000000E+00 0.  1.
         11    1    1    2    0    0  0.11866080865E+01 -0.35481501594E+02  0.97621322670E+01  0.36819074140E+02  0.00000000000E+00 0. -1.
</event>
<event>
 7    1  0.1538147E-010  0.1008443E+03  0.7561462E-02  0.1278531E+00
         -3   -1    0    0    0  501 -0.00000000000E+00  0.00000000000E+00  0.11540631888E+03  0.11540631888E+03  0.00000000000E+00 0.  1.
          3   -1    0    0  501    0  0.00000000000E+00 -0.00000000000E+00 -0.13540485206E+03  0.13540485206E+03  0.00000000000E+00 0. -1.
         25    2    1    2    0    0  0.41662705859E+02  0.97849965987E+01 -0.60650996283E+02  0.14543341147E+03  0.12506321044E+03 0.  0.
          5    1    3    3  502    0  0.30830241170E+02  0.52242363824E+02 -0.77321499152E+02  0.98365923874E+02  0.41800000000E+01 0.  1.
         -5    1    3    3    0  502  0.10832464689E+02 -0.42457367226E+02  0.16670502869E+02  0.47067487599E+02  0.41800000000E+01 0.  1.
        -11    1    1    2    0    0 -0.54667392162E+02  0.24717183221E+02  0.20783635070E+02  0.63493483122E+02  0.00000000000E+00 0.  1.
         11    1    1    2    0    0  0.13004686304E+02 -0.34502179820E+02  0.19868828033E+02  0.41884276353E+02  0.00000000000E+00 0. -1.
</event>
<event>
 6    1  0.1538147E-010  0.9933432E+02  0.7561462E-02  0.1281702E+00
         -2   -1    0    0    0  501 -0.00000000000E+00  0.00000000000E+00  0.95153652244E+02  0.95153652244E+02  0.00000000000E+00 0.  1.
          2   -1    0    0  501    0  0.00000000000E+00 -0.00000000000E+00 -0.16548300824E+03  0.16548300824E+03  0.00000000000E+00 0. -1.
          5    1    1    2  502    0 -0.37133245592E+02 -0.36844364954E+02  0.21045911935E+02  0.56540144731E+02  0.41800000000E+01 0.  1.
         -5    1    1    2    0  502 -0.12366270722E+02  0.72158818317E+02 -0.41054293003E+02  0.84040151633E+02  0.41800000000E+01 0.  1.
        -11    1    1    2    0    0 -0.60972584092E+01 -0.10136934865E+02  0.22270591106E+02  0.25217320174E+02  0.00000000000E+00 0.  1.
         11    1    1    2    0    0  0.55596774723E+02 -0.25177518498E+02 -0.72591566035E+02  0.94839043947E+02  0.00000000000E+00 0. -1.
</event>
<event>
 7    1  0.1538147E-010  0.1523355E+03  0.7561462E-02  0.1197632E+00
          1   -1    0    0  501    0  0.00000000000E+00  0.00000000000E+00  0.44546992530E+02  0.44546992530E+02  0.00000000000E+00 0. -1.
         -1   -1    0    0    0  501 -0.00000000000E+00 -0.00000000000E+00 -0.71033135428E+03  0.71033135428E+03  0.00000000000E+00 0.  1.
         25    2    1    2    0    0 -0.98614482331E+02 -0.91094667258E+02 -0.44149626730E+03  0.47810461490E+03  0.12506803836E+03 0.  0.
          5    1    3    3  502    0 -0.56083572701E+02  0.76326198908E+01 -0.26813980369E+03  0.27408037276E+03  0.41800000000E+01 0. -1.
         -5    1    3    3    0  502 -0.42530909630E+02 -0.98727287149E+02 -0.17335646361E+03  0.20402424213E+03  0.41800000000E+01 0. -1.
        -11    1    1    2    0    0  0.35918510182E+02  0.89812799177E+01 -0.13576610003E+03  0.14072397337E+03  0.00000000000E+00 0.  1.
         11    1    1    2    0    0  0.62695972149E+02  0.82113387340E+02 -0.88521994417E+02  0.13604975854E+03  0.00000000000E+00 0. -1.
</event>
<event>
 7    1  0.1538147E-010  0.1190395E+03  0.7561462E-02  0.1244690E+00
          2   -1    0    0  501    0  0.00000000000E+00  0.00000000000E+00  0.77376385944E+03  0.77376385944E+03  0.00000000000E+00 0. -1.
         -2   -1    0    0    0  501 -0.00000000000E+00 -0.00000000000E+00 -0.38837124672E+02  0.38837124672E+02  0.00000000000E+00 0.  1.
         25    2    1    2    0    0 -0.46533464341E+02 -0.61390351763E+02  0.64747352186E+03  0.66393504718E+03  0.12511453462E+03 0.  0.
          5    1    3    3  502    0 -0.11326120170E+02  0.23262479878E+02  0.30678701234E+02  0.40349461925E+02  0.41800000000E+01 0.  1.
         -5    1    3    3    0  502 -0.35207344171E+02 -0.84652831642E+02  0.61679482063E+03  0.62358558526E+03  0.41800000000E+01 0.  1.
        -11    1    1    2    0    0  0.73766560077E+02  0.33189732467E+02  0.55630847310E+02  0.98172577124E+02  0.00000000000E+00 0.  1.
         11    1    1    2    0    0 -0.27233095736E+02  0.28200619296E+02  0.31822365594E+02  0.50493359802E+02  0.00000000000E+00 0. -1.
</event>
<event>
 6    1  0.1538147E-010  0.1616502E+03  0.7561462E-02  0.1186846E+00
          4   -1    0    0  501    0  0.00000000000E+00  0.00000000000E+00  0.13229067963E+03  0.13229067963E+03  0.00000000000E+00 0. -1.
         -4   -1    0    0    0  501 -0.00000000000E+00 -0.00000000000E+00 -0.26975087798E+03  0.26975087798E+03  0.00000000000E+00 0.  1.
          5    1    1    2  502    0 -0.11822342154E+03 -0.75832594481E+02 -0.32284730275E+02  0.14417744621E+03  0.41800000000E+01 0. -1.
         -5    1    1    2    0  502 -0.77856794109E+01  0.21559080676E+02  0.34266096772E+02  0.41437284557E+02  0.41800000000E+01 0. -1.
        -11    1    1    2    0    0  0.11796252242E+03  0.14436361741E+02 -0.12697892342E+03  0.17391725684E+03  0.00000000000E+00 0.  1.
         11    1    1    2    0    0  0.80465785349E+01  0.39837152064E+02 -0.12462641428E+02  0.42509570005E+02  0.00000000000E+00 0. -1.
</event>
<event>
 7    1  0.1538147E-010  0.1059434E+03  0.7561462E-02  0.1268272E+00
          1   -1    0    0  501    0  0.00000000000E+00  0.00000000000E+00  0.78484206217E+02  0.78484206217E+02  0.00000000000E+00 0. -1.
         -1   -1    0    0    0  501 -0.00000000000E+00 -0.00000000000E+00 -0.19497068835E+03  0.19497068835E+03  0.00000000000E+00 0.  1.
         25    2    1    2    0    0 -0.27856723830E+02 -0.16568609529E+02 -0.10083941595E+02  0.12958696246E+03  0.12506230078E+03 0.  0.
          5    1    3    3  502    0 -0.17188910791E+02  0.54224343148E+02 -0.97973326496E+01  0.57872257352E+02  0.41800000000E+01 0.  1.
         -5    1    3    3    0  502 -0.10667813039E+02 -0.70792952676E+02 -0.28660894549E+00  0.71714705106E+02  0.41800000000E+01 0.  1.
        -11    1    1    2    0    0  0.12553005986E+02  0.47228718844E+02 -0.96549145558E+02  0.10821214050E+03  0.00000000000E+00 0.  1.
         11    1    1    2    0    0  0.15303717844E+02 -0.30660109315E+02 -0.98533949812E+01  0.35655791615E+02  0.00000000000E+00 0. -1.
</event>
<event>
 7    1  0.1538147E-010  0.1593282E+03  0.7561462E-02  0.1189457E+00
          1   -1    0    0  501    0  0.00000000000E+00  0.00000000000E+00  0.65582854285E+03  0.65582854285E+03  0.00000000000E+00 0. -1.
         -1   -1    0    0    0  501 -0.00000000000E+00 -0.00000000000E+00 -0.54280647779E+02  0.54280647779E+02  0.00000000000E+00 0.  1.
         25    2    1    2    0    0 -0.11645423273E+03  0.76673217225E+02  0.44097355091E+03  0.47911767867E+03  0.12512276712E+03 0.  0.
          5    1    3    3  502    0 -0.64115246355E+02  0.48588696196E+01  0.33318764517E+03  0.33936094756E+03  0.41800000000E+01 0. -1.
         -5    1    3    3    0  502 -0.52338986377E+02  0.71814347606E+02  0.10778590574E+03  0.13975673112E+03  0.41800000000E+01 0. -1.
        -11    1    1    2    0    0  0.61898394549E+02  0.10144256640E+02  0.50197967886E+02  0.80337744370E+02  0.00000000000E+00 0.  1.
         11    1    1    2    0    0  0.54555838182E+02 -0.86817473866E+02  0.11037637627E+03  0.15065376758E+03  0.00000000000E+00 0. -1.
</event>
<event>
 6    1  0.1538147E-010  0.7297176E+02  0.7561462E-02  0.1350269E+00
          2   -1    0    0  501    0  0.00000000000E+00  0.00000000000E+00  0.46620642553E+03  0.46620642553E+03  0.00000000000E+00 0. -1.
         -2   -1    0    0    0  501 -0.00000000000E+00 -0.00000000000E+00 -0.31501983570E+02  0.31501983570E+02  0.00000000000E+00 0.  1.
          5    1    1    2  502    0  0.35565488832E+01 -0.61836859874E+02  0.28828179771E+03  0.29489034160E+03  0.41800000000E+01 0.  1.
         -5    1    1    2    0  502  0.69077429786E+01  0.13648505207E+02 -0.66726799968E+01  0.17204524573E+02  0.41800000000E+01 0.  1.
        -11    1    1    2    0    0  0.18512509976E+02  0.23656999558E+02  0.23169692298E+01  0.30128640860E+02  0.00000000000E+00 0.  1.
         11    1    1    2    0    0 -0.28976801838E+02  0.24531355110E+02  0.15077835501E+03  0.15548490206E+03  0.00000000000E+00 0. -1.
</event>
<event>
 7    1  0.1538147E-010  0.1518499E+03  0.7561462E-02  0.1198218E+00
          2   -1    0    0  501    0  0.00000000000E+00  0.00000000000E+00  0.35535098573E+03  0.35535098573E+03  0.00000000000E+00 0. -1.
         -2   -1    0    0    0  501 -0.00000000000E+00 -0.00000000000E+00 -0.94306496809E+02  0.94306496809E+02  0.00000000000E+00 0.  1.
         25    2    1    2    0    0  0.71752118747E+02 -0.91561790776E+02  0.26506513791E+02  0.17287969713E+03  0.12511141567E+03 0.  0.
          5    1    3    3  502    0 -0.24730533890E+02  0.12763861116E+02 -0.63448513564E+00  0.28149430340E+02  0.41800000000E+01 0. -1.
         -5    1    3    3    0  502  0.96482652637E+02 -0.10432565189E+03  0.27140998927E+02  0.14473026679E+03  0.41800000000E+01 0. -1.
        -11    1    1    2    0    0 -0.50108637417E+02  0.12805941607E+02  0.38714888458E+02  0.64604258935E+02  0.00000000000E+00 0.  1.
         11    1    1    2    0    0 -0.21643481331E+02  0.78755849169E+02  0.19582308667E+03  0.21217352647E+03  0.00000000000E+00 0. -1.
</event>
<event>
 6    1  0.1538147E-010  0.1351583E+03  0.7561462E-02  0.1219996E+00
         -1   -1    0    0    0  501 -0.00000000000E+00  0.00000000000E+00  0.28312165845E+03  0.28312165845E+03  0.00000000000E+00 0.  1.
          1   -1    0    0  501    0  0.00000000000E+00 -0.00000000000E+00 -0.74812002862E+02  0.74812002862E+02  0.00000000000E+00 0. -1.
          5    1    1    2  502    0  0.85903903334E+02 -0.44797668895E+02  0.12215649883E+03  0.15596792732E+03  0.41800000000E+01 0.  1.
         -5    1    1    2    0  502 -0.27815222661E+02 -0.30916224812E+02 -0.23224325191E+01  0.41861266836E+02  0.41800000000E+01 0.  1.
        -11    1    1    2    0    0 -0.58855307849E+02  0.31086088047E+01  0.53126617104E+02  0.79347641148E+02  0.00000000000E+00 0.  1.
         11    1    1    2    0    0  0.76662717589E+00  0.72605284902E+02  0.35348972169E+02  0.80756826005E+02  0.00000000000E+00 0. -1.
</event>
<event>
 7    1  0.1538147E-010  0.1128528E+03  0.7561462E-02  0.1255376E+00
          1   -1    0    0  501    0  0.00000000000E+00  0.00000000000E+00  0.11660971050E+03  0.11660971050E+03  0.00000000000E+00 0. -1.
         -1   -1    0    0    0  501 -0.00000000000E+00 -0.00000000000E+00 -0.16784223492E+03  0.16784223492E+03  0.00000000000E+00 0.  1.
         25    2    1    2    0    0  0.61366724670E+02 -0.62994395480E+02 -0.15479406713E+02  0.15372724372E+03  0.12513306785E+03 0.  0.
          5    1    3    3  502    0  0.23952629771E+02 -0.79590531575E+02 -0.52485853592E+02  0.98390133736E+02  0.41800000000E+01 0.  1.
         -5    1    3    3    0  502  0.37414094899E+02  0.16596136095E+02  0.37006446878E+02  0.55337109980E+02  0.41800000000E+01 0.  1.
        -11    1    1    2    0    0  0.89135635784E+01  0.49857983428E+01 -0.38222242723E+02  0.39563235959E+02  0.00000000000E+00 0.  1.
         11    1    1    2    0    0 -0.70280288248E+02  0.58008597137E+02  0.24691250196E+01  0.91161465743E+02  0.00000000000E+00 0. -1.
</event>
<event>
 6    1  0.1538147E-010  0.3193106E+03  0.7561462E-02  0.1075967E+00
          1   -1    0    0  501    0  0.00000000000E+00  0.00000000000E+00  0.22200614618E+04  0.22200614618E+04  0.00000000000E+00 0. -1.
         -1   -1    0    0    0  501 -0.00000000000E+00 -0.00000000000E+00 -0.56278194418E+02  0.56278194418E+02  0.00000000000E+00 0.  1.
          5    1    1    2  502    0 -0.20048836929E+02  0.23484827083E+03  0.12601069998E+04  0.12819683263E+04  0.41800000000E+01 0.  1.
         -5    1    1    2    0  502 -0.58683939304E+02  0.64891803029E+02  0.25694352212E+03  0.27146306708E+03  0.41800000000E+01 0.  1.
        -11    1    1    2    0    0  0.11568757351E+02 -0.15820874264E+03  0.24676247312E+03  0.29335228060E+03  0.00000000000E+00 0.  1.
         11    1    1    2    0    0  0.67164018882E+02 -0.14153133123E+03  0.39997027232E+03  0.42955598226E+03  0.00000000000E+00 0. -1.
</event>
<event>
 6    1  0.1538147E-010  0.1829413E+03  0.7561462E-02  0.1164986E+00
         -3   -1    0    0    0  501 -0.00000000000E+00  0.00000000000E+00  0.33999201498E+03  0.33999201498E+03  0.00000000000E+00 0.  1.
          3   -1    0    0  501    0  0.00000000000E+00 -0.00000000000E+00 -0.10740184234E+03  0.10740184234E+03  0.00000000000E+00 0. -1.
          5    1    1    2  502    0 -0.14144225724E+03 -0.93161252633E+02  0.47543035707E+02  0.17596233623E+03  0.41800000000E+01 0.  1.
         -5    1    1    2    0  502  0.17588413444E+02  0.47316934065E+01  0.30998049732E+02  0.36195202681E+02  0.41800000000E+01 0.  1.
        -11    1    1    2    0    0  0.12638303768E+03  0.44820632318E+02  0.11641481717E+03  0.17757807002E+03  0.00000000000E+00 0. -1.
         11    1    1    2    0    0 -0.25291938791E+01  0.43608926909E+02  0.37634270021E+02  0.57658248394E+02  0.00000000000E+00 0.  1.
</event>
<event>
 7    1  0.1538147E-010  0.9917562E+02  0.7561462E-02  0.1282039E+00
         -1   -1    0    0    0  501 -0.00000000000E+00  0.00000000000E+00  0.26507363008E+02  0.26507363008E+02  0.00000000000E+00 0.  1.
          1   -1    0    0  501    0  0.00000000000E+00 -0.00000000000E+00 -0.61278828452E+03  0.61278828452E+03  0.00000000000E+00 0. -1.
         25    2    1    2    0    0 -0.31895220924E+02  0.54892290954E+02 -0.38522773169E+03  0.40995800557E+03  0.12503876338E+03 0.  0.
          5    1    3    3  502    0 -0.57006007748E+02  0.69230952274E+02 -0.36101996942E+03  0.37201545719E+03  0.41800000000E+01 0.  1.
         -5    1    3    3    0  502  0.25110786824E+02 -0.14338661320E+02 -0.24207762269E+02  0.37942548378E+02  0.41800000000E+01 0.  1.
        -11    1    1    2    0    0  0.44053891696E+02 -0.48845823609E+02 -0.20492040034E+03  0.21521856410E+03  0.00000000000E+00 0. -1.
         11    1    1    2    0    0 -0.12158670772E+02 -0.60464673448E+01  0.38672105165E+01  0.14119077855E+02  0.00000000000E+00 0.  1.
</event>
<event>
 7    1  0.1538147E-010  0.8641730E+02  0.7561462E-02  0.1311767E+00
          2   -1    0    0  501    0  0.00000000000E+00  0.00000000000E+00  0.54573626661E+03  0.54573626661E+03  0.00000000000E+00 0. -1.
         -2   -1    0    0    0  501 -0.00000000000E+00 -0.00000000000E+00 -0.20664221155E+02  0.20664221155E+02  0.00000000000E+00 0.  1.
         25    2    1    2    0    0 -0.15199846522E+01 -0.13495143131E+02  0.29486942996E+03  0.32060182913E+03  0.12511244094E+03 0.  0.
          5    1    3    3  502    0 -0.51190343103E+02 -0.15675132060E+02  0.60127276653E+02  0.80615896632E+02  0.41800000000E+01 0. -1.
         -5    1    3    3    0  502  0.49670358450E+02  0.21799889283E+01  0.23474215331E+03  0.23998593250E+03  0.41800000000E+01 0. -1.
        -11    1    1    2    0    0 -0.33194718704E+02  0.62076252630E+01  0.40148021913E+02  0.52462249521E+02  0.00000000000E+00 0.  1.
         11    1    1    2    0    0  0.34714703356E+02  0.72875178683E+01  0.19005459359E+03  0.19333640911E+03  0.00000000000E+00 0. -1.
</event>
<event>
 7    1  0.1538147E-010  0.1362213E+03  0.7561462E-02  0.1218506E+00
         -1   -1    0    0    0  501 -0.00000000000E+00  0.00000000000E+00  0.93265815065E+02  0.93265815065E+02  0.00000000000E+00 0.  1.
          1   -1    0    0  501    0  0.00000000000E+00 -0.00000000000E+00 -0.29701657738E+03  0.29701657738E+03  0.00000000000E+00 0. -1.
         25    2    1    2    0    0  0.48324266792E+02 -0.11545160115E+03 -0.13288882799E+03  0.22130690853E+03  0.12511195062E+03 0.  0.
          5    1    3    3  502    0  0.39762715525E+02 -0.99320686968E+02 -0.22583479589E+02  0.10942192813E+03  0.41800000000E+01 0. -1.
         -5    1    3    3    0  502  0.85615512668E+01 -0.16130914183E+02 -0.11030534840E+03  0.11188498040E+03  0.41800000000E+01 0. -1.
        -11    1    1    2    0    0 -0.60030248578E+02  0.44484753089E+02 -0.60842305699E+02  0.96355125263E+02  0.00000000000E+00 0.  1.
         11    1    1    2    0    0  0.11705981786E+02  0.70966848061E+02 -0.10019628626E+02  0.72620358654E+02  0.00000000000E+00 0. -1.
</event>
<event>
 6    1  0.1538147E-010  0.9831591E+02  0.7561462E-02  0.1283878E+00
          3   -1    0    0  501    0  0.00000000000E+00  0.00000000000E+00  0.43164136323E+02  0.43164136323E+02  0.00000000000E+00 0. -1.
         -3   -1    0    0    0  501 -0.00000000000E+00 -0.00000000000E+00 -0.38062235773E+03  0.38062235773E+03  0.00000000000E+00 0.  1.
          5    1    1    2  502    0  0.12955969978E+02 -0.49081453073E+02 -0.40053192564E+02  0.64796426046E+02  0.41800000000E+01 0. -1.
         -5    1    1    2    0  502  0.49392298220E+02  0.57302807184E+02 -0.18841584199E+03  0.20307932624E+03  0.41800000000E+01 0. -1.
        -11    1    1    2    0    0 -0.39529498728E+02  0.99470665613E+01 -0.11843332386E+03  0.12525165709E+03  0.00000000000E+00 0.  1.
         11    1    1    2    0    0 -0.22818769470E+02 -0.18168420672E+02  0.94441369988E+01  0.30659084681E+02  0.00000000000E+00 0. -1.
</event>
<event>
 7    1  0.1538147E-010  0.1002157E+03  0.7561462E-02  0.1279843E+00
         -1   -1    0    0    0  501 -0.00000000000E+00  0.00000000000E+00  0.53218312153E+02  0.53218312153E+02  0.00000000000E+00 0.  1.
          1   -1    0    0  501    0  0.00000000000E+00 -0.00000000000E+00 -0.32917005670E+03  0.32917005670E+03  0.00000000000E+00 0. -1.
         25    2    1    2    0    0  0.13257036850E+02 -0.74514439714E+02 -0.14111570576E+03  0.20321496517E+03  0.12511805987E+03 0.  0.
          5    1    3    3  502    0  0.18514149792E+02  0.21001798982E+02 -0.90672303354E+02  0.94988358753E+02  0.41800000000E+01 0. -1.
         -5    1    3    3    0  502 -0.52571129422E+01 -0.95516238696E+02 -0.50443402407E+02  0.10822660642E+03  0.41800000000E+01 0. -1.
        -11    1    1    2    0    0  0.87034203264E+00  0.21180896489E+02 -0.12025102047E+03  0.12210526522E+03  0.00000000000E+00 0. -1.
         11    1    1    2    0    0 -0.14127378882E+02  0.53333543225E+02 -0.14585018311E+02  0.57068138450E+02  0.00000000000E+00 0.  1.
</event>
<event>
 7    1  0.1538147E-010  0.1324958E+03  0.7561462E-02  0.1223799E+00
          2   -1    0    0  501    0  0.00000000000E+00  0.00000000000E+00  0.10957219954E+03  0.10957219954E+03  0.00000000000E+00 0. -1.
         -2   -1    0    0    0  501 -0.00000000000E+00 -0.00000000000E+00 -0.25395742205E+03  0.25395742205E+03  0.00000000000E+00 0.  1.
         25    2    1    2    0    0  0.26152824289E+02 -0.10411395607E+03 -0.54169726152E+01  0.16494462676E+03  0.12511474828E+03 0.  0.
          5    1    3    3  502    0  0.52018434218E+02 -0.68134085656E+02  0.45645430795E+02  0.97206732684E+02  0.41800000000E+01 0.  1.
         -5    1    3    3    0  502 -0.25865609928E+02 -0.35979870416E+02 -0.51062403410E+02  0.67737894078E+02  0.41800000000E+01 0.  1.
        -11    1    1    2    0    0  0.29495421069E+02  0.31187183585E+02 -0.17467861257E+02  0.46343785570E+02  0.00000000000E+00 0.  1.
         11    1    1    2    0    0 -0.55648245358E+02  0.72926772486E+02 -0.12150038863E+03  0.15224120925E+03  0.00000000000E+00 0. -1.
</event>
<event>
 7    1  0.1538147E-010  0.8296688E+02  0.7561462E-02  0.1320837E+00
         -2   -1    0    0    0  501 -0.00000000000E+00  0.00000000000E+00  0.78226369868E+02  0.78226369868E+02  0.00000000000E+00 0.  1.
          2   -1    0    0  501    0  0.00000000000E+00 -0.00000000000E+00 -0.22938283858E+03  0.22938283858E+03  0.00000000000E+00 0. -1.
         25    2    1    2    0    0 -0.99021811081E+01 -0.21356009828E+01 -0.17285772712E+03  0.21359719525E+03  0.12506539893E+03 0.  0.
          5    1    3    3  502    0  0.35448527620E+02  0.44621323392E+02 -0.10436633394E+03  0.11898514475E+03  0.41800000000E+01 0.  1.
         -5    1    3    3    0  502 -0.45350708728E+02 -0.46756924375E+02 -0.68491393189E+02  0.94612050501E+02  0.41800000000E+01 0.  1.
        -11    1    1    2    0    0  0.18511032180E+01 -0.19938579976E+02  0.51969708581E+02  0.55694022700E+02  0.00000000000E+00 0.  1.
         11    1    1    2    0    0  0.80510778901E+01  0.22074180959E+02 -0.30268450170E+02  0.38317990499E+02  0.00000000000E+00 0. -1.
</event>
<event>
 6    1  0.1538147E-010  0.1489238E+03  0.7561462E-02  0.1201802E+00
          1   -1    0    0  501    0  0.00000000000E+00  0.00000000000E+00  0.18103614178E+03  0.18103614178E+03  0.00000000000E+00 0. -1.
         -1   -1    0    0    0  501 -0.00000000000E+00 -0.00000000000E+00 -0.14171451934E+03  0.14171451934E+03  0.00000000000E+00 0.  1.
          5    1    1    2  502    0  0.10162889838E+03 -0.83714726532E+02  0.94443287770E+01  0.13207291990E+03  0.41800000000E+01 0. -1.
         -5    1    1    2    0  502 -0.22850256383E+02 -0.40800169223E+00  0.38055737412E+02  0.44587130790E+02  0.41800000000E+01 0. -1.
        -11    1    1    2    0    0 -0.50430439899E+02  0.98822954224E+02  0.60920446315E+01  0.11111398903E+03  0.00000000000E+00 0. -1.
         11    1    1    2    0    0 -0.28348202095E+02 -0.14700225999E+02 -0.14270488386E+02  0.34976621409E+02  0.00000000000E+00 0.  1.
</event>
<event>
 7    1  0.1538147E-010  0.1435193E+03  0.7561462E-02  0.1208670E+00
          1   -1    0    0  501    0  0.00000000000E+00  0.00000000000E+00  0.11575756520E+03  0.11575756520E+03  0.00000000000E+00 0. -1.
         -1   -1    0    0    0  501 -0.00000000000E+00 -0.00000000000E+00 -0.19800384347E+03  0.19800384347E+03  0.00000000000E+00 0.  1.
         25    2    1    2    0    0  0.38568348023E+02  0.99744561360E+02 -0.40996393368E+02  0.16961890878E+03  0.12511344834E+03 0.  0.
          5    1    3    3  502    0 -0.46026019034E+02  0.34896113979E+02 -0.13663530848E+02  0.59500400622E+02  0.41800000000E+01 0.  1.
         -5    1    3    3    0  502  0.84594367057E+02  0.64848447381E+02 -0.27332862520E+02  0.11011850816E+03  0.41800000000E+01 0.  1.
        -11    1    1    2    0    0 -0.46654299155E+02 -0.37965534276E+02 -0.53667191643E+02  0.80611245378E+02  0.00000000000E+00 0.  1.
         11    1    1    2    0    0  0.80859511322E+01 -0.61779027084E+02  0.12417306746E+02  0.63531254513E+02  0.00000000000E+00 0. -1.
</event>
<event>
 7    1  0.1538147E-010  0.1250665E+03  0.7561462E-02  0.1234965E+00
         -1   -1    0    0    0  501 -0.00000000000E+00  0.00000000000E+00  0.20708415377E+02  0.20708415377E+02  0.00000000000E+00 0.  1.
          1   -1    0    0  501    0  0.00000000000E+00 -0.00000000000E+00 -0.81893772058E+03  0.81893772058E+03  0.00000000000E+00 0. -1.
         25    2    1    2    0    0  0.65503988923E+02 -0.17164610607E+02 -0.35228092475E+03  0.37990255043E+03  0.12505479383E+03 0.  0.
          5    1    3    3  502    0 -0.98916669214E+00  0.46675498665E+02 -0.83946458646E+02  0.96146039677E+02  0.41800000000E+01 0. -1.
         -5    1    3    3    0  502  0.66493155615E+02 -0.63840109272E+02 -0.26833446611E+03  0.28375651076E+03  0.41800000000E+01 0. -1.
        -11    1    1    2    0    0 -0.53931317092E+01  0.44590203112E+02 -0.20786714235E+03  0.21266433870E+03  0.00000000000E+00 0.  1.
         11    1    1    2    0    0 -0.60110857214E+02 -0.27425592505E+02 -0.23808123810E+03  0.24707924683E+03  0.00000000000E+00 0. -1.
</event>
<event>
 7    1  0.1538147E-010  0.1191174E+03  0.7561462E-02  0.1244560E+00
          2   -1    0    0  501    0  0.00000000000E+00  0.00000000000E+00  0.51548264786E+02  0.51548264786E+02  0.00000000000E+00 0.  1.
         -2   -1    0    0    0  501 -0.00000000000E+00 -0.00000000000E+00 -0.46232445018E+03  0.46232445018E+03  0.00000000000E+00 0. -1.
         25    2    1    2    0    0 -0.92344800812E+02  0.44950324936E+02 -0.34810063469E+03  0.38390084446E+03  0.12513078179E+03 0.  0.
          5    1    3    3  502    0 -0.96070421012E+02  0.63517863901E+02 -0.17388128159E+03  0.20860541056E+03  0.41800000000E+01 0.  1.
         -5    1    3    3    0  502  0.37256202006E+01 -0.18567538965E+02 -0.17421935310E+03  0.17529543390E+03  0.41800000000E+01 0.  1.
        -11    1    1    2    0    0  0.67444976956E+02 -0.25910686501E+02 -0.16415000233E+02  0.74092110405E+02  0.00000000000E+00 0.  1.
         11    1    1    2    0    0  0.24899823855E+02 -0.19039638435E+02 -0.46260550474E+02  0.55879760110E+02  0.00000000000E+00 0. -1.
</event>
<event>
 6    1  0.1538147E-010  0.1324078E+03  0.7561462E-02  0.1223926E+00
          1   -1    0    0  501    0  0.00000000000E+00  0.00000000000E+00  0.11173359016E+04  0.11173359016E+04  0.00000000000E+00 0. -1.
         -1   -1    0    0    0  501 -0.00000000000E+00 -0.00000000000E+00 -0.16886290106E+02  0.16886290106E+02  0.00000000000E+00 0.  1.
          5    1    1    2  502    0 -0.13047427580E+02  0.10701355476E+03  0.56665451718E+03  0.57683355529E+03  0.41800000000E+01 0. -1.
         -5    1    1    2    0  502  0.25108838450E+02 -0.28924159116E+02  0.14307010808E+03  0.14816743561E+03  0.41800000000E+01 0. -1.
        -11    1    1    2    0    0 -0.14804245331E+02  0.17413883935E+02  0.44118474061E+02  0.49687511379E+02  0.00000000000E+00 0.  1.
         11    1    1    2    0    0  0.27428344609E+01 -0.95503279582E+02  0.34660651213E+03  0.35953368939E+03  0.00000000000E+00 0. -1.
</event>
<event>
 7    1  0.1538147E-010  0.9365907E+02  0.7561462E-02  0.1294225E+00
          4   -1    0    0  501    0  0.00000000000E+00  0.00000000000E+00  0.25822327019E+03  0.25822327019E+03  0.00000000000E+00 0. -1.
         -4   -1    0    0    0  501 -0.00000000000E+00 -0.00000000000E+00 -0.47409411472E+02  0.47409411472E+02  0.00000000000E+00 0.  1.
         25    2    1    2    0    0 -0.68363086749E+01 -0.78847253434E+01  0.93696346079E+02  0.15660430727E+03  0.12504798990E+03 0.  0.
          5    1    3    3  502    0 -0.19546916544E+02  0.44100284764E+02  0.90732182213E+02  0.10284317358E+03  0.41800000000E+01 0. -1.
         -5    1    3    3    0  502  0.12710607869E+02 -0.51985010108E+02  0.29641638657E+01  0.53761133691E+02  0.41800000000E+01 0. -1.
        -11    1    1    2    0    0  0.14044124584E+02 -0.37095922197E+02  0.26793307488E+02  0.47866754696E+02  0.00000000000E+00 0. -1.
         11    1    1    2    0    0 -0.72078159094E+01  0.44980647540E+02  0.90324205153E+02  0.10116161970E+03  0.00000000000E+00 0.  1.
</event>
<event>
 6    1  0.1538147E-010  0.1574650E+03  0.7561462E-02  0.1191589E+00
         -2   -1    0    0    0  501 -0.00000000000E+00  0.00000000000E+00  0.47521966265E+02  0.47521966265E+02  0.00000000000E+00 0.  1.
          2   -1    0    0  501    0  0.00000000000E+00 -0.00000000000E+00 -0.67200333879E+03  0.67200333879E+03  0.00000000000E+00 0. -1.
          5    1    1    2  502    0 -0.99884248021E+02 -0.87479925842E+02 -0.12883391459E+03  0.18505472266E+03  0.41800000000E+01 0. -1.
         -5    1    1    2    0  502  0.78235867098E+01 -0.16508941674E+02 -0.14801155338E+03  0.14919331754E+03  0.41800000000E+01 0. -1.
        -11    1    1    2    0    0  0.23705965499E+02 -0.13602706883E+02 -0.88358563309E+02  0.92489146092E+02  0.00000000000E+00 0.  1.
         11    1    1    2    0    0  0.68354695812E+02  0.11759157440E+03 -0.25927734124E+03  0.29278811877E+03  0.00000000000E+00 0. -1.
</event>
<event>
 7    1  0.1538147E-010  0.1264027E+03  0.7561462E-02  0.1232893E+00
          1   -1    0    0  501    0  0.00000000000E+00  0.00000000000E+00  0.21710842949E+03  0.21710842949E+03  0.00000000000E+00 0. -1.
         -1   -1    0    0    0  501 -0.00000000000E+00 -0.00000000000E+00 -0.81986449492E+02  0.81986449492E+02  0.00000000000E+00 0.  1.
         25    2    1    2    0    0 -0.56063254075E+02 -0.49380995847E+02  0.39887375107E+02  0.15104566815E+03  0.12506886089E+03 0.  0.
          5    1    3    3  502    0  0.37593749608E+02  0.21939254117E+01  0.17468115199E+02  0.41721826026E+02  0.41800000000E+01 0.  1.
         -5    1    3    3    0  502 -0.93657003683E+02 -0.51574921259E+02  0.22419259908E+02  0.10932384212E+03  0.41800000000E+01 0.  1.
        -11    1    1    2    0    0  0.35201681368E+02 -0.16452137492E+02  0.57370517728E+02  0.69290746161E+02  0.00000000000E+00 0. -1.
         11    1    1    2    0    0  0.20861572707E+02  0.65833133339E+02  0.37864087166E+02  0.78758464675E+02  0.00000000000E+00 0.  1.
</event>
<event>
 7    1  0.1538147E-010  0.1920550E+03  0.7561462E-02  0.1156621E+00
         -1   -1    0    0    0  501 -0.00000000000E+00  0.00000000000E+00  0.21889792723E+03  0.21889792723E+03  0.00000000000E+00 0.  1.
          1   -1    0    0  501    0  0.00000000000E+00 -0.00000000000E+00 -0.36725077135E+03  0.36725077135E+03  0.00000000000E+00 0. -1.
         25    2    1    2    0    0  0.16779328518E+03 -0.40810137287E+02 -0.28052368181E+03  0.35234957035E+03  0.12504651060E+03 0.  0.
          5    1    3    3  502    0 -0.18258028966E+01  0.27900715148E+02 -0.23280670321E+02  0.36623018343E+02  0.41800000000E+01 0.  1.
         -5    1    3    3    0  502  0.16961908807E+03 -0.68710852435E+02 -0.25724301149E+03  0.31572655200E+03  0.41800000000E+01 0.  1.
        -11    1    1    2    0    0 -0.72258217488E+02  0.20553035860E+02  0.11073852717E+03  0.13381591339E+03  0.00000000000E+00 0.  1.
         11    1    1    2    0    0 -0.95535067690E+02  0.20257101427E+02  0.21432310525E+02  0.99983214847E+02  0.00000000000E+00 0. -1.
</event>
<event>
 7    1  0.1538147E-010  0.8109537E+02  0.7561462E-02  0.1325971E+00
         -1   -1    0    0    0  501 -0.00000000000E+00  0.00000000000E+00  0.17064479654E+03  0.17064479654E+03  0.00000000000E+00 0.  1.
          1   -1    0    0  501    0  0.00000000000E+00 -0.00000000000E+00 -0.72226314704E+02  0.72226314704E+02  0.00000000000E+00 0. -1.
         25    2    1    2    0    0  0.12729952787E+02 -0.19200648076E+02  0.38333894188E+02  0.13287918791E+03  0.12512663406E+03 0.  0.
          5    1    3    3  502    0 -0.81971707358E+01  0.32062495007E+02  0.63643679755E+02  0.71855323859E+02  0.41800000000E+01 0.  1.
         -5    1    3    3    0  502  0.20927123522E+02 -0.51263143084E+02 -0.25309785567E+02  0.61023864047E+02  0.41800000000E+01 0.  1.
        -11    1    1    2    0    0  0.17773659898E+02 -0.17934123318E+02 -0.81505478612E+01  0.26532380138E+02  0.00000000000E+00 0. -1.
         11    1    1    2    0    0 -0.30503612685E+02  0.37134771395E+02  0.68235135510E+02  0.83459543202E+02  0.00000000000E+00 0.  1.
</event>
<event>
 7    1  0.1538147E-010  0.1102414E+03  0.7561462E-02  0.1260124E+00
          1   -1    0    0  501    0  0.00000000000E+00  0.00000000000E+00  0.60708484125E+03  0.60708484125E+03  0.00000000000E+00 0. -1.
         -1   -1    0    0    0  501 -0.00000000000E+00 -0.00000000000E+00 -0.27338442227E+02  0.27338442227E+02  0.00000000000E+00 0.  1.
         25    2    1    2    0    0 -0.65044511629E+02  0.20677432491E+02  0.28858356880E+03  0.32186069940E+03  0.12512189628E+03 0.  0.
          5    1    3    3  502    0  0.29173600007E+02  0.11779854914E+01  0.15140922154E+03  0.15425534465E+03  0.41800000000E+01 0.  1.
         -5    1    3    3    0  502 -0.94218111636E+02  0.19499446999E+02  0.13717434727E+03  0.16760535475E+03  0.41800000000E+01 0.  1.
        -11    1    1    2    0    0 -0.12989739142E+02 -0.89429704166E+01  0.63176964174E+01  0.16988917884E+02  0.00000000000E+00 0.  1.
         11    1    1    2    0    0  0.78034250772E+02 -0.11734462074E+02  0.28484513381E+03  0.29557366619E+03  0.00000000000E+00 0. -1.
</event>
<event>
 7    1  0.1538147E-010  0.1219456E+03  0.7561462E-02  0.1239921E+00
         -1   -1    0    0    0  501 -0.00000000000E+00  0.00000000000E+00  0.10286296583E+03  0.10286296583E+03  0.00000000000E+00 0.  1.
          1   -1    0    0  501    0  0.00000000000E+00 -0.00000000000E+00 -0.23968680074E+03  0.23968680074E+03  0.00000000000E+00 0. -1.
         25    2    1    2    0    0  0.42627049814E+02 -0.90159725572E+02 -0.27262766114E+02  0.16226773160E+03  0.12506684937E+03 0.  0.
          5    1    3    3  502    0  0.42595520188E+02 -0.83959062479E+02  0.34274173556E+02  0.10027808278E+03  0.41800000000E+01 0.  1.
         -5    1    3    3    0  502  0.31529626443E-01 -0.62006630925E+01 -0.61536939670E+02  0.61989648820E+02  0.41800000000E+01 0.  1.
        -11    1    1    2    0    0 -0.70723366565E+02  0.32087024203E+02 -0.70350954002E+02  0.10478849378E+03  0.00000000000E+00 0. -1.
         11    1    1    2    0    0  0.28096316751E+02  0.58072701369E+02 -0.39210114791E+02  0.75493541188E+02  0.00000000000E+00 0.  1.
</event>
<event>
 7    1  0.1538147E-010  0.1152925E+03  0.7561462E-02  0.1251071E+00
          2   -1    0    0  501    0  0.00000000000E+00  0.00000000000E+00  0.25362846794E+03  0.25362846794E+03  0.00000000000E+00 0. -1.
         -2   -1    0    0    0  501 -0.00000000000E+00 -0.00000000000E+00 -0.79631869968E+02  0.79631869968E+02  0.00000000000E+00 0.  1.
         25    2    1    2    0    0 -0.28190078674E+02  0.76758242117E+02  0.43767632802E+02  0.15570465169E+03  0.12506728032E+03 0.  0.
          5    1    3    3  502    0 -0.72944114898E+02  0.70902188534E+02  0.42591680973E+02  0.11036071731E+03  0.41800000000E+01 0. -1.
         -5    1    3    3    0  502  0.44754036224E+02  0.58560535828E+01  0.11759518295E+01  0.45343934375E+02  0.41800000000E+01 0. -1.
        -11    1    1    2    0    0  0.26326708189E+02 -0.48997798330E+02  0.13789946571E+03  0.14869479630E+03  0.00000000000E+00 0. -1.
         11    1    1    2    0    0  0.18633704852E+01 -0.27760443787E+02 -0.76705005329E+01  0.28860889924E+02  0.00000000000E+00 0.  1.
</event>
<event>
 6    1  0.1538147E-010  0.9240029E+02  0.7561462E-02  0.1297141E+00
          2   -1    0    0  501    0  0.00000000000E+00  0.00000000000E+00  0.60156993878E+02  0.60156993878E+02  0.00000000000E+00 0. -1.
         -2   -1    0    0    0  501 -0.00000000000E+00 -0.00000000000E+00 -0.26197622994E+03  0.26197622994E+03  0.00000000000E+00 0.  1.
          5    1    1    2  502    0 -0.66243733749E+02 -0.18436842450E+02 -0.16118415542E+03  0.17528820205E+03  0.41800000000E+01 0. -1.
         -5    1    1    2    0  502  0.37067107502E+02  0.25950491599E+02 -0.27731881122E+02  0.53234651341E+02  0.41800000000E+01 0. -1.
        -11    1    1    2    0    0  0.23019479602E+02  0.26960906103E+02 -0.36890017481E+02  0.51163075443E+02  0.00000000000E+00 0.  1.
         11    1    1    2    0    0  0.61571466453E+01 -0.34474555252E+02  0.23986817966E+02  0.42447294976E+02  0.00000000000E+00 0. -1.
</event>
<event>
 6    1  0.1538147E-010  0.2158250E+03  0.7561462E-02  0.1137035E+00
          3   -1    0    0  501    0  0.00000000000E+00  0.00000000000E+00  0.10157344315E+03  0.10157344315E+03  0.00000000000E+00 0. -1.
         -3   -1    0    0    0  501 -0.00000000000E+00 -0.00000000000E+00 -0.50600061965E+03  0.50600061965E+03  0.00000000000E+00 0.  1.
          5    1    1    2  502    0  0.19162925427E+03  0.47694269004E+02 -0.15342157881E+03  0.25010431350E+03  0.41800000000E+01 0. -1.
         -5    1    1    2    0  502  0.47001376413E-01 -0.22552159496E+02  0.54479163262E+01  0.23574441655E+02  0.41800000000E+01 0. -1.
        -11    1    1    2    0    0 -0.50341044540E+02  0.30995650180E+02 -0.49686945401E+02  0.77225278496E+02  0.00000000000E+00 0. -1.
         11    1    1    2    0    0 -0.14133521111E+03 -0.56137759688E+02 -0.20676656862E+03  0.25667002915E+03  0.00000000000E+00 0.  1.
</event>
<event>
 7    1  0.1538147E-010  0.1660418E+03  0.7561462E-02  0.1182040E+00
         -2   -1    0    0    0  501 -0.00000000000E+00  0.00000000000E+00  0.32618233138E+03  0.32618233138E+03  0.00000000000E+00 0.  1.
          2   -1    0    0  501    0  0.00000000000E+00 -0.00000000000E+00 -0.13956986178E+03  0.13956986178E+03  0.00000000000E+00 0. -1.
         25    2    1    2    0    0  0.11709623379E+03  0.82587544433E+02  0.22239583399E+03  0.29262817015E+03  0.12505642137E+03 0.  0.
          5    1    3    3  502    0 -0.11357421074E+02  0.39333759617E+02  0.12999720279E+02  0.43157858918E+02  0.41800000000E+01 0. -1.
         -5    1    3    3    0  502  0.12845365486E+03  0.43253784816E+02  0.20939611371E+03  0.24947031123E+03  0.41800000000E+01 0. -1.
        -11    1    1    2    0    0 -0.11770509867E+03 -0.58881436169E+02 -0.54960787357E+02  0.14262609132E+03  0.00000000000E+00 0.  1.
         11    1    1    2    0    0  0.60886488354E+00 -0.23706108264E+02  0.19177422971E+02  0.30497931688E+02  0.00000000000E+00 0. -1.
</event>
<event>
 7    1  0.1538147E-010  0.9862776E+02  0.7561462E-02  0.1283208E+00
         -1   -1    0    0    0  501 -0.00000000000E+00  0.00000000000E+00  0.48587857208E+03  0.48587857208E+03  0.00000000000E+00 0.  1.
          1   -1    0    0  501    0  0.00000000000E+00 -0.00000000000E+00 -0.25399807146E+02  0.25399807146E+02  0.00000000000E+00 0. -1.
         25    2    1    2    0    0 -0.54158811870E+00  0.17236779126E+02  0.30490905689E+03  0.33003315046E+03  0.12511973289E+03 0.  0.
          5    1    3    3  502    0  0.50664258597E+02  0.44780511742E+02  0.15324852780E+03  0.16755519987E+03  0.41800000000E+01 0. -1.
         -5    1    3    3    0  502 -0.51205846716E+02 -0.27543732617E+02  0.15166052909E+03  0.16247795060E+03  0.41800000000E+01 0. -1.
        -11    1    1    2    0    0  0.33136817933E+02 -0.19659393432E+02  0.23366363370E+02  0.45061373592E+02  0.00000000000E+00 0. -1.
         11    1    1    2    0    0 -0.32595229814E+02  0.24226143061E+01  0.13220334468E+03  0.13618385518E+03  0.00000000000E+00 0.  1.
</event>
<event>
 7    1  0.1538147E-010  0.1009637E+03  0.7561462E-02  0.1278282E+00
         -4   -1    0    0    0  501 -0.00000000000E+00  0.00000000000E+00  0.45782314511E+03  0.45782314511E+03  0.00000000000E+00 0. -1.
          4   -1    0    0  501    0  0.00000000000E+00 -0.00000000000E+00 -0.46678271904E+02  0.46678271904E+02  0.00000000000E+00 0.  1.
         25    2    1    2    0    0 -0.47127947681E+02 -0.73297186902E+02  0.29876082042E+03  0.33539081504E+03  0.12504179273E+03 0.  0.
          5    1    3    3  502    0 -0.10792932245E+02 -0.77492948407E+01  0.23910517904E+03  0.23951053839E+03  0.41800000000E+01 0.  1.
         -5    1    3    3    0  502 -0.36335015436E+02 -0.65547892061E+02  0.59655641387E+02  0.95880276646E+02  0.41800000000E+01 0.  1.
        -11    1    1    2    0    0  0.27756722352E+02 -0.83800807102E+01  0.68511363885E+02  0.74394007621E+02  0.00000000000E+00 0. -1.
         11    1    1    2    0    0  0.19371225328E+02  0.81677267612E+02  0.43872688891E+02  0.94716594353E+02  0.00000000000E+00 0.  1.
</event>
<event>
 7    1  0.1538147E-010  0.7552797E+02  0.7561462E-02  0.1342244E+00
         -2   -1    0    0    0  501 -0.00000000000E+00  0.00000000000E+00  0.26247283915E+02  0.26247283915E+02  0.00000000000E+00 0. -1.
          2   -1    0    0  501    0  0.00000000000E+00 -0.00000000000E+00 -0.63721727993E+03  0.63721727993E+03  0.00000000000E+00 0.  1.
         25    2    1    2    0    0 -0.48986438539E+02 -0.32813429341E+02 -0.53614315827E+03  0.55369602807E+03  0.12511360050E+03 0.  0.
          5    1    3    3  502    0 -0.17853254686E+02  0.20416135377E+02 -0.20226269844E+02  0.34090052485E+02  0.41800000000E+01 0.  1.
         -5    1    3    3    0  502 -0.31133183854E+02 -0.53229564718E+02 -0.51591688842E+03  0.51960597558E+03  0.41800000000E+01 0.  1.
        -11    1    1    2    0    0  0.17332577763E+02  0.16888024162E+01  0.52680036691E+01  0.18194014625E+02  0.00000000000E+00 0. -1.
         11    1    1    2    0    0  0.31653860776E+02  0.31124626925E+02 -0.80094841414E+02  0.91574521153E+02  0.00000000000E+00 0.  1.
</event>
<event>
 6    1  0.1538147E-010  0.1155823E+03  0.7561462E-02  0.1250568E+00
         -1   -1    0    0    0  501 -0.00000000000E+00  0.00000000000E+00  0.98750731063E+02  0.98750731063E+02  0.00000000000E+00 0.  1.
          1   -1    0    0  501    0  0.00000000000E+00 -0.00000000000E+00 -0.19386187112E+03  0.19386187112E+03  0.00000000000E+00 0. -1.
          5    1    1    2  502    0  0.55465714727E+02  0.54230997476E+01 -0.51754447234E+02  0.76169880724E+02  0.41800000000E+01 0.  1.
         -5    1    1    2    0  502 -0.55073939313E+01 -0.60900703270E+02  0.34904811067E+02  0.70534000895E+02  0.41800000000E+01 0.  1.
        -11    1    1    2    0    0 -0.59091702966E+02  0.73184182223E+02 -0.38893422787E+02  0.10178630666E+03  0.00000000000E+00 0.  1.
         11    1    1    2    0    0  0.91333821711E+01 -0.17706578701E+02 -0.39368081106E+02  0.44122413909E+02  0.00000000000E+00 0. -1.
</event>
<event>
 7    1  0.1538147E-010  0.1568876E+03  0.7561462E-02  0.1192256E+00
          1   -1    0    0  501    0  0.00000000000E+00  0.00000000000E+00  0.23209733420E+03  0.23209733420E+03  0.00000000000E+00 0. -1.
         -1   -1    0    0    0  501 -0.00000000000E+00 -0.00000000000E+00 -0.14728620470E+03  0.14728620470E+03  0.00000000000E+00 0.  1.
         25    2    1    2    0    0  0.11206550484E+03  0.69201757290E+02  0.46638731673E+02  0.18751246018E+03  0.12505275224E+03 0.  0.
          5    1    3    3  502    0  0.84758895706E+02  0.14849798525E+02  0.80382759997E+02  0.11782804175E+03  0.41800000000E+01 0. -1.
         -5    1    3    3    0  502  0.27306609132E+02  0.54351958765E+02 -0.33744028325E+02  0.69684418427E+02  0.41800000000E+01 0. -1.
        -11    1    1    2    0    0 -0.75576586049E+02  0.13029064668E+02 -0.26427201575E+02  0.81117038088E+02  0.00000000000E+00 0.  1.
         11    1    1    2    0    0 -0.36488918789E+02 -0.82230821959E+02  0.64599599406E+02  0.11075404064E+03  0.00000000000E+00 0. -1.
</event>
<event>
 7    1  0.1538147E-010  0.1148972E+03  0.7561462E-02  0.1251761E+00
         -2   -1    0    0    0  501 -0.00000000000E+00  0.00000000000E+00  0.75700105822E+02  0.75700105822E+02  0.00000000000E+00 0.  1.
          2   -1    0    0  501    0  0.00000000000E+00 -0.00000000000E+00 -0.21516334942E+03  0.21516334942E+03  0.00000000000E+00 0. -1.
         25    2    1    2    0    0 -0.38855082230E+02  0.44816363441E+02 -0.40389696428E+02  0.14418411468E+03  0.12505801654E+03 0.  0.
          5    1    3    3  502    0 -0.66187747892E+02  0.73201557076E+02 -0.29549696843E+02  0.10310161450E+03  0.41800000000E+01 0. -1.
         -5    1    3    3    0  502  0.27332665663E+02 -0.28385193634E+02 -0.10839999585E+02  0.41082500178E+02  0.41800000000E+01 0. -1.
        -11    1    1    2    0    0  0.15905993322E+02 -0.61174853814E+02 -0.25978138598E+02  0.68339059460E+02  0.00000000000E+00 0.  1.
         11    1    1    2    0    0  0.22949088908E+02  0.16358490373E+02 -0.73095408571E+02  0.78340281102E+02  0.00000000000E+00 0. -1.
</event>
<event>
 6    1  0.1538147E-010  0.8420332E+02  0.7561462E-02  0.1317529E+00
         -2   -1    0    0    0  501 -0.00000000000E+00  0.00000000000E+00  0.14753824164E+03  0.14753824164E+03  0.00000000000E+00 0. -1.
          2   -1    0    0  501    0  0.00000000000E+00 -0.00000000000E+00 -0.14259352478E+03  0.14259352478E+03  0.00000000000E+00 0.  1.
          5    1    1    2  502    0 -0.61610771411E+02 -0.18864700448E+02 -0.96734271810E+02  0.11630458211E+03  0.41800000000E+01 0. -1.
         -5    1    1    2    0  502  0.19396868877E+02 -0.24403206438E+02  0.24945732235E+02  0.40143703907E+02  0.41800000000E+01 0. -1.
        -11    1    1    2    0    0  0.27394685208E+01  0.30896021868E+02  0.85886002360E+02  0.91315246572E+02  0.00000000000E+00 0.  1.
         11    1    1    2    0    0  0.39474434014E+02  0.12371885018E+02 -0.91527459241E+01  0.42368233826E+02  0.00000000000E+00 0. -1.
</event>
<event>
 7    1  0.1538147E-010  0.1250716E+03  0.7561462E-02  0.1234957E+00
         -1   -1    0    0    0  501 -0.00000000000E+00  0.00000000000E+00  0.31053679124E+02  0.31053679124E+02  0.00000000000E+00 0.  1.
          1   -1    0    0  501    0  0.00000000000E+00 -0.00000000000E+00 -0.68041906055E+03  0.68041906055E+03  0.00000000000E+00 0. -1.
         25    2    1    2    0    0  0.30870266572E+02 -0.65085825681E+02 -0.18923445425E+03  0.23799255801E+03  0.12506654601E+03 0.  0.
          5    1    3    3  502    0  0.67694994220E+02  0.15241105086E+01 -0.81981210035E+02  0.10641111950E+03  0.41800000000E+01 0. -1.
         -5    1    3    3    0  502 -0.36824727649E+02 -0.66609936189E+02 -0.10725324421E+03  0.13158143851E+03  0.41800000000E+01 0. -1.
        -11    1    1    2    0    0  0.25807345495E+02  0.29306367228E+02 -0.10384532771E+03  0.11094473547E+03  0.00000000000E+00 0.  1.
         11    1    1    2    0    0 -0.56677612066E+02  0.35779458453E+02 -0.35628559946E+03  0.36253544619E+03  0.00000000000E+00 0. -1.
</event>
<event>
 7    1  0.1538147E-010  0.7801984E+02  0.7561462E-02  0.1334767E+00
          1   -1    0    0  501    0  0.00000000000E+00  0.00000000000E+00  0.93993861669E+03  0.93993861669E+03  0.00000000000E+00 0. -1.
         -1   -1    0    0    0  501 -0.00000000000E+00 -0.00000000000E+00 -0.13470734222E+02  0.13470734222E+02  0.00000000000E+00 0.  1.
         25    2    1    2    0    0  0.17400138925E+01 -0.32674692807E+02  0.63566930312E+03  0.64867705781E+03  0.12504318935E+03 0.  0.
          5    1    3    3  502    0  0.50870177586E+01  0.25299480509E+02  0.50438630949E+03  0.50506332579E+03  0.41800000000E+01 0.  1.
         -5    1    3    3    0  502 -0.33470038661E+01 -0.57974173316E+02  0.13128299363E+03  0.14361373202E+03  0.41800000000E+01 0.  1.
        -11    1    1    2    0    0 -0.17437925126E+02 -0.14044615064E+02  0.21780044489E+02  0.31236241498E+02  0.00000000000E+00 0.  1.
         11    1    1    2    0    0  0.15697911234E+02  0.46719307870E+02  0.26901853486E+03  0.27349605160E+03  0.00000000000E+00 0. -1.
</event>
<event>
 6    1  0.1538147E-010  0.1108563E+03  0.7561462E-02  0.1258992E+00
         -2   -1    0    0    0  501 -0.00000000000E+00  0.00000000000E+00  0.53076714790E+02  0.53076714790E+02  0.00000000000E+00 0.  1.
          2   -1    0    0  501    0  0.00000000000E+00 -0.00000000000E+00 -0.32858579824E+03  0.32858579824E+03  0.00000000000E+00 0. -1.
          5    1    1    2  502    0  0.28217503309E+02 -0.40833884377E+02 -0.15647823215E+02  0.52210730484E+02  0.41800000000E+01 0.  1.
         -5    1    1    2    0  502  0.39557100150E+02  0.64908628493E+02 -0.14727760527E+03  0.16578920242E+03  0.41800000000E+01 0.  1.
        -11    1    1    2    0    0 -0.24558157372E+02 -0.42268195979E+02 -0.10545418581E+03  0.11623376785E+03  0.00000000000E+00 0. -1.
         11    1    1    2    0    0 -0.43216446087E+02  0.18193451864E+02 -0.71294691568E+01  0.47428812272E+02  0.00000000000E+00 0.  1.
</event>
<event>
 7    1  0.1538147E-010  0.1313292E+03  0.7561462E-02  0.1225497E+00
          2   -1    0    0  501    0  0.00000000000E+00  0.00000000000E+00  0.66857233689E+03  0.66857233689E+03  0.00000000000E+00 0. -1.
         -2   -1    0    0    0  501 -0.00000000000E+00 -0.00000000000E+00 -0.31264753970E+02  0.31264753970E+02  0.00000000000E+00 0.  1.
         25    2    1    2    0    0  0.66859974232E+02 -0.61773844249E+02  0.41261474084E+03  0.44067495013E+03  0.12512882691E+03 0.  0.
          5    1    3    3  502    0 -0.52837849338E+01  0.28767780690E+02  0.16079458156E+03  0.16348661550E+03  0.41800000000E+01 0. -1.
         -5    1    3    3    0  502  0.72143759166E+02 -0.90541624938E+02  0.25182015928E+03  0.27718833462E+03  0.41800000000E+01 0. -1.
        -11    1    1    2    0    0 -0.80813197829E+02  0.64066281696E+02  0.14330324727E+03  0.17655334058E+03  0.00000000000E+00 0.  1.
         11    1    1    2    0    0  0.13953223597E+02 -0.22924374472E+01  0.81389594814E+02  0.82608800150E+02  0.00000000000E+00 0. -1.
</event>
<event>
 7    1  0.1538147E-010  0.1454397E+03  0.7561462E-02  0.1206191E+00
          1   -1    0    0  501    0  0.00000000000E+00  0.00000000000E+00  0.69032664647E+03  0.69032664647E+03  0.00000000000E+00 0. -1.
         -1   -1    0    0    0  501 -0.00000000000E+00 -0.00000000000E+00 -0.32774982083E+02  0.32774982083E+02  0.00000000000E+00 0.  1.
         25    2    1    2    0    0  0.65312363205E+02 -0.73321236944E+02  0.44078824200E+03  0.46860707563E+03  0.12512637000E+03 0.  0.
          5    1    3    3  502    0 -0.35744816336E+02 -0.36349907490E+02  0.13080228111E+03  0.14044827095E+03  0.41800000000E+01 0.  1.
         -5    1    3    3    0  502  0.10105717954E+03 -0.36971329454E+02  0.30998596089E+03  0.32815880468E+03  0.41800000000E+01 0.  1.
        -11    1    1    2    0    0 -0.85362482054E+02  0.42723443040E+02  0.17171122877E+03  0.19646066276E+03  0.00000000000E+00 0. -1.
         11    1    1    2    0    0  0.20050118849E+02  0.30597793904E+02  0.45052193623E+02  0.58033890167E+02  0.00000000000E+00 0.  1.
</event>
<event>
 7    1  0.1538147E-010  0.6718844E+02  0.7561462E-02  0.1369924E+00
         -3   -1    0    0    0  501 -0.00000000000E+00  0.00000000000E+00  0.24135755740E+03  0.24135755740E+03  0.00000000000E+00 0.  1.
          3   -1    0    0  501    0  0.00000000000E+00 -0.00000000000E+00 -0.66764377599E+02  0.66764377599E+02  0.00000000000E+00 0. -1.
         25    2    1    2    0    0 -0.76703317290E+01 -0.42486456214E+02  0.15691213056E+03  0.20529174436E+03  0.12513732711E+03 0.  0.
          5    1    3    3  502    0  0.19846346135E+02 -0.29408661626E+02 -0.87658818094E+01  0.36783962775E+02  0.41800000000E+01 0.  1.
         -5    1    3    3    0  502 -0.27516677864E+02 -0.13077794587E+02  0.16567801237E+03  0.16850778158E+03  0.41800000000E+01 0.  1.
        -11    1    1    2    0    0  0.26156462866E+02  0.57581725303E+01  0.45772382381E+02  0.53032330605E+02  0.00000000000E+00 0.  1.
         11    1    1    2    0    0 -0.18486131137E+02  0.36728283683E+02 -0.28091333138E+02  0.49797860036E+02  0.00000000000E+00 0. -1.
</event>
<event>
 7    1  0.1538147E-010  0.1014776E+03  0.7561462E-02  0.1277219E+00
         -2   -1    0    0    0  501 -0.00000000000E+00  0.00000000000E+00  0.73959346466E+02  0.73959346466E+02  0.00000000000E+00 0.  1.
          2   -1    0    0  501    0  0.00000000000E+00 -0.00000000000E+00 -0.20291754034E+03  0.20291754034E+03  0.00000000000E+00 0. -1.
         25    2    1    2    0    0  0.33446534090E+02  0.35094762656E+02 -0.11846680446E+03  0.17895276974E+03  0.12505757486E+03 0.  0.
          5    1    3    3  502    0 -0.36217307206E+02 -0.15174842216E+02 -0.10398801112E+02  0.40835972403E+02  0.41800000000E+01 0.  1.
         -5    1    3    3    0  502  0.69663841296E+02  0.50269604872E+02 -0.10806800335E+03  0.13811679734E+03  0.41800000000E+01 0.  1.
        -11    1    1    2    0    0  0.17774736530E+02 -0.77187747585E+01  0.23633636081E+02  0.30562550562E+02  0.00000000000E+00 0.  1.
         11    1    1    2    0    0 -0.51221270619E+02 -0.27375987897E+02 -0.34125025491E+02  0.67361566505E+02  0.00000000000E+00 0. -1.
</event>
<event>
 6    1  0.1538147E-010  0.1086944E+03  0.7561462E-02  0.1263007E+00
          2   -1    0    0  501    0  0.00000000000E+00  0.00000000000E+00  0.16564367380E+04  0.16564367380E+04  0.00000000000E+00 0. -1.
         -2   -1    0    0    0  501 -0.00000000000E+00 -0.00000000000E+00 -0.33367253822E+02  0.33367253822E+02  0.00000000000E+00 0.  1.
          5    1    1    2  502    0  0.62057296294E+02 -0.26073271109E+02  0.64818885545E+03  0.65168795310E+03  0.41800000000E+01 0. -1.
         -5    1    1    2    0  502 -0.37645748905E+02  0.42083089957E+02  0.93256562036E+03  0.93428277172E+03  0.41800000000E+01 0. -1.
        -11    1    1    2    0    0 -0.61707764534E+01 -0.52326026751E+02  0.32901001145E+02  0.62117368215E+02  0.00000000000E+00 0. -1.
         11    1    1    2    0    0 -0.18240770936E+02  0.36316207903E+02  0.94140072557E+01  0.41715898809E+02  0.00000000000E+00 0.  1.
</event>
<event>
 7    1  0.1538147E-010  0.3382195E+03  0.7561462E-02  0.1067557E+00
          2   -1    0    0  501    0  0.00000000000E+00  0.00000000000E+00  0.20377541264E+04  0.20377541264E+04  0.00000000000E+00 0. -1.
         -2   -1    0    0    0  501 -0.00000000000E+00 -0.00000000000E+00 -0.71452907951E+02  0.71452907951E+02  0.00000000000E+00 0.  1.
         25    2    1    2    0    0  0.32859236502E+03  0.10244843887E+02  0.14360769696E+04  0.14785253700E+04  0.12506921339E+03 0.  0.
          5    1    3    3  502    0  0.15389324946E+03 -0.35930327762E+02  0.87147395511E+03  0.88569658886E+03  0.41800000000E+01 0.  1.
         -5    1    3    3    0  502  0.17469911556E+03  0.46175171649E+02  0.56460301444E+03  0.59282878116E+03  0.41800000000E+01 0.  1.
        -11    1    1    2    0    0 -0.17408287976E+03 -0.43767847731E+02  0.32892559348E+03  0.37471658566E+03  0.00000000000E+00 0. -1.
         11    1    1    2    0    0 -0.15450948527E+03  0.33523003844E+02  0.20129865538E+03  0.25596507863E+03  0.00000000000E+00 0.  1.
</event>
<event>
 7    1  0.1538147E-010  0.1280667E+03  0.7561462E-02  0.1230353E+00
          1   -1    0    0  501    0  0.00000000000E+00  0.00000000000E+00  0.26570539400E+03  0.26570539400E+03  0.00000000000E+00 0. -1.
         -1   -1    0    0    0  501 -0.00000000000E+00 -0.00000000000E+00 -0.66695847581E+02  0.66695847581E+02  0.00000000000E+00 0.  1.
         25    2    1    2    0    0  0.56442594398E+01 -0.76134619297E+02  0.10911778444E+03  0.18268974198E+03  0.12506203671E+03 0.  0.
          5    1    3    3  502    0 -0.19726478557E+02  0.29713562959E+02  0.15702632961E+02  0.39192790943E+02  0.41800000000E+01 0.  1.
         -5    1    3    3    0  502  0.25370737997E+02 -0.10584818226E+03  0.93415151475E+02  0.14349695104E+03  0.41800000000E+01 0.  1.
        -11    1    1    2    0    0  0.22434726880E+02 -0.70380117330E+01 -0.75557090651E+00  0.23524911620E+02  0.00000000000E+00 0.  1.
         11    1    1    2    0    0 -0.28078986320E+02  0.83172631030E+02  0.90647332893E+02  0.12618658798E+03  0.00000000000E+00 0. -1.
</event>
<event>
 7    1  0.1538147E-010  0.1294350E+03  0.7561462E-02  0.1228296E+00
         -1   -1    0    0    0  501 -0.00000000000E+00  0.00000000000E+00  0.23801681175E+03  0.23801681175E+03  0.00000000000E+00 0.  1.
          1   -1    0    0  501    0  0.00000000000E+00 -0.00000000000E+00 -0.92948488258E+02  0.92948488258E+02  0.00000000000E+00 0. -1.
         25    2    1    2    0    0 -0.90707736160E+02  0.19356995578E+02  0.12376644895E+03  0.19893148818E+03  0.12511201552E+03 0.  0.
          5    1    3    3  502    0  0.21326889576E+02 -0.21285020477E+02  0.53745453378E+01  0.30890879775E+02  0.41800000000E+01 0. -1.
         -5    1    3    3    0  502 -0.11203462574E+03  0.40642016055E+02  0.11839190361E+03  0.16804060841E+03  0.41800000000E+01 0. -1.
        -11    1    1    2    0    0  0.46351093684E+01 -0.22594422706E+02  0.37851078042E+02  0.44324894645E+02  0.00000000000E+00 0.  1.
         11    1    1    2    0    0  0.86072626792E+02  0.32374271287E+01 -0.16549203498E+02  0.87708917184E+02  0.00000000000E+00 0. -1.
</event>
<event>
 7    1  0.1538147E-010  0.1424263E+03  0.7561462E-02  0.1210101E+00
         -2   -1    0    0    0  501 -0.00000000000E+00  0.00000000000E+00  0.21396861183E+02  0.21396861183E+02  0.00000000000E+00 0.  1.
          2   -1    0    0  501    0  0.00000000000E+00 -0.00000000000E+00 -0.12897449725E+04  0.12897449725E+04  0.00000000000E+00 0. -1.
         25    2    1    2    0    0  0.12377548046E+03  0.28619138651E+02 -0.68052048162E+03  0.70349766276E+03  0.12514555899E+03 0.  0.
          5    1    3    3  502    0  0.10550285299E+03 -0.50419287272E+01 -0.25232093221E+03  0.27356826984E+03  0.41800000000E+01 0.  1.
         -5    1    3    3    0  502  0.18272627473E+02  0.33661067379E+02 -0.42819954942E+03  0.42992939292E+03  0.41800000000E+01 0.  1.
        -11    1    1    2    0    0 -0.23327744079E+01 -0.18619053852E+02 -0.22332366672E+02  0.29169257858E+02  0.00000000000E+00 0.  1.
         11    1    1    2    0    0 -0.12144270605E+03 -0.10000084799E+02 -0.56549526302E+03  0.57847491307E+03  0.00000000000E+00 0. -1.
</event>
<event>
 6    1  0.1538147E-010  0.1796317E+03  0.7561462E-02  0.1168160E+00
         -4   -1    0    0    0  501 -0.00000000000E+00  0.00000000000E+00  0.60642983748E+03  0.60642983748E+03  0.00000000000E+00 0.  1.
          4   -1    0    0  501    0  0.00000000000E+00 -0.00000000000E+00 -0.84497229983E+02  0.84497229983E+02  0.00000000000E+00 0. -1.
          5    1    1    2  502    0 -0.41718839919E+02 -0.14675679204E+02  0.13802616483E+02  0.46516897855E+02  0.41800000000E+01 0.  1.
         -5    1    1    2    0  502 -0.12694164448E+03 -0.41221217211E+02  0.38997412244E+03  0.41220220575E+03  0.41800000000E+01 0.  1.
        -11    1    1    2    0    0  0.11249733517E+03  0.54801924928E+02  0.12345585675E+03  0.17578466930E+03  0.00000000000E+00 0.  1.
         11    1    1    2    0    0  0.56163149233E+02  0.10949714866E+01 -0.52999881733E+01  0.56423294560E+02  0.00000000000E+00 0. -1.
</event>
<event>
 7    1  0.1538147E-010  0.2789726E+03  0.7561462E-02  0.1096251E+00
          2   -1    0    0  501    0  0.00000000000E+00  0.00000000000E+00  0.20712417473E+04  0.20712417473E+04  0.00000000000E+00 0. -1.
         -2   -1    0    0    0  501 -0.00000000000E+00 -0.00000000000E+00 -0.41294376953E+02  0.41294376953E+02  0.00000000000E+00 0.  1.
         25    2    1    2    0    0 -0.26458950173E+03  0.45652893888E+02  0.89579072454E+03  0.94348902380E+03  0.12505488684E+03 0.  0.
          5    1    3    3  502    0 -0.61087229483E+02 -0.18874935978E+02  0.37810183197E+03  0.38349234745E+03  0.41800000000E+01 0. -1.
         -5    1    3    3    0  502 -0.20350227225E+03  0.64527829867E+02  0.51768889257E+03  0.55999667636E+03  0.41800000000E+01 0. -1.
        -11    1    1    2    0    0  0.15124403924E+03  0.14654932056E+02  0.52730246996E+03  0.54875989400E+03  0.00000000000E+00 0. -1.
         11    1    1    2    0    0  0.11334546250E+03 -0.60307825944E+02  0.60685417588E+03  0.62028720648E+03  0.00000000000E+00 0.  1.
</event>
<event>
 7    1  0.1538147E-010  0.2018520E+03  0.7561462E-02  0.1148186E+00
          1   -1    0    0  501    0  0.00000000000E+00  0.00000000000E+00  0.38276717180E+03  0.38276717180E+03  0.00000000000E+00 0. -1.
         -1   -1    0    0    0  501 -0.00000000000E+00 -0.00000000000E+00 -0.15347168199E+03  0.15347168199E+03  0.00000000000E+00 0.  1.
         25    2    1    2    0    0 -0.18386174167E+03 -0.49285797267E+02  0.23273048409E+03  0.32563728354E+03  0.12506771105E+03 0.  0.
          5    1    3    3  502    0 -0.16945529851E+03 -0.69750562042E+02  0.14326318681E+03  0.23264146706E+03  0.41800000000E+01 0.  1.
         -5    1    3    3    0  502 -0.14406443155E+02  0.20464764775E+02  0.89467297278E+02  0.92995816486E+02  0.41800000000E+01 0.  1.
        -11    1    1    2    0    0  0.19940246350E+02  0.20509873360E+02  0.29340090875E+02  0.40976935736E+02  0.00000000000E+00 0. -1.
         11    1    1    2    0    0  0.16392149532E+03  0.28775923907E+02 -0.32775085158E+02  0.16962463451E+03  0.00000000000E+00 0.  1.
</event>
<event>
 6    1  0.1538147E-010  0.1487963E+03  0.7561462E-02  0.1201960E+00
          1   -1    0    0  501    0  0.00000000000E+00  0.00000000000E+00  0.57918864396E+02  0.57918864396E+02  0.00000000000E+00 0. -1.
         -1   -1    0    0    0  501 -0.00000000000E+00 -0.00000000000E+00 -0.48924534508E+03  0.48924534508E+03  0.00000000000E+00 0.  1.
          5    1    1    2  502    0 -0.21196938927E+02 -0.17659527245E+02 -0.79290448983E+02  0.84057223498E+02  0.41800000000E+01 0.  1.
         -5    1    1    2    0  502  0.10975142500E+03  0.80986085241E+02 -0.26167246754E+03  0.29511705129E+03  0.41800000000E+01 0.  1.
        -11    1    1    2    0    0  0.13360689671E+02 -0.23252661298E+00 -0.31986175763E+02  0.34665220857E+02  0.00000000000E+00 0.  1.
         11    1    1    2    0    0 -0.10191517574E+03 -0.63094031383E+02 -0.58377388402E+02  0.13332471384E+03  0.00000000000E+00 0. -1.
</event>
<event>
 7    1  0.1538147E-010  0.9934855E+02  0.7561462E-02  0.1281672E+00
          2   -1    0    0  501    0  0.00000000000E+00  0.00000000000E+00  0.76511572829E+02  0.76511572829E+02  0.00000000000E+00 0. -1.
         -2   -1    0    0    0  501 -0.00000000000E+00 -0.00000000000E+00 -0.20675644359E+03  0.20675644359E+03  0.00000000000E+00 0.  1.
         25    2    1    2    0    0 -0.33501513049E+02 -0.54251428660E+02 -0.76475545953E+02  0.15986305125E+03  0.12506844980E+03 0.  0.
          5    1    3    3  502    0  0.30803019586E+02 -0.60564767167E+02 -0.13227716280E+02  0.69349563197E+02  0.41800000000E+01 0. -1.
         -5    1    3    3    0  502 -0.64304532635E+02  0.63133385066E+01 -0.63247829672E+02  0.90513488049E+02  0.41800000000E+01 0. -1.
        -11    1    1    2    0    0  0.78443371130E+01  0.28345618770E+02 -0.75453680935E+02  0.80983119814E+02  0.00000000000E+00 0.  1.
         11    1    1    2    0    0  0.25657175936E+02  0.25905809890E+02  0.21684356126E+02  0.42421845360E+02  0.00000000000E+00 0. -1.
</event>
<event>
 6    1  0.1538147E-010  0.8601002E+02  0.7561462E-02  0.1312812E+00
         -1   -1    0    0    0  501 -0.00000000000E+00  0.00000000000E+00  0.25958152559E+02  0.25958152559E+02  0.00000000000E+00 0.  1.
          1   -1    0    0  501    0  0.00000000000E+00 -0.00000000000E+00 -0.47877844132E+03  0.47877844132E+03  0.00000000000E+00 0. -1.
          5    1    1    2  502    0 -0.21036847013E+02 -0.38107991054E+02 -0.27410440585E+03  0.27757064978E+03  0.41800000000E+01 0.  1.
         -5    1    1    2    0  502  0.29770293141E+02  0.16255991273E+02 -0.13205598111E+02  0.36638611156E+02  0.41800000000E+01 0.  1.
        -11    1    1    2    0    0  0.41403195498E+02  0.95024767862E+01 -0.81810683357E+02  0.92181937351E+02  0.00000000000E+00 0.  1.
         11    1    1    2    0    0 -0.50136641627E+02  0.12349522994E+02 -0.83699601448E+02  0.98345395593E+02  0.00000000000E+00 0. -1.
</event>
<event>
 7    1  0.1538147E-010  0.1849017E+03  0.7561462E-02  0.1163142E+00
         -2   -1    0    0    0  501 -0.00000000000E+00  0.00000000000E+00  0.68182005360E+02  0.68182005360E+02  0.00000000000E+00 0.  1.
          2   -1    0    0  501    0  0.00000000000E+00 -0.00000000000E+00 -0.67688180129E+03  0.67688180129E+03  0.00000000000E+00 0. -1.
         25    2    1    2    0    0  0.12425080593E+02  0.17334726288E+03 -0.42626184823E+03  0.47701185162E+03  0.12504993864E+03 0.  0.
          5    1    3    3  502    0 -0.16999578820E+02  0.12927209830E+03 -0.16470832056E+03  0.21011083823E+03  0.41800000000E+01 0. -1.
         -5    1    3    3    0  502  0.29424659413E+02  0.44075164586E+02 -0.26155352767E+03  0.26690101339E+03  0.41800000000E+01 0. -1.
        -11    1    1    2    0    0 -0.40132013513E+02 -0.97084105753E+02 -0.14405503898E+03  0.17829121222E+03  0.00000000000E+00 0. -1.
         11    1    1    2    0    0  0.27706932920E+02 -0.76263157132E+02 -0.38382908713E+02  0.89760742805E+02  0.00000000000E+00 0.  1.
</event>
<event>
 7    1  0.1538147E-010  0.1922286E+03  0.7561462E-02  0.1156467E+00
          2   -1    0    0  501    0  0.00000000000E+00  0.00000000000E+00  0.15398043485E+04  0.15398043485E+04  0.00000000000E+00 0. -1.
         -2   -1    0    0    0  501 -0.00000000000E+00 -0.00000000000E+00 -0.28638282369E+02  0.28638282369E+02  0.00000000000E+00 0.  1.
         25    2    1    2    0    0  0.14838964700E+03 -0.96887011393E+02  0.76349840217E+03  0.79372308795E+03  0.12513972162E+03 0.  0.
          5    1    3    3  502    0  0.66579040346E+02 -0.20262228426E+02  0.10699131031E+03  0.12770254264E+03  0.41800000000E+01 0. -1.
         -5    1    3    3    0  502  0.81810606657E+02 -0.76624782967E+02  0.65650709185E+03  0.66602054531E+03  0.41800000000E+01 0. -1.
        -11    1    1    2    0    0 -0.98493305237E+02  0.57423713036E+01  0.34087789066E+03  0.35486848598E+03  0.00000000000E+00 0.  1.
         11    1    1    2    0    0 -0.49896341766E+02  0.91144640090E+02  0.40678977327E+03  0.41985105690E+03  0.00000000000E+00 0. -1.
</event>
<event>
 7    1  0.1538147E-010  0.1495889E+03  0.7561462E-02  0.1200979E+00
         -4   -1    0    0    0  501 -0.00000000000E+00  0.00000000000E+00  0.45655836046E+02  0.45655836046E+02  0.00000000000E+00 0.  1.
          4   -1    0    0  501    0  0.00000000000E+00 -0.00000000000E+00 -0.68610031943E+03  0.68610031943E+03  0.00000000000E+00 0. -1.
         25    2    1    2    0    0 -0.12221345556E+03  0.62156510130E+02 -0.27186399791E+03  0.32915456654E+03  0.12503253515E+03 0.  0.
          5    1    3    3  502    0  0.52910657601E+01  0.64707949008E+01 -0.13024677659E+03  0.13058162878E+03  0.41800000000E+01 0.  1.
         -5    1    3    3    0  502 -0.12750452132E+03  0.55685715229E+02 -0.14161722133E+03  0.19857293776E+03  0.41800000000E+01 0.  1.
        -11    1    1    2    0    0  0.12354889183E+03 -0.42085809580E+02 -0.35525572738E+03  0.37847348107E+03  0.00000000000E+00 0.  1.
         11    1    1    2    0    0 -0.13354362699E+01 -0.20070700549E+02 -0.13324758092E+02  0.24128107858E+02  0.00000000000E+00 0. -1.
</event>
<event>
 6    1  0.1538147E-010  0.1705089E+03  0.7561462E-02  0.1177318E+00
          4   -1    0    0  501    0  0.00000000000E+00  0.00000000000E+00  0.37162876477E+02  0.37162876477E+02  0.00000000000E+00 0. -1.
         -4   -1    0    0    0  501 -0.00000000000E+00 -0.00000000000E+00 -0.93466747387E+03  0.93466747387E+03  0.00000000000E+00 0.  1.
          5    1    1    2  502    0 -0.55882546752E+00 -0.16078745823E+03 -0.41447370970E+03  0.44458840228E+03  0.41800000000E+01 0. -1.
         -5    1    1    2    0  502  0.24375396295E+02  0.13884387262E+02 -0.13894416654E+03  0.14180934374E+03  0.41800000000E+01 0. -1.
        -11    1    1    2    0    0 -0.30810277592E+02  0.12804750487E+03 -0.34039576169E+03  0.36498590560E+03  0.00000000000E+00 0.  1.
         11    1    1    2    0    0  0.69937067645E+01  0.18855566096E+02 -0.36909594549E+01  0.20446698726E+02  0.00000000000E+00 0. -1.
</event>
<event>
 7    1  0.1538147E-010  0.8240637E+02  0.7561462E-02  0.1322358E+00
         -1   -1    0    0    0  501 -0.00000000000E+00  0.00000000000E+00  0.17311182581E+02  0.17311182581E+02  0.00000000000E+00 0.  1.
          1   -1    0    0  501    0  0.00000000000E+00 -0.00000000000E+00 -0.76626972075E+03  0.76626972075E+03  0.00000000000E+00 0. -1.
         25    2    1    2    0    0  0.17219470914E+02 -0.31954380046E+02 -0.46947857961E+03  0.48721991011E+03  0.12512198653E+03 0.  0.
          5    1    3    3  502    0  0.64606117199E+01  0.18793412602E+02 -0.64960235516E+01  0.21321411375E+02  0.41800000000E+01 0. -1.
         -5    1    3    3    0  502  0.10758859194E+02 -0.50747792649E+02 -0.46298255606E+03  0.46589849874E+03  0.41800000000E+01 0. -1.
        -11    1    1    2    0    0 -0.29927799184E+02  0.56998131201E+02 -0.23581419581E+03  0.24444384850E+03  0.00000000000E+00 0. -1.
         11    1    1    2    0    0  0.12708328270E+02 -0.25043751154E+02 -0.43665762751E+02  0.51917144720E+02  0.00000000000E+00 0.  1.
</event>
<event>
 7    1  0.1538147E-010  0.2226729E+03  0.7561462E-02  0.1131906E+00
         -1   -1    0    0    0  501 -0.00000000000E+00  0.00000000000E+00  0.20534040387E+03  0.20534040387E+03  0.00000000000E+00 0. -1.
          1   -1    0    0  501    0  0.00000000000E+00 -0.00000000000E+00 -0.29894767222E+03  0.29894767222E+03  0.00000000000E+00 0.  1.
         25    2    1    2    0    0  0.19628955447E+03  0.11556430508E+02 -0.15397903771E+03  0.27930935661E+03  0.12506411297E+03 0.  0.
          5    1    3    3  502    0  0.61540905935E+02  0.59582190891E+02 -0.32917251248E+02  0.91860428936E+02  0.41800000000E+01 0. -1.
         -5    1    3    3    0  502  0.13474864854E+03 -0.48025760383E+02 -0.12106178646E+03  0.18744892767E+03  0.41800000000E+01 0. -1.
        -11    1    1    2    0    0 -0.86363573539E+01 -0.26843414138E+02  0.11585718818E+02  0.30485807049E+02  0.00000000000E+00 0. -1.
         11    1    1    2    0    0 -0.18765319712E+03  0.15286983630E+02  0.48786050540E+02  0.19449291243E+03  0.00000000000E+00 0.  1.
</event>
<event>
 6    1  0.1538147E-010  0.1335654E+03  0.7561462E-02  0.1222259E+00
         -1   -1    0    0    0  501 -0.00000000000E+00  0.00000000000E+00  0.48557413625E+02  0.48557413625E+02  0.00000000000E+00 0.  1.
          1   -1    0    0  501    0  0.00000000000E+00 -0.00000000000E+00 -0.51723660043E+03  0.51723660043E+03  0.00000000000E+00 0. -1.
          5    1    1    2  502    0 -0.39566094395E+02 -0.78124761084E+02 -0.55904612689E+02  0.10397957607E+03  0.41800000000E+01 0.  1.
         -5    1    1    2    0  502 -0.36849543831E+02 -0.90040946763E+01 -0.20009547419E+03  0.20370231661E+03  0.41800000000E+01 0.  1.
        -11    1    1    2    0    0  0.83381503360E+02  0.37925864564E+02 -0.10386272803E+03  0.13848578476E+03  0.00000000000E+00 0. -1.
         11    1    1    2    0    0 -0.69658651347E+01  0.49202991196E+02 -0.10881637190E+03  0.11962633662E+03  0.00000000000E+00 0.  1.
</event>
<event>
 6    1  0.1538147E-010  0.9137961E+02  0.7561462E-02  0.1299545E+00
          1   -1    0    0  501    0  0.00000000000E+00  0.00000000000E+00  0.14791445304E+03  0.14791445304E+03  0.00000000000E+00 0. -1.
         -1   -1    0    0    0  501 -0.00000000000E+00 -0.00000000000E+00 -0.82679485248E+02  0.82679485248E+02  0.00000000000E+00 0.  1.
          5    1    1    2  502    0  0.42804543145E+02  0.95236428118E+01  0.43444081482E+02  0.61869130445E+02  0.41800000000E+01 0. -1.
         -5    1    1    2    0  502 -0.57766124107E+02 -0.13396671306E+02 -0.26246794145E+02  0.64982786177E+02  0.41800000000E+01 0. -1.
        -11    1    1    2    0    0 -0.26117623179E+02  0.22202897818E+02 -0.45044467439E+01  0.34574397356E+02  0.00000000000E+00 0.  1.
         11    1    1    2    0    0  0.41079204141E+02 -0.18329869324E+02  0.52542127202E+02  0.69167624313E+02  0.00000000000E+00 0. -1.
</event>
<event>
 6    1  0.1538147E-010  0.1457617E+03  0.7561462E-02  0.1205780E+00
          2   -1    0    0  501    0  0.00000000000E+00  0.00000000000E+00  0.99453531926E+03  0.99453531926E+03  0.00000000000E+00 0. -1.
         -2   -1    0    0    0  501 -0.00000000000E+00 -0.00000000000E+00 -0.22720477640E+02  0.22720477640E+02  0.00000000000E+00 0.  1.
          5    1    1    2  502    0 -0.42361941828E+01  0.77480974189E+02  0.26776723429E+03  0.27881537056E+03  0.41800000000E+01 0. -1.
         -5    1    1    2    0  502 -0.80285149128E+02 -0.21681447757E+02  0.29984864427E+03  0.31119523168E+03  0.41800000000E+01 0. -1.
        -11    1    1    2    0    0 -0.10310642570E+02 -0.30794531624E+02  0.17433085085E+03  0.17732980033E+03  0.00000000000E+00 0.  1.
         11    1    1    2    0    0  0.94831985881E+02 -0.25004994808E+02  0.22986811221E+03  0.24991539433E+03  0.00000000000E+00 0. -1.
</event>
<event>
 6    1  0.1538147E-010  0.8666780E+02  0.7561462E-02  0.1311128E+00
         -2   -1    0    0    0  501 -0.00000000000E+00  0.00000000000E+00  0.29890637570E+02  0.29890637570E+02  0.00000000000E+00 0.  1.
          2   -1    0    0  501    0  0.00000000000E+00 -0.00000000000E+00 -0.55205616432E+03  0.55205616432E+03  0.00000000000E+00 0. -1.
          5    1    1    2  502    0 -0.56847922497E+02  0.19905032988E+02 -0.32896526127E+03  0.33446003072E+03  0.41800000000E+01 0. -1.
         -5    1    1    2    0  502 -0.97490003525E+01 -0.41054442041E+01  0.97990408751E+01  0.15013037070E+02  0.41800000000E+01 0. -1.
        -11    1    1    2    0    0  0.33839068216E+02  0.30036039669E+02 -0.41374898744E+02  0.61311731853E+02  0.00000000000E+00 0.  1.
         11    1    1    2    0    0  0.32757854633E+02 -0.45835628453E+02 -0.16162440761E+03  0.17116200225E+03  0.00000000000E+00 0. -1.
</event>
<event>
 7    1  0.1538147E-010  0.1121551E+03  0.7561462E-02  0.1256630E+00
         -1   -1    0    0    0  501 -0.00000000000E+00  0.00000000000E+00  0.43048157242E+02  0.43048157242E+02  0.00000000000E+00 0.  1.
          1   -1    0    0  501    0  0.00000000000E+00 -0.00000000000E+00 -0.38744860346E+03  0.38744860346E+03  0.00000000000E+00 0. -1.
         25    2    1    2    0    0  0.68796780628E+02  0.83255740028E+01 -0.18363133487E+03  0.23275609951E+03  0.12511044123E+03 0.  0.
          5    1    3    3  502    0  0.89237469132E+02  0.22916578437E+02 -0.68605687409E+02  0.11494654501E+03  0.41800000000E+01 0. -1.
         -5    1    3    3    0  502 -0.20440688505E+02 -0.14591004434E+02 -0.11502564746E+03  0.11780955450E+03  0.41800000000E+01 0. -1.
        -11    1    1    2    0    0 -0.73158675180E+02  0.21678723779E+02 -0.14431210505E+03  0.16324258783E+03  0.00000000000E+00 0. -1.
         11    1    1    2    0    0  0.43618945522E+01 -0.30004297782E+02 -0.16457006297E+02  0.34498073362E+02  0.00000000000E+00 0.  1.
</event>
<event>
 7    1  0.1538147E-010  0.9286202E+02  0.7561462E-02  0.1296065E+00
          2   -1    0    0  501    0  0.00000000000E+00  0.00000000000E+00  0.53134971718E+03  0.53134971718E+03  0.00000000000E+00 0. -1.
         -2   -1    0    0    0  501 -0.00000000000E+00 -0.00000000000E+00 -0.31876585741E+02  0.31876585741E+02  0.00000000000E+00 0.  1.
         25    2    1    2    0    0 -0.35018859067E+02 -0.17020887749E+02  0.40465855771E+03  0.42535331700E+03  0.12514337716E+03 0.  0.
          5    1    3    3  502    0  0.25576775834E+02  0.29411772824E+02  0.55662236373E+02  0.68080693304E+02  0.41800000000E+01 0.  1.
         -5    1    3    3    0  502 -0.60595634901E+02 -0.46432660574E+02  0.34899632134E+03  0.35727262370E+03  0.41800000000E+01 0.  1.
        -11    1    1    2    0    0  0.67650389310E+01 -0.21362386265E+02 -0.86019485476E+01  0.24002308587E+02  0.00000000000E+00 0.  1.
         11    1    1    2    0    0  0.28253820136E+02  0.38383274015E+02  0.10341652228E+03  0.11387067733E+03  0.00000000000E+00 0. -1.
</event>
<event>
 7    1  0.1648856E-010  0.1078070E+03  0.7561462E-02  0.1264686E+00
          1   -1    0    0  501    0  0.00000000000E+00  0.00000000000E+00  0.11032794719E+04  0.11032794719E+04  0.00000000000E+00 0. -1.
         -1   -1    0    0    0  501 -0.00000000000E+00 -0.00000000000E+00 -0.11138823073E+02  0.11138823073E+02  0.00000000000E+00 0.  1.
         25    2    1    2    0    0  0.11480854890E+02  0.20294312585E+02  0.73112134883E+03  0.74211589644E+03  0.12511557806E+03 0.  0.
          5    1    3    3  502    0  0.22923497103E+02 -0.49032547368E+02  0.39417521755E+03  0.39789603158E+03  0.41800000000E+01 0.  1.
         -5    1    3    3    0  502 -0.11442642213E+02  0.69326859953E+02  0.33694613129E+03  0.34421986485E+03  0.41800000000E+01 0.  1.
        -11    1    1    2    0    0 -0.25072514553E+02  0.29850485840E+02  0.15909993225E+03  0.16380619931E+03  0.00000000000E+00 0.  1.
         11    1    1    2    0    0  0.13591659662E+02 -0.50144798425E+02  0.20191936778E+03  0.20849619926E+03  0.00000000000E+00 0. -1.
</event>
<event>
 6    1  0.1538147E-010  0.6452318E+02  0.7561462E-02  0.1379774E+00
          1   -1    0    0  501    0  0.00000000000E+00  0.00000000000E+00  0.24301267099E+03  0.24301267099E+03  0.00000000000E+00 0. -1.
         -1   -1    0    0    0  501 -0.00000000000E+00 -0.00000000000E+00 -0.51721676687E+02  0.51721676687E+02  0.00000000000E+00 0.  1.
          5    1    1    2  502    0  0.32276940633E+01  0.20575539625E+02 -0.17363902729E+02  0.27436259910E+02  0.41800000000E+01 0. -1.
         -5    1    1    2    0  502  0.39870834601E+01 -0.36462479105E+02  0.15485613174E+03  0.15919580131E+03  0.41800000000E+01 0. -1.
        -11    1    1    2    0    0 -0.37148976902E+02  0.17169903205E+02  0.64414413831E+02  0.76315586679E+02  0.00000000000E+00 0. -1.
         11    1    1    2    0    0  0.29934199379E+02 -0.12829637256E+01 -0.10615648546E+02  0.31786699772E+02  0.00000000000E+00 0.  1.
</event>
<event>
 7    1  0.1538147E-010  0.1353247E+03  0.7561462E-02  0.1219762E+00
         -2   -1    0    0    0  501 -0.00000000000E+00  0.00000000000E+00  0.21984665527E+03  0.21984665527E+03  0.00000000000E+00 0.  1.
          2   -1    0    0  501    0  0.00000000000E+00 -0.00000000000E+00 -0.13465043906E+03  0.13465043906E+03  0.00000000000E+00 0. -1.
         25    2    1    2    0    0 -0.31817019031E+02  0.11922936315E+03 -0.57584248187E+01  0.17582576365E+03  0.12511425166E+03 0.  0.
          5    1    3    3  502    0  0.18107997007E+02  0.75813864462E+02 -0.53061705401E+02  0.94385690549E+02  0.41800000000E+01 0.  1.
         -5    1    3    3    0  502 -0.49925016038E+02  0.43415498693E+02  0.47303280583E+02  0.81440073103E+02  0.41800000000E+01 0.  1.
        -11    1    1    2    0    0  0.36735683892E+02 -0.10558833446E+03  0.29630761706E+02  0.11565633958E+03  0.00000000000E+00 0. -1.
         11    1    1    2    0    0 -0.49186648607E+01 -0.13641028691E+02  0.61323879327E+02  0.63014991101E+02  0.00000000000E+00 0.  1.
</event>
<event>
 7    1  0.1538147E-010  0.8853749E+02  0.7561462E-02  0.1306433E+00
          3   -1    0    0  501    0  0.00000000000E+00  0.00000000000E+00  0.60628769474E+02  0.60628769474E+02  0.00000000000E+00 0. -1.
         -3   -1    0    0    0  501 -0.00000000000E+00 -0.00000000000E+00 -0.21545149295E+03  0.21545149295E+03  0.00000000000E+00 0.  1.
         25    2    1    2    0    0  0.76486523259E+01 -0.29659466433E+02 -0.66577165961E+02  0.14499437068E+03  0.12511060175E+03 0.  0.
          5    1    3    3  502    0  0.41420745788E+02 -0.20358768089E+02 -0.90977246994E+02  0.10210038928E+03  0.41800000000E+01 0.  1.
         -5    1    3    3    0  502 -0.33772093462E+02 -0.93006983433E+01  0.24400081033E+02  0.42893981406E+02  0.41800000000E+01 0.  1.
        -11    1    1    2    0    0  0.38944843621E+02  0.29507269918E+02 -0.33734038600E+02  0.59374785751E+02  0.00000000000E+00 0. -1.
         11    1    1    2    0    0 -0.46593495946E+02  0.15219651470E+00 -0.54511518919E+02  0.71711105996E+02  0.00000000000E+00 0.  1.
</event>
<event>
 6    1  0.1538147E-010  0.1443007E+03  0.7561462E-02  0.1207656E+00
          1   -1    0    0  501    0  0.00000000000E+00  0.00000000000E+00  0.80601854212E+03  0.80601854212E+03  0.00000000000E+00 0. -1.
         -1   -1    0    0    0  501 -0.00000000000E+00 -0.00000000000E+00 -0.32821717510E+02  0.32821717510E+02  0.00000000000E+00 0.  1.
          5    1    1    2  502    0  0.12634094115E+02 -0.23658993930E+02  0.10566152703E+03  0.10909261672E+03  0.41800000000E+01 0. -1.
         -5    1    1    2    0  502 -0.59067029149E+02  0.12958178694E+03  0.39987991529E+03  0.42450179327E+03  0.41800000000E+01 0. -1.
        -11    1    1    2    0    0  0.48764414325E+02 -0.85483854094E+02  0.26711417709E+03  0.28466724613E+03  0.00000000000E+00 0. -1.
         11    1    1    2    0    0 -0.23314792919E+01 -0.20438938914E+02  0.54120520275E+00  0.20578603517E+02  0.00000000000E+00 0.  1.
</event>
<event>
 7    1  0.1538147E-010  0.1247874E+03  0.7561462E-02  0.1235402E+00
         -1   -1    0    0    0  501 -0.00000000000E+00  0.00000000000E+00  0.64347809506E+02  0.64347809506E+02  0.00000000000E+00 0.  1.
          1   -1    0    0  501    0  0.00000000000E+00 -0.00000000000E+00 -0.46082369255E+03  0.46082369255E+03  0.00000000000E+00 0. -1.
         25    2    1    2    0    0 -0.10015595598E+03 -0.21850831449E+02 -0.33876258100E+03  0.37537249348E+03  0.12504298550E+03 0.  0.
          5    1    3    3  502    0 -0.55933536144E+02  0.35520455258E+02 -0.25974529023E+03  0.26809578774E+03  0.41800000000E+01 0. -1.
         -5    1    3    3    0  502 -0.44222419831E+02 -0.57371286707E+02 -0.79017290774E+02  0.10727670574E+03  0.41800000000E+01 0. -1.
        -11    1    1    2    0    0  0.97628384250E+01  0.17608707472E+02  0.21556512474E+02  0.29496827338E+02  0.00000000000E+00 0.  1.
         11    1    1    2    0    0  0.90393117551E+02  0.42421239778E+01 -0.79269814512E+02  0.12030218123E+03  0.00000000000E+00 0. -1.
</event>
<event>
 7    1  0.1538147E-010  0.1184458E+03  0.7561462E-02  0.1245683E+00
         -2   -1    0    0    0  501 -0.00000000000E+00  0.00000000000E+00  0.83012804274E+02  0.83012804274E+02  0.00000000000E+00 0.  1.
          2   -1    0    0  501    0  0.00000000000E+00 -0.00000000000E+00 -0.19396396309E+03  0.19396396309E+03  0.00000000000E+00 0. -1.
         25    2    1    2    0    0 -0.59014607507E+02  0.57552308109E+01 -0.25875868685E+02  0.14085753196E+03  0.12512168936E+03 0.  0.
          5    1    3    3  502    0  0.24612650729E+01  0.53129355449E+02  0.11558722986E+02  0.54588118792E+02  0.41800000000E+01 0.  1.
         -5    1    3    3    0  502 -0.61475872580E+02 -0.47374124638E+02 -0.37434591671E+02  0.86269413167E+02  0.41800000000E+01 0.  1.
        -11    1    1    2    0    0  0.50960211095E+02  0.36575162252E+02 -0.44282160226E+02  0.76782780120E+02  0.00000000000E+00 0.  1.
         11    1    1    2    0    0  0.80543964120E+01 -0.42330393063E+02 -0.40793129910E+02  0.59336455289E+02  0.00000000000E+00 0. -1.
</event>
<event>
 7    1  0.1538147E-010  0.9682172E+02  0.7561462E-02  0.1287125E+00
          2   -1    0    0  501    0  0.00000000000E+00  0.00000000000E+00  0.51387430359E+03  0.51387430359E+03  0.00000000000E+00 0. -1.
         -2   -1    0    0    0  501 -0.00000000000E+00 -0.00000000000E+00 -0.27204422665E+02  0.27204422665E+02  0.00000000000E+00 0.  1.
         25    2    1    2    0    0 -0.35695903362E+01 -0.46999892934E+02  0.29855262070E+03  0.32709317357E+03  0.12503817400E+03 0.  0.
          5    1    3    3  502    0  0.38478385693E+01  0.22584345599E+02  0.22228524835E+03  0.22350181781E+03  0.41800000000E+01 0. -1.
         -5    1    3    3    0  502 -0.74174289054E+01 -0.69584238533E+02  0.76267372342E+02  0.10359135576E+03  0.41800000000E+01 0. -1.
        -11    1    1    2    0    0 -0.37385269518E+02 -0.68826262262E+00  0.90006793045E+02  0.97464633978E+02  0.00000000000E+00 0. -1.
         11    1    1    2    0    0  0.40954859854E+02  0.47688155556E+02  0.98110467184E+02  0.11652091871E+03  0.00000000000E+00 0.  1.
</event>
<event>
 7    1  0.1538147E-010  0.8020639E+02  0.7561462E-02  0.1328467E+00
         -2   -1    0    0    0  501 -0.00000000000E+00  0.00000000000E+00  0.33651268240E+02  0.33651268240E+02  0.00000000000E+00 0.  1.
          2   -1    0    0  501    0  0.00000000000E+00 -0.00000000000E+00 -0.40708758935E+03  0.40708758935E+03  0.00000000000E+00 0. -1.
         25    2    1    2    0    0  0.25931408242E+02 -0.10016047849E+02 -0.27187888430E+03  0.30058152581E+03  0.12513339595E+03 0.  0.
          5    1    3    3  502    0  0.99530917705E+01 -0.48241325704E+02 -0.36248927948E+02  0.61300462632E+02  0.41800000000E+01 0. -1.
         -5    1    3    3    0  502  0.15978316472E+02  0.38225277855E+02 -0.23562995635E+03  0.23928106318E+03  0.41800000000E+01 0. -1.
        -11    1    1    2    0    0  0.18975792191E+02  0.14953733500E+02  0.47734593699E+01  0.24626829866E+02  0.00000000000E+00 0.  1.
         11    1    1    2    0    0 -0.44907200433E+02 -0.49376856514E+01 -0.10633089618E+03  0.11553050191E+03  0.00000000000E+00 0. -1.
</event>
<event>
 7    1  0.1538147E-010  0.1133393E+03  0.7561462E-02  0.1254508E+00
          2   -1    0    0  501    0  0.00000000000E+00  0.00000000000E+00  0.24828773662E+03  0.24828773662E+03  0.00000000000E+00 0.  1.
         -2   -1    0    0    0  501 -0.00000000000E+00 -0.00000000000E+00 -0.70216856498E+02  0.70216856498E+02  0.00000000000E+00 0. -1.
         25    2    1    2    0    0  0.18157793595E+02  0.61435880065E+02  0.56747636755E+02  0.15158914086E+03  0.12511954492E+03 0.  0.
          5    1    3    3  502    0 -0.46594887966E+02  0.25717560460E+02 -0.70299600956E+01  0.53845791288E+02  0.41800000000E+01 0.  1.
         -5    1    3    3    0  502  0.64752681561E+02  0.35718319606E+02  0.63777596851E+02  0.97743349568E+02  0.41800000000E+01 0.  1.
        -11    1    1    2    0    0 -0.71948139568E+01  0.17818350918E+02  0.68251083090E+02  0.70904649497E+02  0.00000000000E+00 0.  1.
         11    1    1    2    0    0 -0.10962979639E+02 -0.79254230983E+02  0.53072160281E+02  0.96010802769E+02  0.00000000000E+00 0. -1.
</event>
<event>
 6    1  0.1538147E-010  0.9946329E+02  0.7561462E-02  0.1281429E+00
          4   -1    0    0  501    0  0.00000000000E+00  0.00000000000E+00  0.51009573340E+02  0.51009573340E+02  0.00000000000E+00 0. -1.
         -4   -1    0    0    0  501 -0.00000000000E+00 -0.00000000000E+00 -0.25501844010E+03  0.25501844010E+03  0.00000000000E+00 0.  1.
          5    1    1    2  502    0  0.33432248358E+02 -0.52575544280E+02 -0.13346117858E+03  0.14734741829E+03  0.41800000000E+01 0. -1.
         -5    1    1    2    0  502 -0.43102724563E+01  0.46335852617E+02 -0.15140928420E+02  0.49115270536E+02  0.41800000000E+01 0. -1.
        -11    1    1    2    0    0 -0.32766050799E+01  0.43933153853E+02 -0.44416210252E+02  0.62559234981E+02  0.00000000000E+00 0. -1.
         11    1    1    2    0    0 -0.25845370822E+02 -0.37693462190E+02 -0.10990549508E+02  0.47006089641E+02  0.00000000000E+00 0.  1.
</event>
<event>
 7    1  0.1538147E-010  0.1160583E+03  0.7561462E-02  0.1249745E+00
          2   -1    0    0  501    0  0.00000000000E+00  0.00000000000E+00  0.73560501604E+03  0.73560501604E+03  0.00000000000E+00 0. -1.
         -2   -1    0    0    0  501 -0.00000000000E+00 -0.00000000000E+00 -0.23739397776E+02  0.23739397776E+02  0.00000000000E+00 0.  1.
         25    2    1    2    0    0 -0.65117185620E+02 -0.26728579254E+02  0.47232300660E+03  0.49365668934E+03  0.12511290723E+03 0.  0.
          5    1    3    3  502    0 -0.52096985450E+02  0.37229628749E+02  0.12807694346E+03  0.14325263347E+03  0.41800000000E+01 0. -1.
         -5    1    3    3    0  502 -0.13020200171E+02 -0.63958208004E+02  0.34424606314E+03  0.35040405587E+03  0.41800000000E+01 0. -1.
        -11    1    1    2    0    0  0.58574158135E+02  0.50840212206E+02  0.11530973595E+03  0.13896760192E+03  0.00000000000E+00 0.  1.
         11    1    1    2    0    0  0.65430274853E+01 -0.24111632952E+02  0.12423287572E+03  0.12672012256E+03  0.00000000000E+00 0. -1.
</event>
<event>
 7    1  0.1538147E-010  0.1016500E+03  0.7561462E-02  0.1276864E+00
         -3   -1    0    0    0  501 -0.00000000000E+00  0.00000000000E+00  0.12640590569E+03  0.12640590569E+03  0.00000000000E+00 0.  1.
          3   -1    0    0  501    0  0.00000000000E+00 -0.00000000000E+00 -0.11097694709E+03  0.11097694709E+03  0.00000000000E+00 0. -1.
         25    2    1    2    0    0  0.46088392177E+02  0.98102593552E+01  0.38000650716E+02  0.13898760754E+03  0.12511244747E+03 0.  0.
          5    1    3    3  502    0  0.84007352510E+02 -0.16816926274E+01  0.49383643520E+02  0.97551422405E+02  0.41800000000E+01 0.  1.
         -5    1    3    3    0  502 -0.37918960333E+02  0.11491951983E+02 -0.11382992804E+02  0.41436185132E+02  0.41800000000E+01 0.  1.
        -11    1    1    2    0    0 -0.58920426313E+02  0.57046545853E+01  0.10067232530E+02  0.60045889882E+02  0.00000000000E+00 0.  1.
         11    1    1    2    0    0  0.12832034136E+02 -0.15514913940E+02 -0.32638924642E+02  0.38349355359E+02  0.00000000000E+00 0. -1.
</event>
<event>
 7    1  0.1538147E-010  0.9457973E+02  0.7561462E-02  0.1292125E+00
          2   -1    0    0  501    0  0.00000000000E+00  0.00000000000E+00  0.48952937808E+03  0.48952937808E+03  0.00000000000E+00 0. -1.
         -2   -1    0    0    0  501 -0.00000000000E+00 -0.00000000000E+00 -0.25335781129E+02  0.25335781129E+02  0.00000000000E+00 0.  1.
         25    2    1    2    0    0 -0.80438328375E+00  0.64432608319E+01  0.20089297396E+03  0.23672432383E+03  0.12505301222E+03 0.  0.
          5    1    3    3  502    0  0.25900159399E+02  0.50961779083E+02  0.46577550507E+02  0.73857036195E+02  0.41800000000E+01 0. -1.
         -5    1    3    3    0  502 -0.26704542683E+02 -0.44518518252E+02  0.15431542345E+03  0.16286728764E+03  0.41800000000E+01 0. -1.
        -11    1    1    2    0    0  0.29292489279E+02  0.24144131020E+02  0.63223734739E+02  0.73744353175E+02  0.00000000000E+00 0.  1.
         11    1    1    2    0    0 -0.28488105995E+02 -0.30587391852E+02  0.20007688825E+03  0.20439648220E+03  0.00000000000E+00 0. -1.
</event>
<event>
 7    1  0.1538147E-010  0.1480300E+03  0.7561462E-02  0.1202915E+00
         -1   -1    0    0    0  501 -0.00000000000E+00  0.00000000000E+00  0.80910588668E+02  0.80910588668E+02  0.00000000000E+00 0.  1.
          1   -1    0    0  501    0  0.00000000000E+00 -0.00000000000E+00 -0.35231602949E+03  0.35231602949E+03  0.00000000000E+00 0. -1.
         25    2    1    2    0    0  0.94286023211E+02  0.84584732815E+02 -0.12089094006E+03  0.21521238540E+03  0.12512921418E+03 0.  0.
          5    1    3    3  502    0  0.15425217125E+01 -0.95451569919E+01 -0.74286307564E+02  0.75029442799E+02  0.41800000000E+01 0.  1.
         -5    1    3    3    0  502  0.92743501499E+02  0.94129889807E+02 -0.46604632500E+02  0.14018294260E+03  0.41800000000E+01 0.  1.
        -11    1    1    2    0    0 -0.10151850239E+02  0.17986794091E+02 -0.41310127099E+02  0.46185619254E+02  0.00000000000E+00 0. -1.
         11    1    1    2    0    0 -0.84134172972E+02 -0.10257152691E+03 -0.10920437366E+03  0.17182861351E+03  0.00000000000E+00 0.  1.
</event>
<event>
 6    1  0.1538147E-010  0.1556403E+03  0.7561462E-02  0.1193709E+00
         -2   -1    0    0    0  501 -0.00000000000E+00  0.00000000000E+00  0.35071847984E+02  0.35071847984E+02  0.00000000000E+00 0.  1.
          2   -1    0    0  501    0  0.00000000000E+00 -0.00000000000E+00 -0.90570889025E+03  0.90570889025E+03  0.00000000000E+00 0. -1.
          5    1    1    2  502    0 -0.70310842291E+02 -0.14311992351E+02 -0.27830348164E+03  0.28743477166E+03  0.41800000000E+01 0. -1.
         -5    1    1    2    0  502 -0.57366158453E+02  0.62152205800E+02 -0.83549890866E+02  0.11896146219E+03  0.41800000000E+01 0. -1.
        -11    1    1    2    0    0  0.11650914676E+03 -0.65626914237E+02 -0.48279023495E+03  0.50096674951E+03  0.00000000000E+00 0.  1.
         11    1    1    2    0    0  0.11167853987E+02  0.17786700788E+02 -0.25993434802E+02  0.33417754868E+02  0.00000000000E+00 0. -1.
</event>
<event>
 7    1  0.1538147E-010  0.1464279E+03  0.7561462E-02  0.1204932E+00
         -1   -1    0    0    0  501 -0.00000000000E+00  0.00000000000E+00  0.95069923516E+03  0.95069923516E+03  0.00000000000E+00 0.  1.
          1   -1    0    0  501    0  0.00000000000E+00 -0.00000000000E+00 -0.31502594776E+02  0.31502594776E+02  0.00000000000E+00 0. -1.
         25    2    1    2    0    0 -0.53889003499E+02  0.11576528019E+03  0.36998261273E+03  0.41091017608E+03  0.12511760183E+03 0.  0.
          5    1    3    3  502    0 -0.43807189438E+02  0.12064358748E+03  0.18309596308E+03  0.22364156399E+03  0.41800000000E+01 0.  1.
         -5    1    3    3    0  502 -0.10081814061E+02 -0.48783072964E+01  0.18688664965E+03  0.18726861209E+03  0.41800000000E+01 0.  1.
        -11    1    1    2    0    0 -0.92185947483E+01 -0.78816330451E+02  0.21515950265E+03  0.22932642241E+03  0.00000000000E+00 0.  1.
         11    1    1    2    0    0  0.63107598247E+02 -0.36948949735E+02  0.33405452500E+03  0.34196523144E+03  0.00000000000E+00 0. -1.
</event>
<event>
 6    1  0.1538147E-010  0.1346364E+03  0.7561462E-02  0.1220734E+00
          1   -1    0    0  501    0  0.00000000000E+00  0.00000000000E+00  0.13120347915E+03  0.13120347915E+03  0.00000000000E+00 0. -1.
         -1   -1    0    0    0  501 -0.00000000000E+00 -0.00000000000E+00 -0.29645086026E+03  0.29645086026E+03  0.00000000000E+00 0.  1.
          5    1    1    2  502    0 -0.32265642029E+01  0.61716530871E+02 -0.18468733595E+03  0.19479790902E+03  0.41800000000E+01 0.  1.
         -5    1    1    2    0  502 -0.70145963079E+02  0.18248880958E+02 -0.35974010545E+02  0.81025178971E+02  0.41800000000E+01 0.  1.
        -11    1    1    2    0    0  0.79637747559E+02 -0.31149268424E+02  0.56691507616E+02  0.10259812277E+03  0.00000000000E+00 0.  1.
         11    1    1    2    0    0 -0.62652202763E+01 -0.48816143405E+02 -0.12775422245E+01  0.49233128645E+02  0.00000000000E+00 0. -1.
</event>
<event>
 6    1  0.1538147E-010  0.3088511E+03  0.7561462E-02  0.1080898E+00
         -2   -1    0    0    0  501 -0.00000000000E+00  0.00000000000E+00  0.10976575991E+03  0.10976575991E+03  0.00000000000E+00 0. -1.
          2   -1    0    0  501    0  0.00000000000E+00 -0.00000000000E+00 -0.13752095471E+04  0.13752095471E+04  0.00000000000E+00 0.  1.
          5    1    1    2  502    0 -0.16448537796E+02  0.22805063331E+03 -0.60497528979E+03  0.64675360023E+03  0.41800000000E+01 0.  1.
         -5    1    1    2    0  502  0.53321322092E+02  0.51857272597E+02 -0.31342688511E+03  0.32215869509E+03  0.41800000000E+01 0.  1.
        -11    1    1    2    0    0 -0.63774234937E+02 -0.44931928034E+02 -0.24741952738E+03  0.25942716459E+03  0.00000000000E+00 0.  1.
         11    1    1    2    0    0  0.26901450640E+02 -0.23497597788E+03 -0.99622084944E+02  0.25663584714E+03  0.00000000000E+00 0. -1.
</event>
<event>
 7    1  0.1538147E-010  0.8734997E+02  0.7561462E-02  0.1309399E+00
         -1   -1    0    0    0  501 -0.00000000000E+00  0.00000000000E+00  0.58493570804E+02  0.58493570804E+02  0.00000000000E+00 0.  1.
          1   -1    0    0  501    0  0.00000000000E+00 -0.00000000000E+00 -0.25117272448E+03  0.25117272448E+03  0.00000000000E+00 0. -1.
         25    2    1    2    0    0  0.21289026678E+02 -0.31042700295E+01 -0.17257230053E+03  0.21420948977E+03  0.12506657208E+03 0.  0.
          5    1    3    3  502    0 -0.13457085330E+02  0.56256455762E+02 -0.78798088907E+02  0.97839118842E+02  0.41800000000E+01 0. -1.
         -5    1    3    3    0  502  0.34746112008E+02 -0.59360725791E+02 -0.93774211618E+02  0.11637037093E+03  0.41800000000E+01 0. -1.
        -11    1    1    2    0    0 -0.34351841108E+02 -0.76549889894E-01  0.28742890659E+02  0.44790720142E+02  0.00000000000E+00 0.  1.
         11    1    1    2    0    0  0.13062814430E+02  0.31808199194E+01 -0.48849743808E+02  0.50666085366E+02  0.00000000000E+00 0. -1.
</event>
<event>
 6    1  0.1538147E-010  0.1449962E+03  0.7561462E-02  0.1206760E+00
          2   -1    0    0  501    0  0.00000000000E+00  0.00000000000E+00  0.33969186966E+03  0.33969186966E+03  0.00000000000E+00 0. -1.
         -2   -1    0    0    0  501 -0.00000000000E+00 -0.00000000000E+00 -0.10348624409E+03  0.10348624409E+03  0.00000000000E+00 0.  1.
          5    1    1    2  502    0 -0.47422026386E+02 -0.32564461835E+02  0.85550297198E+02  0.10317760664E+03  0.41800000000E+01 0.  1.
         -5    1    1    2    0  502 -0.82272480310E+02 -0.18589419462E+02 -0.34265772091E+02  0.91136946785E+02  0.41800000000E+01 0.  1.
        -11    1    1    2    0    0  0.79295231698E+02  0.48823148469E+01  0.40761984466E+02  0.89292273719E+02  0.00000000000E+00 0.  1.
         11    1    1    2    0    0  0.50399274998E+02  0.46271566450E+02  0.14415911600E+03  0.15957128660E+03  0.00000000000E+00 0. -1.
</event>
<event>
 6    1  0.1538147E-010  0.1078622E+03  0.7561462E-02  0.1264581E+00
          1   -1    0    0  501    0  0.00000000000E+00  0.00000000000E+00  0.78069203350E+02  0.78069203350E+02  0.00000000000E+00 0.  1.
         -1   -1    0    0    0  501 -0.00000000000E+00 -0.00000000000E+00 -0.21819593053E+03  0.21819593053E+03  0.00000000000E+00 0. -1.
          5    1    1    2  502    0 -0.90566821628E+02  0.24111465985E+02 -0.54374043058E+02  0.10843302509E+03  0.41800000000E+01 0.  1.
         -5    1    1    2    0  502  0.32984369554E+02  0.42996143375E+01  0.16097755994E+02  0.37189588145E+02  0.41800000000E+01 0.  1.
        -11    1    1    2    0    0 -0.59644033200E+01 -0.23950062544E+02 -0.79321723138E+02  0.83072952062E+02  0.00000000000E+00 0. -1.
         11    1    1    2    0    0  0.63546855394E+02 -0.44610177790E+01 -0.22528716982E+02  0.67569568586E+02  0.00000000000E+00 0.  1.
</event>
<event>
 7    1  0.1538147E-010  0.1415453E+03  0.7561462E-02  0.1211265E+00
         -1   -1    0    0    0  501 -0.00000000000E+00  0.00000000000E+00  0.12762298478E+03  0.12762298478E+03  0.00000000000E+00 0.  1.
          1   -1    0    0  501    0  0.00000000000E+00 -0.00000000000E+00 -0.20834388572E+03  0.20834388572E+03  0.00000000000E+00 0. -1.
         25    2    1    2    0    0  0.10404946165E+03  0.19168160282E+02 -0.10335631531E+03  0.19372743815E+03  0.12511628006E+03 0.  0.
          5    1    3    3  502    0  0.74612711609E+02 -0.44972259649E+02 -0.82409268692E+02  0.11999300329E+03  0.41800000000E+01 0. -1.
         -5    1    3    3    0  502  0.29436750043E+02  0.64140419930E+02 -0.20947046623E+02  0.73734434860E+02  0.41800000000E+01 0. -1.
        -11    1    1    2    0    0 -0.74498505569E+02 -0.44047706014E+02  0.45058987102E+02  0.97573254818E+02  0.00000000000E+00 0.  1.
         11    1    1    2    0    0 -0.29550956083E+02  0.24879545732E+02 -0.22423572725E+02  0.44666177529E+02  0.00000000000E+00 0. -1.
</event>
<event>
 7    1  0.1538147E-010  0.7987324E+02  0.7561462E-02  0.1329412E+00
          2   -1    0    0  501    0  0.00000000000E+00  0.00000000000E+00  0.87527359217E+02  0.87527359217E+02  0.00000000000E+00 0. -1.
         -2   -1    0    0    0  501 -0.00000000000E+00 -0.00000000000E+00 -0.17361043228E+03  0.17361043228E+03  0.00000000000E+00 0.  1.
         25    2    1    2    0    0  0.22407361770E+01 -0.45286926999E+02 -0.88503840341E+02  0.15983987455E+03  0.12513963835E+03 0.  0.
          5    1    3    3  502    0  0.13030861671E+02 -0.62359525118E+02  0.50468996040E+01  0.64042621155E+02  0.41800000000E+01 0.  1.
         -5    1    3    3    0  502 -0.10790125494E+02  0.17072598119E+02 -0.93550739945E+02  0.95797253400E+02  0.41800000000E+01 0.  1.
        -11    1    1    2    0    0  0.27506022037E+02  0.33340828460E+02  0.34982133912E+02  0.55605231622E+02  0.00000000000E+00 0. -1.
         11    1    1    2    0    0 -0.29746758214E+02  0.11946098539E+02 -0.32561366629E+02  0.45692685315E+02  0.00000000000E+00 0.  1.
</event>
<event>
 7    1  0.1538147E-010  0.1087916E+03  0.7561462E-02  0.1262824E+00
          2   -1    0    0  501    0  0.00000000000E+00  0.00000000000E+00  0.29405107011E+03  0.29405107011E+03  0.00000000000E+00 0. -1.
         -2   -1    0    0    0  501 -0.00000000000E+00 -0.00000000000E+00 -0.70162219428E+02  0.70162219428E+02  0.00000000000E+00 0.  1.
         25    2    1    2    0    0 -0.26082350894E+00 -0.87479892697E+02  0.79566199124E+02  0.17210306781E+03  0.12504353742E+03 0.  0.
          5    1    3    3  502    0 -0.11128532719E+02 -0.32742068373E+02 -0.31991826550E+02  0.47295207451E+02  0.41800000000E+01 0. -1.
         -5    1    3    3    0  502  0.10867709210E+02 -0.54737824324E+02  0.11155802567E+03  0.12480786036E+03  0.41800000000E+01 0. -1.
        -11    1    1    2    0    0 -0.23427614148E+02  0.98077282012E+02  0.11569740727E+03  0.15347278717E+03  0.00000000000E+00 0. -1.
         11    1    1    2    0    0  0.23688437657E+02 -0.10597389316E+02  0.28625244286E+02  0.38637434560E+02  0.00000000000E+00 0.  1.
</event>
<event>
 7    1  0.1538147E-010  0.9858528E+02  0.7561462E-02  0.1283299E+00
          1   -1    0    0  501    0  0.00000000000E+00  0.00000000000E+00  0.30768197777E+03  0.30768197777E+03  0.00000000000E+00 0. -1.
         -1   -1    0    0    0  501 -0.00000000000E+00 -0.00000000000E+00 -0.46867229710E+02  0.46867229710E+02  0.00000000000E+00 0.  1.
         25    2    1    2    0    0 -0.16069907770E+02 -0.77976384927E+01  0.75593431579E+02  0.14722294427E+03  0.12506471653E+03 0.  0.
          5    1    3    3  502    0 -0.22835789981E+02 -0.60715412099E+02  0.66411279869E+02  0.92928817190E+02  0.41800000000E+01 0. -1.
         -5    1    3    3    0  502  0.67658822116E+01  0.52917773606E+02  0.91821517096E+01  0.54294127082E+02  0.41800000000E+01 0. -1.
        -11    1    1    2    0    0  0.39904532373E+02 -0.17787265585E+02  0.15522485720E+03  0.16125605357E+03  0.00000000000E+00 0. -1.
         11    1    1    2    0    0 -0.23834624603E+02  0.25584904077E+02  0.29996459284E+02  0.46070209640E+02  0.00000000000E+00 0.  1.
</event>
<event>
 7    1  0.1538147E-010  0.1089266E+03  0.7561462E-02  0.1262571E+00
          1   -1    0    0  501    0  0.00000000000E+00  0.00000000000E+00  0.25413578244E+03  0.25413578244E+03  0.00000000000E+00 0. -1.
         -1   -1    0    0    0  501 -0.00000000000E+00 -0.00000000000E+00 -0.64071066167E+02  0.64071066167E+02  0.00000000000E+00 0.  1.
         25    2    1    2    0    0  0.49481133120E+02 -0.34837521560E+01  0.16329673930E+03  0.21162756622E+03  0.12513945283E+03 0.  0.
          5    1    3    3  502    0  0.33434339875E+02  0.55442993276E+02  0.12075833378E+03  0.13708328914E+03  0.41800000000E+01 0.  1.
         -5    1    3    3    0  502  0.16046793245E+02 -0.58926745432E+02  0.42538405521E+02  0.74544277077E+02  0.41800000000E+01 0.  1.
        -11    1    1    2    0    0 -0.18641789242E+02  0.39899276091E+02  0.37298355439E+02  0.57711661362E+02  0.00000000000E+00 0. -1.
         11    1    1    2    0    0 -0.30839343878E+02 -0.36415523935E+02 -0.10530378460E+02  0.48867621026E+02  0.00000000000E+00 0.  1.
</event>
<event>
 6    1  0.1538147E-010  0.9550779E+02  0.7561462E-02  0.1290037E+00
         -1   -1    0    0    0  501 -0.00000000000E+00  0.00000000000E+00  0.72317839952E+03  0.72317839952E+03  0.00000000000E+00 0.  1.
          1   -1    0    0  501    0  0.00000000000E+00 -0.00000000000E+00 -0.17167711646E+02  0.17167711646E+02  0.00000000000E+00 0. -1.
          5    1    1    2  502    0 -0.59528329330E+02 -0.28504000722E+02  0.19593799790E+03  0.20679765828E+03  0.41800000000E+01 0. -1.
         -5    1    1    2    0  502  0.56712085037E+02  0.58099118282E+01  0.28304756476E+03  0.28876186033E+03  0.41800000000E+01 0. -1.
        -11    1    1    2    0    0  0.14334183093E+02  0.42476238049E+02  0.21359068097E+03  0.21824453853E+03  0.00000000000E+00 0.  1.
         11    1    1    2    0    0 -0.11517938800E+02 -0.19782149155E+02  0.13434444250E+02  0.26542054022E+02  0.00000000000E+00 0. -1.
</event>
<event>
 6    1  0.1538147E-010  0.4142964E+02  0.7561462E-02  0.1497947E+00
          2   -1    0    0  501    0  0.00000000000E+00  0.00000000000E+00  0.51550598661E+02  0.51550598661E+02  0.00000000000E+00 0. -1.
         -2   -1    0    0    0  501 -0.00000000000E+00 -0.00000000000E+00 -0.24143280249E+03  0.24143280249E+03  0.00000000000E+00 0.  1.
          5    1    1    2  502    0 -0.26441813237E+02  0.17562027895E+02  0.21236468484E+02  0.38419452165E+02  0.41800000000E+01 0. -1.
         -5    1    1    2    0  502  0.20033956158E+02  0.55895400056E+01 -0.12174389963E+03  0.12357852505E+03  0.41800000000E+01 0. -1.
        -11    1    1    2    0    0 -0.31779226038E+01 -0.18858589287E+02 -0.10795829605E+03  0.10963913201E+03  0.00000000000E+00 0.  1.
         11    1    1    2    0    0  0.95857796824E+01 -0.42929786135E+01  0.18583523375E+02  0.21346291915E+02  0.00000000000E+00 0. -1.
</event>
<event>
 7    1  0.1538147E-010  0.1103873E+03  0.7561462E-02  0.1259854E+00
         -1   -1    0    0    0  501 -0.00000000000E+00  0.00000000000E+00  0.76207288032E+02  0.76207288032E+02  0.00000000000E+00 0.  1.
          1   -1    0    0  501    0  0.00000000000E+00 -0.00000000000E+00 -0.20880423923E+03  0.20880423923E+03  0.00000000000E+00 0. -1.
         25    2    1    2    0    0 -0.46921431659E+02 -0.44350638332E+01 -0.31218301139E+02  0.13730274839E+03  0.12512462527E+03 0.  0.
          5    1    3    3  502    0  0.37350062927E+02  0.13905038126E+02  0.10473094127E+02  0.41419022037E+02  0.41800000000E+01 0. -1.
         -5    1    3    3    0  502 -0.84271494586E+02 -0.18340101959E+02 -0.41691395266E+02  0.95883726351E+02  0.41800000000E+01 0. -1.
        -11    1    1    2    0    0 -0.19344110458E+02 -0.15900646315E+02 -0.64506594356E+02  0.69196285146E+02  0.00000000000E+00 0. -1.
         11    1    1    2    0    0  0.66265542117E+02  0.20335710148E+02 -0.36872055699E+02  0.78512493725E+02  0.00000000000E+00 0.  1.
</event>
<event>
 6    1  0.1538147E-010  0.1150228E+03  0.7561462E-02  0.1251541E+00
          4   -1    0    0  501    0  0.00000000000E+00  0.00000000000E+00  0.85294458546E+02  0.85294458546E+02  0.00000000000E+00 0. -1.
         -4   -1    0    0    0  501 -0.00000000000E+00 -0.00000000000E+00 -0.17200254750E+03  0.17200254750E+03  0.00000000000E+00 0.  1.
          5    1    1    2  502    0 -0.26880442539E+01 -0.40327603249E+02 -0.23452516422E+02  0.46915179764E+02  0.41800000000E+01 0.  1.
         -5    1    1    2    0  502  0.26380985616E+00  0.90305894126E+02  0.61600117236E+00  0.90405066047E+02  0.41800000000E+01 0.  1.
        -11    1    1    2    0    0 -0.41153015720E+02 -0.30783628155E+02 -0.19738966484E+02  0.55052967795E+02  0.00000000000E+00 0. -1.
         11    1    1    2    0    0  0.43577250118E+02 -0.19194662722E+02 -0.44132607224E+02  0.64923792443E+02  0.00000000000E+00 0.  1.
</event>
<event>
 6    1  0.1538147E-010  0.8914900E+02  0.7561462E-02  0.1304926E+00
          1   -1    0    0  501    0  0.00000000000E+00  0.00000000000E+00  0.72700878111E+02  0.72700878111E+02  0.00000000000E+00 0. -1.
         -1   -1    0    0    0  501 -0.00000000000E+00 -0.00000000000E+00 -0.22556409998E+03  0.22556409998E+03  0.00000000000E+00 0.  1.
          5    1    1    2  502    0 -0.33652819624E+02 -0.56086867125E+02 -0.14167319038E+03  0.15609937285E+03  0.41800000000E+01 0. -1.
         -5    1    1    2    0  502  0.24292218687E+02  0.60129898643E+01  0.19777371652E+02  0.32169624886E+02  0.41800000000E+01 0. -1.
        -11    1    1    2    0    0  0.36290990918E+02  0.75780249566E+01 -0.44478011236E+02  0.57902987553E+02  0.00000000000E+00 0.  1.
         11    1    1    2    0    0 -0.26930389981E+02  0.42495852304E+02  0.13510608095E+02  0.52092992798E+02  0.00000000000E+00 0. -1.
</event>
<event>
 6    1  0.1538147E-010  0.9183730E+02  0.7561462E-02  0.1298462E+00
         -1   -1    0    0    0  501 -0.00000000000E+00  0.00000000000E+00  0.69910167388E+02  0.69910167388E+02  0.00000000000E+00 0.  1.
          1   -1    0    0  501    0  0.00000000000E+00 -0.00000000000E+00 -0.18186783280E+03  0.18186783280E+03  0.00000000000E+00 0. -1.
          5    1    1    2  502    0  0.30778166144E+02 -0.57454246919E+02  0.12402953825E+02  0.66480009506E+02  0.41800000000E+01 0. -1.
         -5    1    1    2    0  502 -0.10191043587E+02  0.33594543009E+02 -0.62582900190E+02  0.71878665023E+02  0.41800000000E+01 0. -1.
        -11    1    1    2    0    0  0.26892112069E+02  0.23211267333E+02 -0.54970773600E+02  0.65450245019E+02  0.00000000000E+00 0. -1.
         11    1    1    2    0    0 -0.47479234627E+02  0.64843657707E+00 -0.68069454434E+01  0.47969080636E+02  0.00000000000E+00 0.  1.
</event>
<event>
 7    1  0.1538147E-010  0.2814785E+03  0.7561462E-02  0.1094884E+00
         -1   -1    0    0    0  501 -0.00000000000E+00  0.00000000000E+00  0.12991641404E+03  0.12991641404E+03  0.00000000000E+00 0.  1.
          1   -1    0    0  501    0  0.00000000000E+00 -0.00000000000E+00 -0.71419848554E+03  0.71419848554E+03  0.00000000000E+00 0. -1.
         25    2    1    2    0    0  0.93098448674E+02  0.24975989252E+03 -0.43933559020E+03  0.52887177657E+03  0.12506906165E+03 0.  0.
          5    1    3    3  502    0 -0.23486524156E+02  0.11513709083E+02 -0.22352550405E+02  0.34659648345E+02  0.41800000000E+01 0.  1.
         -5    1    3    3    0  502  0.11658497283E+03  0.23824618344E+03 -0.41698303979E+03  0.49421212823E+03  0.41800000000E+01 0.  1.
        -11    1    1    2    0    0 -0.44691844419E+02 -0.56909940400E+02 -0.58708985527E+01  0.72598689546E+02  0.00000000000E+00 0.  1.
         11    1    1    2    0    0 -0.48406604255E+02 -0.19284995212E+03 -0.13907558276E+03  0.24264443346E+03  0.00000000000E+00 0. -1.
</event>
<event>
 6    1  0.1538147E-010  0.1301194E+03  0.7561462E-02  0.1227279E+00
          3   -1    0    0  501    0  0.00000000000E+00  0.00000000000E+00  0.34165272771E+03  0.34165272771E+03  0.00000000000E+00 0. -1.
         -3   -1    0    0    0  501 -0.00000000000E+00 -0.00000000000E+00 -0.59147401032E+02  0.59147401032E+02  0.00000000000E+00 0.  1.
          5    1    1    2  502    0  0.10108131029E+03 -0.38349384255E+02  0.51003028373E+02  0.11961140358E+03  0.41800000000E+01 0.  1.
         -5    1    1    2    0  502 -0.36779073798E+02  0.70770485738E-01  0.24877776989E+02  0.44599119563E+02  0.41800000000E+01 0.  1.
        -11    1    1    2    0    0  0.36156748679E+00 -0.24737200911E+02  0.50561972008E+02  0.56290077752E+02  0.00000000000E+00 0.  1.
         11    1    1    2    0    0 -0.64663803980E+02  0.63015814680E+02  0.15606254931E+03  0.18029952784E+03  0.00000000000E+00 0. -1.
</event>
<event>
 7    1  0.1538147E-010  0.2266230E+03  0.7561462E-02  0.1129039E+00
          2   -1    0    0  501    0  0.00000000000E+00  0.00000000000E+00  0.95741012656E+03  0.95741012656E+03  0.00000000000E+00 0. -1.
         -2   -1    0    0    0  501 -0.00000000000E+00 -0.00000000000E+00 -0.77432091649E+02  0.77432091649E+02  0.00000000000E+00 0.  1.
         25    2    1    2    0    0  0.19314522372E+03  0.87194618691E+02  0.69646001561E+03  0.73866242208E+03  0.12513049781E+03 0.  0.
          5    1    3    3  502    0  0.16310085532E+02 -0.17554831284E+02  0.19780292649E+03  0.19929290284E+03  0.41800000000E+01 0. -1.
         -5    1    3    3    0  502  0.17683513819E+03  0.10474944997E+03  0.49865708912E+03  0.53936951925E+03  0.41800000000E+01 0. -1.
        -11    1    1    2    0    0 -0.12703698817E+03 -0.92323136291E+02  0.88342599198E+02  0.18018427426E+03  0.00000000000E+00 0.  1.
         11    1    1    2    0    0 -0.66108235552E+02  0.51285176007E+01  0.95175420101E+02  0.11599552186E+03  0.00000000000E+00 0. -1.
</event>
<event>
 7    1  0.1538147E-010  0.1152728E+03  0.7561462E-02  0.1251106E+00
          4   -1    0    0  501    0  0.00000000000E+00  0.00000000000E+00  0.22304068373E+03  0.22304068373E+03  0.00000000000E+00 0. -1.
         -4   -1    0    0    0  501 -0.00000000000E+00 -0.00000000000E+00 -0.79256329926E+02  0.79256329926E+02  0.00000000000E+00 0.  1.
         25    2    1    2    0    0 -0.61383595036E+02 -0.36089172319E+02  0.12050964756E+03  0.18770357096E+03  0.12505871139E+03 0.  0.
          5    1    3    3  502    0  0.24753488975E+02  0.43551620202E+01  0.80419753770E+02  0.84359420631E+02  0.41800000000E+01 0.  1.
         -5    1    3    3    0  502 -0.86137084011E+02 -0.40444334339E+02  0.40089893794E+02  0.10334415033E+03  0.41800000000E+01 0.  1.
        -11    1    1    2    0    0  0.55811753701E+02 -0.15501713876E+02  0.50526987234E+00  0.57926766542E+02  0.00000000000E+00 0.  1.
         11    1    1    2    0    0  0.55718413346E+01  0.51590886195E+02  0.22769436367E+02  0.56666676157E+02  0.00000000000E+00 0. -1.
</event>
<event>
 7    1  0.1538147E-010  0.1585172E+03  0.7561462E-02  0.1190381E+00
         -4   -1    0    0    0  501 -0.00000000000E+00  0.00000000000E+00  0.22887576068E+03  0.22887576068E+03  0.00000000000E+00 0.  1.
          4   -1    0    0  501    0  0.00000000000E+00 -0.00000000000E+00 -0.15590814759E+03  0.15590814759E+03  0.00000000000E+00 0. -1.
         25    2    1    2    0    0  0.88190708108E+02  0.11129402536E+03 -0.21484310037E+02  0.19048059790E+03  0.12512921929E+03 0.  0.
          5    1    3    3  502    0  0.83573029106E+02  0.46366756394E+02 -0.61716572406E+02  0.11384522389E+03  0.41800000000E+01 0.  1.
         -5    1    3    3    0  502  0.46176790020E+01  0.64927268970E+02  0.40232262368E+02  0.76635374015E+02  0.41800000000E+01 0.  1.
        -11    1    1    2    0    0 -0.37917795479E+02 -0.96588142774E+02  0.96752096040E+02  0.14187317092E+03  0.00000000000E+00 0.  1.
         11    1    1    2    0    0 -0.50272912629E+02 -0.14705882590E+02 -0.23001729157E+01  0.52430139447E+02  0.00000000000E+00 0. -1.
</event>
<event>
 6    1  0.1538147E-010  0.9494081E+02  0.7561462E-02  0.1291309E+00
          2   -1    0    0  501    0  0.00000000000E+00  0.00000000000E+00  0.42407551538E+02  0.42407551538E+02  0.00000000000E+00 0. -1.
         -2   -1    0    0    0  501 -0.00000000000E+00 -0.00000000000E+00 -0.35251110238E+03  0.35251110238E+03  0.00000000000E+00 0.  1.
          5    1    1    2  502    0  0.53585368059E+02  0.30378016813E+02 -0.54830373441E+02  0.82571531578E+02  0.41800000000E+01 0. -1.
         -5    1    1    2    0  502 -0.36035858663E+02 -0.14648083869E+02 -0.18490342845E+03  0.18899708919E+03  0.41800000000E+01 0. -1.
        -11    1    1    2    0    0 -0.51949657487E+02 -0.20225386583E+01 -0.68869050644E+02  0.86289070642E+02  0.00000000000E+00 0.  1.
         11    1    1    2    0    0  0.34400148091E+02 -0.13707394286E+02 -0.15006983113E+01  0.37060962510E+02  0.00000000000E+00 0. -1.
</event>
<event>
 7    1  0.1538147E-010  0.1070688E+03  0.7561462E-02  0.1266096E+00
          1   -1    0    0  501    0  0.00000000000E+00  0.00000000000E+00  0.85463550920E+03  0.85463550920E+03  0.00000000000E+00 0. -1.
         -1   -1    0    0    0  501 -0.00000000000E+00 -0.00000000000E+00 -0.14248647805E+02  0.14248647805E+02  0.00000000000E+00 0.  1.
         25    2    1    2    0    0 -0.17255826166E+02 -0.97138298156E+01  0.48843601395E+03  0.50460249366E+03  0.12514717282E+03 0.  0.
          5    1    3    3  502    0 -0.35128335311E+02 -0.59381639813E+02  0.34129308079E+03  0.34822208213E+03  0.41800000000E+01 0.  1.
         -5    1    3    3    0  502  0.17872509145E+02  0.49667809997E+02  0.14714293316E+03  0.15638041153E+03  0.41800000000E+01 0.  1.
        -11    1    1    2    0    0  0.41421007310E+02  0.37054818501E+02  0.24677398962E+03  0.25295486035E+03  0.00000000000E+00 0. -1.
         11    1    1    2    0    0 -0.24165181144E+02 -0.27340988686E+02  0.10517685783E+03  0.11132680300E+03  0.00000000000E+00 0.  1.
</event>
<event>
 6    1  0.1538147E-010  0.1433879E+03  0.7561462E-02  0.1208842E+00
          1   -1    0    0  501    0  0.00000000000E+00  0.00000000000E+00  0.39078745003E+03  0.39078745003E+03  0.00000000000E+00 0. -1.
         -1   -1    0    0    0  501 -0.00000000000E+00 -0.00000000000E+00 -0.75658249373E+02  0.75658249373E+02  0.00000000000E+00 0.  1.
          5    1    1    2  502    0 -0.81514196858E+01  0.82747519083E+02  0.19779594646E+03  0.21460267098E+03  0.41800000000E+01 0. -1.
         -5    1    1    2    0  502 -0.42817290107E+02  0.37843864316E+02  0.51849231801E+01  0.57531158748E+02  0.41800000000E+01 0. -1.
        -11    1    1    2    0    0 -0.10975946393E+02 -0.54694600812E+02  0.79675652353E+01  0.56351156625E+02  0.00000000000E+00 0.  1.
         11    1    1    2    0    0  0.61944656185E+02 -0.65896782587E+02  0.10418076578E+03  0.13796071304E+03  0.00000000000E+00 0. -1.
</event>
<event>
 7    1  0.1538147E-010  0.1021603E+03  0.7561462E-02  0.1275818E+00
          2   -1    0    0  501    0  0.00000000000E+00  0.00000000000E+00  0.50862441021E+02  0.50862441021E+02  0.00000000000E+00 0. -1.
         -2   -1    0    0    0  501 -0.00000000000E+00 -0.00000000000E+00 -0.54708729602E+03  0.54708729602E+03  0.00000000000E+00 0.  1.
         25    2    1    2    0    0 -0.51258265417E+02  0.29214104620E+01 -0.57447300428E+02  0.14687165360E+03  0.12504057698E+03 0.  0.
          5    1    3    3  502    0  0.24036163042E+02 -0.12166454287E+01  0.25075204481E+02  0.35006508532E+02  0.41800000000E+01 0.  1.
         -5    1    3    3    0  502 -0.75294428459E+02  0.41380558907E+01 -0.82522504909E+02  0.11186514506E+03  0.41800000000E+01 0.  1.
        -11    1    1    2    0    0 -0.13193340466E+01  0.37827069735E+02 -0.14436550881E+03  0.14924485915E+03  0.00000000000E+00 0.  1.
         11    1    1    2    0    0  0.52577599464E+02 -0.40748480197E+02 -0.29441204576E+03  0.30183322430E+03  0.00000000000E+00 0. -1.
</event>
<event>
 7    1  0.1551372E-010  0.1754595E+03  0.7561462E-02  0.1172271E+00
         -1   -1    0    0    0  501 -0.00000000000E+00  0.00000000000E+00  0.48039626828E+03  0.48039626828E+03  0.00000000000E+00 0.  1.
          1   -1    0    0  501    0  0.00000000000E+00 -0.00000000000E+00 -0.82426303261E+02  0.82426303261E+02  0.00000000000E+00 0. -1.
         25    2    1    2    0    0  0.72690076638E+02 -0.14524332681E+03  0.15770430768E+03  0.25863494673E+03  0.12506764484E+03 0.  0.
          5    1    3    3  502    0  0.57468715535E+02 -0.13518064507E+03  0.17813559264E+03  0.23092471031E+03  0.41800000000E+01 0. -1.
         -5    1    3    3    0  502  0.15221361102E+02 -0.10062681742E+02 -0.20431284959E+02  0.27710236425E+02  0.41800000000E+01 0. -1.
        -11    1    1    2    0    0 -0.20616831748E+02  0.12909538899E+03  0.18524921272E+03  0.22673320009E+03  0.00000000000E+00 0.  1.
         11    1    1    2    0    0 -0.52073244890E+02  0.16147937816E+02  0.55016444616E+02  0.77454424711E+02  0.00000000000E+00 0. -1.
</event>
<event>
 7    1  0.1538147E-010  0.1077767E+03  0.7561462E-02  0.1264743E+00
         -1   -1    0    0    0  501 -0.00000000000E+00  0.00000000000E+00  0.49576703791E+02  0.49576703791E+02  0.00000000000E+00 0.  1.
          1   -1    0    0  501    0  0.00000000000E+00 -0.00000000000E+00 -0.32377839107E+03  0.32377839107E+03  0.00000000000E+00 0. -1.
         25    2    1    2    0    0 -0.50891226118E+02 -0.10763953178E+02 -0.10328114207E+03  0.17033419688E+03  0.12506384264E+03 0.  0.
          5    1    3    3  502    0 -0.91669234738E+02 -0.17897975290E+02 -0.77012413781E+02  0.12112790923E+03  0.41800000000E+01 0.  1.
         -5    1    3    3    0  502  0.40778008621E+02  0.71340221128E+01 -0.26268728287E+02  0.49206287651E+02  0.41800000000E+01 0.  1.
        -11    1    1    2    0    0 -0.10355777381E+02 -0.11322758315E+02  0.44318561716E+01  0.15971484907E+02  0.00000000000E+00 0.  1.
         11    1    1    2    0    0  0.61247003499E+02  0.22086711492E+02 -0.17535240139E+03  0.18704941308E+03  0.00000000000E+00 0. -1.
</event>
<event>
 6    1  0.1538147E-010  0.7861433E+02  0.7561462E-02  0.1333030E+00
          2   -1    0    0  501    0  0.00000000000E+00  0.00000000000E+00  0.13676017621E+03  0.13676017621E+03  0.00000000000E+00 0. -1.
         -2   -1    0    0    0  501 -0.00000000000E+00 -0.00000000000E+00 -0.10109988186E+03  0.10109988186E+03  0.00000000000E+00 0.  1.
          5    1    1    2  502    0  0.26927860751E+02 -0.11052108349E+01  0.59987307569E+02  0.65895983527E+02  0.41800000000E+01 0.  1.
         -5    1    1    2    0  502 -0.30151073776E+02  0.54986217954E+02 -0.26359975684E+02  0.68153445495E+02  0.41800000000E+01 0.  1.
        -11    1    1    2    0    0 -0.16629822058E+02 -0.38676427532E+02 -0.37931399739E+02  0.56667522572E+02  0.00000000000E+00 0.  1.
         11    1    1    2    0    0  0.19853035083E+02 -0.15204579587E+02  0.39964362206E+02  0.47143106484E+02  0.00000000000E+00 0. -1.
</event>
<event>
 6    1  0.1538147E-010  0.2162816E+03  0.7561462E-02  0.1136686E+00
          1   -1    0    0  501    0  0.00000000000E+00  0.00000000000E+00  0.38426677599E+03  0.38426677599E+03  0.00000000000E+00 0. -1.
         -1   -1    0    0    0  501 -0.00000000000E+00 -0.00000000000E+00 -0.13174844445E+03  0.13174844445E+03  0.00000000000E+00 0.  1.
          5    1    1    2  502    0  0.71996256985E+02  0.14361426887E+03  0.12876333683E+03  0.20592714380E+03  0.41800000000E+01 0. -1.
         -5    1    1    2    0  502 -0.46715701254E+02  0.54092430990E+02  0.28415525808E+02  0.77027672567E+02  0.41800000000E+01 0. -1.
        -11    1    1    2    0    0  0.24813367950E+01 -0.43999860820E+02 -0.93195118979E+01  0.45044401278E+02  0.00000000000E+00 0.  1.
         11    1    1    2    0    0 -0.27761892526E+02 -0.15370683904E+03  0.10465898080E+03  0.18801600279E+03  0.00000000000E+00 0. -1.
</event>
<event>
 7    1  0.1538147E-010  0.1244858E+03  0.7561462E-02  0.1235875E+00
         -1   -1    0    0    0  501 -0.00000000000E+00  0.00000000000E+00  0.20210773284E+02  0.20210773284E+02  0.00000000000E+00 0.  1.
          1   -1    0    0  501    0  0.00000000000E+00 -0.00000000000E+00 -0.10865744251E+04  0.10865744251E+04  0.00000000000E+00 0. -1.
         25    2    1    2    0    0 -0.76481857416E+02  0.26732911504E+02 -0.80173432138E+03  0.81547271401E+03  0.12511475596E+03 0.  0.
          5    1    3    3  502    0  0.29100550540E+02  0.52146149356E+00 -0.73791798958E+02  0.79434349983E+02  0.41800000000E+01 0. -1.
         -5    1    3    3    0  502 -0.10558240796E+03  0.26211450010E+02 -0.72794252242E+03  0.73603836403E+03  0.41800000000E+01 0. -1.
        -11    1    1    2    0    0 -0.95464582290E+01 -0.22644720371E+02 -0.12395444109E+03  0.12636701188E+03  0.00000000000E+00 0. -1.
         11    1    1    2    0    0  0.86028315645E+02 -0.40881911329E+01 -0.14067488931E+03  0.16494547245E+03  0.00000000000E+00 0.  1.
</event>
<event>
 6    1  0.1538147E-010  0.1966656E+03  0.7561462E-02  0.1152583E+00
         -1   -1    0    0    0  501 -0.00000000000E+00  0.00000000000E+00  0.31037640323E+02  0.31037640323E+02  0.00000000000E+00 0.  1.
          1   -1    0    0  501    0  0.00000000000E+00 -0.00000000000E+00 -0.14596607570E+04  0.14596607570E+04  0.00000000000E+00 0. -1.
          5    1    1    2  502    0  0.75405527753E+02 -0.45244260463E+02 -0.42256211874E+03  0.43163555613E+03  0.41800000000E+01 0.  1.
         -5    1    1    2    0  502  0.51966304201E+01 -0.11855319881E+03 -0.26100090744E+03  0.28674171653E+03  0.41800000000E+01 0.  1.
        -11    1    1    2    0    0 -0.53682071039E+02  0.65768976263E+02 -0.19107515226E+03  0.20908619467E+03  0.00000000000E+00 0. -1.
         11    1    1    2    0    0 -0.26920087134E+02  0.98028483008E+02 -0.55398493824E+03  0.56323493000E+03  0.00000000000E+00 0.  1.
</event>
<event>
 6    1  0.1538147E-010  0.1587814E+03  0.7561462E-02  0.1190079E+00
          2   -1    0    0  501    0  0.00000000000E+00  0.00000000000E+00  0.53383827753E+03  0.53383827753E+03  0.00000000000E+00 0. -1.
         -2   -1    0    0    0  501 -0.00000000000E+00 -0.00000000000E+00 -0.53386671098E+02  0.53386671098E+02  0.00000000000E+00 0.  1.
          5    1    1    2  502    0  0.24704402829E+02  0.61646622538E+02  0.12367337623E+03  0.14043927505E+03  0.41800000000E+01 0.  1.
         -5    1    1    2    0  502 -0.94918951531E+02  0.43953884175E+02  0.93359659211E+02  0.14026777842E+03  0.41800000000E+01 0.  1.
        -11    1    1    2    0    0  0.75149604909E+02 -0.49434820645E+02  0.21166056046E+03  0.22998142852E+03  0.00000000000E+00 0.  1.
         11    1    1    2    0    0 -0.49350562071E+01 -0.56165686069E+02  0.51758010531E+02  0.76536466639E+02  0.00000000000E+00 0. -1.
</event>
<event>
 6    1  0.1538147E-010  0.1170941E+03  0.7561462E-02  0.1247969E+00
         -2   -1    0    0    0  501 -0.00000000000E+00  0.00000000000E+00  0.17860800769E+02  0.17860800769E+02  0.00000000000E+00 0.  1.
          2   -1    0    0  501    0  0.00000000000E+00 -0.00000000000E+00 -0.10927464981E+04  0.10927464981E+04  0.00000000000E+00 0. -1.
          5    1    1    2  502    0 -0.38858230628E+02 -0.34074347380E+02 -0.52807709972E+03  0.53061654600E+03  0.41800000000E+01 0. -1.
         -5    1    1    2    0  502 -0.42486658811E+02  0.52324076039E+02 -0.15912764786E+03  0.17286412532E+03  0.41800000000E+01 0. -1.
        -11    1    1    2    0    0  0.54645491283E+02  0.28001672456E+02 -0.28329339978E+03  0.28987130547E+03  0.00000000000E+00 0.  1.
         11    1    1    2    0    0  0.26699398157E+02 -0.46251401114E+02 -0.10438755001E+03  0.11725532211E+03  0.00000000000E+00 0. -1.
</event>
<event>
 7    1  0.1538147E-010  0.9007918E+02  0.7561462E-02  0.1302660E+00
          2   -1    0    0  501    0  0.00000000000E+00  0.00000000000E+00  0.66532552061E+02  0.66532552061E+02  0.00000000000E+00 0. -1.
         -2   -1    0    0    0  501 -0.00000000000E+00 -0.00000000000E+00 -0.22295554685E+03  0.22295554685E+03  0.00000000000E+00 0.  1.
         25    2    1    2    0    0 -0.47247512167E+02  0.16204416199E+01 -0.59546812726E+02  0.14636488802E+03  0.12506759893E+03 0.  0.
          5    1    3    3  502    0  0.92848452237E+01  0.15555179459E+02 -0.81805007024E+02  0.83891021767E+02  0.41800000000E+01 0. -1.
         -5    1    3    3    0  502 -0.56532357391E+02 -0.13934737840E+02  0.22258194298E+02  0.62473866250E+02  0.41800000000E+01 0. -1.
        -11    1    1    2    0    0 -0.14028219298E+02  0.30817758323E+02 -0.46039911535E+02  0.57150665953E+02  0.00000000000E+00 0.  1.
         11    1    1    2    0    0  0.61275731466E+02 -0.32438199943E+02 -0.50836270527E+02  0.85972544939E+02  0.00000000000E+00 0. -1.
</event>
<event>
 7    1  0.1538147E-010  0.1307992E+03  0.7561462E-02  0.1226275E+00
         -1   -1    0    0    0  501 -0.00000000000E+00  0.00000000000E+00  0.45618835425E+02  0.45618835425E+02  0.00000000000E+00 0.  1.
          1   -1    0    0  501    0  0.00000000000E+00 -0.00000000000E+00 -0.71272560333E+03  0.71272560333E+03  0.00000000000E+00 0. -1.
         25    2    1    2    0    0 -0.79120269172E+02 -0.94326807207E+02 -0.50677060107E+03  0.53631055204E+03  0.12511995273E+03 0.  0.
          5    1    3    3  502    0 -0.14298642179E+02 -0.73349550651E+01 -0.31885532044E+03  0.31928739485E+03  0.41800000000E+01 0. -1.
         -5    1    3    3    0  502 -0.64821626993E+02 -0.86991852142E+02 -0.18791528063E+03  0.21702315719E+03  0.41800000000E+01 0. -1.
        -11    1    1    2    0    0  0.63134525778E+02  0.10099534206E+03 -0.89159086171E+02  0.14877960246E+03  0.00000000000E+00 0.  1.
         11    1    1    2    0    0  0.15985743394E+02 -0.66685348516E+01 -0.71177080668E+02  0.73254284252E+02  0.00000000000E+00 0. -1.
</event>
<event>
 6    1  0.1538147E-010  0.3523427E+03  0.7561462E-02  0.1061658E+00
         -1   -1    0    0    0  501 -0.00000000000E+00  0.00000000000E+00  0.24435542433E+03  0.24435542433E+03  0.00000000000E+00 0.  1.
          1   -1    0    0  501    0  0.00000000000E+00 -0.00000000000E+00 -0.66643503713E+03  0.66643503713E+03  0.00000000000E+00 0. -1.
          5    1    1    2  502    0  0.95004564585E+02 -0.11555982451E+03 -0.31702570643E+02  0.15297864465E+03  0.41800000000E+01 0. -1.
         -5    1    1    2    0  502  0.11608879545E+02 -0.21039157804E+03  0.24878871120E+02  0.21221642920E+03  0.41800000000E+01 0. -1.
        -11    1    1    2    0    0 -0.67433791315E+02  0.24836888717E+03 -0.24956787506E+03  0.35849483202E+03  0.00000000000E+00 0.  1.
         11    1    1    2    0    0 -0.39179652814E+02  0.77582515385E+02 -0.16568803822E+03  0.18710055558E+03  0.00000000000E+00 0. -1.
</event>
<event>
 7    1  0.2045905E-010  0.9766744E+02  0.7561462E-02  0.1285279E+00
          4   -1    0    0  501    0  0.00000000000E+00  0.00000000000E+00  0.74349266499E+03  0.74349266499E+03  0.00000000000E+00 0. -1.
         -4   -1    0    0    0  501 -0.00000000000E+00 -0.00000000000E+00 -0.16059126143E+02  0.16059126143E+02  0.00000000000E+00 0.  1.
         25    2    1    2    0    0  0.40133323322E+01  0.90001694012E+01  0.46470745208E+03  0.48135692979E+03  0.12511741667E+03 0.  0.
          5    1    3    3  502    0 -0.46192807740E+02  0.42112975840E+02  0.18819029761E+03  0.19834399092E+03  0.41800000000E+01 0. -1.
         -5    1    3    3    0  502  0.50206140072E+02 -0.33112806439E+02  0.27651715447E+03  0.28301293887E+03  0.41800000000E+01 0. -1.
        -11    1    1    2    0    0 -0.17311623273E+02  0.28090748831E+02  0.39275016389E+02  0.51296290144E+02  0.00000000000E+00 0.  1.
         11    1    1    2    0    0  0.13298290941E+02 -0.37090918233E+02  0.22345107038E+03  0.22689857120E+03  0.00000000000E+00 0. -1.
</event>
<event>
 7    1  0.1538147E-010  0.1839126E+03  0.7561462E-02  0.1164069E+00
          2   -1    0    0  501    0  0.00000000000E+00  0.00000000000E+00  0.42560919149E+03  0.42560919149E+03  0.00000000000E+00 0. -1.
         -2   -1    0    0    0  501 -0.00000000000E+00 -0.00000000000E+00 -0.93715831749E+02  0.93715831749E+02  0.00000000000E+00 0.  1.
         25    2    1    2    0    0  0.15736259968E+03 -0.42920674354E+02  0.22172473168E+03  0.30235976196E+03  0.12511753254E+03 0.  0.
          5    1    3    3  502    0 -0.14177829355E+01 -0.45569424198E+02  0.38155289662E+02  0.59597659848E+02  0.41800000000E+01 0. -1.
         -5    1    3    3    0  502  0.15878038262E+03  0.26487498434E+01  0.18356944202E+03  0.24276210211E+03  0.41800000000E+01 0. -1.
        -11    1    1    2    0    0 -0.48137304287E+02  0.15487886221E+02  0.89018900571E+02  0.10237890087E+03  0.00000000000E+00 0. -1.
         11    1    1    2    0    0 -0.10922529540E+03  0.27432788134E+02  0.21149727491E+02  0.11458636041E+03  0.00000000000E+00 0.  1.
</event>
<event>
 7    1  0.1538147E-010  0.2001077E+03  0.7561462E-02  0.1149648E+00
          3   -1    0    0  501    0  0.00000000000E+00  0.00000000000E+00  0.17781140840E+03  0.17781140840E+03  0.00000000000E+00 0. -1.
         -3   -1    0    0    0  501 -0.00000000000E+00 -0.00000000000E+00 -0.26489115102E+03  0.26489115102E+03  0.00000000000E+00 0.  1.
         25    2    1    2    0    0  0.14448790600E+03  0.10601380836E+03  0.98576442352E+01  0.21878372409E+03  0.12511379713E+03 0.  0.
          5    1    3    3  502    0 -0.10340461905E+02  0.40520518936E+02  0.26681466603E+02  0.49781629818E+02  0.41800000000E+01 0.  1.
         -5    1    3    3    0  502  0.15482836790E+03  0.65493289425E+02 -0.16823822368E+02  0.16900209427E+03  0.41800000000E+01 0.  1.
        -11    1    1    2    0    0 -0.88271383601E+02 -0.10015815792E+03 -0.10077277331E+03  0.16726818466E+03  0.00000000000E+00 0.  1.
         11    1    1    2    0    0 -0.56216522398E+02 -0.58556504444E+01  0.38353864531E+01  0.56650650675E+02  0.00000000000E+00 0. -1.
</event>
<event>
 7    1  0.1538147E-010  0.1404700E+03  0.7561462E-02  0.1212698E+00
          1   -1    0    0  501    0  0.00000000000E+00  0.00000000000E+00  0.64350436888E+03  0.64350436888E+03  0.00000000000E+00 0. -1.
         -1   -1    0    0    0  501 -0.00000000000E+00 -0.00000000000E+00 -0.46932918693E+02  0.46932918693E+02  0.00000000000E+00 0.  1.
         25    2    1    2    0    0  0.71006555987E+02 -0.89977169430E+02  0.45134195926E+03  0.48216947224E+03  0.12506004061E+03 0.  0.
          5    1    3    3  502    0  0.27749500228E+02 -0.99405190903E+02  0.18274160848E+03  0.20991282622E+03  0.41800000000E+01 0. -1.
         -5    1    3    3    0  502  0.43257055759E+02  0.94280214736E+01  0.26860035078E+03  0.27225664602E+03  0.41800000000E+01 0. -1.
        -11    1    1    2    0    0 -0.63346389335E+02  0.25559125231E+02  0.12113223853E+03  0.13906492418E+03  0.00000000000E+00 0. -1.
         11    1    1    2    0    0 -0.76601666519E+01  0.64418044199E+02  0.24097252391E+02  0.69202891156E+02  0.00000000000E+00 0.  1.
</event>
<event>
 7    1  0.1538147E-010  0.1118288E+03  0.7561462E-02  0.1257220E+00
         -2   -1    0    0    0  501 -0.00000000000E+00  0.00000000000E+00  0.33647708896E+02  0.33647708896E+02  0.00000000000E+00 0.  1.
          2   -1    0    0  501    0  0.00000000000E+00 -0.00000000000E+00 -0.41440146515E+03  0.41440146515E+03  0.00000000000E+00 0. -1.
         25    2    1    2    0    0  0.66690325670E+01 -0.46121803049E+02 -0.21826117530E+03  0.25582373516E+03  0.12504457651E+03 0.  0.
          5    1    3    3  502    0  0.59694596138E+02 -0.51272696392E+02 -0.14652212270E+03  0.16636868409E+03  0.41800000000E+01 0. -1.
         -5    1    3    3    0  502 -0.53025563571E+02  0.51508933430E+01 -0.71739052604E+02  0.89455051075E+02  0.41800000000E+01 0. -1.
        -11    1    1    2    0    0 -0.42462459220E+02  0.30926336340E+02 -0.47448794352E+02  0.70787617617E+02  0.00000000000E+00 0.  1.
         11    1    1    2    0    0  0.35793426653E+02  0.15195466709E+02 -0.11504378659E+03  0.12143782126E+03  0.00000000000E+00 0. -1.
</event>
<event>
 6    1  0.1538147E-010  0.1142475E+03  0.7561462E-02  0.1252900E+00
          2   -1    0    0  501    0  0.00000000000E+00  0.00000000000E+00  0.12538324041E+04  0.12538324041E+04  0.00000000000E+00 0. -1.
         -2   -1    0    0    0  501 -0.00000000000E+00 -0.00000000000E+00 -0.18620839048E+02  0.18620839048E+02  0.00000000000E+00 0.  1.
          5    1    1    2  502    0  0.16121852690E+02 -0.11152863997E+02  0.28826054536E+02  0.35110031752E+02  0.41800000000E+01 0.  1.
         -5    1    1    2    0  502 -0.36464412748E+02  0.86914537999E+02  0.97070146324E+03  0.97527564998E+03  0.41800000000E+01 0.  1.
        -11    1    1    2    0    0  0.51851156300E+02 -0.34888291574E+02  0.11690839887E+03  0.13256435805E+03  0.00000000000E+00 0.  1.
         11    1    1    2    0    0 -0.31508596242E+02 -0.40873382428E+02  0.11877564845E+03  0.12950320341E+03  0.00000000000E+00 0. -1.
</event>
<event>
 6    1  0.1538147E-010  0.9141726E+02  0.7561462E-02  0.1299455E+00
          2   -1    0    0  501    0  0.00000000000E+00  0.00000000000E+00  0.25407447805E+02  0.25407447805E+02  0.00000000000E+00 0.  1.
         -2   -1    0    0    0  501 -0.00000000000E+00 -0.00000000000E+00 -0.63770446675E+03  0.63770446675E+03  0.00000000000E+00 0. -1.
          5    1    1    2  502    0 -0.60678482149E+02  0.30397047451E+01 -0.48641399839E+02  0.77939567481E+02  0.41800000000E+01 0.  1.
         -5    1    1    2    0  502 -0.67357756601E+01 -0.11960325434E+02 -0.27627139830E+03  0.27664377452E+03  0.41800000000E+01 0.  1.
        -11    1    1    2    0    0 -0.78450117806E+01 -0.24142868250E+02 -0.36033834270E+02  0.44077880046E+02  0.00000000000E+00 0.  1.
         11    1    1    2    0    0  0.75259269589E+02  0.33063488938E+02 -0.25135038653E+03  0.26445069251E+03  0.00000000000E+00 0. -1.
</event>
<event>
 7    1  0.1538147E-010  0.2745327E+03  0.7561462E-02  0.1098713E+00
         -1   -1    0    0    0  501 -0.00000000000E+00  0.00000000000E+00  0.54101567495E+02  0.54101567495E+02  0.00000000000E+00 0.  1.
          1   -1    0    0  501    0  0.00000000000E+00 -0.00000000000E+00 -0.15300617526E+04  0.15300617526E+04  0.00000000000E+00 0. -1.
         25    2    1    2    0    0  0.12453002353E+03 -0.22452033535E+03 -0.95212782327E+03  0.99403493652E+03  0.12506380548E+03 0.  0.
          5    1    3    3  502    0  0.69545884072E+02 -0.21611746713E+03 -0.70397000558E+03  0.73968549448E+03  0.41800000000E+01 0. -1.
         -5    1    3    3    0  502  0.54984139461E+02 -0.84028682143E+01 -0.24815781769E+03  0.25434944204E+03  0.41800000000E+01 0. -1.
        -11    1    1    2    0    0 -0.23829224338E+02  0.11497294177E+03 -0.29116370645E+03  0.31394730964E+03  0.00000000000E+00 0. -1.
         11    1    1    2    0    0 -0.10070079920E+03  0.10954739357E+03 -0.23266865533E+03  0.27618107388E+03  0.00000000000E+00 0.  1.
</event>
<event>
 7    1  0.1538147E-010  0.8163774E+02  0.7561462E-02  0.1324467E+00
          1   -1    0    0  501    0  0.00000000000E+00  0.00000000000E+00  0.49966318352E+02  0.49966318352E+02  0.00000000000E+00 0. -1.
         -1   -1    0    0    0  501 -0.00000000000E+00 -0.00000000000E+00 -0.30635254709E+03  0.30635254709E+03  0.00000000000E+00 0.  1.
         25    2    1    2    0    0  0.42600557405E+02 -0.28879457180E+02 -0.17600569501E+03  0.22199031183E+03  0.12511140368E+03 0.  0.
          5    1    3    3  502    0  0.11131946076E+02  0.65526777170E+01  0.17825130598E+02  0.22406817926E+02  0.41800000000E+01 0.  1.
         -5    1    3    3    0  502  0.31468611329E+02 -0.35432134897E+02 -0.19383082561E+03  0.19958349390E+03  0.41800000000E+01 0.  1.
        -11    1    1    2    0    0 -0.53349319879E+02 -0.16222004102E+02 -0.22406146284E+02  0.60094415214E+02  0.00000000000E+00 0. -1.
         11    1    1    2    0    0  0.10748762474E+02  0.45101461283E+02 -0.57974387450E+02  0.74234138405E+02  0.00000000000E+00 0.  1.
</event>
<event>
 7    1  0.1538147E-010  0.9175944E+02  0.7561462E-02  0.1298646E+00
         -2   -1    0    0    0  501 -0.00000000000E+00  0.00000000000E+00  0.13924935604E+03  0.13924935604E+03  0.00000000000E+00 0.  1.
          2   -1    0    0  501    0  0.00000000000E+00 -0.00000000000E+00 -0.84573651233E+02  0.84573651233E+02  0.00000000000E+00 0. -1.
         25    2    1    2    0    0 -0.79722175939E+01 -0.34606740551E+01  0.31357471390E+02  0.12923077211E+03  0.12506705774E+03 0.  0.
          5    1    3    3  502    0  0.35746101573E+02  0.28869508602E+02  0.53257566758E+02  0.70463274985E+02  0.41800000000E+01 0.  1.
         -5    1    3    3    0  502 -0.43718319167E+02 -0.32330182658E+02 -0.21900095368E+02  0.58767497127E+02  0.41800000000E+01 0.  1.
        -11    1    1    2    0    0  0.20545403686E+02 -0.35989617809E+02  0.31912063415E+02  0.52304359226E+02  0.00000000000E+00 0.  1.
         11    1    1    2    0    0 -0.12573186092E+02  0.39450291864E+02 -0.85938300017E+01  0.42287875931E+02  0.00000000000E+00 0. -1.
</event>
<event>
 7    1  0.1538147E-010  0.1063331E+03  0.7561462E-02  0.1267515E+00
          3   -1    0    0  501    0  0.00000000000E+00  0.00000000000E+00  0.29100752958E+03  0.29100752958E+03  0.00000000000E+00 0. -1.
         -3   -1    0    0    0  501 -0.00000000000E+00 -0.00000000000E+00 -0.48680498384E+02  0.48680498384E+02  0.00000000000E+00 0.  1.
         25    2    1    2    0    0  0.37891266572E+02 -0.33154443047E+02  0.13360653964E+03  0.18983990537E+03  0.12511401624E+03 0.  0.
          5    1    3    3  502    0  0.79055384572E+02 -0.14014192816E+02  0.11563492301E+03  0.14083699531E+03  0.41800000000E+01 0.  1.
         -5    1    3    3    0  502 -0.41164118000E+02 -0.19140250231E+02  0.17971616634E+02  0.49002910057E+02  0.41800000000E+01 0.  1.
        -11    1    1    2    0    0 -0.12644249492E+02 -0.22364393465E+02  0.58393550063E+00  0.25697940014E+02  0.00000000000E+00 0.  1.
         11    1    1    2    0    0 -0.25247017080E+02  0.55518836513E+02  0.10813655605E+03  0.12415018258E+03  0.00000000000E+00 0. -1.
</event>
<event>
 7    1  0.1538147E-010  0.1501424E+03  0.7561462E-02  0.1200298E+00
         -2   -1    0    0    0  501 -0.00000000000E+00  0.00000000000E+00  0.20056961890E+02  0.20056961890E+02  0.00000000000E+00 0.  1.
          2   -1    0    0  501    0  0.00000000000E+00 -0.00000000000E+00 -0.12351284238E+04  0.12351284238E+04  0.00000000000E+00 0. -1.
         25    2    1    2    0    0 -0.37455905643E+02 -0.10583964840E+03 -0.61231188809E+03  0.63496929352E+03  0.12512065924E+03 0.  0.
          5    1    3    3  502    0 -0.68707852604E+02 -0.10183825313E+03 -0.56329049434E+03  0.57654614058E+03  0.41800000000E+01 0. -1.
         -5    1    3    3    0  502  0.31251946962E+02 -0.40013952673E+01 -0.49021393758E+02  0.58423152936E+02  0.41800000000E+01 0. -1.
        -11    1    1    2    0    0  0.59391634873E+02  0.29813863355E+02 -0.30164541509E+03  0.30887892318E+03  0.00000000000E+00 0.  1.
         11    1    1    2    0    0 -0.21935729231E+02  0.76025785046E+02 -0.30111415870E+03  0.31133716897E+03  0.00000000000E+00 0. -1.
</event>
<event>
 7    1  0.1538147E-010  0.9701879E+02  0.7561462E-02  0.1286693E+00
         -2   -1    0    0    0  501 -0.00000000000E+00  0.00000000000E+00  0.25778847640E+02  0.25778847640E+02  0.00000000000E+00 0. -1.
          2   -1    0    0  501    0  0.00000000000E+00 -0.00000000000E+00 -0.70387161034E+03  0.70387161034E+03  0.00000000000E+00 0.  1.
         25    2    1    2    0    0 -0.75099324156E+02 -0.40149709874E+01 -0.43652553886E+03  0.46027446287E+03  0.12506800795E+03 0.  0.
          5    1    3    3  502    0 -0.48338735511E+02 -0.23695636967E+02 -0.41903726451E+03  0.42250185563E+03  0.41800000000E+01 0. -1.
         -5    1    3    3    0  502 -0.26760588645E+02  0.19680665979E+02 -0.17488274352E+02  0.37772607242E+02  0.41800000000E+01 0. -1.
        -11    1    1    2    0    0  0.77966827640E+02 -0.21506809796E+02 -0.22427994195E+03  0.23841741010E+03  0.00000000000E+00 0. -1.
         11    1    1    2    0    0 -0.28675034838E+01  0.25521780783E+02 -0.17287281893E+02  0.30958585010E+02  0.00000000000E+00 0.  1.
</event>
<event>
 7    1  0.1538147E-010  0.1118865E+03  0.7561462E-02  0.1257116E+00
          2   -1    0    0  501    0  0.00000000000E+00  0.00000000000E+00  0.13042882104E+03  0.13042882104E+03  0.00000000000E+00 0. -1.
         -2   -1    0    0    0  501 -0.00000000000E+00 -0.00000000000E+00 -0.14610230366E+03  0.14610230366E+03  0.00000000000E+00 0.  1.
         25    2    1    2    0    0 -0.80433864772E+02 -0.16853204097E+02 -0.10622830338E+02  0.15009026207E+03  0.12514233957E+03 0.  0.
          5    1    3    3  502    0 -0.99378575329E+02 -0.22245013311E+02  0.28721215935E+02  0.10589297661E+03  0.41800000000E+01 0. -1.
         -5    1    3    3    0  502  0.18944710556E+02  0.53918092138E+01 -0.39344046273E+02  0.44197285457E+02  0.41800000000E+01 0. -1.
        -11    1    1    2    0    0  0.85385875678E+02  0.13047578190E+01 -0.35035403680E+02  0.92303465099E+02  0.00000000000E+00 0.  1.
         11    1    1    2    0    0 -0.49520109056E+01  0.15548446278E+02  0.29984751394E+02  0.34137397525E+02  0.00000000000E+00 0. -1.
</event>
<event>
 6    1  0.1538147E-010  0.9374719E+02  0.7561462E-02  0.1294023E+00
          1   -1    0    0  501    0  0.00000000000E+00  0.00000000000E+00  0.58030599529E+02  0.58030599529E+02  0.00000000000E+00 0. -1.
         -1   -1    0    0    0  501 -0.00000000000E+00 -0.00000000000E+00 -0.21577100826E+03  0.21577100826E+03  0.00000000000E+00 0.  1.
          5    1    1    2  502    0  0.73908202231E+02 -0.28402639259E+01 -0.50074915228E+02  0.89417330486E+02  0.41800000000E+01 0.  1.
         -5    1    1    2    0  502 -0.48835916923E+02  0.14678415368E+02 -0.66246618925E+02  0.83704776317E+02  0.41800000000E+01 0.  1.
        -11    1    1    2    0    0 -0.40543729324E+02 -0.19493580144E+02 -0.60212080294E+02  0.75161747369E+02  0.00000000000E+00 0.  1.
         11    1    1    2    0    0  0.15471444015E+02  0.76554287020E+01  0.18793205716E+02  0.25517753616E+02  0.00000000000E+00 0. -1.
</event>
<event>
 6    1  0.1538147E-010  0.6772331E+02  0.7561462E-02  0.1368011E+00
          1   -1    0    0  501    0  0.00000000000E+00  0.00000000000E+00  0.84647340416E+02  0.84647340416E+02  0.00000000000E+00 0. -1.
         -1   -1    0    0    0  501 -0.00000000000E+00 -0.00000000000E+00 -0.16754696740E+03  0.16754696740E+03  0.00000000000E+00 0.  1.
          5    1    1    2  502    0 -0.46203439985E+02 -0.23991963932E+01  0.43489603181E+02  0.63634361745E+02  0.41800000000E+01 0.  1.
         -5    1    1    2    0  502  0.15865821561E+02 -0.29229495416E+02 -0.60312058298E+02  0.69000757041E+02  0.41800000000E+01 0.  1.
        -11    1    1    2    0    0  0.35944616006E+02  0.16912251072E+02 -0.85663965357E+02  0.94426450832E+02  0.00000000000E+00 0.  1.
         11    1    1    2    0    0 -0.56069975817E+01  0.14716440738E+02  0.19586793493E+02  0.25132738195E+02  0.00000000000E+00 0. -1.
</event>
<event>
 6    1  0.1538147E-010  0.1372781E+03  0.7561462E-02  0.1217039E+00
         -1   -1    0    0    0  501 -0.00000000000E+00  0.00000000000E+00  0.22481569071E+02  0.22481569071E+02  0.00000000000E+00 0.  1.
          1   -1    0    0  501    0  0.00000000000E+00 -0.00000000000E+00 -0.89627082850E+03  0.89627082850E+03  0.00000000000E+00 0. -1.
          5    1    1    2  502    0 -0.88996567929E+02  0.20392744964E+02 -0.23364038734E+03  0.25088155801E+03  0.41800000000E+01 0. -1.
         -5    1    1    2    0  502  0.31574093123E+02  0.50206885300E+02 -0.24509401032E+03  0.25220269821E+03  0.41800000000E+01 0. -1.
        -11    1    1    2    0    0  0.90838229502E+01 -0.74642465902E+02 -0.17747951690E+03  0.19275111537E+03  0.00000000000E+00 0.  1.
         11    1    1    2    0    0  0.48338651855E+02  0.40428356382E+01 -0.21757534487E+03  0.22291702599E+03  0.00000000000E+00 0. -1.
</event>
<event>
 6    1  0.1538147E-010  0.1717317E+03  0.7561462E-02  0.1176054E+00
         -3   -1    0    0    0  501 -0.00000000000E+00  0.00000000000E+00  0.31475020311E+03  0.31475020311E+03  0.00000000000E+00 0.  1.
          3   -1    0    0  501    0  0.00000000000E+00 -0.00000000000E+00 -0.12441918335E+03  0.12441918335E+03  0.00000000000E+00 0. -1.
          5    1    1    2  502    0  0.44758341108E+01  0.27355918232E+02  0.10136881372E+03  0.10517360956E+03  0.41800000000E+01 0.  1.
         -5    1    1    2    0  502  0.13087089322E+03  0.46024331190E+02  0.63126391556E+02  0.15247243510E+03  0.41800000000E+01 0.  1.
        -11    1    1    2    0    0 -0.14785760105E+03 -0.70482004134E+02  0.32597959442E+02  0.16700961067E+03  0.00000000000E+00 0.  1.
         11    1    1    2    0    0  0.12510873721E+02 -0.28982452876E+01 -0.67621449504E+01  0.14513731131E+02  0.00000000000E+00 0. -1.
</event>
<event>
 6    1  0.1538147E-010  0.2268137E+03  0.7561462E-02  0.1128903E+00
         -1   -1    0    0    0  501 -0.00000000000E+00  0.00000000000E+00  0.80545170193E+02  0.80545170193E+02  0.00000000000E+00 0.  1.
          1   -1    0    0  501    0  0.00000000000E+00 -0.00000000000E+00 -0.69763342369E+03  0.69763342369E+03  0.00000000000E+00 0. -1.
          5    1    1    2  502    0 -0.40889705771E+02  0.15414955555E+02 -0.53978577796E+02  0.69575485292E+02  0.41800000000E+01 0.  1.
         -5    1    1    2    0  502  0.47104822079E+02  0.19307004705E+03 -0.30839116710E+03  0.36690256428E+03  0.41800000000E+01 0.  1.
        -11    1    1    2    0    0  0.12205585280E+02 -0.11670714812E+03 -0.20372749361E+03  0.23510513901E+03  0.00000000000E+00 0.  1.
         11    1    1    2    0    0 -0.18420701588E+02 -0.91777854486E+02 -0.50991014986E+02  0.10659540530E+03  0.00000000000E+00 0. -1.
</event>
<event>
 6    1  0.1538147E-010  0.1483209E+03  0.7561462E-02  0.1202552E+00
          3   -1    0    0  501    0  0.00000000000E+00  0.00000000000E+00  0.63215423411E+02  0.63215423411E+02  0.00000000000E+00 0. -1.
         -3   -1    0    0    0  501 -0.00000000000E+00 -0.00000000000E+00 -0.36337190418E+03  0.36337190418E+03  0.00000000000E+00 0.  1.
          5    1    1    2  502    0  0.62699140440E+02 -0.89233642630E+02 -0.87495021476E+02  0.13988093641E+03  0.41800000000E+01 0. -1.
         -5    1    1    2    0  502 -0.51091689338E+02 -0.15144588897E+02 -0.58779137086E+02  0.79449220568E+02  0.41800000000E+01 0. -1.
        -11    1    1    2    0    0  0.36226189831E+02  0.42678087824E+02 -0.91754682545E+02  0.10748338373E+03  0.00000000000E+00 0.  1.
         11    1    1    2    0    0 -0.47833640933E+02  0.61700143703E+02 -0.62127639666E+02  0.99773786880E+02  0.00000000000E+00 0. -1.
</event>
<event>
 7    1  0.1538147E-010  0.1390560E+03  0.7561462E-02  0.1214605E+00
         -1   -1    0    0    0  501 -0.00000000000E+00  0.00000000000E+00  0.34720288007E+03  0.34720288007E+03  0.00000000000E+00 0.  1.
          1   -1    0    0  501    0  0.00000000000E+00 -0.00000000000E+00 -0.65486195878E+02  0.65486195878E+02  0.00000000000E+00 0. -1.
         25    2    1    2    0    0  0.33185798108E+02 -0.96099439597E+02  0.18341827449E+03  0.24419934221E+03  0.12511856710E+03 0.  0.
          5    1    3    3  502    0 -0.26518481572E+01 -0.10786215948E+03  0.17451793593E+03  0.20522002853E+03  0.41800000000E+01 0.  1.
         -5    1    3    3    0  502  0.35837646265E+02  0.11762719887E+02  0.89003385605E+01  0.38979313686E+02  0.41800000000E+01 0.  1.
        -11    1    1    2    0    0  0.26327384465E+02  0.11447868237E+02  0.49580530570E+01  0.29133608600E+02  0.00000000000E+00 0. -1.
         11    1    1    2    0    0 -0.59513182573E+02  0.84651571360E+02  0.93340356641E+02  0.13935612513E+03  0.00000000000E+00 0.  1.
</event>
<event>
 6    1  0.1538147E-010  0.1300462E+03  0.7561462E-02  0.1227387E+00
         -1   -1    0    0    0  501 -0.00000000000E+00  0.00000000000E+00  0.74915981235E+02  0.74915981235E+02  0.00000000000E+00 0.  1.
          1   -1    0    0  501    0  0.00000000000E+00 -0.00000000000E+00 -0.84749121770E+03  0.84749121770E+03  0.00000000000E+00 0. -1.
          5    1    1    2  502    0 -0.40235737389E+02  0.11566943811E+03 -0.59616528775E+03  0.60862866856E+03  0.41800000000E+01 0.  1.
         -5    1    1    2    0  502 -0.17549090010E+01 -0.32905254545E+02 -0.17903768456E+03  0.18209283449E+03  0.41800000000E+01 0.  1.
        -11    1    1    2    0    0  0.10135524429E+02 -0.68822804531E+02 -0.37140873845E+02  0.78859062820E+02  0.00000000000E+00 0. -1.
         11    1    1    2    0    0  0.31855121961E+02 -0.13941379033E+02  0.39768609685E+02  0.52826633063E+02  0.00000000000E+00 0.  1.
</event>
<event>
 6    1  0.1538147E-010  0.7455444E+02  0.7561462E-02  0.1345256E+00
         -1   -1    0    0    0  501 -0.00000000000E+00  0.00000000000E+00  0.91183155908E+02  0.91183155908E+02  0.00000000000E+00 0.  1.
          1   -1    0    0  501    0  0.00000000000E+00 -0.00000000000E+00 -0.13167578857E+03  0.13167578857E+03  0.00000000000E+00 0. -1.
          5    1    1    2  502    0  0.17909256710E+02  0.28528938954E+02  0.50704588673E+02  0.61016961136E+02  0.41800000000E+01 0. -1.
         -5    1    1    2    0  502 -0.35417389355E+01 -0.25115447561E+02 -0.59331495030E+02  0.64660871656E+02  0.41800000000E+01 0. -1.
        -11    1    1    2    0    0 -0.51228783924E+02  0.55384138048E+01 -0.74327795858E+01  0.52060623721E+02  0.00000000000E+00 0. -1.
         11    1    1    2    0    0  0.36861266150E+02 -0.89519051980E+01 -0.24432946720E+02  0.45120487966E+02  0.00000000000E+00 0.  1.
</event>
<event>
 6    1  0.1538147E-010  0.1849018E+03  0.7561462E-02  0.1163142E+00
          2   -1    0    0  501    0  0.00000000000E+00  0.00000000000E+00  0.20636624057E+03  0.20636624057E+03  0.00000000000E+00 0. -1.
         -2   -1    0    0    0  501 -0.00000000000E+00 -0.00000000000E+00 -0.25073783188E+03  0.25073783188E+03  0.00000000000E+00 0.  1.
          5    1    1    2  502    0 -0.43747596174E+02 -0.15042653620E+02  0.18465242922E+02  0.49985709909E+02  0.41800000000E+01 0.  1.
         -5    1    1    2    0  502  0.60258261223E+02 -0.14569737112E+03  0.77376820820E+02  0.17567989867E+03  0.41800000000E+01 0.  1.
        -11    1    1    2    0    0 -0.26760134530E+02  0.13955181712E+03 -0.14939070374E+03  0.20617564556E+03  0.00000000000E+00 0.  1.
         11    1    1    2    0    0  0.10249469480E+02  0.21188207618E+02  0.91770486770E+01  0.25262818313E+02  0.00000000000E+00 0. -1.
</event>
<event>
 7    1  0.1538147E-010  0.8293898E+02  0.7561462E-02  0.1320912E+00
         -2   -1    0    0    0  501 -0.00000000000E+00  0.00000000000E+00  0.15103638425E+03  0.15103638425E+03  0.00000000000E+00 0. -1.
          2   -1    0    0  501    0  0.00000000000E+00 -0.00000000000E+00 -0.78456872103E+02  0.78456872103E+02  0.00000000000E+00 0.  1.
         25    2    1    2    0    0 -0.62517678576E+01 -0.39666273252E+00  0.39479730296E+02  0.13129011961E+03  0.12505680493E+03 0.  0.
          5    1    3    3  502    0  0.21781948183E+02  0.41949062524E+02 -0.21268798498E+02  0.52000108681E+02  0.41800000000E+01 0. -1.
         -5    1    3    3    0  502 -0.28033716040E+02 -0.42345725257E+02  0.60748528794E+02  0.79290010929E+02  0.41800000000E+01 0. -1.
        -11    1    1    2    0    0  0.22825671606E+02  0.27476758814E+02 -0.16471785347E+02  0.39335775976E+02  0.00000000000E+00 0.  1.
         11    1    1    2    0    0 -0.16573903748E+02 -0.27080096081E+02  0.49571567199E+02  0.58867360768E+02  0.00000000000E+00 0. -1.
</event>
<event>
 6    1  0.1538147E-010  0.1029305E+03  0.7561462E-02  0.1274251E+00
          1   -1    0    0  501    0  0.00000000000E+00  0.00000000000E+00  0.10570977740E+03  0.10570977740E+03  0.00000000000E+00 0. -1.
         -1   -1    0    0    0  501 -0.00000000000E+00 -0.00000000000E+00 -0.18670568170E+03  0.18670568170E+03  0.00000000000E+00 0.  1.
          5    1    1    2  502    0  0.42643976954E+02 -0.70980542391E+01  0.51835827647E+02  0.67626300892E+02  0.41800000000E+01 0. -1.
         -5    1    1    2    0  502 -0.53442272404E+02  0.42687569354E+02 -0.97462548810E+01  0.69215366367E+02  0.41800000000E+01 0. -1.
        -11    1    1    2    0    0  0.48596495637E+02 -0.14989235121E+02 -0.54026323933E+02  0.74196632237E+02  0.00000000000E+00 0.  1.
         11    1    1    2    0    0 -0.37798200187E+02 -0.20600279994E+02 -0.69059153138E+02  0.81377159605E+02  0.00000000000E+00 0. -1.
</event>
<event>
 7    1  0.1538147E-010  0.7952511E+02  0.7561462E-02  0.1330405E+00
          1   -1    0    0  501    0  0.00000000000E+00  0.00000000000E+00  0.15733664431E+03  0.15733664431E+03  0.00000000000E+00 0. -1.
         -1   -1    0    0    0  501 -0.00000000000E+00 -0.00000000000E+00 -0.98597732007E+02  0.98597732007E+02  0.00000000000E+00 0.  1.
         25    2    1    2    0    0 -0.22098499939E+02  0.19966377239E+02 -0.50865934668E+01  0.12864849047E+03  0.12505023290E+03 0.  0.
          5    1    3    3  502    0  0.37135702682E+02  0.46018507127E+02  0.14273379216E+02  0.60975119238E+02  0.41800000000E+01 0.  1.
         -5    1    3    3    0  502 -0.59234202621E+02 -0.26052129888E+02 -0.19359972683E+02  0.67673371234E+02  0.41800000000E+01 0.  1.
        -11    1    1    2    0    0  0.47057355373E+01 -0.16541023857E+02  0.92221304921E+02  0.93811078762E+02  0.00000000000E+00 0. -1.
         11    1    1    2    0    0  0.17392764402E+02 -0.34253533813E+01 -0.28395799155E+02  0.33474807079E+02  0.00000000000E+00 0.  1.
</event>
<event>
 7    1  0.1538147E-010  0.1406729E+03  0.7561462E-02  0.1212426E+00
          1   -1    0    0  501    0  0.00000000000E+00  0.00000000000E+00  0.11238638429E+03  0.11238638429E+03  0.00000000000E+00 0. -1.
         -1   -1    0    0    0  501 -0.00000000000E+00 -0.00000000000E+00 -0.22087519218E+03  0.22087519218E+03  0.00000000000E+00 0.  1.
         25    2    1    2    0    0 -0.29897585649E+02  0.11182749692E+03 -0.53945657594E+02  0.17874317496E+03  0.12505892182E+03 0.  0.
          5    1    3    3  502    0 -0.58345592402E+02  0.12144352849E+03 -0.60455892972E+02  0.14773329402E+03  0.41800000000E+01 0.  1.
         -5    1    3    3    0  502  0.28448006753E+02 -0.96160315732E+01  0.65102353784E+01  0.31009880944E+02  0.41800000000E+01 0.  1.
        -11    1    1    2    0    0  0.97403907382E+01 -0.56752626453E+02 -0.73053345431E+02  0.93018960969E+02  0.00000000000E+00 0.  1.
         11    1    1    2    0    0  0.20157194910E+02 -0.55074870467E+02  0.18510195135E+02  0.61499440547E+02  0.00000000000E+00 0. -1.
</event>
<event>
 6    1  0.1538147E-010  0.1598702E+03  0.7561462E-02  0.1188843E+00
          2   -1    0    0  501    0  0.00000000000E+00  0.00000000000E+00  0.69496474805E+03  0.69496474805E+03  0.00000000000E+00 0. -1.
         -2   -1    0    0    0  501 -0.00000000000E+00 -0.00000000000E+00 -0.47684455798E+02  0.47684455798E+02  0.00000000000E+00 0.  1.
          5    1    1    2  502    0 -0.84475543713E+02 -0.10302652677E+03  0.11602702471E+03  0.17672103883E+03  0.41800000000E+01 0.  1.
         -5    1    1    2    0  502  0.15152280054E+02 -0.16542716882E+02  0.12966271929E+03  0.13165540720E+03  0.41800000000E+01 0.  1.
        -11    1    1    2    0    0  0.52445547898E+02  0.10790958073E+02  0.10397992370E+03  0.11695642267E+03  0.00000000000E+00 0.  1.
         11    1    1    2    0    0  0.16877715761E+02  0.10877828557E+03  0.29761062456E+03  0.31731633515E+03  0.00000000000E+00 0. -1.
</event>
<event>
 7    1  0.1538147E-010  0.9811690E+02  0.7561462E-02  0.1284306E+00
          1   -1    0    0  501    0  0.00000000000E+00  0.00000000000E+00  0.99533493421E+02  0.99533493421E+02  0.00000000000E+00 0. -1.
         -1   -1    0    0    0  501 -0.00000000000E+00 -0.00000000000E+00 -0.14984134893E+03  0.14984134893E+03  0.00000000000E+00 0.  1.
         25    2    1    2    0    0  0.11319897080E+02  0.45893916081E+02  0.54390698911E+01  0.13385375013E+03  0.12511135575E+03 0.  0.
          5    1    3    3  502    0 -0.37264127035E+02 -0.26403914839E+02 -0.45088352789E+01  0.46082359728E+02  0.41800000000E+01 0.  1.
         -5    1    3    3    0  502  0.48584024115E+02  0.72297830920E+02  0.99479051701E+01  0.87771390397E+02  0.41800000000E+01 0.  1.
        -11    1    1    2    0    0 -0.22714797854E+02 -0.46504490450E+02 -0.76191543710E+02  0.92107442731E+02  0.00000000000E+00 0.  1.
         11    1    1    2    0    0  0.11394900773E+02  0.61057436965E+00  0.20444618312E+02  0.23413649493E+02  0.00000000000E+00 0. -1.
</event>
<event>
 7    1  0.1538147E-010  0.2821096E+03  0.7561462E-02  0.1094542E+00
          2   -1    0    0  501    0  0.00000000000E+00  0.00000000000E+00  0.11939947175E+04  0.11939947175E+04  0.00000000000E+00 0. -1.
         -2   -1    0    0    0  501 -0.00000000000E+00 -0.00000000000E+00 -0.70511182011E+02  0.70511182011E+02  0.00000000000E+00 0.  1.
         25    2    1    2    0    0  0.15584103402E+03 -0.21010588850E+03  0.43902335502E+03  0.52613186472E+03  0.12506926304E+03 0.  0.
          5    1    3    3  502    0 -0.20662271412E+02 -0.17864037988E+02  0.28810429120E+02  0.39919500739E+02  0.41800000000E+01 0.  1.
         -5    1    3    3    0  502  0.17650330543E+03 -0.19224185051E+03  0.41021292590E+03  0.48621236398E+03  0.41800000000E+01 0.  1.
        -11    1    1    2    0    0 -0.69966496169E+02  0.16355944800E+03  0.40546344015E+03  0.44277263343E+03  0.00000000000E+00 0.  1.
         11    1    1    2    0    0 -0.85874537851E+02  0.46546440496E+02  0.27899674028E+03  0.29560140132E+03  0.00000000000E+00 0. -1.
</event>
<event>
 6    1  0.1538147E-010  0.2130052E+03  0.7561462E-02  0.1139208E+00
         -2   -1    0    0    0  501 -0.00000000000E+00  0.00000000000E+00  0.59891960753E+03  0.59891960753E+03  0.00000000000E+00 0.  1.
          2   -1    0    0  501    0  0.00000000000E+00 -0.00000000000E+00 -0.94098319417E+02  0.94098319417E+02  0.00000000000E+00 0. -1.
          5    1    1    2  502    0  0.10420309419E+03 -0.36856891793E+02  0.27317246881E+03  0.29471577058E+03  0.41800000000E+01 0. -1.
         -5    1    1    2    0  502  0.93524069898E+02 -0.17342039820E+02  0.48183471969E+02  0.10670809419E+03  0.41800000000E+01 0. -1.
        -11    1    1    2    0    0 -0.12020407330E+03  0.72717168143E+02  0.14890951709E+03  0.20472139620E+03  0.00000000000E+00 0.  1.
         11    1    1    2    0    0 -0.77523090793E+02 -0.18518236530E+02  0.34555830245E+02  0.86872665978E+02  0.00000000000E+00 0. -1.
</event>
<event>
 6    1  0.1538147E-010  0.9734129E+02  0.7561462E-02  0.1285988E+00
          2   -1    0    0  501    0  0.00000000000E+00  0.00000000000E+00  0.91443500940E+02  0.91443500940E+02  0.00000000000E+00 0. -1.
         -2   -1    0    0    0  501 -0.00000000000E+00 -0.00000000000E+00 -0.16177186507E+03  0.16177186507E+03  0.00000000000E+00 0.  1.
          5    1    1    2  502    0  0.32837462410E+02 -0.33274608555E+02 -0.28453421962E+02  0.54886866675E+02  0.41800000000E+01 0.  1.
         -5    1    1    2    0  502 -0.68267266531E+02  0.15365920297E+02  0.30462885586E+02  0.76432918199E+02  0.41800000000E+01 0.  1.
        -11    1    1    2    0    0  0.55192473893E+02  0.17426509645E+02 -0.81618170416E+02  0.10005707449E+03  0.00000000000E+00 0.  1.
         11    1    1    2    0    0 -0.19762669772E+02  0.48217861329E+00  0.92803426630E+01  0.21838506649E+02  0.00000000000E+00 0. -1.
</event>
<event>
 7    1  0.1538147E-010  0.1438083E+03  0.7561462E-02  0.1208295E+00
          1   -1    0    0  501    0  0.00000000000E+00  0.00000000000E+00  0.13857471369E+04  0.13857471369E+04  0.00000000000E+00 0. -1.
         -1   -1    0    0    0  501 -0.00000000000E+00 -0.00000000000E+00 -0.16449157935E+02  0.16449157935E+02  0.00000000000E+00 0.  1.
         25    2    1    2    0    0 -0.94031358914E+02  0.42130915187E+02  0.82788270953E+03  0.84359259587E+03  0.12506708838E+03 0.  0.
          5    1    3    3  502    0 -0.63155236525E+02 -0.36946414640E+02  0.47487012079E+03  0.48049217004E+03  0.41800000000E+01 0.  1.
         -5    1    3    3    0  502 -0.30876122390E+02  0.79077329826E+02  0.35301258874E+03  0.36310042583E+03  0.41800000000E+01 0.  1.
        -11    1    1    2    0    0  0.28796862598E+02 -0.55700182586E+02  0.35823883349E+03  0.36368507180E+03  0.00000000000E+00 0. -1.
         11    1    1    2    0    0  0.65234496317E+02  0.13569267400E+02  0.18317643598E+03  0.19491862719E+03  0.00000000000E+00 0.  1.
</event>
<event>
 7    1  0.1538147E-010  0.7366533E+02  0.7561462E-02  0.1348055E+00
         -1   -1    0    0    0  501 -0.00000000000E+00  0.00000000000E+00  0.30449782078E+03  0.30449782078E+03  0.00000000000E+00 0.  1.
          1   -1    0    0  501    0  0.00000000000E+00 -0.00000000000E+00 -0.61078803861E+02  0.61078803861E+02  0.00000000000E+00 0. -1.
         25    2    1    2    0    0 -0.10645447910E+02  0.58459621271E+02  0.24424000362E+03  0.28079069918E+03  0.12513746240E+03 0.  0.
          5    1    3    3  502    0  0.63811589414E+01  0.29795369975E+02  0.24525356443E+03  0.24717456691E+03  0.41800000000E+01 0. -1.
         -5    1    3    3    0  502 -0.17026606852E+02  0.28664251296E+02 -0.10135608070E+01  0.33616132269E+02  0.41800000000E+01 0. -1.
        -11    1    1    2    0    0 -0.23963799608E+02 -0.28145725528E+02 -0.90274244753E+01  0.38051806131E+02  0.00000000000E+00 0. -1.
         11    1    1    2    0    0  0.34609247518E+02 -0.30313895744E+02  0.82064377722E+01  0.46734119333E+02  0.00000000000E+00 0.  1.
</event>
<event>
 7    1  0.1538147E-010  0.1235433E+03  0.7561462E-02  0.1237364E+00
         -1   -1    0    0    0  501 -0.00000000000E+00  0.00000000000E+00  0.42064458647E+02  0.42064458647E+02  0.00000000000E+00 0.  1.
          1   -1    0    0  501    0  0.00000000000E+00 -0.00000000000E+00 -0.53745186652E+03  0.53745186652E+03  0.00000000000E+00 0. -1.
         25    2    1    2    0    0  0.54204833454E+02 -0.82345885868E+02 -0.21577276813E+03  0.26816901582E+03  0.12505088840E+03 0.  0.
          5    1    3    3  502    0  0.54421783227E+02 -0.91549343812E+02 -0.22836861678E+03  0.25201728189E+03  0.41800000000E+01 0. -1.
         -5    1    3    3    0  502 -0.21694977244E+00  0.92034579444E+01  0.12595848656E+02  0.16151733923E+02  0.41800000000E+01 0. -1.
        -11    1    1    2    0    0 -0.68430292544E+02  0.90909787689E+02 -0.20076203496E+03  0.23076544178E+03  0.00000000000E+00 0.  1.
         11    1    1    2    0    0  0.14225459090E+02 -0.85639018215E+01 -0.78852604788E+02  0.80581867579E+02  0.00000000000E+00 0. -1.
</event>
<event>
 7    1  0.1538147E-010  0.1305375E+03  0.7561462E-02  0.1226660E+00
         -2   -1    0    0    0  501 -0.00000000000E+00  0.00000000000E+00  0.41962795686E+03  0.41962795686E+03  0.00000000000E+00 0.  1.
          2   -1    0    0  501    0  0.00000000000E+00 -0.00000000000E+00 -0.56410046686E+02  0.56410046686E+02  0.00000000000E+00 0. -1.
         25    2    1    2    0    0 -0.61361639209E+02 -0.81641765174E+02  0.24347717817E+03  0.29213888205E+03  0.12503344166E+03 0.  0.
          5    1    3    3  502    0  0.76044462739E+00  0.23541201615E+02  0.10385193188E+03  0.10657139675E+03  0.41800000000E+01 0.  1.
         -5    1    3    3    0  502 -0.62122083837E+02 -0.10518296679E+03  0.13962524628E+03  0.18556748530E+03  0.41800000000E+01 0.  1.
        -11    1    1    2    0    0  0.15656968582E+02 -0.54413772343E+01  0.73275433317E+02  0.75126815313E+02  0.00000000000E+00 0.  1.
         11    1    1    2    0    0  0.45704670628E+02  0.87083142408E+02  0.46465298694E+02  0.10877230618E+03  0.00000000000E+00 0. -1.
</event>
<event>
 6    1  0.1538147E-010  0.5484371E+02  0.7561462E-02  0.1420839E+00
          2   -1    0    0  501    0  0.00000000000E+00  0.00000000000E+00  0.25954906334E+03  0.25954906334E+03  0.00000000000E+00 0. -1.
         -2   -1    0    0    0  501 -0.00000000000E+00 -0.00000000000E+00 -0.48917222744E+02  0.48917222744E+02  0.00000000000E+00 0.  1.
          5    1    1    2  502    0 -0.12034601888E+02 -0.26925293692E+02  0.10780795665E+03  0.11184735580E+03  0.41800000000E+01 0. -1.
         -5    1    1    2    0  502  0.21387457418E+02  0.12074060013E+02 -0.28024433424E+02  0.37497300287E+02  0.41800000000E+01 0. -1.
        -11    1    1    2    0    0 -0.28532052251E+02 -0.31218776673E+01  0.12967226524E+03  0.13281084481E+03  0.00000000000E+00 0. -1.
         11    1    1    2    0    0  0.19179196721E+02  0.17973111346E+02  0.11760521263E+01  0.26310785183E+02  0.00000000000E+00 0.  1.
</event>
<event>
 7    1  0.1538147E-010  0.9636809E+02  0.7561462E-02  0.1288124E+00
         -1   -1    0    0    0  501 -0.00000000000E+00  0.00000000000E+00  0.29726884866E+02  0.29726884866E+02  0.00000000000E+00 0.  1.
          1   -1    0    0  501    0  0.00000000000E+00 -0.00000000000E+00 -0.53360929528E+03  0.53360929528E+03  0.00000000000E+00 0. -1.
         25    2    1    2    0    0  0.50009543176E+02 -0.35703489600E+02 -0.31837736484E+03  0.34756036864E+03  0.12513340812E+03 0.  0.
          5    1    3    3  502    0  0.17331142679E+02 -0.54803040536E+02 -0.29961735114E+03  0.30510944145E+03  0.41800000000E+01 0.  1.
         -5    1    3    3    0  502  0.32678400497E+02  0.19099550936E+02 -0.18760013700E+02  0.42450927187E+02  0.41800000000E+01 0.  1.
        -11    1    1    2    0    0 -0.96631572704E+01 -0.23484087946E+02 -0.12042428520E+02  0.28105143297E+02  0.00000000000E+00 0. -1.
         11    1    1    2    0    0 -0.40346385905E+02  0.59187577547E+02 -0.17346261705E+03  0.18767066821E+03  0.00000000000E+00 0.  1.
</event>
<event>
 7    1  0.1538147E-010  0.1243473E+03  0.7561462E-02  0.1236093E+00
          2   -1    0    0  501    0  0.00000000000E+00  0.00000000000E+00  0.26812508720E+03  0.26812508720E+03  0.00000000000E+00 0. -1.
         -2   -1    0    0    0  501 -0.00000000000E+00 -0.00000000000E+00 -0.75257198936E+02  0.75257198936E+02  0.00000000000E+00 0.  1.
         25    2    1    2    0    0  0.47089715503E+02  0.60593506260E+02  0.43379096656E+02  0.15300692364E+03  0.12506141830E+03 0.  0.
          5    1    3    3  502    0  0.75579121336E+02  0.15406943605E+02  0.58993286754E+02  0.97197004971E+02  0.41800000000E+01 0.  1.
         -5    1    3    3    0  502 -0.28489405833E+02  0.45186562655E+02 -0.15614190098E+02  0.55809918668E+02  0.41800000000E+01 0.  1.
        -11    1    1    2    0    0 -0.56866498716E+02 -0.38325353014E+00  0.73598923933E+02  0.93009392878E+02  0.00000000000E+00 0.  1.
         11    1    1    2    0    0  0.97767832126E+01 -0.60210252730E+02  0.75889867671E+02  0.97365969615E+02  0.00000000000E+00 0. -1.
</event>
<event>
 6    1  0.1538147E-010  0.8490443E+02  0.7561462E-02  0.1315683E+00
         -2   -1    0    0    0  501 -0.00000000000E+00  0.00000000000E+00  0.25041139065E+03  0.25041139065E+03  0.00000000000E+00 0.  1.
          2   -1    0    0  501    0  0.00000000000E+00 -0.00000000000E+00 -0.70445171896E+02  0.70445171896E+02  0.00000000000E+00 0. -1.
          5    1    1    2  502    0  0.56955975716E+01  0.71417151206E+02  0.16463381696E+03  0.17959569985E+03  0.41800000000E+01 0. -1.
         -5    1    1    2    0  502 -0.84403022182E+01 -0.38921417844E+02  0.14261883691E+02  0.42508695522E+02  0.41800000000E+01 0. -1.
        -11    1    1    2    0    0  0.24486304480E+02 -0.25017603837E+02  0.40238435978E+02  0.53334710450E+02  0.00000000000E+00 0.  1.
         11    1    1    2    0    0 -0.21741599834E+02 -0.74781295241E+01 -0.39167917876E+02  0.45417456723E+02  0.00000000000E+00 0. -1.
</event>
<event>
 7    1  0.1538147E-010  0.8298005E+02  0.7561462E-02  0.1320801E+00
          4   -1    0    0  501    0  0.00000000000E+00  0.00000000000E+00  0.16425407153E+03  0.16425407153E+03  0.00000000000E+00 0. -1.
         -4   -1    0    0    0  501 -0.00000000000E+00 -0.00000000000E+00 -0.10296184210E+03  0.10296184210E+03  0.00000000000E+00 0.  1.
         25    2    1    2    0    0 -0.44399268546E+02  0.10554045633E+02  0.90654160081E+02  0.16104830490E+03  0.12504278006E+03 0.  0.
          5    1    3    3  502    0 -0.34218052427E+02  0.34988802548E+02 -0.15545763833E+02  0.51519264249E+02  0.41800000000E+01 0. -1.
         -5    1    3    3    0  502 -0.10181216118E+02 -0.24434756915E+02  0.10619992391E+03  0.10952904065E+03  0.41800000000E+01 0. -1.
        -11    1    1    2    0    0 -0.21984218435E+02  0.32971024773E+01 -0.31223852434E+02  0.38328914748E+02  0.00000000000E+00 0.  1.
         11    1    1    2    0    0  0.66383486981E+02 -0.13851148110E+02  0.18619217863E+01  0.67838693976E+02  0.00000000000E+00 0. -1.
</event>
<event>
 7    1  0.1538147E-010  0.1027633E+03  0.7561462E-02  0.1274590E+00
          1   -1    0    0  501    0  0.00000000000E+00  0.00000000000E+00  0.12169816778E+04  0.12169816778E+04  0.00000000000E+00 0.  1.
         -1   -1    0    0    0  501 -0.00000000000E+00 -0.00000000000E+00 -0.15029644904E+02  0.15029644904E+02  0.00000000000E+00 0. -1.
         25    2    1    2    0    0 -0.53951622761E+02  0.60597874373E+02  0.70456494686E+03  0.72016431887E+03  0.12506798893E+03 0.  0.
          5    1    3    3  502    0  0.49396807129E+01  0.19383580034E+02  0.11658463694E+02  0.23526916419E+02  0.41800000000E+01 0.  1.
         -5    1    3    3    0  502 -0.58891303474E+02  0.41214294340E+02  0.69290648317E+03  0.69663740245E+03  0.41800000000E+01 0.  1.
        -11    1    1    2    0    0  0.74678617765E+02 -0.45518000536E+02  0.44515151560E+03  0.45366138932E+03  0.00000000000E+00 0.  1.
         11    1    1    2    0    0 -0.20726995004E+02 -0.15079873838E+02  0.52235570448E+02  0.58185614519E+02  0.00000000000E+00 0. -1.
</event>
<event>
 7    1  0.1538147E-010  0.1322275E+03  0.7561462E-02  0.1224188E+00
          2   -1    0    0  501    0  0.00000000000E+00  0.00000000000E+00  0.16927168492E+03  0.16927168492E+03  0.00000000000E+00 0. -1.
         -2   -1    0    0    0  501 -0.00000000000E+00 -0.00000000000E+00 -0.13066445104E+03  0.13066445104E+03  0.00000000000E+00 0.  1.
         25    2    1    2    0    0 -0.76748121184E+02 -0.58005822921E+02 -0.11756893688E+02  0.15827041226E+03  0.12512533416E+03 0.  0.
          5    1    3    3  502    0  0.18925461024E+02  0.26868530832E+01  0.31365981688E+02  0.36968763324E+02  0.41800000000E+01 0. -1.
         -5    1    3    3    0  502 -0.95673582209E+02 -0.60692676005E+02 -0.43122875376E+02  0.12130164893E+03  0.41800000000E+01 0. -1.
        -11    1    1    2    0    0  0.87043070246E+02  0.16304448176E+02  0.41538597114E+02  0.97815061000E+02  0.00000000000E+00 0.  1.
         11    1    1    2    0    0 -0.10294949062E+02  0.41701374745E+02  0.88255304600E+01  0.43850662706E+02  0.00000000000E+00 0. -1.
</event>
<event>
 7    1  0.1538147E-010  0.1326677E+03  0.7561462E-02  0.1223550E+00
         -2   -1    0    0    0  501 -0.00000000000E+00  0.00000000000E+00  0.46855493267E+02  0.46855493267E+02  0.00000000000E+00 0.  1.
          2   -1    0    0  501    0  0.00000000000E+00 -0.00000000000E+00 -0.58773832472E+03  0.58773832472E+03  0.00000000000E+00 0. -1.
         25    2    1    2    0    0  0.70326886934E+02  0.92183788708E+02 -0.19570507188E+03  0.25957052787E+03  0.12503064365E+03 0.  0.
          5    1    3    3  502    0  0.41284622170E+02  0.17112378816E+02 -0.16869369463E+03  0.17456313627E+03  0.41800000000E+01 0. -1.
         -5    1    3    3    0  502  0.29042264764E+02  0.75071409892E+02 -0.27011377256E+02  0.85007391603E+02  0.41800000000E+01 0. -1.
        -11    1    1    2    0    0 -0.30192933275E+02 -0.94934245865E+02 -0.18781099210E+03  0.21259607948E+03  0.00000000000E+00 0.  1.
         11    1    1    2    0    0 -0.40133953658E+02  0.27504571563E+01 -0.15736676747E+03  0.16242721064E+03  0.00000000000E+00 0. -1.
</event>
<event>
 7    1  0.1538147E-010  0.1067448E+03  0.7561462E-02  0.1266720E+00
         -1   -1    0    0    0  501 -0.00000000000E+00  0.00000000000E+00  0.31441997992E+02  0.31441997992E+02  0.00000000000E+00 0.  1.
          1   -1    0    0  501    0  0.00000000000E+00 -0.00000000000E+00 -0.46783629718E+03  0.46783629718E+03  0.00000000000E+00 0. -1.
         25    2    1    2    0    0  0.18082234824E+02 -0.49281969604E+02 -0.27267116166E+03  0.30453650296E+03  0.12504894837E+03 0.  0.
          5    1    3    3  502    0  0.57190700438E+02 -0.12265835041E+02 -0.55465142866E+02  0.80716054159E+02  0.41800000000E+01 0. -1.
         -5    1    3    3    0  502 -0.39108465615E+02 -0.37016134563E+02 -0.21720601880E+03  0.22382044880E+03  0.41800000000E+01 0. -1.
        -11    1    1    2    0    0  0.20413070220E+01 -0.24386117052E+02 -0.68119079555E+02  0.72381341785E+02  0.00000000000E+00 0.  1.
         11    1    1    2    0    0 -0.20123541846E+02  0.73668086656E+02 -0.95604057971E+02  0.12236045043E+03  0.00000000000E+00 0. -1.
</event>
<event>
 7    1  0.1538147E-010  0.8057387E+02  0.7561462E-02  0.1327431E+00
          2   -1    0    0  501    0  0.00000000000E+00  0.00000000000E+00  0.88292325473E+03  0.88292325473E+03  0.00000000000E+00 0. -1.
         -2   -1    0    0    0  501 -0.00000000000E+00 -0.00000000000E+00 -0.18626054339E+02  0.18626054339E+02  0.00000000000E+00 0.  1.
         25    2    1    2    0    0 -0.79318675311E+01  0.15493472811E+02  0.56654151179E+03  0.58045426900E+03  0.12511958915E+03 0.  0.
          5    1    3    3  502    0 -0.20413669220E+00 -0.11976081925E+02 -0.48430601288E+00  0.12695478029E+02  0.41800000000E+01 0. -1.
         -5    1    3    3    0  502 -0.77277308389E+01  0.27469554736E+02  0.56702581781E+03  0.56775879097E+03  0.41800000000E+01 0. -1.
        -11    1    1    2    0    0  0.29731605486E+02 -0.61722419895E+02  0.15500931324E+03  0.16947422422E+03  0.00000000000E+00 0. -1.
         11    1    1    2    0    0 -0.21799737955E+02  0.46228947085E+02  0.14274637536E+03  0.15162081586E+03  0.00000000000E+00 0.  1.
</event>
<event>
 7    1  0.1538147E-010  0.1053073E+03  0.7561462E-02  0.1269515E+00
          2   -1    0    0  501    0  0.00000000000E+00  0.00000000000E+00  0.21322625064E+03  0.21322625064E+03  0.00000000000E+00 0. -1.
         -2   -1    0    0    0  501 -0.00000000000E+00 -0.00000000000E+00 -0.11408490104E+03  0.11408490104E+03  0.00000000000E+00 0.  1.
         25    2    1    2    0    0  0.64296428648E+01  0.91209110414E+02  0.12367358411E+03  0.19823006849E+03  0.12505823649E+03 0.  0.
          5    1    3    3  502    0 -0.33721712617E+02  0.54707421709E+02  0.14282477213E+01  0.64417142000E+02  0.41800000000E+01 0. -1.
         -5    1    3    3    0  502  0.40151355482E+02  0.36501688705E+02  0.12224533639E+03  0.13381292649E+03  0.41800000000E+01 0. -1.
        -11    1    1    2    0    0  0.15205031039E+01 -0.33563643335E+02 -0.54195907723E+02  0.63765402042E+02  0.00000000000E+00 0.  1.
         11    1    1    2    0    0 -0.79501459686E+01 -0.57645467078E+02  0.29663673204E+02  0.65315681146E+02  0.00000000000E+00 0. -1.
</event>
<event>
 6    1  0.1538147E-010  0.9445941E+02  0.7561462E-02  0.1292398E+00
         -1   -1    0    0    0  501 -0.00000000000E+00  0.00000000000E+00  0.42988506404E+03  0.42988506404E+03  0.00000000000E+00 0.  1.
          1   -1    0    0  501    0  0.00000000000E+00 -0.00000000000E+00 -0.49487437682E+02  0.49487437682E+02  0.00000000000E+00 0. -1.
          5    1    1    2  502    0  0.37112285185E+01 -0.17733905914E+02  0.14300881867E+03  0.14421254888E+03  0.41800000000E+01 0.  1.
         -5    1    1    2    0  502  0.48030751018E+02 -0.59440311392E+02  0.15409165642E+02  0.78070599124E+02  0.41800000000E+01 0.  1.
        -11    1    1    2    0    0 -0.19828268633E+02  0.19136288931E+02  0.23116029848E+01  0.27653233073E+02  0.00000000000E+00 0. -1.
         11    1    1    2    0    0 -0.31913710903E+02  0.58037928376E+02  0.21966803906E+03  0.22943612065E+03  0.00000000000E+00 0.  1.
</event>
<event>
 7    1  0.1538147E-010  0.1465849E+03  0.7561462E-02  0.1204733E+00
          2   -1    0    0  501    0  0.00000000000E+00  0.00000000000E+00  0.31815887325E+03  0.31815887325E+03  0.00000000000E+00 0. -1.
         -2   -1    0    0    0  501 -0.00000000000E+00 -0.00000000000E+00 -0.79830229637E+02  0.79830229637E+02  0.00000000000E+00 0.  1.
         25    2    1    2    0    0  0.10796918256E+03  0.30221375188E+02  0.89724958170E+02  0.19045719848E+03  0.12511075267E+03 0.  0.
          5    1    3    3  502    0  0.87834477550E+02  0.74039714172E+02  0.41732391178E+02  0.12229407015E+03  0.41800000000E+01 0.  1.
         -5    1    3    3    0  502  0.20134705013E+02 -0.43818338984E+02  0.47992566992E+02  0.68163128330E+02  0.41800000000E+01 0.  1.
        -11    1    1    2    0    0 -0.38763234070E+02  0.20650692662E+02  0.99096825172E+02  0.10839381985E+03  0.00000000000E+00 0. -1.
         11    1    1    2    0    0 -0.69205948493E+02 -0.50872067850E+02  0.49506860267E+02  0.99138084547E+02  0.00000000000E+00 0.  1.
</event>
<event>
 7    1  0.1538147E-010  0.1739471E+03  0.7561462E-02  0.1173793E+00
          2   -1    0    0  501    0  0.00000000000E+00  0.00000000000E+00  0.45263986092E+03  0.45263986092E+03  0.00000000000E+00 0. -1.
         -2   -1    0    0    0  501 -0.00000000000E+00 -0.00000000000E+00 -0.12349948070E+03  0.12349948070E+03  0.00000000000E+00 0.  1.
         25    2    1    2    0    0  0.16266092757E+02  0.14573563319E+03 -0.12735074144E+02  0.19318486016E+03  0.12511893352E+03 0.  0.
          5    1    3    3  502    0  0.62435642274E+02  0.99953138335E+02 -0.37100262174E+02  0.12362338429E+03  0.41800000000E+01 0.  1.
         -5    1    3    3    0  502 -0.46169549517E+02  0.45782494853E+02  0.24365188030E+02  0.69561475871E+02  0.41800000000E+01 0.  1.
        -11    1    1    2    0    0  0.19951610285E+02 -0.65581503249E+01  0.94569882954E+02  0.96873829544E+02  0.00000000000E+00 0. -1.
         11    1    1    2    0    0 -0.36217703042E+02 -0.13917748286E+03  0.24730557142E+03  0.28608065192E+03  0.00000000000E+00 0.  1.
</event>
<event>
 7    1  0.1538147E-010  0.8814947E+02  0.7561462E-02  0.1307396E+00
         -1   -1    0    0    0  501 -0.00000000000E+00  0.00000000000E+00  0.13020422298E+03  0.13020422298E+03  0.00000000000E+00 0.  1.
          1   -1    0    0  501    0  0.00000000000E+00 -0.00000000000E+00 -0.12618241002E+03  0.12618241002E+03  0.00000000000E+00 0. -1.
         25    2    1    2    0    0  0.15309760195E+02 -0.37064239833E+02  0.57261584801E+02  0.14327990317E+03  0.12506836101E+03 0.  0.
          5    1    3    3  502    0  0.36995199159E+02 -0.75529551515E+02  0.51101729927E+02  0.98499833068E+02  0.41800000000E+01 0. -1.
         -5    1    3    3    0  502 -0.21685438964E+02  0.38465311682E+02  0.61598548734E+01  0.44780070097E+02  0.41800000000E+01 0. -1.
        -11    1    1    2    0    0 -0.21056589562E+02  0.17602529612E+02  0.22002667183E+02  0.35175934613E+02  0.00000000000E+00 0.  1.
         11    1    1    2    0    0  0.57468293669E+01  0.19461710221E+02 -0.75242439031E+02  0.77930795221E+02  0.00000000000E+00 0. -1.
</event>
<event>
 7    1  0.3780177E-010  0.1629135E+03  0.7561462E-02  0.1185446E+00
          1   -1    0    0  501    0  0.00000000000E+00  0.00000000000E+00  0.76103738830E+03  0.76103738830E+03  0.00000000000E+00 0. -1.
         -1   -1    0    0    0  501 -0.00000000000E+00 -0.00000000000E+00 -0.45631063717E+02  0.45631063717E+02  0.00000000000E+00 0.  1.
         25    2    1    2    0    0  0.83817739126E+01  0.14424388414E+03  0.47207471824E+03  0.50928668227E+03  0.12506731345E+03 0.  0.
          5    1    3    3  502    0 -0.25043190926E+02  0.11438262193E+03  0.43638262549E+03  0.45183826071E+03  0.41800000000E+01 0. -1.
         -5    1    3    3    0  502  0.33424964839E+02  0.29861262208E+02  0.35692092750E+02  0.57448421562E+02  0.41800000000E+01 0. -1.
        -11    1    1    2    0    0  0.77190340021E+01 -0.14709166909E+03  0.23852608467E+03  0.28033950073E+03  0.00000000000E+00 0. -1.
         11    1    1    2    0    0 -0.16100807915E+02  0.28477849490E+01  0.48055216694E+01  0.17042269014E+02  0.00000000000E+00 0.  1.
</event>
<event>
 7    1  0.1538147E-010  0.6959436E+02  0.7561462E-02  0.1361478E+00
          2   -1    0    0  501    0  0.00000000000E+00  0.00000000000E+00  0.37929136507E+03  0.37929136507E+03  0.00000000000E+00 0. -1.
         -2   -1    0    0    0  501 -0.00000000000E+00 -0.00000000000E+00 -0.43428214496E+02  0.43428214496E+02  0.00000000000E+00 0.  1.
         25    2    1    2    0    0 -0.66236640381E+01  0.15174978871E+02  0.29425648236E+03  0.32015610992E+03  0.12505560522E+03 0.  0.
          5    1    3    3  502    0 -0.19457813065E+02 -0.71264544541E+01 -0.33561988691E+01  0.21403955551E+02  0.41800000000E+01 0. -1.
         -5    1    3    3    0  502  0.12834149027E+02  0.22301433325E+02  0.29761268123E+03  0.29875215436E+03  0.41800000000E+01 0. -1.
        -11    1    1    2    0    0  0.89330472258E+01  0.37858314757E+02  0.79281570248E+01  0.39697695182E+02  0.00000000000E+00 0.  1.
         11    1    1    2    0    0 -0.23093831877E+01 -0.53033293628E+02  0.33678511191E+02  0.62865774470E+02  0.00000000000E+00 0. -1.
</event>
<event>
 7    1  0.1538147E-010  0.1214154E+03  0.7561462E-02  0.1240780E+00
          2   -1    0    0  501    0  0.00000000000E+00  0.00000000000E+00  0.52211199018E+03  0.52211199018E+03  0.00000000000E+00 0. -1.
         -2   -1    0    0    0  501 -0.00000000000E+00 -0.00000000000E+00 -0.84166367674E+02  0.84166367674E+02  0.00000000000E+00 0.  1.
         25    2    1    2    0    0  0.69917969246E+02 -0.41477626582E+02  0.45598037673E+03  0.47975647881E+03  0.12505702327E+03 0.  0.
          5    1    3    3  502    0 -0.26661274167E+02  0.16382480303E+02  0.56821668230E+02  0.65002950560E+02  0.41800000000E+01 0. -1.
         -5    1    3    3    0  502  0.96579243414E+02 -0.57860106885E+02  0.39915870850E+03  0.41475352825E+03  0.41800000000E+01 0. -1.
        -11    1    1    2    0    0 -0.16954002123E+02  0.42359961237E+02 -0.47535699120E+02  0.65889659241E+02  0.00000000000E+00 0.  1.
         11    1    1    2    0    0 -0.52963967124E+02 -0.88233465528E+00  0.29500944893E+02  0.60632219797E+02  0.00000000000E+00 0. -1.
</event>
<event>
 7    1  0.1538147E-010  0.1208659E+03  0.7561462E-02  0.1241675E+00
         -2   -1    0    0    0  501 -0.00000000000E+00  0.00000000000E+00  0.13370141395E+02  0.13370141395E+02  0.00000000000E+00 0.  1.
          2   -1    0    0  501    0  0.00000000000E+00 -0.00000000000E+00 -0.12416805962E+04  0.12416805962E+04  0.00000000000E+00 0. -1.
         25    2    1    2    0    0 -0.54533958121E+02 -0.18138872035E+02 -0.87073854831E+03  0.88155954718E+03  0.12513450538E+03 0.  0.
          5    1    3    3  502    0 -0.24738988280E+02  0.53865785049E+02 -0.40245180377E+03  0.40681502812E+03  0.41800000000E+01 0.  1.
         -5    1    3    3    0  502 -0.29794969841E+02 -0.72004657083E+02 -0.46828674454E+03  0.47474451907E+03  0.41800000000E+01 0.  1.
        -11    1    1    2    0    0  0.78414247030E+02  0.17701727964E+02 -0.22849871194E+03  0.24222676704E+03  0.00000000000E+00 0.  1.
         11    1    1    2    0    0 -0.23880288909E+02  0.43714407011E+00 -0.12907319455E+03  0.13126442338E+03  0.00000000000E+00 0. -1.
</event>
<event>
 7    1  0.1538147E-010  0.1187549E+03  0.7561462E-02  0.1245165E+00
         -1   -1    0    0    0  501 -0.00000000000E+00  0.00000000000E+00  0.13729558444E+03  0.13729558444E+03  0.00000000000E+00 0.  1.
          1   -1    0    0  501    0  0.00000000000E+00 -0.00000000000E+00 -0.13129026301E+03  0.13129026301E+03  0.00000000000E+00 0. -1.
         25    2    1    2    0    0 -0.47621885961E+02 -0.63278229204E+02  0.94643951109E+01  0.14839507204E+03  0.12513810099E+03 0.  0.
          5    1    3    3  502    0 -0.31155682130E+02  0.32905231696E+02  0.20859839205E+02  0.50060324546E+02  0.41800000000E+01 0. -1.
         -5    1    3    3    0  502 -0.16466203831E+02 -0.96183460900E+02 -0.11395444094E+02  0.98334747498E+02  0.41800000000E+01 0. -1.
        -11    1    1    2    0    0 -0.10712847779E+02  0.15937000993E+02  0.31841011634E+02  0.37183371688E+02  0.00000000000E+00 0.  1.
         11    1    1    2    0    0  0.58334733740E+02  0.47341228211E+02 -0.35300085312E+02  0.83007403718E+02  0.00000000000E+00 0. -1.
</event>
<event>
 7    1  0.1538147E-010  0.6581646E+02  0.7561462E-02  0.1374926E+00
         -2   -1    0    0    0  501 -0.00000000000E+00  0.00000000000E+00  0.25511008904E+02  0.25511008904E+02  0.00000000000E+00 0.  1.
          2   -1    0    0  501    0  0.00000000000E+00 -0.00000000000E+00 -0.53050265493E+03  0.53050265493E+03  0.00000000000E+00 0. -1.
         25    2    1    2    0    0 -0.11215302946E+02  0.10120255034E+01 -0.19108289049E+03  0.22864809643E+03  0.12506187967E+03 0.  0.
          5    1    3    3  502    0 -0.30665573007E+02 -0.19107508593E+01  0.51109977667E+01  0.31426470290E+02  0.41800000000E+01 0.  1.
         -5    1    3    3    0  502  0.19450270061E+02  0.29227763627E+01 -0.19619388826E+03  0.19722162614E+03  0.41800000000E+01 0.  1.
        -11    1    1    2    0    0  0.45797327707E+02  0.16988861568E+01 -0.25431558242E+03  0.25841187453E+03  0.00000000000E+00 0. -1.
         11    1    1    2    0    0 -0.34582024761E+02 -0.27109116601E+01 -0.59593173116E+02  0.68953692872E+02  0.00000000000E+00 0.  1.
</event>
<event>
 7    1  0.1538147E-010  0.8327837E+02  0.7561462E-02  0.1319997E+00
          2   -1    0    0  501    0  0.00000000000E+00  0.00000000000E+00  0.11170942673E+03  0.11170942673E+03  0.00000000000E+00 0. -1.
         -2   -1    0    0    0  501 -0.00000000000E+00 -0.00000000000E+00 -0.11919997868E+03  0.11919997868E+03  0.00000000000E+00 0.  1.
         25    2    1    2    0    0 -0.27995332398E+02 -0.27881515253E+02 -0.36529344003E+01  0.13120589439E+03  0.12506208564E+03 0.  0.
          5    1    3    3  502    0 -0.64197856338E+02 -0.50200796458E+01  0.34966515374E+02  0.73394111177E+02  0.41800000000E+01 0. -1.
         -5    1    3    3    0  502  0.36202523940E+02 -0.22861435608E+02 -0.38619449774E+02  0.57811783215E+02  0.41800000000E+01 0. -1.
        -11    1    1    2    0    0  0.35519914772E+02  0.61999072629E+01 -0.41886927989E+02  0.55268598063E+02  0.00000000000E+00 0.  1.
         11    1    1    2    0    0 -0.75245823742E+01  0.21681607990E+02  0.38049310440E+02  0.44434912961E+02  0.00000000000E+00 0. -1.
</event>
<event>
 7    1  0.1538147E-010  0.1032197E+03  0.7561462E-02  0.1273668E+00
          2   -1    0    0  501    0  0.00000000000E+00  0.00000000000E+00  0.46380795992E+03  0.46380795992E+03  0.00000000000E+00 0. -1.
         -2   -1    0    0    0  501 -0.00000000000E+00 -0.00000000000E+00 -0.28731849290E+02  0.28731849290E+02  0.00000000000E+00 0.  1.
         25    2    1    2    0    0 -0.31337162754E+02  0.84527642163E+00  0.18803529424E+03  0.22803916410E+03  0.12514733806E+03 0.  0.
          5    1    3    3  502    0 -0.84291278253E+01  0.59127925744E+02  0.12741758884E+03  0.14078308188E+03  0.41800000000E+01 0. -1.
         -5    1    3    3    0  502 -0.22908034928E+02 -0.58282649323E+02  0.60617705396E+02  0.87256082217E+02  0.41800000000E+01 0. -1.
        -11    1    1    2    0    0 -0.12598602909E+02  0.28370674679E+02  0.38854283139E+02  0.49732034899E+02  0.00000000000E+00 0.  1.
         11    1    1    2    0    0  0.43935765663E+02 -0.29215951100E+02  0.20818653325E+03  0.21476861021E+03  0.00000000000E+00 0. -1.
</event>
<event>
 7    1  0.1538147E-010  0.9947620E+02  0.7561462E-02  0.1281401E+00
         -2   -1    0    0    0  501 -0.00000000000E+00  0.00000000000E+00  0.10710271997E+03  0.10710271997E+03  0.00000000000E+00 0.  1.
          2   -1    0    0  501    0  0.00000000000E+00 -0.00000000000E+00 -0.17796525939E+03  0.17796525939E+03  0.00000000000E+00 0. -1.
         25    2    1    2    0    0  0.47679761240E+02 -0.69781371806E+02 -0.51204914961E+02  0.15937969151E+03  0.12504856363E+03 0.  0.
          5    1    3    3  502    0 -0.14480713071E+02 -0.22677441879E+01  0.31993361002E+02  0.35438415074E+02  0.41800000000E+01 0.  1.
         -5    1    3    3    0  502  0.62160474311E+02 -0.67513627618E+02 -0.83198275963E+02  0.12394127643E+03  0.41800000000E+01 0.  1.
        -11    1    1    2    0    0 -0.49786446206E+02  0.45420171053E+02 -0.52015078336E+02  0.85130784906E+02  0.00000000000E+00 0. -1.
         11    1    1    2    0    0  0.21066849661E+01  0.24361200753E+02  0.32357453881E+02  0.40557502948E+02  0.00000000000E+00 0.  1.
</event>
<event>
 7    1  0.1538147E-010  0.1315793E+03  0.7561462E-02  0.1225131E+00
          1   -1    0    0  501    0  0.00000000000E+00  0.00000000000E+00  0.46131553664E+03  0.46131553664E+03  0.00000000000E+00 0. -1.
         -1   -1    0    0    0  501 -0.00000000000E+00 -0.00000000000E+00 -0.41681214839E+02  0.41681214839E+02  0.00000000000E+00 0.  1.
         25    2    1    2    0    0  0.70048586475E+02 -0.38171463864E+02  0.16870459346E+03  0.22467281444E+03  0.12511102499E+03 0.  0.
          5    1    3    3  502    0  0.25853013171E+02  0.45713252791E+02  0.71569991858E+02  0.88869656831E+02  0.41800000000E+01 0.  1.
         -5    1    3    3    0  502  0.44195573303E+02 -0.83884716655E+02  0.97134601600E+02  0.13580315761E+03  0.41800000000E+01 0.  1.
        -11    1    1    2    0    0 -0.87981375004E+02  0.41583621011E+02  0.23399568152E+03  0.25342434542E+03  0.00000000000E+00 0. -1.
         11    1    1    2    0    0  0.17932788530E+02 -0.34121571464E+01  0.16934046824E+02  0.24899591616E+02  0.00000000000E+00 0.  1.
</event>
<event>
 7    1  0.1538147E-010  0.9518327E+02  0.7561462E-02  0.1290764E+00
         -2   -1    0    0    0  501 -0.00000000000E+00  0.00000000000E+00  0.12073876119E+03  0.12073876119E+03  0.00000000000E+00 0.  1.
          2   -1    0    0  501    0  0.00000000000E+00 -0.00000000000E+00 -0.14049466349E+03  0.14049466349E+03  0.00000000000E+00 0. -1.
         25    2    1    2    0    0  0.37497747537E+02 -0.30095125867E+02 -0.63800111783E+02  0.14844406165E+03  0.12511349849E+03 0.  0.
          5    1    3    3  502    0  0.46164991215E+02 -0.47696787799E+02 -0.92192564330E+02  0.11367995117E+03  0.41800000000E+01 0. -1.
         -5    1    3    3    0  502 -0.86672436786E+01  0.17601661932E+02  0.28392452547E+02  0.34764110479E+02  0.41800000000E+01 0. -1.
        -11    1    1    2    0    0  0.78598574743E+01 -0.28575495932E+02  0.13970449313E+02  0.32764459118E+02  0.00000000000E+00 0.  1.
         11    1    1    2    0    0 -0.45357605011E+02  0.58670621798E+02  0.30073760172E+02  0.80024903907E+02  0.00000000000E+00 0. -1.
</event>
<event>
 7    1  0.1538147E-010  0.1945103E+03  0.7561462E-02  0.1154455E+00
         -1   -1    0    0    0  501 -0.00000000000E+00  0.00000000000E+00  0.18210336953E+03  0.18210336953E+03  0.00000000000E+00 0.  1.
          1   -1    0    0  501    0  0.00000000000E+00 -0.00000000000E+00 -0.28911170777E+03  0.28911170777E+03  0.00000000000E+00 0. -1.
         25    2    1    2    0    0 -0.98562397453E+02 -0.13554691470E+03  0.59805912469E+02  0.21747852906E+03  0.12503060090E+03 0.  0.
          5    1    3    3  502    0  0.20705488671E+02 -0.61655356816E+01 -0.14572222877E+02  0.26392293779E+02  0.41800000000E+01 0.  1.
         -5    1    3    3    0  502 -0.11926788612E+03 -0.12938137902E+03  0.74378135346E+02  0.19108623528E+03  0.41800000000E+01 0.  1.
        -11    1    1    2    0    0  0.72281788026E+02  0.23642184950E+02 -0.60847501099E+02  0.97396243148E+02  0.00000000000E+00 0. -1.
         11    1    1    2    0    0  0.26280609427E+02  0.11190472975E+03 -0.10596674961E+03  0.15634030509E+03  0.00000000000E+00 0.  1.
</event>
<event>
 7    1  0.1538147E-010  0.1598049E+03  0.7561462E-02  0.1188917E+00
          2   -1    0    0  501    0  0.00000000000E+00  0.00000000000E+00  0.20681721124E+04  0.20681721124E+04  0.00000000000E+00 0. -1.
         -2   -1    0    0    0  501 -0.00000000000E+00 -0.00000000000E+00 -0.18894709893E+02  0.18894709893E+02  0.00000000000E+00 0.  1.
         25    2    1    2    0    0  0.58236391023E+02  0.12237040704E+03  0.15658515898E+04  0.15766771943E+04  0.12511506687E+03 0.  0.
          5    1    3    3  502    0 -0.22293188674E+02 -0.70873258356E+01  0.42665016285E+03  0.42731142076E+03  0.41800000000E+01 0.  1.
         -5    1    3    3    0  502  0.80529579698E+02  0.12945773288E+03  0.11392014270E+04  0.11493657736E+04  0.41800000000E+01 0.  1.
        -11    1    1    2    0    0 -0.40815972620E+02 -0.33605871635E+02  0.73128083931E+02  0.90238655180E+02  0.00000000000E+00 0.  1.
         11    1    1    2    0    0 -0.17420418403E+02 -0.88764535410E+02  0.41029772873E+03  0.42015097278E+03  0.00000000000E+00 0. -1.
</event>
<event>
 7    1  0.1538147E-010  0.1048897E+03  0.7561462E-02  0.1270337E+00
          2   -1    0    0  501    0  0.00000000000E+00  0.00000000000E+00  0.61368862263E+02  0.61368862263E+02  0.00000000000E+00 0. -1.
         -2   -1    0    0    0  501 -0.00000000000E+00 -0.00000000000E+00 -0.29054350127E+03  0.29054350127E+03  0.00000000000E+00 0.  1.
         25    2    1    2    0    0  0.73952076550E+02  0.61573582201E+00 -0.95630273312E+02  0.17398516668E+03  0.12512553814E+03 0.  0.
          5    1    3    3  502    0  0.12293145767E+02  0.47427424076E+02 -0.81492075618E+02  0.95178320934E+02  0.41800000000E+01 0. -1.
         -5    1    3    3    0  502  0.61658930783E+02 -0.46811688254E+02 -0.14138197695E+02  0.78806845747E+02  0.41800000000E+01 0. -1.
        -11    1    1    2    0    0 -0.18657237829E+02 -0.17173291158E+02 -0.11430596711E+03  0.11708487763E+03  0.00000000000E+00 0.  1.
         11    1    1    2    0    0 -0.55294838721E+02  0.16557555336E+02 -0.19238398580E+02  0.60842319218E+02  0.00000000000E+00 0. -1.
</event>
<event>
 7    1  0.1538147E-010  0.4376957E+02  0.7561462E-02  0.1482172E+00
         -1   -1    0    0    0  501 -0.00000000000E+00  0.00000000000E+00  0.22308881941E+03  0.22308881941E+03  0.00000000000E+00 0.  1.
          1   -1    0    0  501    0  0.00000000000E+00 -0.00000000000E+00 -0.56085200850E+02  0.56085200850E+02  0.00000000000E+00 0. -1.
         25    2    1    2    0    0 -0.11509494739E+02  0.58128726969E+00  0.12205024240E+03  0.17516771237E+03  0.12511858145E+03 0.  0.
          5    1    3    3  502    0 -0.45219739035E+01  0.10711437362E+02 -0.24819107189E+02  0.27724422807E+02  0.41800000000E+01 0. -1.
         -5    1    3    3    0  502 -0.69875208353E+01 -0.10130150092E+02  0.14686934959E+03  0.14744328956E+03  0.41800000000E+01 0. -1.
        -11    1    1    2    0    0  0.10560266991E+01  0.29922776516E+02 -0.16806116313E+02  0.34335598033E+02  0.00000000000E+00 0. -1.
         11    1    1    2    0    0  0.10453468040E+02 -0.30504063785E+02  0.61759492479E+02  0.69670709862E+02  0.00000000000E+00 0.  1.
</event>
<event>
 7    1  0.1538147E-010  0.1193362E+03  0.7561462E-02  0.1244196E+00
          1   -1    0    0  501    0  0.00000000000E+00  0.00000000000E+00  0.78118123274E+02  0.78118123274E+02  0.00000000000E+00 0. -1.
         -1   -1    0    0    0  501 -0.00000000000E+00 -0.00000000000E+00 -0.28762342125E+03  0.28762342125E+03  0.00000000000E+00 0.  1.
         25    2    1    2    0    0 -0.82399640246E+02  0.14720717130E+02 -0.16775990862E+03  0.22535143828E+03  0.12503392967E+03 0.  0.
          5    1    3    3  502    0  0.23727092304E+02  0.20528171572E+02 -0.67253600398E+01  0.32358671249E+02  0.41800000000E+01 0. -1.
         -5    1    3    3    0  502 -0.10612673255E+03 -0.58074544419E+01 -0.16103454858E+03  0.19299276703E+03  0.41800000000E+01 0. -1.
        -11    1    1    2    0    0  0.21972767099E+02  0.21052673391E+02 -0.60486719548E+02  0.67710123265E+02  0.00000000000E+00 0.  1.
         11    1    1    2    0    0  0.60426873147E+02 -0.35773390521E+02  0.18741330200E+02  0.72679982975E+02  0.00000000000E+00 0. -1.
</event>
<event>
 7    1  0.1538147E-010  0.1315316E+03  0.7561462E-02  0.1225201E+00
          2   -1    0    0  501    0  0.00000000000E+00  0.00000000000E+00  0.20542072707E+04  0.20542072707E+04  0.00000000000E+00 0.  1.
         -2   -1    0    0    0  501 -0.00000000000E+00 -0.00000000000E+00 -0.10548556099E+02  0.10548556099E+02  0.00000000000E+00 0. -1.
         25    2    1    2    0    0 -0.60272941265E+01  0.78918910390E+02  0.15339082342E+04  0.15410318527E+04  0.12506069532E+03 0.  0.
          5    1    3    3  502    0 -0.38298837874E+02 -0.17313934389E+02  0.30155264765E+03  0.30449637930E+03  0.41800000000E+01 0. -1.
         -5    1    3    3    0  502  0.32271543747E+02  0.96232844780E+02  0.12323555865E+04  0.12365354734E+04  0.41800000000E+01 0. -1.
        -11    1    1    2    0    0  0.15554615282E+02 -0.97300260294E+02  0.44347498745E+03  0.45428994179E+03  0.00000000000E+00 0.  1.
         11    1    1    2    0    0 -0.95273211553E+01  0.18381349903E+02  0.66275492920E+02  0.69434032250E+02  0.00000000000E+00 0. -1.
</event>
<event>
 7    1  0.1538147E-010  0.1170235E+03  0.7561462E-02  0.1248090E+00
          1   -1    0    0  501    0  0.00000000000E+00  0.00000000000E+00  0.83583037028E+02  0.83583037028E+02  0.00000000000E+00 0. -1.
         -1   -1    0    0    0  501 -0.00000000000E+00 -0.00000000000E+00 -0.23835294728E+03  0.23835294728E+03  0.00000000000E+00 0.  1.
         25    2    1    2    0    0  0.70326056474E+02 -0.24342201005E+02 -0.14087514482E+03  0.20258369007E+03  0.12512413070E+03 0.  0.
          5    1    3    3  502    0 -0.33424871186E+02 -0.24517079841E+02 -0.43500111201E+02  0.60233224156E+02  0.41800000000E+01 0. -1.
         -5    1    3    3    0  502  0.10375092766E+03  0.17487883590E+00 -0.97375033623E+02  0.14235046591E+03  0.41800000000E+01 0. -1.
        -11    1    1    2    0    0 -0.63325489705E+02  0.10963237833E+00  0.28953794756E+02  0.69630825763E+02  0.00000000000E+00 0. -1.
         11    1    1    2    0    0 -0.70005667687E+01  0.24232568627E+02 -0.42848560185E+02  0.49721468475E+02  0.00000000000E+00 0.  1.
</event>
<event>
 7    1  0.1538147E-010  0.1637042E+03  0.7561462E-02  0.1184577E+00
          1   -1    0    0  501    0  0.00000000000E+00  0.00000000000E+00  0.28751008697E+03  0.28751008697E+03  0.00000000000E+00 0. -1.
         -1   -1    0    0    0  501 -0.00000000000E+00 -0.00000000000E+00 -0.14433528399E+03  0.14433528399E+03  0.00000000000E+00 0.  1.
         25    2    1    2    0    0  0.10693742921E+02  0.14006682177E+03 -0.31239977915E+02  0.19065385523E+03  0.12505952822E+03 0.  0.
          5    1    3    3  502    0  0.29095528926E+02 -0.33212010052E+01 -0.35194912553E+02  0.45975367853E+02  0.41800000000E+01 0.  1.
         -5    1    3    3    0  502 -0.18401786004E+02  0.14338802277E+03  0.39549346385E+01  0.14467848738E+03  0.41800000000E+01 0.  1.
        -11    1    1    2    0    0 -0.35489853995E+02 -0.99701218455E+02  0.15970516403E+03  0.19158706145E+03  0.00000000000E+00 0. -1.
         11    1    1    2    0    0  0.24796111073E+02 -0.40365603314E+02  0.14709616873E+02  0.49604454274E+02  0.00000000000E+00 0.  1.
</event>
<event>
 7    1  0.1538147E-010  0.8658906E+02  0.7561462E-02  0.1311329E+00
         -2   -1    0    0    0  501 -0.00000000000E+00  0.00000000000E+00  0.29712288774E+03  0.29712288774E+03  0.00000000000E+00 0. -1.
          2   -1    0    0  501    0  0.00000000000E+00 -0.00000000000E+00 -0.49741120710E+02  0.49741120710E+02  0.00000000000E+00 0.  1.
         25    2    1    2    0    0 -0.16472822812E+02 -0.55823455630E+02  0.12187488221E+03  0.18410350245E+03  0.12511195232E+03 0.  0.
          5    1    3    3  502    0 -0.26112911115E+02 -0.52190387155E+02  0.14613769418E+03  0.15741479822E+03  0.41800000000E+01 0. -1.
         -5    1    3    3    0  502  0.96400883033E+01 -0.36330684751E+01 -0.24262811970E+02  0.26688704235E+02  0.41800000000E+01 0. -1.
        -11    1    1    2    0    0 -0.24758945519E+02  0.57167499538E+02  0.78555123400E+02  0.10025984141E+03  0.00000000000E+00 0.  1.
         11    1    1    2    0    0  0.41231768330E+02 -0.13440439086E+01  0.46951761426E+02  0.62500664594E+02  0.00000000000E+00 0. -1.
</event>
<event>
 7    1  0.1538147E-010  0.4340388E+02  0.7561462E-02  0.1484559E+00
          2   -1    0    0  501    0  0.00000000000E+00  0.00000000000E+00  0.14258540733E+04  0.14258540733E+04  0.00000000000E+00 0. -1.
         -2   -1    0    0    0  501 -0.00000000000E+00 -0.00000000000E+00 -0.22094339037E+02  0.22094339037E+02  0.00000000000E+00 0.  1.
         25    2    1    2    0    0 -0.13433420712E+01 -0.12287361465E+02  0.13103216827E+04  0.13163329657E+04  0.12504711336E+03 0.  0.
          5    1    3    3  502    0  0.11008953884E+02 -0.23359446240E+02  0.55098941836E+02  0.60993660209E+02  0.41800000000E+01 0. -1.
         -5    1    3    3    0  502 -0.12352295956E+02  0.11072084775E+02  0.12552227408E+04  0.12553393054E+04  0.41800000000E+01 0. -1.
        -11    1    1    2    0    0  0.20936286841E+02  0.11602477496E+02  0.10577654270E+03  0.10845101464E+03  0.00000000000E+00 0. -1.
         11    1    1    2    0    0 -0.19592944770E+02  0.68488396861E+00 -0.12338491086E+02  0.23164432069E+02  0.00000000000E+00 0.  1.
</event>
<event>
 7    1  0.1538147E-010  0.8606984E+02  0.7561462E-02  0.1312658E+00
          2   -1    0    0  501    0  0.00000000000E+00  0.00000000000E+00  0.95350985627E+03  0.95350985627E+03  0.00000000000E+00 0.  1.
         -2   -1    0    0    0  501 -0.00000000000E+00 -0.00000000000E+00 -0.17658242626E+02  0.17658242626E+02  0.00000000000E+00 0. -1.
         25    2    1    2    0    0  0.44949869335E+02 -0.46989662974E+02  0.63731408934E+03  0.65271738572E+03  0.12506885291E+03 0.  0.
          5    1    3    3  502    0  0.32109508040E+02 -0.58900449019E+02  0.14229545964E+03  0.15737138760E+03  0.41800000000E+01 0.  1.
         -5    1    3    3    0  502  0.12840361295E+02  0.11910786045E+02  0.49501862970E+03  0.49534599812E+03  0.41800000000E+01 0.  1.
        -11    1    1    2    0    0 -0.54824471991E+02  0.20300642367E+02  0.27607279231E+03  0.28219501318E+03  0.00000000000E+00 0.  1.
         11    1    1    2    0    0  0.98746026559E+01  0.26689020607E+02  0.22464731986E+02  0.36255699990E+02  0.00000000000E+00 0. -1.
</event>
<event>
 7    1  0.1538147E-010  0.1155358E+03  0.7561462E-02  0.1250649E+00
         -1   -1    0    0    0  501 -0.00000000000E+00  0.00000000000E+00  0.33839083068E+02  0.33839083068E+02  0.00000000000E+00 0.  1.
          1   -1    0    0  501    0  0.00000000000E+00 -0.00000000000E+00 -0.50447259473E+03  0.50447259473E+03  0.00000000000E+00 0. -1.
         25    2    1    2    0    0  0.13510638940E+02 -0.45995092198E+02 -0.37040835852E+03  0.39390402560E+03  0.12513969574E+03 0.  0.
          5    1    3    3  502    0 -0.52598401434E+02 -0.40985812172E+02 -0.20674321192E+03  0.21727092927E+03  0.41800000000E+01 0.  1.
         -5    1    3    3    0  502  0.66109040375E+02 -0.50092800257E+01 -0.16366514660E+03  0.17663309633E+03  0.41800000000E+01 0.  1.
        -11    1    1    2    0    0  0.36415482682E+02  0.19577165796E+02 -0.19069662194E+02  0.45530262636E+02  0.00000000000E+00 0.  1.
         11    1    1    2    0    0 -0.49926121622E+02  0.26417926402E+02 -0.81155490948E+02  0.98877389562E+02  0.00000000000E+00 0. -1.
</event>
<event>
 7    1  0.1538147E-010  0.8744889E+02  0.7561462E-02  0.1309150E+00
          1   -1    0    0  501    0  0.00000000000E+00  0.00000000000E+00  0.11723724322E+03  0.11723724322E+03  0.00000000000E+00 0. -1.
         -1   -1    0    0    0  501 -0.00000000000E+00 -0.00000000000E+00 -0.11067442127E+03  0.11067442127E+03  0.00000000000E+00 0.  1.
         25    2    1    2    0    0  0.13849122877E+01  0.23893891755E+02 -0.25009678466E+02  0.12976325069E+03  0.12506070993E+03 0.  0.
          5    1    3    3  502    0  0.69718300805E+01  0.54869596517E+02 -0.60542614714E+02  0.82110654809E+02  0.41800000000E+01 0. -1.
         -5    1    3    3    0  502 -0.55869177928E+01 -0.30975704762E+02  0.35532936249E+02  0.47652595883E+02  0.41800000000E+01 0. -1.
        -11    1    1    2    0    0 -0.35190867134E+01  0.31774195866E+02 -0.37459329446E+01  0.32187194781E+02  0.00000000000E+00 0.  1.
         11    1    1    2    0    0  0.21341744257E+01 -0.55668087621E+02  0.35318433355E+02  0.65961219019E+02  0.00000000000E+00 0. -1.
</event>
<event>
 6    1  0.1538147E-010  0.1253608E+03  0.7561462E-02  0.1234507E+00
          1   -1    0    0  501    0  0.00000000000E+00  0.00000000000E+00  0.89889618154E+03  0.89889618154E+03  0.00000000000E+00 0. -1.
         -1   -1    0    0    0  501 -0.00000000000E+00 -0.00000000000E+00 -0.33514019659E+02  0.33514019659E+02  0.00000000000E+00 0.  1.
          5    1    1    2  502    0  0.68406976657E+01 -0.16911438921E+02 -0.11353257645E+02  0.21889741207E+02  0.41800000000E+01 0.  1.
         -5    1    1    2    0  502  0.91025179607E+02  0.22855214214E+02  0.23018292811E+03  0.24861535940E+03  0.41800000000E+01 0.  1.
        -11    1    1    2    0    0 -0.11025571082E+03 -0.27107233939E+02  0.57928284516E+03  0.59030478450E+03  0.00000000000E+00 0. -1.
         11    1    1    2    0    0  0.12389833546E+02  0.21163458647E+02  0.67269646252E+02  0.71600316089E+02  0.00000000000E+00 0.  1.
</event>
<event>
 6    1  0.1538147E-010  0.1179898E+03  0.7561462E-02  0.1246451E+00
          1   -1    0    0  501    0  0.00000000000E+00  0.00000000000E+00  0.43400550061E+02  0.43400550061E+02  0.00000000000E+00 0. -1.
         -1   -1    0    0    0  501 -0.00000000000E+00 -0.00000000000E+00 -0.35094285839E+03  0.35094285839E+03  0.00000000000E+00 0.  1.
          5    1    1    2  502    0  0.83730574039E+02 -0.16369733706E+02 -0.13706681736E+03  0.16150406197E+03  0.41800000000E+01 0.  1.
         -5    1    1    2    0  502 -0.45882187303E+02 -0.19378911908E+02 -0.80290554112E+02  0.94576756225E+02  0.41800000000E+01 0.  1.
        -11    1    1    2    0    0 -0.63836444010E+02  0.38336182817E+02 -0.82288987073E+02  0.11097851995E+03  0.00000000000E+00 0.  1.
         11    1    1    2    0    0  0.25988057274E+02 -0.25875372030E+01 -0.78959497825E+01  0.27284070309E+02  0.00000000000E+00 0. -1.
</event>
<event>
 7    1  0.1538147E-010  0.1507889E+03  0.7561462E-02  0.1199507E+00
         -2   -1    0    0    0  501 -0.00000000000E+00  0.00000000000E+00  0.40650318048E+02  0.40650318048E+02  0.00000000000E+00 0. -1.
          2   -1    0    0  501    0  0.00000000000E+00 -0.00000000000E+00 -0.61210421595E+03  0.61210421595E+03  0.00000000000E+00 0.  1.
         25    2    1    2    0    0  0.62290404445E+02  0.92092093090E+02 -0.26593407698E+03  0.31419184652E+03  0.12503813430E+03 0.  0.
          5    1    3    3  502    0  0.96810985199E+02  0.46674494836E+02 -0.14625521316E+03  0.18154595864E+03  0.41800000000E+01 0. -1.
         -5    1    3    3    0  502 -0.34520580754E+02  0.45417598254E+02 -0.11967886382E+03  0.13264588788E+03  0.41800000000E+01 0. -1.
        -11    1    1    2    0    0 -0.67354851535E+02 -0.28679311919E+02 -0.22079012969E+03  0.23261010366E+03  0.00000000000E+00 0.  1.
         11    1    1    2    0    0  0.50644470894E+01 -0.63412781171E+02 -0.84729691242E+02  0.10595258382E+03  0.00000000000E+00 0. -1.
</event>
<event>
 7    1  0.1538147E-010  0.1243600E+03  0.7561462E-02  0.1236073E+00
          2   -1    0    0  501    0  0.00000000000E+00  0.00000000000E+00  0.11285641395E+04  0.11285641395E+04  0.00000000000E+00 0. -1.
         -2   -1    0    0    0  501 -0.00000000000E+00 -0.00000000000E+00 -0.24004340004E+02  0.24004340004E+02  0.00000000000E+00 0.  1.
         25    2    1    2    0    0  0.50644860430E+02 -0.58371935717E+02  0.92595217091E+03  0.93756024253E+03  0.12513832660E+03 0.  0.
          5    1    3    3  502    0 -0.21543623111E+02  0.25162466504E+02  0.14268252778E+03  0.14653686755E+03  0.41800000000E+01 0. -1.
         -5    1    3    3    0  502  0.72188483541E+02 -0.83534402220E+02  0.78326964313E+03  0.79102337498E+03  0.41800000000E+01 0. -1.
        -11    1    1    2    0    0 -0.54008968090E+02  0.82756958686E+01  0.14402688982E+03  0.15404285368E+03  0.00000000000E+00 0. -1.
         11    1    1    2    0    0  0.33641076593E+01  0.50096239848E+02  0.34580738747E+02  0.60965383289E+02  0.00000000000E+00 0.  1.
</event>
<event>
 7    1  0.1538147E-010  0.7947512E+02  0.7561462E-02  0.1330548E+00
          3   -1    0    0  501    0  0.00000000000E+00  0.00000000000E+00  0.11514089186E+03  0.11514089186E+03  0.00000000000E+00 0. -1.
         -3   -1    0    0    0  501 -0.00000000000E+00 -0.00000000000E+00 -0.11416525889E+03  0.11416525889E+03  0.00000000000E+00 0.  1.
         25    2    1    2    0    0  0.19110589568E+01 -0.33414432315E+02 -0.13249371481E+02  0.13018859076E+03  0.12511333616E+03 0.  0.
          5    1    3    3  502    0  0.42243086243E+02 -0.36629736130E+02 -0.50183459508E+02  0.75246713632E+02  0.41800000000E+01 0.  1.
         -5    1    3    3    0  502 -0.40332027286E+02  0.32153038158E+01  0.36934088027E+02  0.54941877125E+02  0.41800000000E+01 0.  1.
        -11    1    1    2    0    0 -0.23475666403E+02  0.33174258643E+02 -0.29597645998E+02  0.50275829165E+02  0.00000000000E+00 0.  1.
         11    1    1    2    0    0  0.21564607446E+02  0.24017367167E+00  0.43822650451E+02  0.48841730828E+02  0.00000000000E+00 0. -1.
</event>
<event>
 6    1  0.1538147E-010  0.1091305E+03  0.7561462E-02  0.1262189E+00
         -3   -1    0    0    0  501 -0.00000000000E+00  0.00000000000E+00  0.59795514052E+02  0.59795514052E+02  0.00000000000E+00 0.  1.
          3   -1    0    0  501    0  0.00000000000E+00 -0.00000000000E+00 -0.38054867446E+03  0.38054867446E+03  0.00000000000E+00 0. -1.
          5    1    1    2  502    0  0.35007857849E+02 -0.16003702163E+02 -0.21178227102E+02  0.44132281805E+02  0.41800000000E+01 0. -1.
         -5    1    1    2    0  502  0.30855914692E+00  0.93822519220E+02 -0.24165848036E+03  0.25926637624E+03  0.41800000000E+01 0. -1.
        -11    1    1    2    0    0 -0.70499971652E+01 -0.10886226728E+02  0.24104242211E+02  0.27372009152E+02  0.00000000000E+00 0.  1.
         11    1    1    2    0    0 -0.28266419831E+02 -0.66932590329E+02 -0.82020695159E+02  0.10957352131E+03  0.00000000000E+00 0. -1.
</event>
<event>
 7    1  0.1538147E-010  0.1190123E+03  0.7561462E-02  0.1244735E+00
         -1   -1    0    0    0  501 -0.00000000000E+00  0.00000000000E+00  0.35677528717E+03  0.35677528717E+03  0.00000000000E+00 0.  1.
          1   -1    0    0  501    0  0.00000000000E+00 -0.00000000000E+00 -0.10467561781E+03  0.10467561781E+03  0.00000000000E+00 0. -1.
         25    2    1    2    0    0  0.12808870337E+02 -0.54423472161E+02 -0.46449178857E+02  0.14464497287E+03  0.12505462997E+03 0.  0.
          5    1    3    3  502    0 -0.55849472076E+02 -0.26042100547E+02 -0.13277370564E+02  0.63175276027E+02  0.41800000000E+01 0.  1.
         -5    1    3    3    0  502  0.68658342413E+02 -0.28381371614E+02 -0.33171808293E+02  0.81469696839E+02  0.41800000000E+01 0.  1.
        -11    1    1    2    0    0 -0.52209953053E+01  0.77439362372E+02  0.25940343467E+03  0.27076605318E+03  0.00000000000E+00 0.  1.
         11    1    1    2    0    0 -0.75878750320E+01 -0.23015890211E+02  0.39145413552E+02  0.46039878930E+02  0.00000000000E+00 0. -1.
</event>
<event>
 7    1  0.1538147E-010  0.6880471E+02  0.7561462E-02  0.1364206E+00
          2   -1    0    0  501    0  0.00000000000E+00  0.00000000000E+00  0.22509569568E+03  0.22509569568E+03  0.00000000000E+00 0.  1.
         -2   -1    0    0    0  501 -0.00000000000E+00 -0.00000000000E+00 -0.92106247450E+02  0.92106247450E+02  0.00000000000E+00 0. -1.
         25    2    1    2    0    0  0.95928375511E+01  0.62799304864E+02  0.14921455195E+03  0.20479192916E+03  0.12505589354E+03 0.  0.
          5    1    3    3  502    0 -0.19124851548E+01  0.39156933624E+02 -0.12142439130E+02  0.41253294151E+02  0.41800000000E+01 0.  1.
         -5    1    3    3    0  502  0.11505322706E+02  0.23642371240E+02  0.16135699108E+03  0.16353863500E+03  0.41800000000E+01 0.  1.
        -11    1    1    2    0    0 -0.21684769579E+02 -0.46070532510E+02 -0.50938065830E+02  0.72023674913E+02  0.00000000000E+00 0. -1.
         11    1    1    2    0    0  0.12091932027E+02 -0.16728772354E+02  0.34712962112E+02  0.40386339067E+02  0.00000000000E+00 0.  1.
</event>
<event>
 6    1  0.1538147E-010  0.1273899E+03  0.7561462E-02  0.1231381E+00
         -2   -1    0    0    0  501 -0.00000000000E+00  0.00000000000E+00  0.61575200461E+02  0.61575200461E+02  0.00000000000E+00 0.  1.
          2   -1    0    0  501    0  0.00000000000E+00 -0.00000000000E+00 -0.42894278256E+03  0.42894278256E+03  0.00000000000E+00 0. -1.
          5    1    1    2  502    0  0.71473657689E+02  0.85459794596E+02 -0.13297720794E+03  0.17352887503E+03  0.41800000000E+01 0.  1.
         -5    1    1    2    0  502 -0.18804475858E+02  0.68496773941E+01  0.17739330966E+02  0.27068111420E+02  0.41800000000E+01 0.  1.
        -11    1    1    2    0    0 -0.37725298525E+02 -0.97746206266E+01 -0.21491101359E+02  0.44504031220E+02  0.00000000000E+00 0.  1.
         11    1    1    2    0    0 -0.14943883305E+02 -0.82534851364E+02 -0.23063860376E+03  0.24541696536E+03  0.00000000000E+00 0. -1.
</event>
<event>
 7    1  0.1538147E-010  0.1172852E+03  0.7561462E-02  0.1247644E+00
          1   -1    0    0  501    0  0.00000000000E+00  0.00000000000E+00  0.59718940413E+03  0.59718940413E+03  0.00000000000E+00 0. -1.
         -1   -1    0    0    0  501 -0.00000000000E+00 -0.00000000000E+00 -0.29802215905E+02  0.29802215905E+02  0.00000000000E+00 0.  1.
         25    2    1    2    0    0  0.14056415121E+01  0.62296819176E+02  0.41172503750E+03  0.43478868148E+03  0.12506327009E+03 0.  0.
          5    1    3    3  502    0  0.28182550467E+02 -0.21609231683E+02  0.23043609478E+03  0.23319408488E+03  0.41800000000E+01 0. -1.
         -5    1    3    3    0  502 -0.26776908955E+02  0.83906050859E+02  0.18128894272E+03  0.20159459660E+03  0.41800000000E+01 0. -1.
        -11    1    1    2    0    0  0.40436950771E+02 -0.54838523531E+02  0.77188163510E+02  0.10295835681E+03  0.00000000000E+00 0.  1.
         11    1    1    2    0    0 -0.41842592283E+02 -0.74582956451E+01  0.78473987214E+02  0.89244581752E+02  0.00000000000E+00 0. -1.
</event>
<event>
 6    1  0.1538147E-010  0.8781407E+02  0.7561462E-02  0.1308233E+00
          2   -1    0    0  501    0  0.00000000000E+00  0.00000000000E+00  0.28924062554E+03  0.28924062554E+03  0.00000000000E+00 0. -1.
         -2   -1    0    0    0  501 -0.00000000000E+00 -0.00000000000E+00 -0.93521760803E+02  0.93521760803E+02  0.00000000000E+00 0.  1.
          5    1    1    2  502    0  0.60688660353E+02  0.33139070362E+02  0.53636749267E+02  0.87610985338E+02  0.41800000000E+01 0.  1.
         -5    1    1    2    0  502 -0.23155925421E+02 -0.41842097214E+01  0.18326169566E+03  0.18481348974E+03  0.41800000000E+01 0.  1.
        -11    1    1    2    0    0 -0.40431922448E+02 -0.48246040673E+02  0.19752083551E+01  0.62978744363E+02  0.00000000000E+00 0. -1.
         11    1    1    2    0    0  0.28991875149E+01  0.19291180033E+02 -0.43154788546E+02  0.47359166903E+02  0.00000000000E+00 0.  1.
</event>
<event>
 7    1  0.1538147E-010  0.1232381E+03  0.7561462E-02  0.1237849E+00
          1   -1    0    0  501    0  0.00000000000E+00  0.00000000000E+00  0.39815618249E+03  0.39815618249E+03  0.00000000000E+00 0. -1.
         -1   -1    0    0    0  501 -0.00000000000E+00 -0.00000000000E+00 -0.55910672887E+02  0.55910672887E+02  0.00000000000E+00 0.  1.
         25    2    1    2    0    0  0.29013077960E+02 -0.53443455908E+02  0.31156201331E+03  0.34117977415E+03  0.12503914779E+03 0.  0.
          5    1    3    3  502    0 -0.41243809065E+02 -0.54620797113E+02  0.15954580080E+03  0.17365718590E+03  0.41800000000E+01 0.  1.
         -5    1    3    3    0  502  0.70256887025E+02  0.11773412050E+01  0.15201621251E+03  0.16752258825E+03  0.41800000000E+01 0.  1.
        -11    1    1    2    0    0  0.23767235554E+02  0.49107135099E+02  0.74725811869E+01  0.55065703238E+02  0.00000000000E+00 0.  1.
         11    1    1    2    0    0 -0.52780313514E+02  0.43363208094E+01  0.23210915113E+02  0.57821377995E+02  0.00000000000E+00 0. -1.
</event>
<event>
 7    1  0.1538147E-010  0.1613710E+03  0.7561462E-02  0.1187158E+00
         -1   -1    0    0    0  501 -0.00000000000E+00  0.00000000000E+00  0.29281522750E+02  0.29281522750E+02  0.00000000000E+00 0.  1.
          1   -1    0    0  501    0  0.00000000000E+00 -0.00000000000E+00 -0.10449596457E+04  0.10449596457E+04  0.00000000000E+00 0. -1.
         25    2    1    2    0    0  0.63120788387E+02  0.11995001317E+03 -0.47642718173E+03  0.51089277907E+03  0.12512526775E+03 0.  0.
          5    1    3    3  502    0  0.51413241866E+02  0.70195676318E+00 -0.68758593923E+02  0.85959471966E+02  0.41800000000E+01 0. -1.
         -5    1    3    3    0  502  0.11707546520E+02  0.11924805641E+03 -0.40766858781E+03  0.42493330711E+03  0.41800000000E+01 0. -1.
        -11    1    1    2    0    0 -0.54667172449E+02 -0.32906579589E+02 -0.33719302079E+03  0.34317703302E+03  0.00000000000E+00 0. -1.
         11    1    1    2    0    0 -0.84536159372E+01 -0.87043433585E+02 -0.20205792047E+03  0.22017135640E+03  0.00000000000E+00 0.  1.
</event>
<event>
 6    1  0.1538147E-010  0.1221815E+03  0.7561462E-02  0.1239541E+00
          2   -1    0    0  501    0  0.00000000000E+00  0.00000000000E+00  0.54795668887E+03  0.54795668887E+03  0.00000000000E+00 0. -1.
         -2   -1    0    0    0  501 -0.00000000000E+00 -0.00000000000E+00 -0.40098240988E+02  0.40098240988E+02  0.00000000000E+00 0.  1.
          5    1    1    2  502    0 -0.22575610317E+02 -0.80938841345E+01  0.14395832429E+03  0.14600219407E+03  0.41800000000E+01 0. -1.
         -5    1    1    2    0  502  0.63032212580E+02  0.98038143671E+02  0.17086125998E+03  0.20687092594E+03  0.41800000000E+01 0. -1.
        -11    1    1    2    0    0 -0.12669512796E+02 -0.43435439665E+01 -0.75169368337E+01  0.15358621945E+02  0.00000000000E+00 0.  1.
         11    1    1    2    0    0 -0.27787089467E+02 -0.85600715570E+02  0.20055580045E+03  0.21982318790E+03  0.00000000000E+00 0. -1.
</event>
<event>
 7    1  0.1538147E-010  0.1218680E+03  0.7561462E-02  0.1240047E+00
         -3   -1    0    0    0  501 -0.00000000000E+00  0.00000000000E+00  0.98431120657E+02  0.98431120657E+02  0.00000000000E+00 0.  1.
          3   -1    0    0  501    0  0.00000000000E+00 -0.00000000000E+00 -0.15181023229E+03  0.15181023229E+03  0.00000000000E+00 0. -1.
         25    2    1    2    0    0 -0.67195623722E+01 -0.58715229104E+02 -0.28146705160E+02  0.14115778033E+03  0.12506258948E+03 0.  0.
          5    1    3    3  502    0  0.58997854285E+02 -0.32122831239E+02 -0.13808050464E+02  0.68707770700E+02  0.41800000000E+01 0. -1.
         -5    1    3    3    0  502 -0.65717416657E+02 -0.26592397866E+02 -0.14338654697E+02  0.72450009626E+02  0.41800000000E+01 0. -1.
        -11    1    1    2    0    0 -0.17910884560E+02  0.74192262112E+02 -0.12545192779E+02  0.77347743373E+02  0.00000000000E+00 0.  1.
         11    1    1    2    0    0  0.24630446932E+02 -0.15477033008E+02 -0.12687213694E+02  0.31735829249E+02  0.00000000000E+00 0. -1.
</event>
<event>
 7    1  0.1538147E-010  0.1107058E+03  0.7561462E-02  0.1259268E+00
         -2   -1    0    0    0  501 -0.00000000000E+00  0.00000000000E+00  0.42969672369E+03  0.42969672369E+03  0.00000000000E+00 0.  1.
          2   -1    0    0  501    0  0.00000000000E+00 -0.00000000000E+00 -0.45066961074E+02  0.45066961074E+02  0.00000000000E+00 0. -1.
         25    2    1    2    0    0  0.47322875235E+02 -0.71962057533E+02  0.18011002300E+03  0.23562382165E+03  0.12514380808E+03 0.  0.
          5    1    3    3  502    0 -0.17396744070E+02 -0.31243823484E+02  0.14846044540E+03  0.15276386830E+03  0.41800000000E+01 0. -1.
         -5    1    3    3    0  502  0.64719619305E+02 -0.40718234049E+02  0.31649577596E+02  0.82859953349E+02  0.41800000000E+01 0. -1.
        -11    1    1    2    0    0 -0.20022932597E+02  0.78287216649E+02  0.19226170501E+03  0.20855303722E+03  0.00000000000E+00 0.  1.
         11    1    1    2    0    0 -0.27299942638E+02 -0.63251591165E+01  0.12258034615E+02  0.30586825898E+02  0.00000000000E+00 0. -1.
</event>
<event>
 7    1  0.1538147E-010  0.5547172E+02  0.7561462E-02  0.1417881E+00
          2   -1    0    0  501    0  0.00000000000E+00  0.00000000000E+00  0.18099965278E+03  0.18099965278E+03  0.00000000000E+00 0. -1.
         -2   -1    0    0    0  501 -0.00000000000E+00 -0.00000000000E+00 -0.90722747174E+02  0.90722747174E+02  0.00000000000E+00 0.  1.
         25    2    1    2    0    0 -0.11961437825E+02 -0.41765409664E+02 -0.62583249657E+01  0.13251041107E+03  0.12502966437E+03 0.  0.
          5    1    3    3  502    0 -0.30893553128E+02 -0.34256913121E+02  0.52600527662E+02  0.70087342879E+02  0.41800000000E+01 0. -1.
         -5    1    3    3    0  502  0.18932115303E+02 -0.75084965429E+01 -0.58858852628E+02  0.62423068195E+02  0.41800000000E+01 0. -1.
        -11    1    1    2    0    0  0.18109403900E+01  0.16594496997E+02 -0.16196586083E+02  0.23259110826E+02  0.00000000000E+00 0.  1.
         11    1    1    2    0    0  0.10150497435E+02  0.25170912668E+02  0.11273181666E+03  0.11595287806E+03  0.00000000000E+00 0. -1.
</event>
<event>
 6    1  0.1538147E-010  0.1542289E+03  0.7561462E-02  0.1195371E+00
          2   -1    0    0  501    0  0.00000000000E+00  0.00000000000E+00  0.13877183691E+03  0.13877183691E+03  0.00000000000E+00 0. -1.
         -2   -1    0    0    0  501 -0.00000000000E+00 -0.00000000000E+00 -0.22166891945E+03  0.22166891945E+03  0.00000000000E+00 0.  1.
          5    1    1    2  502    0  0.11756775405E+03  0.28956078185E+02 -0.80658938976E+02  0.14554713358E+03  0.41800000000E+01 0.  1.
         -5    1    1    2    0  502  0.17349317465E+02 -0.34306165451E+02  0.25764584146E+02  0.46467171214E+02  0.41800000000E+01 0.  1.
        -11    1    1    2    0    0 -0.38097768080E+02 -0.26841285931E+02 -0.45239503562E+02  0.64950036533E+02  0.00000000000E+00 0.  1.
         11    1    1    2    0    0 -0.96819303439E+02  0.32191373197E+02  0.17236775850E+02  0.10347641503E+03  0.00000000000E+00 0. -1.
</event>
<event>
 7    1  0.1538147E-010  0.1098838E+03  0.7561462E-02  0.1260785E+00
         -2   -1    0    0    0  501 -0.00000000000E+00  0.00000000000E+00  0.11475915288E+02  0.11475915288E+02  0.00000000000E+00 0.  1.
          2   -1    0    0  501    0  0.00000000000E+00 -0.00000000000E+00 -0.17271404726E+04  0.17271404726E+04  0.00000000000E+00 0. -1.
         25    2    1    2    0    0 -0.51330642805E+02 -0.26897819553E+02 -0.13605825860E+04  0.13675470410E+04  0.12506641647E+03 0.  0.
          5    1    3    3  502    0 -0.84108887254E+02 -0.11911312511E+02 -0.58868622642E+03  0.59479839429E+03  0.41800000000E+01 0.  1.
         -5    1    3    3    0  502  0.32778244450E+02 -0.14986507043E+02 -0.77189635954E+03  0.77274864670E+03  0.41800000000E+01 0.  1.
        -11    1    1    2    0    0 -0.81126568527E+01 -0.20731346774E+02 -0.31057699210E+02  0.38212362142E+02  0.00000000000E+00 0.  1.
         11    1    1    2    0    0  0.59443299657E+02  0.47629166327E+02 -0.32402427209E+03  0.33285698470E+03  0.00000000000E+00 0. -1.
</event>
<event>
 7    1  0.1538147E-010  0.1755529E+03  0.7561462E-02  0.1172178E+00
         -2   -1    0    0    0  501 -0.00000000000E+00  0.00000000000E+00  0.13344515136E+03  0.13344515136E+03  0.00000000000E+00 0. -1.
          2   -1    0    0  501    0  0.00000000000E+00 -0.00000000000E+00 -0.29774916421E+03  0.29774916421E+03  0.00000000000E+00 0.  1.
         25    2    1    2    0    0 -0.16227871128E+03 -0.23342574969E+02 -0.51286200211E+02  0.21248545394E+03  0.12506213602E+03 0.  0.
          5    1    3    3  502    0 -0.20640807858E+02 -0.24262556352E+02 -0.62568002936E+02  0.70334500647E+02  0.41800000000E+01 0.  1.
         -5    1    3    3    0  502 -0.14163790342E+03  0.91998138339E+00  0.11281802725E+02  0.14215095330E+03  0.41800000000E+01 0.  1.
        -11    1    1    2    0    0  0.12129989764E+03  0.46850037285E+02 -0.48586757093E+02  0.13881377498E+03  0.00000000000E+00 0. -1.
         11    1    1    2    0    0  0.40978813640E+02 -0.23507462316E+02 -0.64431055539E+02  0.79895086644E+02  0.00000000000E+00 0.  1.
</event>
<event>
 7    1  0.1538147E-010  0.1398566E+03  0.7561462E-02  0.1213522E+00
          1   -1    0    0  501    0  0.00000000000E+00  0.00000000000E+00  0.14512025414E+04  0.14512025414E+04  0.00000000000E+00 0. -1.
         -1   -1    0    0    0  501 -0.00000000000E+00 -0.00000000000E+00 -0.18872277280E+02  0.18872277280E+02  0.00000000000E+00 0.  1.
         25    2    1    2    0    0  0.63953556263E+02  0.83600975172E+02  0.10454509650E+04  0.10581535189E+04  0.12506785708E+03 0.  0.
          5    1    3    3  502    0  0.23973278572E+02  0.96320006472E+02  0.92914625910E+03  0.93444234971E+03  0.41800000000E+01 0. -1.
         -5    1    3    3    0  502  0.39980277691E+02 -0.12719031299E+02  0.11630470594E+03  0.12371116920E+03  0.41800000000E+01 0. -1.
        -11    1    1    2    0    0  0.24874373794E+01 -0.70425655245E+02  0.24084946126E+03  0.25094705269E+03  0.00000000000E+00 0. -1.
         11    1    1    2    0    0 -0.66440993642E+02 -0.13175319927E+02  0.14602983785E+03  0.16097424711E+03  0.00000000000E+00 0.  1.
</event>
<event>
 7    1  0.1538147E-010  0.1068476E+03  0.7561462E-02  0.1266522E+00
          2   -1    0    0  501    0  0.00000000000E+00  0.00000000000E+00  0.15025999908E+03  0.15025999908E+03  0.00000000000E+00 0. -1.
         -2   -1    0    0    0  501 -0.00000000000E+00 -0.00000000000E+00 -0.10574578127E+03  0.10574578127E+03  0.00000000000E+00 0.  1.
         25    2    1    2    0    0  0.46161397320E+02 -0.41753068647E+02  0.10749785632E+02  0.14009504687E+03  0.12504747467E+03 0.  0.
          5    1    3    3  502    0  0.21907897345E+02  0.29495766747E+02  0.44198335501E+02  0.57627436896E+02  0.41800000000E+01 0. -1.
         -5    1    3    3    0  502  0.24253499975E+02 -0.71248835394E+02 -0.33448549869E+02  0.82467609971E+02  0.41800000000E+01 0. -1.
        -11    1    1    2    0    0 -0.59572882243E+02  0.22458940769E+01 -0.38462338384E+01  0.59739148418E+02  0.00000000000E+00 0.  1.
         11    1    1    2    0    0  0.13411484923E+02  0.39507174570E+02  0.37610666019E+02  0.56171585065E+02  0.00000000000E+00 0. -1.
</event>
<event>
 7    1  0.1538147E-010  0.1866802E+03  0.7561462E-02  0.1161490E+00
         -1   -1    0    0    0  501 -0.00000000000E+00  0.00000000000E+00  0.80399564746E+02  0.80399564746E+02  0.00000000000E+00 0.  1.
          1   -1    0    0  501    0  0.00000000000E+00 -0.00000000000E+00 -0.59796508877E+03  0.59796508877E+03  0.00000000000E+00 0. -1.
         25    2    1    2    0    0  0.13844647357E+03 -0.10122080589E+03 -0.14018704486E+03  0.25437094637E+03  0.12505636018E+03 0.  0.
          5    1    3    3  502    0  0.34001372326E+02 -0.78798530474E+02 -0.10904532226E+02  0.86612256338E+02  0.41800000000E+01 0.  1.
         -5    1    3    3    0  502  0.10444510125E+03 -0.22422275415E+02 -0.12928251263E+03  0.16775869003E+03  0.41800000000E+01 0.  1.
        -11    1    1    2    0    0 -0.67125894219E+02  0.83324210153E+02 -0.14463831200E+03  0.17991400993E+03  0.00000000000E+00 0.  1.
         11    1    1    2    0    0 -0.71320579353E+02  0.17896595736E+02 -0.23274016717E+03  0.24407969721E+03  0.00000000000E+00 0. -1.
</event>
<event>
 7    1  0.1538147E-010  0.1491199E+03  0.7561462E-02  0.1201559E+00
         -2   -1    0    0    0  501 -0.00000000000E+00  0.00000000000E+00  0.62331175602E+02  0.62331175602E+02  0.00000000000E+00 0.  1.
          2   -1    0    0  501    0  0.00000000000E+00 -0.00000000000E+00 -0.48168313978E+03  0.48168313978E+03  0.00000000000E+00 0. -1.
         25    2    1    2    0    0  0.51705327690E+02  0.11798471643E+03 -0.28336599268E+03  0.33545490738E+03  0.12505948527E+03 0.  0.
          5    1    3    3  502    0  0.50328758835E+02  0.67723151355E+00 -0.14745986441E+03  0.15586958209E+03  0.41800000000E+01 0.  1.
         -5    1    3    3    0  502  0.13765688544E+01  0.11730748492E+03 -0.13590612827E+03  0.17958532529E+03  0.41800000000E+01 0.  1.
        -11    1    1    2    0    0 -0.36390553734E+02 -0.10157612621E+03 -0.14795744876E+03  0.18312123979E+03  0.00000000000E+00 0. -1.
         11    1    1    2    0    0 -0.15314773956E+02 -0.16408590218E+02  0.11971477262E+02  0.25438168214E+02  0.00000000000E+00 0.  1.
</event>
<event>
 7    1  0.1538147E-010  0.1207620E+03  0.7561462E-02  0.1241845E+00
          1   -1    0    0  501    0  0.00000000000E+00  0.00000000000E+00  0.67067506306E+02  0.67067506306E+02  0.00000000000E+00 0. -1.
         -1   -1    0    0    0  501 -0.00000000000E+00 -0.00000000000E+00 -0.26477989983E+03  0.26477989983E+03  0.00000000000E+00 0.  1.
         25    2    1    2    0    0 -0.75998347178E+02  0.14086788851E+02 -0.96509912358E+02  0.17586990156E+03  0.12506747258E+03 0.  0.
          5    1    3    3  502    0 -0.10160827116E+03 -0.20486586530E+02 -0.65840699210E+02  0.12286745325E+03  0.41800000000E+01 0. -1.
         -5    1    3    3    0  502  0.25609923982E+02  0.34573375381E+02 -0.30669213149E+02  0.53002448309E+02  0.41800000000E+01 0. -1.
        -11    1    1    2    0    0  0.64671120238E+02  0.12311883389E+02 -0.18432604736E+02  0.68364443849E+02  0.00000000000E+00 0. -1.
         11    1    1    2    0    0  0.11327226940E+02 -0.26398672239E+02 -0.82769876432E+02  0.87613060731E+02  0.00000000000E+00 0.  1.
</event>
<event>
 7    1  0.1538147E-010  0.1410927E+03  0.7561462E-02  0.1211866E+00
          1   -1    0    0  501    0  0.00000000000E+00  0.00000000000E+00  0.48834711722E+03  0.48834711722E+03  0.00000000000E+00 0. -1.
         -1   -1    0    0    0  501 -0.00000000000E+00 -0.00000000000E+00 -0.58921082887E+02  0.58921082887E+02  0.00000000000E+00 0.  1.
         25    2    1    2    0    0 -0.98109251309E+02  0.87197509103E+02  0.28350113564E+03  0.33650647986E+03  0.12503953890E+03 0.  0.
          5    1    3    3  502    0 -0.78170504130E+02  0.96633809571E+02  0.28791433813E+03  0.31362534873E+03  0.41800000000E+01 0.  1.
         -5    1    3    3    0  502 -0.19938747179E+02 -0.94363004677E+01 -0.44132024814E+01  0.22881131128E+02  0.41800000000E+01 0.  1.
        -11    1    1    2    0    0  0.39515380695E+02 -0.14713642053E+02  0.96394904942E+02  0.10521375515E+03  0.00000000000E+00 0. -1.
         11    1    1    2    0    0  0.58593870614E+02 -0.72483867050E+02  0.49529993749E+02  0.10554796510E+03  0.00000000000E+00 0.  1.
</event>
<event>
 7    1  0.1538147E-010  0.7845648E+02  0.7561462E-02  0.1333490E+00
         -3   -1    0    0    0  501 -0.00000000000E+00  0.00000000000E+00  0.13785005268E+03  0.13785005268E+03  0.00000000000E+00 0. -1.
          3   -1    0    0  501    0  0.00000000000E+00 -0.00000000000E+00 -0.95693600388E+02  0.95693600388E+02  0.00000000000E+00 0.  1.
         25    2    1    2    0    0  0.21230337112E+02  0.32353232220E+02  0.34302157845E+02  0.13537740930E+03  0.12511173433E+03 0.  0.
          5    1    3    3  502    0  0.52384551101E+02 -0.69197650266E+01  0.59021440821E+02  0.79328602778E+02  0.41800000000E+01 0.  1.
         -5    1    3    3    0  502 -0.31154213989E+02  0.39272997246E+02 -0.24719282976E+02  0.56048806524E+02  0.41800000000E+01 0.  1.
        -11    1    1    2    0    0 -0.28089140625E+02 -0.93554407603E+01  0.45045738079E+02  0.53904012949E+02  0.00000000000E+00 0. -1.
         11    1    1    2    0    0  0.68588035123E+01 -0.22997791459E+02 -0.37191443631E+02  0.44262230818E+02  0.00000000000E+00 0.  1.
</event>
<event>
 6    1  0.1538147E-010  0.1510185E+03  0.7561462E-02  0.1199227E+00
          2   -1    0    0  501    0  0.00000000000E+00  0.00000000000E+00  0.18963673824E+03  0.18963673824E+03  0.00000000000E+00 0. -1.
         -2   -1    0    0    0  501 -0.00000000000E+00 -0.00000000000E+00 -0.13215805815E+03  0.13215805815E+03  0.00000000000E+00 0.  1.
          5    1    1    2  502    0 -0.58188067597E+02 -0.41239332747E+02 -0.24134105951E+02  0.75408628460E+02  0.41800000000E+01 0.  1.
         -5    1    1    2    0  502 -0.52653167615E+02  0.66979194684E+02  0.40825575695E+02  0.94566212842E+02  0.41800000000E+01 0.  1.
        -11    1    1    2    0    0  0.32556739696E+02  0.33808813429E+02  0.52092610212E+01  0.47224078239E+02  0.00000000000E+00 0.  1.
         11    1    1    2    0    0  0.78284495517E+02 -0.59548675367E+02  0.35577949321E+02  0.10459587685E+03  0.00000000000E+00 0. -1.
</event>
<event>
 7    1  0.1538147E-010  0.1189236E+03  0.7561462E-02  0.1244883E+00
          3   -1    0    0  501    0  0.00000000000E+00  0.00000000000E+00  0.12834756373E+03  0.12834756373E+03  0.00000000000E+00 0. -1.
         -3   -1    0    0    0  501 -0.00000000000E+00 -0.00000000000E+00 -0.14876107336E+03  0.14876107336E+03  0.00000000000E+00 0.  1.
         25    2    1    2    0    0 -0.97484442778E+01  0.77111223009E+02 -0.44865491043E+02  0.15397780698E+03  0.12512026166E+03 0.  0.
          5    1    3    3  502    0 -0.64969081896E+02  0.25489852286E+02 -0.33125427741E+02  0.77365887411E+02  0.41800000000E+01 0.  1.
         -5    1    3    3    0  502  0.55220637618E+02  0.51621370723E+02 -0.11740063302E+02  0.76611919573E+02  0.41800000000E+01 0.  1.
        -11    1    1    2    0    0  0.12201854977E+02  0.25999316373E+01 -0.25947579660E+02  0.28791002060E+02  0.00000000000E+00 0.  1.
         11    1    1    2    0    0 -0.24534106991E+01 -0.79711154646E+02  0.50399561075E+02  0.94339828046E+02  0.00000000000E+00 0. -1.
</event>
<event>
 7    1  0.1538147E-010  0.1373956E+03  0.7561462E-02  0.1216877E+00
          1   -1    0    0  501    0  0.00000000000E+00  0.00000000000E+00  0.44739923160E+02  0.44739923160E+02  0.00000000000E+00 0. -1.
         -1   -1    0    0    0  501 -0.00000000000E+00 -0.00000000000E+00 -0.55005917115E+03  0.55005917115E+03  0.00000000000E+00 0.  1.
         25    2    1    2    0    0  0.50333037101E+02  0.10347311292E+03 -0.24908945113E+03  0.30157436158E+03  0.12514567981E+03 0.  0.
          5    1    3    3  502    0 -0.15438055585E+02  0.27397586701E+02  0.12597963799E+01  0.31749343366E+02  0.41800000000E+01 0.  1.
         -5    1    3    3    0  502  0.65771092686E+02  0.76075526216E+02 -0.25034924751E+03  0.26982501821E+03  0.41800000000E+01 0.  1.
        -11    1    1    2    0    0 -0.73118232754E+02 -0.65686703390E+02 -0.18311419881E+03  0.20782643905E+03  0.00000000000E+00 0.  1.
         11    1    1    2    0    0  0.22785195653E+02 -0.37786409527E+02 -0.73115598048E+02  0.85398293682E+02  0.00000000000E+00 0. -1.
</event>
<event>
 6    1  0.1538147E-010  0.1520796E+03  0.7561462E-02  0.1197941E+00
          2   -1    0    0  501    0  0.00000000000E+00  0.00000000000E+00  0.28331349975E+03  0.28331349975E+03  0.00000000000E+00 0.  1.
         -2   -1    0    0    0  501 -0.00000000000E+00 -0.00000000000E+00 -0.10522333381E+03  0.10522333381E+03  0.00000000000E+00 0. -1.
          5    1    1    2  502    0 -0.36984161609E+02 -0.11135603039E+02 -0.50751842592E+01  0.39179838696E+02  0.41800000000E+01 0.  1.
         -5    1    1    2    0  502 -0.43141054779E+02  0.10047099296E+03  0.15579347487E+03  0.19038027799E+03  0.41800000000E+01 0.  1.
        -11    1    1    2    0    0  0.99472343284E+02 -0.48424278211E+02  0.12481752166E+02  0.11133486397E+03  0.00000000000E+00 0. -1.
         11    1    1    2    0    0 -0.19347126896E+02 -0.40911111714E+02  0.14890123159E+02  0.47641852908E+02  0.00000000000E+00 0.  1.
</event>
<event>
 7    1  0.2125195E-010  0.6839735E+02  0.7561462E-02  0.1365629E+00
          2   -1    0    0  501    0  0.00000000000E+00  0.00000000000E+00  0.85148997822E+03  0.85148997822E+03  0.00000000000E+00 0. -1.
         -2   -1    0    0    0  501 -0.00000000000E+00 -0.00000000000E+00 -0.15454232096E+02  0.15454232096E+02  0.00000000000E+00 0.  1.
         25    2    1    2    0    0  0.17063713566E+02 -0.70147909124E+01  0.59850522847E+03  0.61172028341E+03  0.12511122656E+03 0.  0.
          5    1    3    3  502    0 -0.71094554730E+01 -0.15494210649E+02  0.57896567821E+03  0.57923168410E+03  0.41800000000E+01 0. -1.
         -5    1    3    3    0  502  0.24173169039E+02  0.84794197368E+01  0.19539550263E+02  0.32488599308E+02  0.41800000000E+01 0. -1.
        -11    1    1    2    0    0  0.30913867474E+02  0.27256117686E+02  0.99506118638E+02  0.10770343913E+03  0.00000000000E+00 0. -1.
         11    1    1    2    0    0 -0.47977581041E+02 -0.20241326773E+02  0.13802439902E+03  0.14752048778E+03  0.00000000000E+00 0.  1.
</event>
<event>
 7    1  0.1538147E-010  0.1475540E+03  0.7561462E-02  0.1203511E+00
          1   -1    0    0  501    0  0.00000000000E+00  0.00000000000E+00  0.13278140472E+03  0.13278140472E+03  0.00000000000E+00 0. -1.
         -1   -1    0    0    0  501 -0.00000000000E+00 -0.00000000000E+00 -0.20488466231E+03  0.20488466231E+03  0.00000000000E+00 0.  1.
         25    2    1    2    0    0 -0.12046928939E+03 -0.18142546737E+02 -0.15261660119E+02  0.17529669542E+03  0.12511599205E+03 0.  0.
          5    1    3    3  502    0 -0.87708352751E+02 -0.60359738464E+02 -0.43049944546E+02  0.11492094368E+03  0.41800000000E+01 0. -1.
         -5    1    3    3    0  502 -0.32760936639E+02  0.42217191727E+02  0.27788284426E+02  0.60375751740E+02  0.41800000000E+01 0. -1.
        -11    1    1    2    0    0  0.59786760576E+02 -0.20277532066E+02 -0.64359838464E+02  0.90154444450E+02  0.00000000000E+00 0.  1.
         11    1    1    2    0    0  0.60682528814E+02  0.38420078804E+02  0.75182409945E+01  0.72214927171E+02  0.00000000000E+00 0. -1.
</event>
<event>
 7    1  0.1538147E-010  0.1821787E+03  0.7561462E-02  0.1165711E+00
          1   -1    0    0  501    0  0.00000000000E+00  0.00000000000E+00  0.36998327677E+03  0.36998327677E+03  0.00000000000E+00 0. -1.
         -1   -1    0    0    0  501 -0.00000000000E+00 -0.00000000000E+00 -0.15343130728E+03  0.15343130728E+03  0.00000000000E+00 0.  1.
         25    2    1    2    0    0  0.12541877692E+03  0.98397185167E+02  0.26442126057E+03  0.33312114807E+03  0.12505686946E+03 0.  0.
          5    1    3    3  502    0  0.78842287931E+02  0.12392987877E+03  0.21521704700E+03  0.26059656740E+03  0.41800000000E+01 0.  1.
         -5    1    3    3    0  502  0.46576488992E+02 -0.25532693606E+02  0.49204213568E+02  0.72524580677E+02  0.41800000000E+01 0.  1.
        -11    1    1    2    0    0 -0.55948099194E+02 -0.20071677522E+02 -0.60530970210E+02  0.84835490194E+02  0.00000000000E+00 0.  1.
         11    1    1    2    0    0 -0.69470677728E+02 -0.78325507645E+02  0.12661679132E+02  0.10545794579E+03  0.00000000000E+00 0. -1.
</event>
<event>
 7    1  0.1538147E-010  0.8888861E+02  0.7561462E-02  0.1305566E+00
          2   -1    0    0  501    0  0.00000000000E+00  0.00000000000E+00  0.46932817313E+03  0.46932817313E+03  0.00000000000E+00 0. -1.
         -2   -1    0    0    0  501 -0.00000000000E+00 -0.00000000000E+00 -0.30793455687E+02  0.30793455687E+02  0.00000000000E+00 0.  1.
         25    2    1    2    0    0 -0.24530151233E+01 -0.51296087687E+02  0.22263338404E+03  0.26049663722E+03  0.12512221394E+03 0.  0.
          5    1    3    3  502    0 -0.30487893455E+02 -0.64240386139E+02  0.21756230766E+03  0.22892612121E+03  0.41800000000E+01 0.  1.
         -5    1    3    3    0  502  0.28034878332E+02  0.12944298451E+02  0.50710763759E+01  0.31570516009E+02  0.41800000000E+01 0.  1.
        -11    1    1    2    0    0  0.13227557147E+01 -0.12003551793E+02 -0.24141298008E+01  0.12315151685E+02  0.00000000000E+00 0.  1.
         11    1    1    2    0    0  0.11302594085E+01  0.63299639481E+02  0.21831546321E+03  0.22730983991E+03  0.00000000000E+00 0. -1.
</event>
<event>
 7    1  0.1913823E-010  0.1203813E+03  0.7561462E-02  0.1242469E+00
          1   -1    0    0  501    0  0.00000000000E+00  0.00000000000E+00  0.34745951367E+03  0.34745951367E+03  0.00000000000E+00 0. -1.
         -1   -1    0    0    0  501 -0.00000000000E+00 -0.00000000000E+00 -0.55032936509E+02  0.55032936509E+02  0.00000000000E+00 0.  1.
         25    2    1    2    0    0  0.53832367165E+01 -0.57727211526E+02  0.69258757964E+02  0.15427222532E+03  0.12506691713E+03 0.  0.
          5    1    3    3  502    0 -0.57070342979E+02 -0.47582233176E+02  0.38712624854E+02  0.83888215411E+02  0.41800000000E+01 0.  1.
         -5    1    3    3    0  502  0.62453579696E+02 -0.10144978350E+02  0.30546133110E+02  0.70384009906E+02  0.41800000000E+01 0.  1.
        -11    1    1    2    0    0 -0.20923596463E+02 -0.16779563336E+02  0.99119916950E+02  0.10268450989E+03  0.00000000000E+00 0. -1.
         11    1    1    2    0    0  0.15540359747E+02  0.74506774862E+02  0.12404790225E+03  0.14553571498E+03  0.00000000000E+00 0.  1.
</event>
<event>
 7    1  0.1538147E-010  0.9841734E+02  0.7561462E-02  0.1283660E+00
          1   -1    0    0  501    0  0.00000000000E+00  0.00000000000E+00  0.72103499440E+02  0.72103499440E+02  0.00000000000E+00 0. -1.
         -1   -1    0    0    0  501 -0.00000000000E+00 -0.00000000000E+00 -0.31289398987E+03  0.31289398987E+03  0.00000000000E+00 0.  1.
         25    2    1    2    0    0  0.58738314695E+01 -0.73060062771E+02 -0.38914653919E+02  0.15013261535E+03  0.12511265817E+03 0.  0.
          5    1    3    3  502    0  0.16837631043E+02 -0.58690703580E+02 -0.82524000223E+02  0.10274136226E+03  0.41800000000E+01 0. -1.
         -5    1    3    3    0  502 -0.10963799573E+02 -0.14369359191E+02  0.43609346304E+02  0.47391253092E+02  0.41800000000E+01 0. -1.
        -11    1    1    2    0    0 -0.34225275104E+02 -0.44839305531E+01 -0.85237960312E+02  0.91961866920E+02  0.00000000000E+00 0.  1.
         11    1    1    2    0    0  0.28351443635E+02  0.77543993324E+02 -0.11663787620E+03  0.14290300704E+03  0.00000000000E+00 0. -1.
</event>
<event>
 6    1  0.1538147E-010  0.5982330E+02  0.7561462E-02  0.1398575E+00
          1   -1    0    0  501    0  0.00000000000E+00  0.00000000000E+00  0.34217865614E+02  0.34217865614E+02  0.00000000000E+00 0. -1.
         -1   -1    0    0    0  501 -0.00000000000E+00 -0.00000000000E+00 -0.41081896757E+03  0.41081896757E+03  0.00000000000E+00 0.  1.
          5    1    1    2  502    0 -0.21275645061E+02  0.23704062307E+02 -0.23425640207E+03  0.23644887387E+03  0.41800000000E+01 0.  1.
         -5    1    1    2    0  502  0.52915697346E+01  0.16780315581E+02  0.12789144558E+02  0.22149815344E+02  0.41800000000E+01 0.  1.
        -11    1    1    2    0    0  0.32502764299E+02 -0.87484670958E+01 -0.14556096975E+03  0.14940201230E+03  0.00000000000E+00 0.  1.
         11    1    1    2    0    0 -0.16518688972E+02 -0.31735910792E+02 -0.95728746872E+01  0.37036131668E+02  0.00000000000E+00 0. -1.
</event>
<event>
 6    1  0.1538147E-010  0.1449356E+03  0.7561462E-02  0.1206838E+00
         -1   -1    0    0    0  501 -0.00000000000E+00  0.00000000000E+00  0.12496212137E+03  0.12496212137E+03  0.00000000000E+00 0.  1.
          1   -1    0    0  501    0  0.00000000000E+00 -0.00000000000E+00 -0.29636460278E+03  0.29636460278E+03  0.00000000000E+00 0. -1.
          5    1    1    2  502    0 -0.14682287973E+02 -0.24910360370E+00  0.39839509019E+02  0.42664862728E+02  0.41800000000E+01 0. -1.
         -5    1    1    2    0  502  0.12465640128E+03  0.13138329845E+01 -0.77980410567E+01  0.12497690339E+03  0.41800000000E+01 0. -1.
        -11    1    1    2    0    0 -0.25121751859E+02  0.46312427659E+02 -0.54196214093E+02  0.75585534291E+02  0.00000000000E+00 0. -1.
         11    1    1    2    0    0 -0.84852361446E+02 -0.47377157039E+02 -0.14924773528E+03  0.17809942374E+03  0.00000000000E+00 0.  1.
</event>
<event>
 7    1  0.1538147E-010  0.1430067E+03  0.7561462E-02  0.1209340E+00
          1   -1    0    0  501    0  0.00000000000E+00  0.00000000000E+00  0.47707145842E+03  0.47707145842E+03  0.00000000000E+00 0. -1.
         -1   -1    0    0    0  501 -0.00000000000E+00 -0.00000000000E+00 -0.47410467544E+02  0.47410467544E+02  0.00000000000E+00 0.  1.
         25    2    1    2    0    0  0.78803942551E+02 -0.55214092026E+02  0.28854852382E+03  0.32887236308E+03  0.12505248212E+03 0.  0.
          5    1    3    3  502    0  0.94240745813E+02  0.25227918034E+00  0.21923559787E+03  0.23866944000E+03  0.41800000000E+01 0. -1.
         -5    1    3    3    0  502 -0.15436803262E+02 -0.55466371207E+02  0.69312925947E+02  0.90202923085E+02  0.41800000000E+01 0. -1.
        -11    1    1    2    0    0  0.17467088639E+02  0.29540233809E+02  0.24157143538E+02  0.41967751702E+02  0.00000000000E+00 0.  1.
         11    1    1    2    0    0 -0.96271031190E+02  0.25673858218E+02  0.11695532352E+03  0.15364181118E+03  0.00000000000E+00 0. -1.
</event>
<event>
 6    1  0.1538147E-010  0.1259335E+03  0.7561462E-02  0.1233618E+00
          1   -1    0    0  501    0  0.00000000000E+00  0.00000000000E+00  0.27307506430E+03  0.27307506430E+03  0.00000000000E+00 0. -1.
         -1   -1    0    0    0  501 -0.00000000000E+00 -0.00000000000E+00 -0.13263991323E+03  0.13263991323E+03  0.00000000000E+00 0.  1.
          5    1    1    2  502    0 -0.59466975469E+02 -0.92679061421E+02  0.10775959817E+02  0.11072182850E+03  0.41800000000E+01 0.  1.
         -5    1    1    2    0  502  0.28034644550E+02 -0.12866263930E+02 -0.53100278312E+02  0.61551555621E+02  0.41800000000E+01 0.  1.
        -11    1    1    2    0    0  0.77400234237E+01  0.42365070517E+02  0.50604143184E+01  0.43362598580E+02  0.00000000000E+00 0.  1.
         11    1    1    2    0    0  0.23692307495E+02  0.63180254833E+02  0.17769905525E+03  0.19007899482E+03  0.00000000000E+00 0. -1.
</event>
<event>
 6    1  0.1538147E-010  0.9616360E+02  0.7561462E-02  0.1288577E+00
          4   -1    0    0  501    0  0.00000000000E+00  0.00000000000E+00  0.66213155200E+02  0.66213155200E+02  0.00000000000E+00 0. -1.
         -4   -1    0    0    0  501 -0.00000000000E+00 -0.00000000000E+00 -0.22833147969E+03  0.22833147969E+03  0.00000000000E+00 0.  1.
          5    1    1    2  502    0  0.25641365616E+01 -0.54502985569E+02 -0.98919313738E+02  0.11304712850E+03  0.41800000000E+01 0. -1.
         -5    1    1    2    0  502 -0.43100885038E+02  0.51968397760E+02 -0.39549223720E+02  0.78358242410E+02  0.41800000000E+01 0. -1.
        -11    1    1    2    0    0  0.11295500828E+02 -0.26465788608E+02  0.25895989187E+02  0.38712124219E+02  0.00000000000E+00 0. -1.
         11    1    1    2    0    0  0.29241247648E+02  0.29000376417E+02 -0.49545776224E+02  0.64427139763E+02  0.00000000000E+00 0.  1.
</event>
<event>
 6    1  0.1538147E-010  0.1145458E+03  0.7561462E-02  0.1252376E+00
         -1   -1    0    0    0  501 -0.00000000000E+00  0.00000000000E+00  0.11302768149E+03  0.11302768149E+03  0.00000000000E+00 0.  1.
          1   -1    0    0  501    0  0.00000000000E+00 -0.00000000000E+00 -0.19432477426E+03  0.19432477426E+03  0.00000000000E+00 0. -1.
          5    1    1    2  502    0  0.45660476450E+02  0.57399383458E+02  0.39209633973E+02  0.83273261779E+02  0.41800000000E+01 0. -1.
         -5    1    1    2    0  502 -0.16558501584E+02  0.38998824661E+02 -0.67371718663E+02  0.79696381193E+02  0.41800000000E+01 0. -1.
        -11    1    1    2    0    0 -0.24071853256E+02 -0.92942958390E+01  0.18288569474E+02  0.31627675029E+02  0.00000000000E+00 0.  1.
         11    1    1    2    0    0 -0.50301216101E+01 -0.87103912280E+02 -0.71423577555E+02  0.11275513775E+03  0.00000000000E+00 0. -1.
</event>
<event>
 7    1  0.1538147E-010  0.1018708E+03  0.7561462E-02  0.1276410E+00
          1   -1    0    0  501    0  0.00000000000E+00  0.00000000000E+00  0.95269628919E+02  0.95269628919E+02  0.00000000000E+00 0. -1.
         -1   -1    0    0    0  501 -0.00000000000E+00 -0.00000000000E+00 -0.15134320542E+03  0.15134320542E+03  0.00000000000E+00 0.  1.
         25    2    1    2    0    0 -0.38106208045E+02  0.25515047252E+02 -0.90177675118E+01  0.13351649361E+03  0.12506891384E+03 0.  0.
          5    1    3    3  502    0 -0.74832864234E+02  0.70980419742E+01  0.25714240753E+02  0.79555228281E+02  0.41800000000E+01 0.  1.
         -5    1    3    3    0  502  0.36726656190E+02  0.18417005278E+02 -0.34732008265E+02  0.53961265334E+02  0.41800000000E+01 0.  1.
        -11    1    1    2    0    0  0.44839843222E+02 -0.46812155827E+02 -0.44313207163E+01  0.64974041560E+02  0.00000000000E+00 0. -1.
         11    1    1    2    0    0 -0.67336351771E+01  0.21297108575E+02 -0.42624488278E+02  0.48122299169E+02  0.00000000000E+00 0.  1.
</event>
<event>
 7    1  0.1538147E-010  0.1787763E+03  0.7561462E-02  0.1168993E+00
          2   -1    0    0  501    0  0.00000000000E+00  0.00000000000E+00  0.11433015884E+04  0.11433015884E+04  0.00000000000E+00 0. -1.
         -2   -1    0    0    0  501 -0.00000000000E+00 -0.00000000000E+00 -0.40764633083E+02  0.40764633083E+02  0.00000000000E+00 0.  1.
         25    2    1    2    0    0 -0.14983508039E+03 -0.80196221977E+02  0.79022522554E+03  0.81791160117E+03  0.12506596228E+03 0.  0.
          5    1    3    3  502    0 -0.11261899725E+03 -0.78923227442E+02  0.75162927514E+03  0.76411776188E+03  0.41800000000E+01 0.  1.
         -5    1    3    3    0  502 -0.37216083130E+02 -0.12729945349E+01  0.38595950401E+02  0.53793839294E+02  0.41800000000E+01 0.  1.
        -11    1    1    2    0    0 -0.83395334827E+00  0.20366121613E+02  0.82088509798E+02  0.84581308979E+02  0.00000000000E+00 0. -1.
         11    1    1    2    0    0  0.15066903373E+03  0.59830100364E+02  0.23022321998E+03  0.28157331133E+03  0.00000000000E+00 0.  1.
</event>
<event>
 7    1  0.1538147E-010  0.1114681E+03  0.7561462E-02  0.1257875E+00
         -1   -1    0    0    0  501 -0.00000000000E+00  0.00000000000E+00  0.53374078480E+03  0.53374078480E+03  0.00000000000E+00 0.  1.
          1   -1    0    0  501    0  0.00000000000E+00 -0.00000000000E+00 -0.40905434963E+02  0.40905434963E+02  0.00000000000E+00 0. -1.
         25    2    1    2    0    0  0.42812702024E+02 -0.85510752342E+02  0.32727171910E+03  0.36316847707E+03  0.12505818002E+03 0.  0.
          5    1    3    3  502    0 -0.24967619472E+02 -0.30806290489E+02  0.21696020502E+02  0.45393824045E+02  0.41800000000E+01 0.  1.
         -5    1    3    3    0  502  0.67780321497E+02 -0.54704461854E+02  0.30557569860E+03  0.31777465303E+03  0.41800000000E+01 0.  1.
        -11    1    1    2    0    0 -0.22769096398E+02  0.52756693498E+02  0.16318278195E+03  0.17300381726E+03  0.00000000000E+00 0.  1.
         11    1    1    2    0    0 -0.20043605626E+02  0.32754058845E+02  0.23808487752E+01  0.38473925433E+02  0.00000000000E+00 0. -1.
</event>
<event>
 7    1  0.1538147E-010  0.9253307E+02  0.7561462E-02  0.1296831E+00
          2   -1    0    0  501    0  0.00000000000E+00  0.00000000000E+00  0.40544824561E+03  0.40544824561E+03  0.00000000000E+00 0. -1.
         -2   -1    0    0    0  501 -0.00000000000E+00 -0.00000000000E+00 -0.32363415804E+02  0.32363415804E+02  0.00000000000E+00 0.  1.
         25    2    1    2    0    0 -0.28600562875E+02 -0.19148942266E+02  0.18641507173E+03  0.22710658787E+03  0.12506857759E+03 0.  0.
          5    1    3    3  502    0 -0.33021447472E+02 -0.70295515739E+02  0.10293703708E+03  0.12901698155E+03  0.41800000000E+01 0. -1.
         -5    1    3    3    0  502  0.44208845973E+01  0.51146573473E+02  0.83478034653E+02  0.98089606320E+02  0.41800000000E+01 0. -1.
        -11    1    1    2    0    0 -0.11089782732E+02  0.10259803074E+02 -0.40945552262E+01  0.15652866276E+02  0.00000000000E+00 0.  1.
         11    1    1    2    0    0  0.39690345607E+02  0.88891391926E+01  0.19076431330E+03  0.19505220727E+03  0.00000000000E+00 0. -1.
</event>
<event>
 6    1  0.1538147E-010  0.9358239E+02  0.7561462E-02  0.1294401E+00
         -3   -1    0    0    0  501 -0.00000000000E+00  0.00000000000E+00  0.29207457938E+02  0.29207457938E+02  0.00000000000E+00 0.  1.
          3   -1    0    0  501    0  0.00000000000E+00 -0.00000000000E+00 -0.46881544386E+03  0.46881544386E+03  0.00000000000E+00 0. -1.
          5    1    1    2  502    0  0.27632668652E+02 -0.47492612649E+02 -0.24527634600E+03  0.25139027614E+03  0.41800000000E+01 0. -1.
         -5    1    1    2    0  502 -0.39708540838E+02  0.42721459279E+02 -0.97318729146E+02  0.11353545147E+03  0.41800000000E+01 0. -1.
        -11    1    1    2    0    0 -0.24749396619E+02  0.21828582659E+02 -0.61304711957E+01  0.33564897303E+02  0.00000000000E+00 0.  1.
         11    1    1    2    0    0  0.36825268805E+02 -0.17057429289E+02 -0.90882439578E+02  0.99532276876E+02  0.00000000000E+00 0. -1.
</event>
<event>
 7    1  0.1538147E-010  0.8353541E+02  0.7561462E-02  0.1319308E+00
          1   -1    0    0  501    0  0.00000000000E+00  0.00000000000E+00  0.77112047376E+02  0.77112047376E+02  0.00000000000E+00 0. -1.
         -1   -1    0    0    0  501 -0.00000000000E+00 -0.00000000000E+00 -0.17320070317E+03  0.17320070317E+03  0.00000000000E+00 0.  1.
         25    2    1    2    0    0  0.11504684584E+02 -0.20923601425E+02 -0.85004112072E+02  0.15309152428E+03  0.12506462679E+03 0.  0.
          5    1    3    3  502    0  0.43296834445E+01  0.52772292313E+02 -0.37531478865E+02  0.65036492067E+02  0.41800000000E+01 0.  1.
         -5    1    3    3    0  502  0.71750011393E+01 -0.73695893738E+02 -0.47472633207E+02  0.88055032217E+02  0.41800000000E+01 0.  1.
        -11    1    1    2    0    0  0.31839693629E+01  0.24475920324E+02 -0.49843703744E+02  0.55620168460E+02  0.00000000000E+00 0.  1.
         11    1    1    2    0    0 -0.14688653947E+02 -0.35523188986E+01  0.38759160023E+02  0.41601057799E+02  0.00000000000E+00 0. -1.
</event>
<event>
 7    1  0.1538147E-010  0.1063437E+03  0.7561462E-02  0.1267495E+00
          1   -1    0    0  501    0  0.00000000000E+00  0.00000000000E+00  0.10082149228E+03  0.10082149228E+03  0.00000000000E+00 0. -1.
         -1   -1    0    0    0  501 -0.00000000000E+00 -0.00000000000E+00 -0.12757087937E+03  0.12757087937E+03  0.00000000000E+00 0.  1.
         25    2    1    2    0    0  0.14276025000E+01  0.17194567131E+02  0.80331475198E+01  0.12658697246E+03  0.12514806811E+03 0.  0.
          5    1    3    3  502    0 -0.42855458151E+02 -0.33588099932E+02  0.19746574145E+02  0.58070219053E+02  0.41800000000E+01 0.  1.
         -5    1    3    3    0  502  0.44283060651E+02  0.50782667063E+02 -0.11713426625E+02  0.68516753411E+02  0.41800000000E+01 0.  1.
        -11    1    1    2    0    0  0.11773120503E+02  0.34898055624E+02 -0.30635722831E+02  0.47906452238E+02  0.00000000000E+00 0.  1.
         11    1    1    2    0    0 -0.13200723003E+02 -0.52092622755E+02 -0.41468117784E+01  0.53898946940E+02  0.00000000000E+00 0. -1.
</event>
<event>
 7    1  0.1538147E-010  0.1124153E+03  0.7561462E-02  0.1256161E+00
         -1   -1    0    0    0  501 -0.00000000000E+00  0.00000000000E+00  0.35408156701E+02  0.35408156701E+02  0.00000000000E+00 0.  1.
          1   -1    0    0  501    0  0.00000000000E+00 -0.00000000000E+00 -0.36870846789E+03  0.36870846789E+03  0.00000000000E+00 0. -1.
         25    2    1    2    0    0 -0.17569830688E+02 -0.35158195738E+02 -0.17105323170E+03  0.21555352034E+03  0.12513718224E+03 0.  0.
          5    1    3    3  502    0  0.52358434423E+02 -0.24546292222E+02 -0.97427213768E+02  0.11337310307E+03  0.41800000000E+01 0. -1.
         -5    1    3    3    0  502 -0.69928265111E+02 -0.10611903516E+02 -0.73626017934E+02  0.10218041727E+03  0.41800000000E+01 0. -1.
        -11    1    1    2    0    0  0.49924244110E+02  0.24354824121E+01 -0.88362948060E+02  0.10152030494E+03  0.00000000000E+00 0. -1.
         11    1    1    2    0    0 -0.32354413422E+02  0.32722713326E+02 -0.73884131431E+02  0.87042799315E+02  0.00000000000E+00 0.  1.
</event>
<event>
 6    1  0.1538147E-010  0.1080534E+03  0.7561462E-02  0.1264218E+00
          2   -1    0    0  501    0  0.00000000000E+00  0.00000000000E+00  0.66697365378E+03  0.66697365378E+03  0.00000000000E+00 0. -1.
         -2   -1    0    0    0  501 -0.00000000000E+00 -0.00000000000E+00 -0.33267760517E+02  0.33267760517E+02  0.00000000000E+00 0.  1.
          5    1    1    2  502    0 -0.73122167062E+02 -0.48124655394E+02  0.49537061096E+03  0.50306296661E+03  0.41800000000E+01 0.  1.
         -5    1    1    2    0  502  0.15614343295E+02  0.29570374383E+02  0.54721662949E+02  0.64266224049E+02  0.41800000000E+01 0.  1.
        -11    1    1    2    0    0  0.68337076571E+02 -0.53302719911E+01  0.33369397428E+02  0.76235716817E+02  0.00000000000E+00 0.  1.
         11    1    1    2    0    0 -0.10829252804E+02  0.23884553002E+02  0.50244221928E+02  0.56676506822E+02  0.00000000000E+00 0. -1.
</event>
<event>
 7    1  0.1538147E-010  0.1139587E+03  0.7561462E-02  0.1253410E+00
          1   -1    0    0  501    0  0.00000000000E+00  0.00000000000E+00  0.36426652311E+03  0.36426652311E+03  0.00000000000E+00 0. -1.
         -1   -1    0    0    0  501 -0.00000000000E+00 -0.00000000000E+00 -0.44696757448E+02  0.44696757448E+02  0.00000000000E+00 0.  1.
         25    2    1    2    0    0  0.54081978415E+02  0.32533009474E+02  0.14111827907E+03  0.19883546110E+03  0.12505164856E+03 0.  0.
          5    1    3    3  502    0  0.25863027164E+02 -0.44210151171E+02  0.85842853911E+02  0.10004949579E+03  0.41800000000E+01 0.  1.
         -5    1    3    3    0  502  0.28218951251E+02  0.76743160645E+02  0.55275425164E+02  0.98785965311E+02  0.41800000000E+01 0.  1.
        -11    1    1    2    0    0 -0.49524935464E+02  0.11124718098E+02  0.39234293700E+02  0.64154566381E+02  0.00000000000E+00 0.  1.
         11    1    1    2    0    0 -0.45570429507E+01 -0.43657727571E+02  0.13921719289E+03  0.14597325308E+03  0.00000000000E+00 0. -1.
</event>
<event>
 7    1  0.1538147E-010  0.9913991E+02  0.7561462E-02  0.1282115E+00
         -2   -1    0    0    0  501 -0.00000000000E+00  0.00000000000E+00  0.48448278522E+02  0.48448278522E+02  0.00000000000E+00 0. -1.
          2   -1    0    0  501    0  0.00000000000E+00 -0.00000000000E+00 -0.26791392683E+03  0.26791392683E+03  0.00000000000E+00 0.  1.
         25    2    1    2    0    0 -0.13037244046E+02 -0.76570933972E+01 -0.16340799237E+03  0.20636473571E+03  0.12512246545E+03 0.  0.
          5    1    3    3  502    0  0.50360716325E+02  0.58256825777E+01 -0.32879689372E+02  0.60569684657E+02  0.41800000000E+01 0.  1.
         -5    1    3    3    0  502 -0.63397960370E+02 -0.13482775975E+02 -0.13052830300E+03  0.14579505105E+03  0.41800000000E+01 0.  1.
        -11    1    1    2    0    0  0.25698418503E+02 -0.31878751326E+02 -0.54873008621E+02  0.68466857492E+02  0.00000000000E+00 0.  1.
         11    1    1    2    0    0 -0.12661174458E+02  0.39535844724E+02 -0.11846473172E+01  0.41530612154E+02  0.00000000000E+00 0. -1.
</event>
<event>
 7    1  0.1538147E-010  0.1983142E+03  0.7561462E-02  0.1151169E+00
          1   -1    0    0  501    0  0.00000000000E+00  0.00000000000E+00  0.68176692555E+03  0.68176692555E+03  0.00000000000E+00 0. -1.
         -1   -1    0    0    0  501 -0.00000000000E+00 -0.00000000000E+00 -0.63270088429E+02  0.63270088429E+02  0.00000000000E+00 0.  1.
         25    2    1    2    0    0  0.10529365052E+03  0.13353313391E+03  0.41052713395E+03  0.46161860583E+03  0.12506541827E+03 0.  0.
          5    1    3    3  502    0  0.85799228977E+02  0.18142250684E+02  0.23256853759E+03  0.24858850743E+03  0.41800000000E+01 0.  1.
         -5    1    3    3    0  502  0.19494421547E+02  0.11539088323E+03  0.17795859637E+03  0.21303009840E+03  0.41800000000E+01 0.  1.
        -11    1    1    2    0    0 -0.86742443295E+02 -0.14568607957E+03  0.19162407095E+03  0.25586807112E+03  0.00000000000E+00 0. -1.
         11    1    1    2    0    0 -0.18551207229E+02  0.12152945661E+02  0.16345632220E+02  0.27550337031E+02  0.00000000000E+00 0.  1.
</event>
<event>
 7    1  0.2142567E-010  0.1354850E+03  0.7561462E-02  0.1219537E+00
         -2   -1    0    0    0  501 -0.00000000000E+00  0.00000000000E+00  0.72065308034E+02  0.72065308034E+02  0.00000000000E+00 0. -1.
          2   -1    0    0  501    0  0.00000000000E+00 -0.00000000000E+00 -0.44533950587E+03  0.44533950587E+03  0.00000000000E+00 0.  1.
         25    2    1    2    0    0  0.91609434524E+02 -0.65187179284E+02 -0.32300471759E+03  0.36416496235E+03  0.12506964211E+03 0.  0.
          5    1    3    3  502    0  0.91406356081E+02 -0.85560365062E+02 -0.17792299700E+03  0.21760000750E+03  0.41800000000E+01 0.  1.
         -5    1    3    3    0  502  0.20307844337E+00  0.20373185778E+02 -0.14508172059E+03  0.14656495485E+03  0.41800000000E+01 0.  1.
        -11    1    1    2    0    0 -0.50925708524E+02  0.67021262888E+02 -0.68592460551E+02  0.10858270172E+03  0.00000000000E+00 0.  1.
         11    1    1    2    0    0 -0.40683726000E+02 -0.18340836039E+01  0.18322980312E+02  0.44657149836E+02  0.00000000000E+00 0. -1.
</event>
<event>
 7    1  0.1538147E-010  0.9748362E+02  0.7561462E-02  0.1285678E+00
         -1   -1    0    0    0  501 -0.00000000000E+00  0.00000000000E+00  0.28314058489E+02  0.28314058489E+02  0.00000000000E+00 0.  1.
          1   -1    0    0  501    0  0.00000000000E+00 -0.00000000000E+00 -0.49150975809E+03  0.49150975809E+03  0.00000000000E+00 0. -1.
         25    2    1    2    0    0 -0.10358740343E+02  0.39503406260E+02 -0.22988225563E+03  0.26486379589E+03  0.12505661243E+03 0.  0.
          5    1    3    3  502    0 -0.42232883318E+02 -0.24458776684E+02 -0.44647796242E+02  0.66277796429E+02  0.41800000000E+01 0. -1.
         -5    1    3    3    0  502  0.31874142975E+02  0.63962182945E+02 -0.18523445939E+03  0.19858599946E+03  0.41800000000E+01 0. -1.
        -11    1    1    2    0    0  0.13542451650E+02  0.14765772956E+02 -0.55376535718E+01  0.20786814445E+02  0.00000000000E+00 0.  1.
         11    1    1    2    0    0 -0.31837113071E+01 -0.54269179216E+02 -0.22777579040E+03  0.23417320624E+03  0.00000000000E+00 0. -1.
</event>
<event>
 7    1  0.1538147E-010  0.2582450E+03  0.7561462E-02  0.1108202E+00
          1   -1    0    0  501    0  0.00000000000E+00  0.00000000000E+00  0.10368210812E+04  0.10368210812E+04  0.00000000000E+00 0. -1.
         -1   -1    0    0    0  501 -0.00000000000E+00 -0.00000000000E+00 -0.83986562399E+02  0.83986562399E+02  0.00000000000E+00 0.  1.
         25    2    1    2    0    0  0.14700175036E+03 -0.20469121483E+03  0.28105845553E+03  0.39766786090E+03  0.12505144594E+03 0.  0.
          5    1    3    3  502    0 -0.43292569947E+01 -0.29571554447E+02 -0.40170260583E+01  0.30443853188E+02  0.41800000000E+01 0.  1.
         -5    1    3    3    0  502  0.15133100736E+03 -0.17511966039E+03  0.28507548159E+03  0.36722400772E+03  0.41800000000E+01 0.  1.
        -11    1    1    2    0    0 -0.35790126639E+02  0.25555984023E+02  0.22306079198E+03  0.22735469734E+03  0.00000000000E+00 0.  1.
         11    1    1    2    0    0 -0.11121162372E+03  0.17913523081E+03  0.44871527129E+03  0.49578508535E+03  0.00000000000E+00 0. -1.
</event>
<event>
 6    1  0.1538147E-010  0.1313085E+03  0.7561462E-02  0.1225527E+00
          1   -1    0    0  501    0  0.00000000000E+00  0.00000000000E+00  0.37218538374E+03  0.37218538374E+03  0.00000000000E+00 0. -1.
         -1   -1    0    0    0  501 -0.00000000000E+00 -0.00000000000E+00 -0.59884114528E+02  0.59884114528E+02  0.00000000000E+00 0.  1.
          5    1    1    2  502    0 -0.72697064433E+02  0.18687782636E+02  0.15075353647E+03  0.16845829619E+03  0.41800000000E+01 0. -1.
         -5    1    1    2    0  502 -0.33650518900E+02 -0.54503160600E+02  0.11745806420E+02  0.65256327710E+02  0.41800000000E+01 0. -1.
        -11    1    1    2    0    0  0.50709928825E+02  0.43843880025E+02  0.49343574169E+02  0.83238038233E+02  0.00000000000E+00 0.  1.
         11    1    1    2    0    0  0.55637654508E+02 -0.80285020608E+01  0.10045835215E+03  0.11511683614E+03  0.00000000000E+00 0. -1.
</event>
<event>
 6    1  0.1538147E-010  0.1969737E+03  0.7561462E-02  0.1152318E+00
         -2   -1    0    0    0  501 -0.00000000000E+00  0.00000000000E+00  0.64112135161E+02  0.64112135161E+02  0.00000000000E+00 0.  1.
          2   -1    0    0  501    0  0.00000000000E+00 -0.00000000000E+00 -0.70055257504E+03  0.70055257504E+03  0.00000000000E+00 0. -1.
          5    1    1    2  502    0 -0.36583339984E+01  0.24334007722E+02 -0.12401938473E+03  0.12650615609E+03  0.41800000000E+01 0. -1.
         -5    1    1    2    0  502  0.14648273744E+03  0.85736628629E+02 -0.16840765415E+03  0.23913714106E+03  0.41800000000E+01 0. -1.
        -11    1    1    2    0    0 -0.12863999142E+03 -0.50873865390E+02 -0.26838341992E+03  0.30193717502E+03  0.00000000000E+00 0. -1.
         11    1    1    2    0    0 -0.14184412025E+02 -0.59196770961E+02 -0.75629981083E+02  0.97084238037E+02  0.00000000000E+00 0.  1.
</event>
<event>
 7    1  0.1538147E-010  0.1190254E+03  0.7561462E-02  0.1244714E+00
          2   -1    0    0  501    0  0.00000000000E+00  0.00000000000E+00  0.64283430646E+03  0.64283430646E+03  0.00000000000E+00 0.  1.
         -2   -1    0    0    0  501 -0.00000000000E+00 -0.00000000000E+00 -0.28172968107E+02  0.28172968107E+02  0.00000000000E+00 0. -1.
         25    2    1    2    0    0 -0.52328456700E+02 -0.60967214430E+02  0.29123401267E+03  0.32699468472E+03  0.12511197019E+03 0.  0.
          5    1    3    3  502    0  0.36573938024E+02 -0.66239394202E+01  0.38913493088E+02  0.53974640901E+02  0.41800000000E+01 0. -1.
         -5    1    3    3    0  502 -0.88902394724E+02 -0.54343275010E+02  0.25232051958E+03  0.27302004382E+03  0.41800000000E+01 0. -1.
        -11    1    1    2    0    0  0.63281274951E+02  0.55280947898E+02  0.32049655603E+03  0.33132845545E+03  0.00000000000E+00 0.  1.
         11    1    1    2    0    0 -0.10952818251E+02  0.56862665322E+01  0.29307696541E+01  0.12684134400E+02  0.00000000000E+00 0. -1.
</event>
<event>
 7    1  0.1538147E-010  0.1390781E+03  0.7561462E-02  0.1214575E+00
          1   -1    0    0  501    0  0.00000000000E+00  0.00000000000E+00  0.79651690071E+03  0.79651690071E+03  0.00000000000E+00 0. -1.
         -1   -1    0    0    0  501 -0.00000000000E+00 -0.00000000000E+00 -0.42400677243E+02  0.42400677243E+02  0.00000000000E+00 0.  1.
         25    2    1    2    0    0 -0.71450300704E+01  0.11252908106E+03  0.17839279446E+03  0.24534320082E+03  0.12512174684E+03 0.  0.
          5    1    3    3  502    0 -0.39085429090E+02  0.28963445514E+01  0.97999967646E+02  0.10562918932E+03  0.41800000000E+01 0. -1.
         -5    1    3    3    0  502  0.31940399019E+02  0.10963273651E+03  0.80392826816E+02  0.13971401149E+03  0.41800000000E+01 0. -1.
        -11    1    1    2    0    0  0.25366701805E+02 -0.27085522414E+02  0.60335041725E+02  0.70833694982E+02  0.00000000000E+00 0.  1.
         11    1    1    2    0    0 -0.18221671735E+02 -0.85443558646E+02  0.51538838728E+03  0.52274068215E+03  0.00000000000E+00 0. -1.
</event>
<event>
 6    1  0.1538147E-010  0.1074083E+03  0.7561462E-02  0.1265446E+00
          2   -1    0    0  501    0  0.00000000000E+00  0.00000000000E+00  0.13904639040E+04  0.13904639040E+04  0.00000000000E+00 0. -1.
         -2   -1    0    0    0  501 -0.00000000000E+00 -0.00000000000E+00 -0.14506810802E+02  0.14506810802E+02  0.00000000000E+00 0.  1.
          5    1    1    2  502    0 -0.86538648199E+01 -0.14159420017E+02  0.67203071948E+03  0.67224856926E+03  0.41800000000E+01 0. -1.
         -5    1    1    2    0  502  0.48558665961E+02 -0.60974026164E+02  0.24350657579E+03  0.25571214434E+03  0.41800000000E+01 0. -1.
        -11    1    1    2    0    0 -0.32592287181E+02 -0.10081817783E+02  0.20044840043E+03  0.20333091617E+03  0.00000000000E+00 0.  1.
         11    1    1    2    0    0 -0.73125139599E+01  0.85215263965E+02  0.25997139753E+03  0.27367908507E+03  0.00000000000E+00 0. -1.
</event>
<event>
 6    1  0.1538147E-010  0.1006696E+03  0.7561462E-02  0.1278894E+00
          2   -1    0    0  501    0  0.00000000000E+00  0.00000000000E+00  0.68906500428E+02  0.68906500428E+02  0.00000000000E+00 0. -1.
         -2   -1    0    0    0  501 -0.00000000000E+00 -0.00000000000E+00 -0.25088594026E+03  0.25088594026E+03  0.00000000000E+00 0.  1.
          5    1    1    2  502    0  0.76816282781E+02 -0.16514019689E+02  0.90829746374E+01  0.79204968119E+02  0.41800000000E+01 0. -1.
         -5    1    1    2    0  502 -0.12952115767E+02 -0.92927078906E+01 -0.76629520321E+02  0.78381550811E+02  0.41800000000E+01 0. -1.
        -11    1    1    2    0    0 -0.26538205610E+02  0.53485983213E+02 -0.94187482498E+02  0.11151819859E+03  0.00000000000E+00 0.  1.
         11    1    1    2    0    0 -0.37325961404E+02 -0.27679255633E+02 -0.20245411649E+02  0.50687723168E+02  0.00000000000E+00 0. -1.
</event>
<event>
 6    1  0.1538147E-010  0.1388661E+03  0.7561462E-02  0.1214863E+00
          3   -1    0    0  501    0  0.00000000000E+00  0.00000000000E+00  0.34682119838E+03  0.34682119838E+03  0.00000000000E+00 0. -1.
         -3   -1    0    0    0  501 -0.00000000000E+00 -0.00000000000E+00 -0.81455039379E+02  0.81455039379E+02  0.00000000000E+00 0.  1.
          5    1    1    2  502    0  0.51510553422E+02 -0.12260481033E+03  0.17061484387E+03  0.21636121182E+03  0.41800000000E+01 0.  1.
         -5    1    1    2    0  502 -0.42826508029E+01  0.27643100124E+02  0.63495259735E+02  0.69509729472E+02  0.41800000000E+01 0.  1.
        -11    1    1    2    0    0 -0.50015055273E+02  0.47898670441E+02 -0.20669060626E+02  0.72270315144E+02  0.00000000000E+00 0.  1.
         11    1    1    2    0    0  0.27871526535E+01  0.47063039764E+02  0.51925116013E+02  0.70134981320E+02  0.00000000000E+00 0. -1.
</event>
<event>
 7    1  0.1538147E-010  0.1186034E+03  0.7561462E-02  0.1245419E+00
          2   -1    0    0  501    0  0.00000000000E+00  0.00000000000E+00  0.41625410979E+03  0.41625410979E+03  0.00000000000E+00 0. -1.
         -2   -1    0    0    0  501 -0.00000000000E+00 -0.00000000000E+00 -0.43335889508E+02  0.43335889508E+02  0.00000000000E+00 0.  1.
         25    2    1    2    0    0 -0.77814786221E+02 -0.18284108922E+02  0.20814797864E+03  0.25564193280E+03  0.12505105839E+03 0.  0.
          5    1    3    3  502    0 -0.10672909118E+03 -0.33406266776E+02  0.18184251534E+03  0.21352107706E+03  0.41800000000E+01 0.  1.
         -5    1    3    3    0  502  0.28914304958E+02  0.15122157854E+02  0.26305463295E+02  0.42120855743E+02  0.41800000000E+01 0.  1.
        -11    1    1    2    0    0  0.15797945869E+02 -0.15195873953E+02 -0.28591904247E+01  0.22105760533E+02  0.00000000000E+00 0.  1.
         11    1    1    2    0    0  0.62016840352E+02  0.33479982875E+02  0.16762943207E+03  0.18184230596E+03  0.00000000000E+00 0. -1.
</event>
<event>
 7    1  0.1538147E-010  0.1563354E+03  0.7561462E-02  0.1192897E+00
          1   -1    0    0  501    0  0.00000000000E+00  0.00000000000E+00  0.26887003053E+02  0.26887003053E+02  0.00000000000E+00 0. -1.
         -1   -1    0    0    0  501 -0.00000000000E+00 -0.00000000000E+00 -0.14443862835E+04  0.14443862835E+04  0.00000000000E+00 0.  1.
         25    2    1    2    0    0  0.29162201114E+02 -0.14373869682E+03 -0.10173194831E+04  0.10354166702E+04  0.12505000305E+03 0.  0.
          5    1    3    3  502    0  0.36553657428E+02 -0.15060493889E+03 -0.10109626159E+04  0.10227809641E+04  0.41800000000E+01 0. -1.
         -5    1    3    3    0  502 -0.73914563146E+01  0.68662420690E+01 -0.63568672264E+01  0.12635706056E+02  0.41800000000E+01 0. -1.
        -11    1    1    2    0    0 -0.19635591547E+02  0.87422965440E+02 -0.34497951039E+03  0.35642557980E+03  0.00000000000E+00 0. -1.
         11    1    1    2    0    0 -0.95266095668E+01  0.56315731382E+02 -0.55200286947E+02  0.79431036566E+02  0.00000000000E+00 0.  1.
</event>
<event>
 7    1  0.1538147E-010  0.8634182E+02  0.7561462E-02  0.1311960E+00
         -1   -1    0    0    0  501 -0.00000000000E+00  0.00000000000E+00  0.20549541245E+02  0.20549541245E+02  0.00000000000E+00 0.  1.
          1   -1    0    0  501    0  0.00000000000E+00 -0.00000000000E+00 -0.88642398390E+03  0.88642398390E+03  0.00000000000E+00 0. -1.
         25    2    1    2    0    0 -0.51557024641E+02  0.39338558174E+02 -0.57881767490E+03  0.59572572579E+03  0.12511431032E+03 0.  0.
          5    1    3    3  502    0 -0.12557724789E+02  0.24025241346E+02 -0.16868642340E+02  0.32201431148E+02  0.41800000000E+01 0. -1.
         -5    1    3    3    0  502 -0.38999299851E+02  0.15313316828E+02 -0.56194903256E+03  0.56352429465E+03  0.41800000000E+01 0. -1.
        -11    1    1    2    0    0  0.71436729836E+02 -0.17366317730E+02 -0.11384092348E+03  0.13551587073E+03  0.00000000000E+00 0.  1.
         11    1    1    2    0    0 -0.19879705195E+02 -0.21972240444E+02 -0.17321584428E+03  0.17573192862E+03  0.00000000000E+00 0. -1.
</event>
<event>
 7    1  0.1538147E-010  0.1139030E+03  0.7561462E-02  0.1253508E+00
         -1   -1    0    0    0  501 -0.00000000000E+00  0.00000000000E+00  0.64103737987E+02  0.64103737987E+02  0.00000000000E+00 0.  1.
          1   -1    0    0  501    0  0.00000000000E+00 -0.00000000000E+00 -0.22695598275E+03  0.22695598275E+03  0.00000000000E+00 0. -1.
         25    2    1    2    0    0  0.44853655930E+02 -0.24860026214E+02 -0.75752779911E+02  0.15495372806E+03  0.12506919214E+03 0.  0.
          5    1    3    3  502    0  0.23741015952E+02  0.44495089740E+02 -0.82759759775E+00  0.50612312407E+02  0.41800000000E+01 0.  1.
         -5    1    3    3    0  502  0.21112639978E+02 -0.69355115954E+02 -0.74925182313E+02  0.10434141565E+03  0.41800000000E+01 0.  1.
        -11    1    1    2    0    0  0.27840308343E+02  0.26794577127E+00 -0.22613324986E+02  0.35868050274E+02  0.00000000000E+00 0.  1.
         11    1    1    2    0    0 -0.72693964273E+02  0.24592080443E+02 -0.64486139866E+02  0.10023794240E+03  0.00000000000E+00 0. -1.
</event>
<event>
 7    1  0.1538147E-010  0.9381020E+02  0.7561462E-02  0.1293879E+00
         -2   -1    0    0    0  501 -0.00000000000E+00  0.00000000000E+00  0.30888349494E+02  0.30888349494E+02  0.00000000000E+00 0.  1.
          2   -1    0    0  501    0  0.00000000000E+00 -0.00000000000E+00 -0.47567746015E+03  0.47567746015E+03  0.00000000000E+00 0. -1.
         25    2    1    2    0    0  0.34718430727E+02  0.59852870236E+01 -0.16586902631E+03  0.21073156118E+03  0.12511620157E+03 0.  0.
          5    1    3    3  502    0 -0.23816242706E+02 -0.18601953691E+02 -0.13789109471E+03  0.14122560851E+03  0.41800000000E+01 0. -1.
         -5    1    3    3    0  502  0.58534673433E+02  0.24587240715E+02 -0.27977931595E+02  0.69505952667E+02  0.41800000000E+01 0. -1.
        -11    1    1    2    0    0 -0.38990545170E+02  0.34930073515E+02 -0.20119698690E+03  0.20789564735E+03  0.00000000000E+00 0. -1.
         11    1    1    2    0    0  0.42721144436E+01 -0.40915360538E+02 -0.77723097443E+02  0.87938601114E+02  0.00000000000E+00 0.  1.
</event>
<event>
 7    1  0.1538147E-010  0.1775466E+03  0.7561462E-02  0.1170199E+00
          2   -1    0    0  501    0  0.00000000000E+00  0.00000000000E+00  0.84035458023E+02  0.84035458023E+02  0.00000000000E+00 0.  1.
         -2   -1    0    0    0  501 -0.00000000000E+00 -0.00000000000E+00 -0.42958286227E+03  0.42958286227E+03  0.00000000000E+00 0. -1.
         25    2    1    2    0    0 -0.13688657451E+03  0.45041430157E+02 -0.95835788339E+02  0.21352338443E+03  0.12506427412E+03 0.  0.
          5    1    3    3  502    0 -0.13252867161E+03 -0.11216009188E+02 -0.56243605173E+02  0.14446613161E+03  0.41800000000E+01 0.  1.
         -5    1    3    3    0  502 -0.43579029043E+01  0.56257439345E+02 -0.39592183166E+02  0.69057252822E+02  0.41800000000E+01 0.  1.
        -11    1    1    2    0    0  0.12353251651E+03 -0.66405831992E+02 -0.22247217930E+03  0.26299028066E+03  0.00000000000E+00 0. -1.
         11    1    1    2    0    0  0.13354058005E+02  0.21364401835E+02 -0.27239436604E+02  0.37104655199E+02  0.00000000000E+00 0.  1.
</event>
<event>
 6    1  0.1538147E-010  0.1294503E+03  0.7561462E-02  0.1228274E+00
         -2   -1    0    0    0  501 -0.00000000000E+00  0.00000000000E+00  0.19488377556E+03  0.19488377556E+03  0.00000000000E+00 0.  1.
          2   -1    0    0  501    0  0.00000000000E+00 -0.00000000000E+00 -0.12036989578E+03  0.12036989578E+03  0.00000000000E+00 0. -1.
          5    1    1    2  502    0  0.10729243154E+03 -0.61465850986E+00 -0.39894479319E+02  0.11454730704E+03  0.41800000000E+01 0.  1.
         -5    1    1    2    0  502 -0.10200363410E+02  0.10061073658E+02  0.41543933947E+02  0.44143441921E+02  0.41800000000E+01 0.  1.
        -11    1    1    2    0    0 -0.82188005442E+02  0.35291891139E+02  0.59928319961E+02  0.10766517242E+03  0.00000000000E+00 0.  1.
         11    1    1    2    0    0 -0.14904062684E+02 -0.44738306287E+02  0.12936105183E+02  0.48897749960E+02  0.00000000000E+00 0. -1.
</event>
<event>
 7    1  0.1538147E-010  0.1053475E+03  0.7561462E-02  0.1269437E+00
         -1   -1    0    0    0  501 -0.00000000000E+00  0.00000000000E+00  0.10810093198E+03  0.10810093198E+03  0.00000000000E+00 0.  1.
          1   -1    0    0  501    0  0.00000000000E+00 -0.00000000000E+00 -0.28962570197E+03  0.28962570197E+03  0.00000000000E+00 0. -1.
         25    2    1    2    0    0  0.90592221597E+02 -0.12871331825E+01  0.25603984855E+02  0.15654031084E+03  0.12506277444E+03 0.  0.
          5    1    3    3  502    0  0.37482928712E+02 -0.28660090624E+02  0.68204959423E+02  0.83040710675E+02  0.41800000000E+01 0. -1.
         -5    1    3    3    0  502  0.53109292886E+02  0.27372957442E+02 -0.42600974569E+02  0.73499600163E+02  0.41800000000E+01 0. -1.
        -11    1    1    2    0    0 -0.30887105995E+02 -0.23474344188E+02 -0.14995546420E+03  0.15489254144E+03  0.00000000000E+00 0. -1.
         11    1    1    2    0    0 -0.59705115602E+02  0.24761477371E+02 -0.57173290650E+02  0.86293781667E+02  0.00000000000E+00 0.  1.
</event>
<event>
 7    1  0.1538147E-010  0.9857249E+02  0.7561462E-02  0.1283327E+00
         -1   -1    0    0    0  501 -0.00000000000E+00  0.00000000000E+00  0.50760462686E+03  0.50760462686E+03  0.00000000000E+00 0.  1.
          1   -1    0    0  501    0  0.00000000000E+00 -0.00000000000E+00 -0.54277829429E+02  0.54277829429E+02  0.00000000000E+00 0. -1.
         25    2    1    2    0    0  0.57190682578E+02  0.26798217721E+01  0.43373476490E+03  0.45503547912E+03  0.12511388953E+03 0.  0.
          5    1    3    3  502    0  0.20504152724E+02  0.63227544941E+02  0.20266412467E+03  0.21332689129E+03  0.41800000000E+01 0.  1.
         -5    1    3    3    0  502  0.36686529854E+02 -0.60547723169E+02  0.23107064023E+03  0.24170858783E+03  0.41800000000E+01 0.  1.
        -11    1    1    2    0    0 -0.22253301244E+02 -0.92099843973E+01 -0.34529062448E+02  0.42098567462E+02  0.00000000000E+00 0. -1.
         11    1    1    2    0    0 -0.34937381334E+02  0.65301626253E+01  0.54121094973E+02  0.64748409706E+02  0.00000000000E+00 0.  1.
</event>
<event>
 7    1  0.1538147E-010  0.1230334E+03  0.7561462E-02  0.1238175E+00
         -2   -1    0    0    0  501 -0.00000000000E+00  0.00000000000E+00  0.27516601780E+02  0.27516601780E+02  0.00000000000E+00 0. -1.
          2   -1    0    0  501    0  0.00000000000E+00 -0.00000000000E+00 -0.82670387241E+03  0.82670387241E+03  0.00000000000E+00 0.  1.
         25    2    1    2    0    0  0.62352997323E+02 -0.63450083318E+02 -0.58745652508E+03  0.60718369700E+03  0.12511220444E+03 0.  0.
          5    1    3    3  502    0  0.11810837255E+02 -0.67137153586E+02 -0.12943405954E+03  0.14634733150E+03  0.41800000000E+01 0. -1.
         -5    1    3    3    0  502  0.50542160068E+02  0.36870702677E+01 -0.45802246553E+03  0.46083636550E+03  0.41800000000E+01 0. -1.
        -11    1    1    2    0    0 -0.29414496992E+02  0.83384956027E+02 -0.13890098269E+03  0.16465644998E+03  0.00000000000E+00 0. -1.
         11    1    1    2    0    0 -0.32938500331E+02 -0.19934872709E+02 -0.72829762862E+02  0.82380327218E+02  0.00000000000E+00 0.  1.
</event>
<event>
 7    1  0.1538147E-010  0.1035433E+03  0.7561462E-02  0.1273017E+00
          1   -1    0    0  501    0  0.00000000000E+00  0.00000000000E+00  0.24039250685E+03  0.24039250685E+03  0.00000000000E+00 0. -1.
         -1   -1    0    0    0  501 -0.00000000000E+00 -0.00000000000E+00 -0.68772044393E+02  0.68772044393E+02  0.00000000000E+00 0.  1.
         25    2    1    2    0    0 -0.52005816710E+02 -0.21721902049E+02  0.14994610094E+03  0.20326055432E+03  0.12511823910E+03 0.  0.
          5    1    3    3  502    0 -0.26704359785E+02 -0.56098483555E+02  0.18448972619E+02  0.64946129056E+02  0.41800000000E+01 0.  1.
         -5    1    3    3    0  502 -0.25301456925E+02  0.34376581506E+02  0.13149712833E+03  0.13831442527E+03  0.41800000000E+01 0.  1.
        -11    1    1    2    0    0  0.67870487459E+02 -0.78964231668E+01  0.23495531195E+02  0.72255079773E+02  0.00000000000E+00 0.  1.
         11    1    1    2    0    0 -0.15864670749E+02  0.29618325216E+02 -0.18211696780E+01  0.33648917153E+02  0.00000000000E+00 0. -1.
</event>
<event>
 6    1  0.1538147E-010  0.1392046E+03  0.7561462E-02  0.1214403E+00
          2   -1    0    0  501    0  0.00000000000E+00  0.00000000000E+00  0.10408566176E+03  0.10408566176E+03  0.00000000000E+00 0. -1.
         -2   -1    0    0    0  501 -0.00000000000E+00 -0.00000000000E+00 -0.24716875551E+03  0.24716875551E+03  0.00000000000E+00 0.  1.
          5    1    1    2  502    0  0.89172151695E+02  0.76476786895E+02 -0.14417657530E+02  0.11843020232E+03  0.41800000000E+01 0. -1.
         -5    1    1    2    0  502  0.19265812102E+02 -0.39806166921E+02 -0.39111975767E+02  0.59185483771E+02  0.41800000000E+01 0. -1.
        -11    1    1    2    0    0 -0.24957150630E+02 -0.18336081150E+02  0.18341156238E+02  0.35992627740E+02  0.00000000000E+00 0. -1.
         11    1    1    2    0    0 -0.83480813167E+02 -0.18334538825E+02 -0.10789461670E+03  0.13764610344E+03  0.00000000000E+00 0.  1.
</event>
<event>
 7    1  0.1538147E-010  0.1232574E+03  0.7561462E-02  0.1237818E+00
         -2   -1    0    0    0  501 -0.00000000000E+00  0.00000000000E+00  0.63233542258E+02  0.63233542258E+02  0.00000000000E+00 0.  1.
          2   -1    0    0  501    0  0.00000000000E+00 -0.00000000000E+00 -0.39326163719E+03  0.39326163719E+03  0.00000000000E+00 0. -1.
         25    2    1    2    0    0  0.30876436315E+02  0.76199158870E+02 -0.29285003828E+03  0.32889883078E+03  0.12511446694E+03 0.  0.
          5    1    3    3  502    0 -0.27606895508E+02  0.64435502081E+02 -0.73965981269E+02  0.10199271245E+03  0.41800000000E+01 0.  1.
         -5    1    3    3    0  502  0.58483331823E+02  0.11763656789E+02 -0.21888405701E+03  0.22690611833E+03  0.41800000000E+01 0.  1.
        -11    1    1    2    0    0  0.24872016006E+02 -0.47891978051E+02  0.16622506023E+01  0.53990942008E+02  0.00000000000E+00 0.  1.
         11    1    1    2    0    0 -0.55748452320E+02 -0.28307180819E+02 -0.38840307258E+02  0.73605406662E+02  0.00000000000E+00 0. -1.
</event>
<event>
 6    1  0.1538147E-010  0.8747027E+02  0.7561462E-02  0.1309096E+00
         -1   -1    0    0    0  501 -0.00000000000E+00  0.00000000000E+00  0.80120320357E+02  0.80120320357E+02  0.00000000000E+00 0.  1.
          1   -1    0    0  501    0  0.00000000000E+00 -0.00000000000E+00 -0.12700429531E+03  0.12700429531E+03  0.00000000000E+00 0. -1.
          5    1    1    2  502    0  0.48057946542E+02 -0.36932450762E+02 -0.32778184235E+02  0.69032267143E+02  0.41800000000E+01 0.  1.
         -5    1    1    2    0  502 -0.38065225654E+02  0.50538514192E+02 -0.93156727154E+01  0.64088664981E+02  0.41800000000E+01 0.  1.
        -11    1    1    2    0    0  0.19372743315E+02 -0.32676892211E+01 -0.28678469125E+02  0.34762559856E+02  0.00000000000E+00 0. -1.
         11    1    1    2    0    0 -0.29365464202E+02 -0.10338374209E+02  0.23888351121E+02  0.39241123689E+02  0.00000000000E+00 0.  1.
</event>
<event>
 7    1  0.1538147E-010  0.1941831E+03  0.7561462E-02  0.1154742E+00
          1   -1    0    0  501    0  0.00000000000E+00  0.00000000000E+00  0.85682790991E+02  0.85682790991E+02  0.00000000000E+00 0. -1.
         -1   -1    0    0    0  501 -0.00000000000E+00 -0.00000000000E+00 -0.48015483768E+03  0.48015483768E+03  0.00000000000E+00 0.  1.
         25    2    1    2    0    0 -0.16506183394E+03  0.41861354603E+02 -0.22958779629E+03  0.31203990302E+03  0.12514217050E+03 0.  0.
          5    1    3    3  502    0 -0.10153170090E+03 -0.35726569902E+02 -0.91510208628E+02  0.14133882966E+03  0.41800000000E+01 0.  1.
         -5    1    3    3    0  502 -0.63530133038E+02  0.77587924505E+02 -0.13807758767E+03  0.17070107337E+03  0.41800000000E+01 0.  1.
        -11    1    1    2    0    0  0.79385743292E+01 -0.20163916316E+02  0.40778388186E+01  0.22050697336E+02  0.00000000000E+00 0. -1.
         11    1    1    2    0    0  0.15712325961E+03 -0.21697438287E+02 -0.16896208921E+03  0.23174702831E+03  0.00000000000E+00 0.  1.
</event>
<event>
 7    1  0.1538147E-010  0.3671650E+02  0.7561462E-02  0.1533865E+00
         -1   -1    0    0    0  501 -0.00000000000E+00  0.00000000000E+00  0.34039446980E+02  0.34039446980E+02  0.00000000000E+00 0.  1.
          1   -1    0    0  501    0  0.00000000000E+00 -0.00000000000E+00 -0.35952245563E+03  0.35952245563E+03  0.00000000000E+00 0. -1.
         25    2    1    2    0    0 -0.18720375243E+02 -0.11621378124E+02 -0.18602620165E+03  0.22526426659E+03  0.12511088372E+03 0.  0.
          5    1    3    3  502    0 -0.24018781933E+01 -0.84320250893E+01  0.18034962953E+02  0.20484148864E+02  0.41800000000E+01 0. -1.
         -5    1    3    3    0  502 -0.16318497050E+02 -0.31893530350E+01 -0.20406116460E+03  0.20478011773E+03  0.41800000000E+01 0. -1.
        -11    1    1    2    0    0  0.43638121624E+01  0.25936782427E+02 -0.14493039917E+03  0.14729759042E+03  0.00000000000E+00 0. -1.
         11    1    1    2    0    0  0.14356563080E+02 -0.14315404303E+02  0.54735921708E+01  0.21000045597E+02  0.00000000000E+00 0.  1.
</event>
<event>
 7    1  0.1538147E-010  0.1597597E+03  0.7561462E-02  0.1188968E+00
         -2   -1    0    0    0  501 -0.00000000000E+00  0.00000000000E+00  0.72330355041E+03  0.72330355041E+03  0.00000000000E+00 0.  1.
          2   -1    0    0  501    0  0.00000000000E+00 -0.00000000000E+00 -0.41633623883E+02  0.41633623883E+02  0.00000000000E+00 0. -1.
         25    2    1    2    0    0  0.11468506587E+03  0.67199900084E+02  0.31213994041E+03  0.36158154456E+03  0.12506550307E+03 0.  0.
          5    1    3    3  502    0  0.68626141185E+02 -0.24432222307E+02  0.18024766333E+03  0.19445609601E+03  0.41800000000E+01 0.  1.
         -5    1    3    3    0  502  0.46058924680E+02  0.91632122392E+02  0.13189227708E+03  0.16712544854E+03  0.41800000000E+01 0.  1.
        -11    1    1    2    0    0 -0.49656349130E+02 -0.60900986816E+02  0.28986362968E+03  0.30032583474E+03  0.00000000000E+00 0.  1.
         11    1    1    2    0    0 -0.65028716735E+02 -0.62989132687E+01  0.79666356433E+02  0.10302979499E+03  0.00000000000E+00 0. -1.
</event>
<event>
 7    1  0.1538147E-010  0.1249457E+03  0.7561462E-02  0.1235154E+00
          1   -1    0    0  501    0  0.00000000000E+00  0.00000000000E+00  0.15844836592E+03  0.15844836592E+03  0.00000000000E+00 0. -1.
         -1   -1    0    0    0  501 -0.00000000000E+00 -0.00000000000E+00 -0.12565013344E+03  0.12565013344E+03  0.00000000000E+00 0.  1.
         25    2    1    2    0    0  0.16758556910E+02  0.92866037670E+02  0.76324664372E+01  0.15685852405E+03  0.12506555017E+03 0.  0.
          5    1    3    3  502    0 -0.39110229260E+02  0.91313230584E+02 -0.44526372643E+01  0.99523939286E+02  0.41800000000E+01 0. -1.
         -5    1    3    3    0  502  0.55868786170E+02  0.15528070859E+01  0.12085103701E+02  0.57334584759E+02  0.41800000000E+01 0. -1.
        -11    1    1    2    0    0 -0.87378376763E+01 -0.39467393671E+02 -0.29775501955E+02  0.50205632026E+02  0.00000000000E+00 0.  1.
         11    1    1    2    0    0 -0.80207192342E+01 -0.53398643999E+02  0.54941267989E+02  0.77034343291E+02  0.00000000000E+00 0. -1.
</event>
<event>
 6    1  0.1538147E-010  0.1354983E+03  0.7561462E-02  0.1219518E+00
          1   -1    0    0  501    0  0.00000000000E+00  0.00000000000E+00  0.38113374705E+03  0.38113374705E+03  0.00000000000E+00 0. -1.
         -1   -1    0    0    0  501 -0.00000000000E+00 -0.00000000000E+00 -0.69216068693E+02  0.69216068693E+02  0.00000000000E+00 0.  1.
          5    1    1    2  502    0  0.26850234534E+02 -0.46420397890E+02 -0.33710716226E+00  0.53790096449E+02  0.41800000000E+01 0. -1.
         -5    1    1    2    0  502  0.66891725086E+01 -0.66625222101E+02  0.19408066038E+03  0.20534955657E+03  0.41800000000E+01 0. -1.
        -11    1    1    2    0    0 -0.11715231763E+02 -0.15669508462E+02  0.12166979657E+02  0.23039434556E+02  0.00000000000E+00 0.  1.
         11    1    1    2    0    0 -0.21824175280E+02  0.12871512845E+03  0.10600714548E+03  0.16817072817E+03  0.00000000000E+00 0. -1.
</event>
<event>
 6    1  0.1538147E-010  0.8899332E+02  0.7561462E-02  0.1305308E+00
          2   -1    0    0  501    0  0.00000000000E+00  0.00000000000E+00  0.75619468674E+03  0.75619468674E+03  0.00000000000E+00 0. -1.
         -2   -1    0    0    0  501 -0.00000000000E+00 -0.00000000000E+00 -0.22789124284E+02  0.22789124284E+02  0.00000000000E+00 0.  1.
          5    1    1    2  502    0  0.34921385731E+02 -0.31753515116E+02  0.19252713074E+03  0.19827243221E+03  0.41800000000E+01 0. -1.
         -5    1    1    2    0  502 -0.78812279326E+02  0.31358962030E+02  0.38691416597E+03  0.39612473301E+03  0.41800000000E+01 0. -1.
        -11    1    1    2    0    0  0.16385159945E+02 -0.59809572358E+01 -0.86987084361E+01  0.19491353066E+02  0.00000000000E+00 0.  1.
         11    1    1    2    0    0  0.27505733650E+02  0.63755103214E+01  0.16266297419E+03  0.16509529275E+03  0.00000000000E+00 0. -1.
</event>
<event>
 7    1  0.1538147E-010  0.1372329E+03  0.7561462E-02  0.1217102E+00
          2   -1    0    0  501    0  0.00000000000E+00  0.00000000000E+00  0.30004714370E+03  0.30004714370E+03  0.00000000000E+00 0. -1.
         -2   -1    0    0    0  501 -0.00000000000E+00 -0.00000000000E+00 -0.11534297681E+03  0.11534297681E+03  0.00000000000E+00 0.  1.
         25    2    1    2    0    0  0.11961945226E+02  0.11615419120E+03  0.20314615999E+03  0.26562958246E+03  0.12512325320E+03 0.  0.
          5    1    3    3  502    0 -0.26751682621E+02  0.11096335344E+03  0.88659116945E+02  0.14459055898E+03  0.41800000000E+01 0. -1.
         -5    1    3    3    0  502  0.38713627847E+02  0.51908377558E+01  0.11448704305E+03  0.12103902347E+03  0.41800000000E+01 0. -1.
        -11    1    1    2    0    0  0.10810458945E+02 -0.43563290333E+02 -0.50181565890E+02  0.67326189870E+02  0.00000000000E+00 0.  1.
         11    1    1    2    0    0 -0.22772404171E+02 -0.72590900862E+02  0.31739572787E+02  0.82434348183E+02  0.00000000000E+00 0. -1.
</event>
<event>
 6    1  0.1538147E-010  0.9057857E+02  0.7561462E-02  0.1301457E+00
         -2   -1    0    0    0  501 -0.00000000000E+00  0.00000000000E+00  0.29313762184E+02  0.29313762184E+02  0.00000000000E+00 0.  1.
          2   -1    0    0  501    0  0.00000000000E+00 -0.00000000000E+00 -0.48194119385E+03  0.48194119385E+03  0.00000000000E+00 0. -1.
          5    1    1    2  502    0  0.32429133096E+02 -0.73329185066E+02 -0.24492516786E+03  0.25774915772E+03  0.41800000000E+01 0.  1.
         -5    1    1    2    0  502 -0.30383316536E+02  0.32332774192E+02 -0.63577150686E+02  0.77640715478E+02  0.41800000000E+01 0.  1.
        -11    1    1    2    0    0 -0.20281469687E+02  0.23338129769E+02 -0.14541455536E+01  0.30953527312E+02  0.00000000000E+00 0.  1.
         11    1    1    2    0    0  0.18235653127E+02  0.17658281105E+02 -0.14267096757E+03  0.14491155552E+03  0.00000000000E+00 0. -1.
</event>
<event>
 7    1  0.1538147E-010  0.1192603E+03  0.7561462E-02  0.1244322E+00
          4   -1    0    0  501    0  0.00000000000E+00  0.00000000000E+00  0.19868117519E+03  0.19868117519E+03  0.00000000000E+00 0. -1.
         -4   -1    0    0    0  501 -0.00000000000E+00 -0.00000000000E+00 -0.75279265579E+02  0.75279265579E+02  0.00000000000E+00 0.  1.
         25    2    1    2    0    0 -0.32450485504E+02 -0.45010942998E+02  0.70916990635E+02  0.15410898689E+03  0.12506534804E+03 0.  0.
          5    1    3    3  502    0 -0.75803207494E+02 -0.78457378436E+01  0.23765300515E+02  0.79937123900E+02  0.41800000000E+01 0.  1.
         -5    1    3    3    0  502  0.43352721990E+02 -0.37165205155E+02  0.47151690120E+02  0.74171862989E+02  0.41800000000E+01 0.  1.
        -11    1    1    2    0    0  0.50328815145E+02  0.62288232511E+02  0.27673758196E+02  0.84726916833E+02  0.00000000000E+00 0.  1.
         11    1    1    2    0    0 -0.17878329641E+02 -0.17277289513E+02  0.24811160785E+02  0.35124537053E+02  0.00000000000E+00 0. -1.
</event>
<event>
 7    1  0.1538147E-010  0.1429342E+03  0.7561462E-02  0.1209434E+00
         -2   -1    0    0    0  501 -0.00000000000E+00  0.00000000000E+00  0.19221693340E+03  0.19221693340E+03  0.00000000000E+00 0.  1.
          2   -1    0    0  501    0  0.00000000000E+00 -0.00000000000E+00 -0.45723348854E+03  0.45723348854E+03  0.00000000000E+00 0. -1.
         25    2    1    2    0    0  0.10208078185E+03  0.58855566173E+02 -0.40829051016E+03  0.44299207730E+03  0.12512544174E+03 0.  0.
          5    1    3    3  502    0  0.38571694945E+01 -0.32521396673E+02 -0.45868969433E+02  0.56515075466E+02  0.41800000000E+01 0. -1.
         -5    1    3    3    0  502  0.98223612360E+02  0.91376962846E+02 -0.36242154073E+03  0.38647700183E+03  0.41800000000E+01 0. -1.
        -11    1    1    2    0    0 -0.52609072059E+02 -0.38236518273E+02  0.13805641617E+03  0.15260838718E+03  0.00000000000E+00 0.  1.
         11    1    1    2    0    0 -0.49471709796E+02 -0.20619047900E+02  0.52175388567E+01  0.53849957457E+02  0.00000000000E+00 0. -1.
</event>
<event>
 7    1  0.1538147E-010  0.2153253E+03  0.7561462E-02  0.1137417E+00
          1   -1    0    0  501    0  0.00000000000E+00  0.00000000000E+00  0.74024823163E+02  0.74024823163E+02  0.00000000000E+00 0. -1.
         -1   -1    0    0    0  501 -0.00000000000E+00 -0.00000000000E+00 -0.72460088633E+03  0.72460088633E+03  0.00000000000E+00 0.  1.
         25    2    1    2    0    0 -0.22086198479E+02  0.19464453156E+03 -0.42905187595E+03  0.48795607420E+03  0.12506528002E+03 0.  0.
          5    1    3    3  502    0 -0.63272986841E+02  0.15963851647E+03 -0.27088409529E+03  0.32075472294E+03  0.41800000000E+01 0.  1.
         -5    1    3    3    0  502  0.41186788362E+02  0.35006015098E+02 -0.15816778065E+03  0.16720135127E+03  0.41800000000E+01 0.  1.
        -11    1    1    2    0    0 -0.20480918697E+02 -0.71184578625E+02 -0.13508830543E+03  0.15406350161E+03  0.00000000000E+00 0.  1.
         11    1    1    2    0    0  0.42567117176E+02 -0.12345995294E+03 -0.86435881792E+02  0.15660613368E+03  0.00000000000E+00 0. -1.
</event>
<event>
 6    1  0.1538147E-010  0.9689146E+02  0.7561462E-02  0.1286972E+00
          3   -1    0    0  501    0  0.00000000000E+00  0.00000000000E+00  0.61338563645E+02  0.61338563645E+02  0.00000000000E+00 0. -1.
         -3   -1    0    0    0  501 -0.00000000000E+00 -0.00000000000E+00 -0.31099104311E+03  0.31099104311E+03  0.00000000000E+00 0.  1.
          5    1    1    2  502    0 -0.47182811214E+02  0.10024387654E+02 -0.17775571541E+03  0.18423157380E+03  0.41800000000E+01 0. -1.
         -5    1    1    2    0  502 -0.91263641744E+01  0.48803175165E+02 -0.61987579214E+01  0.50208937741E+02  0.41800000000E+01 0. -1.
        -11    1    1    2    0    0  0.29309683419E+02 -0.61780921484E+02 -0.81562391486E+02  0.10643478523E+03  0.00000000000E+00 0.  1.
         11    1    1    2    0    0  0.26999491970E+02  0.29533586640E+01  0.15864385357E+02  0.31454309987E+02  0.00000000000E+00 0. -1.
</event>
<event>
 7    1  0.1538147E-010  0.9426410E+02  0.7561462E-02  0.1292842E+00
         -3   -1    0    0    0  501 -0.00000000000E+00  0.00000000000E+00  0.30992282392E+02  0.30992282392E+02  0.00000000000E+00 0.  1.
          3   -1    0    0  501    0  0.00000000000E+00 -0.00000000000E+00 -0.44782169047E+03  0.44782169047E+03  0.00000000000E+00 0. -1.
         25    2    1    2    0    0 -0.19254871228E+02 -0.41517260339E+00 -0.31929639932E+03  0.34348441652E+03  0.12514164511E+03 0.  0.
          5    1    3    3  502    0 -0.26544975264E+02 -0.59760545042E+02 -0.18973362938E+03  0.20072937247E+03  0.41800000000E+01 0.  1.
         -5    1    3    3    0  502  0.72901040353E+01  0.59345372439E+02 -0.12956276994E+03  0.14275504405E+03  0.41800000000E+01 0.  1.
        -11    1    1    2    0    0 -0.14649047998E+02  0.19321846524E+02 -0.93161109349E+02  0.96264846416E+02  0.00000000000E+00 0. -1.
         11    1    1    2    0    0  0.33903919226E+02 -0.18906673921E+02 -0.43718994171E+01  0.39064709933E+02  0.00000000000E+00 0.  1.
</event>
<event>
 7    1  0.1538147E-010  0.1281011E+03  0.7561462E-02  0.1230301E+00
         -3   -1    0    0    0  501 -0.00000000000E+00  0.00000000000E+00  0.18040561773E+03  0.18040561773E+03  0.00000000000E+00 0.  1.
          3   -1    0    0  501    0  0.00000000000E+00 -0.00000000000E+00 -0.13327398043E+03  0.13327398043E+03  0.00000000000E+00 0. -1.
         25    2    1    2    0    0 -0.97932723885E+02  0.97627007786E+01  0.35399299117E+02  0.16300966789E+03  0.12503164685E+03 0.  0.
          5    1    3    3  502    0 -0.78771185899E+02 -0.10499495501E+02  0.78320102255E+02  0.11165415331E+03  0.41800000000E+01 0. -1.
         -5    1    3    3    0  502 -0.19161537985E+02  0.20262196280E+02 -0.42920803138E+02  0.51355514583E+02  0.41800000000E+01 0. -1.
        -11    1    1    2    0    0  0.12173319889E+03  0.22735047942E+01  0.56553422967E+00  0.12175574058E+03  0.00000000000E+00 0. -1.
         11    1    1    2    0    0 -0.23800475004E+02 -0.12036205573E+02  0.11166803949E+02  0.28914189690E+02  0.00000000000E+00 0.  1.
</event>
<event>
 6    1  0.1538147E-010  0.1180967E+03  0.7561462E-02  0.1246270E+00
          1   -1    0    0  501    0  0.00000000000E+00  0.00000000000E+00  0.71014869931E+02  0.71014869931E+02  0.00000000000E+00 0. -1.
         -1   -1    0    0    0  501 -0.00000000000E+00 -0.00000000000E+00 -0.25375977406E+03  0.25375977406E+03  0.00000000000E+00 0.  1.
          5    1    1    2  502    0  0.13546132095E+02 -0.86395062867E+02 -0.96008253109E+02  0.12993329692E+03  0.41800000000E+01 0. -1.
         -5    1    1    2    0  502 -0.24755986878E+02  0.37648634613E+02 -0.76886650179E+02  0.89214953625E+02  0.41800000000E+01 0. -1.
        -11    1    1    2    0    0 -0.32193146290E+02  0.50572286901E+02 -0.15227850062E+02  0.61853393504E+02  0.00000000000E+00 0.  1.
         11    1    1    2    0    0  0.43403001073E+02 -0.18258586471E+01  0.53778492225E+01  0.43772999945E+02  0.00000000000E+00 0. -1.
</event>
<event>
 7    1  0.1538147E-010  0.1189994E+03  0.7561462E-02  0.1244757E+00
         -1   -1    0    0    0  501 -0.00000000000E+00  0.00000000000E+00  0.27549201401E+03  0.27549201401E+03  0.00000000000E+00 0.  1.
          1   -1    0    0  501    0  0.00000000000E+00 -0.00000000000E+00 -0.74100824083E+02  0.74100824083E+02  0.00000000000E+00 0. -1.
         25    2    1    2    0    0 -0.44022528598E+02  0.80886843310E+02  0.12038163952E+03  0.19650354266E+03  0.12506493793E+03 0.  0.
          5    1    3    3  502    0  0.28119090106E+02  0.34734610760E+02  0.98148116034E+02  0.10792451758E+03  0.41800000000E+01 0. -1.
         -5    1    3    3    0  502 -0.72141618704E+02  0.46152232550E+02  0.22233523489E+02  0.88579025087E+02  0.41800000000E+01 0. -1.
        -11    1    1    2    0    0  0.13454448143E+02  0.63905239115E+01  0.55063781773E+02  0.57042800017E+02  0.00000000000E+00 0.  1.
         11    1    1    2    0    0  0.30568080455E+02 -0.87277367222E+02  0.25945768634E+02  0.96046495417E+02  0.00000000000E+00 0. -1.
</event>
<event>
 7    1  0.1538147E-010  0.1153852E+03  0.7561462E-02  0.1250910E+00
         -3   -1    0    0    0  501 -0.00000000000E+00  0.00000000000E+00  0.59761557244E+02  0.59761557244E+02  0.00000000000E+00 0.  1.
          3   -1    0    0  501    0  0.00000000000E+00 -0.00000000000E+00 -0.36164975700E+03  0.36164975700E+03  0.00000000000E+00 0. -1.
         25    2    1    2    0    0  0.97473504256E+02 -0.48020305048E+01 -0.19113877246E+03  0.24842205613E+03  0.12512131756E+03 0.  0.
          5    1    3    3  502    0 -0.31274247677E+01  0.19813230002E+02  0.95045290818E+01  0.22586574372E+02  0.41800000000E+01 0.  1.
         -5    1    3    3    0  502  0.10060092902E+03 -0.24615260507E+02 -0.20064330154E+03  0.22583548176E+03  0.41800000000E+01 0.  1.
        -11    1    1    2    0    0 -0.56742857153E+02 -0.18525331510E+02 -0.82551803359E+01  0.60258507680E+02  0.00000000000E+00 0.  1.
         11    1    1    2    0    0 -0.40730647103E+02  0.23327362014E+02 -0.10249424696E+03  0.11273075043E+03  0.00000000000E+00 0. -1.
</event>
<event>
 7    1  0.1538147E-010  0.1304327E+03  0.7561462E-02  0.1226815E+00
         -1   -1    0    0    0  501 -0.00000000000E+00  0.00000000000E+00  0.21258871596E+03  0.21258871596E+03  0.00000000000E+00 0.  1.
          1   -1    0    0  501    0  0.00000000000E+00 -0.00000000000E+00 -0.11317721707E+03  0.11317721707E+03  0.00000000000E+00 0. -1.
         25    2    1    2    0    0 -0.78628560204E+02 -0.67877908860E+02  0.20972116444E+02  0.16391764873E+03  0.12505720653E+03 0.  0.
          5    1    3    3  502    0 -0.57983159055E+02 -0.10166283461E+03 -0.35388753519E+01  0.11716387973E+03  0.41800000000E+01 0.  1.
         -5    1    3    3    0  502 -0.20645401149E+02  0.33784925751E+02  0.24510991796E+02  0.46753768997E+02  0.41800000000E+01 0.  1.
        -11    1    1    2    0    0  0.43233028192E+02  0.39767519326E+02 -0.12715870151E+02  0.60101944009E+02  0.00000000000E+00 0. -1.
         11    1    1    2    0    0  0.35395532012E+02  0.28110389535E+02  0.91155252597E+02  0.10174634029E+03  0.00000000000E+00 0.  1.
</event>
<event>
 7    1  0.1538147E-010  0.8476933E+02  0.7561462E-02  0.1316037E+00
         -1   -1    0    0    0  501 -0.00000000000E+00  0.00000000000E+00  0.24168232702E+03  0.24168232702E+03  0.00000000000E+00 0.  1.
          1   -1    0    0  501    0  0.00000000000E+00 -0.00000000000E+00 -0.53970509764E+02  0.53970509764E+02  0.00000000000E+00 0. -1.
         25    2    1    2    0    0  0.22636723340E+02 -0.23303256980E+01  0.12870715018E+03  0.18093288069E+03  0.12511324928E+03 0.  0.
          5    1    3    3  502    0  0.47860986449E+02  0.24713694960E+02  0.13291770687E+03  0.14347832569E+03  0.41800000000E+01 0. -1.
         -5    1    3    3    0  502 -0.25224263108E+02 -0.27044020658E+02 -0.42105566903E+01  0.37454555002E+02  0.41800000000E+01 0. -1.
        -11    1    1    2    0    0 -0.28079093280E+02  0.35171649616E+02 -0.21880390073E+01  0.45058494547E+02  0.00000000000E+00 0. -1.
         11    1    1    2    0    0  0.54423699395E+01 -0.32841323918E+02  0.61192706086E+02  0.69661461551E+02  0.00000000000E+00 0.  1.
</event>
<event>
 7    1  0.1538147E-010  0.2368391E+03  0.7561462E-02  0.1121917E+00
          2   -1    0    0  501    0  0.00000000000E+00  0.00000000000E+00  0.12587376570E+04  0.12587376570E+04  0.00000000000E+00 0.  1.
         -2   -1    0    0    0  501 -0.00000000000E+00 -0.00000000000E+00 -0.48721069240E+02  0.48721069240E+02  0.00000000000E+00 0. -1.
         25    2    1    2    0    0  0.12057860483E+03 -0.18684505067E+03  0.60383504277E+03  0.65551954620E+03  0.12505536242E+03 0.  0.
          5    1    3    3  502    0  0.12928781554E+03 -0.14249885302E+03  0.36726510951E+03  0.41463525588E+03  0.41800000000E+01 0.  1.
         -5    1    3    3    0  502 -0.87092107081E+01 -0.44346197644E+02  0.23656993326E+03  0.24088429032E+03  0.41800000000E+01 0.  1.
        -11    1    1    2    0    0 -0.11364567990E+03  0.10829285278E+03  0.45680576747E+03  0.48302607768E+03  0.00000000000E+00 0.  1.
         11    1    1    2    0    0 -0.69329249306E+01  0.78552197889E+02  0.14937577755E+03  0.16891310239E+03  0.00000000000E+00 0. -1.
</event>
<event>
 6    1  0.1538147E-010  0.2507196E+03  0.7561462E-02  0.1112851E+00
          2   -1    0    0  501    0  0.00000000000E+00  0.00000000000E+00  0.11583678386E+04  0.11583678386E+04  0.00000000000E+00 0. -1.
         -2   -1    0    0    0  501 -0.00000000000E+00 -0.00000000000E+00 -0.57082113240E+02  0.57082113240E+02  0.00000000000E+00 0.  1.
          5    1    1    2  502    0 -0.24408565612E+02  0.16730141034E+03  0.29997861981E+03  0.34436925635E+03  0.41800000000E+01 0. -1.
         -5    1    1    2    0  502 -0.68930895907E+02  0.45869062147E+02  0.29862031502E+03  0.30991451114E+03  0.41800000000E+01 0. -1.
        -11    1    1    2    0    0  0.10969595586E+03 -0.20113856510E+03  0.46338031996E+03  0.51692479727E+03  0.00000000000E+00 0.  1.
         11    1    1    2    0    0 -0.16356494340E+02 -0.12031907384E+02  0.39306470602E+02  0.44241387111E+02  0.00000000000E+00 0. -1.
</event>
<event>
 7    1  0.1538147E-010  0.1093632E+03  0.7561462E-02  0.1261754E+00
         -1   -1    0    0    0  501 -0.00000000000E+00  0.00000000000E+00  0.18774483276E+02  0.18774483276E+02  0.00000000000E+00 0.  1.
          1   -1    0    0  501    0  0.00000000000E+00 -0.00000000000E+00 -0.76279731440E+03  0.76279731440E+03  0.00000000000E+00 0. -1.
         25    2    1    2    0    0 -0.46532422794E+02  0.13241410963E+02 -0.36412421853E+03  0.38804851720E+03  0.12511835935E+03 0.  0.
          5    1    3    3  502    0  0.37259598632E+02  0.28807223319E+02 -0.10294279842E+03  0.11328206368E+03  0.41800000000E+01 0.  1.
         -5    1    3    3    0  502 -0.83792021426E+02 -0.15565812356E+02 -0.26118142011E+03  0.27476645352E+03  0.41800000000E+01 0.  1.
        -11    1    1    2    0    0  0.40751520934E+02 -0.40973205395E+02 -0.33826853442E+03  0.34316918772E+03  0.00000000000E+00 0. -1.
         11    1    1    2    0    0  0.57809018602E+01  0.27731794432E+02 -0.41630078170E+02  0.50354092754E+02  0.00000000000E+00 0.  1.
</event>
<event>
 7    1  0.1538147E-010  0.1727980E+03  0.7561462E-02  0.1174961E+00
          2   -1    0    0  501    0  0.00000000000E+00  0.00000000000E+00  0.10780833436E+04  0.10780833436E+04  0.00000000000E+00 0. -1.
         -2   -1    0    0    0  501 -0.00000000000E+00 -0.00000000000E+00 -0.42183217474E+02  0.42183217474E+02  0.00000000000E+00 0.  1.
         25    2    1    2    0    0  0.74187869762E+02 -0.11821647856E+03  0.22741296038E+03  0.29468136032E+03  0.12506587765E+03 0.  0.
          5    1    3    3  502    0  0.52855140823E+01  0.22239191273E+02  0.65480779528E+02  0.69481819026E+02  0.41800000000E+01 0.  1.
         -5    1    3    3    0  502  0.68902355680E+02 -0.14045566983E+03  0.16193218085E+03  0.22519954130E+03  0.41800000000E+01 0.  1.
        -11    1    1    2    0    0 -0.49235489526E+02  0.45069575935E+01  0.19654825879E+03  0.20267132044E+03  0.00000000000E+00 0.  1.
         11    1    1    2    0    0 -0.24952380235E+02  0.11370952096E+03  0.61193890699E+03  0.62291388034E+03  0.00000000000E+00 0. -1.
</event>
<event>
 7    1  0.1538147E-010  0.8233219E+02  0.7561462E-02  0.1322560E+00
          1   -1    0    0  501    0  0.00000000000E+00  0.00000000000E+00  0.21982524224E+03  0.21982524224E+03  0.00000000000E+00 0. -1.
         -1   -1    0    0    0  501 -0.00000000000E+00 -0.00000000000E+00 -0.55163960312E+02  0.55163960312E+02  0.00000000000E+00 0.  1.
         25    2    1    2    0    0  0.64661520366E+01  0.77210786579E+01  0.12220773842E+03  0.17514733817E+03  0.12506171501E+03 0.  0.
          5    1    3    3  502    0 -0.14773091020E+02  0.61149889321E+02  0.39735095904E+02  0.74524515622E+02  0.41800000000E+01 0.  1.
         -5    1    3    3    0  502  0.21239243057E+02 -0.53428810663E+02  0.82472642515E+02  0.10062282255E+03  0.41800000000E+01 0.  1.
        -11    1    1    2    0    0 -0.20506083144E+02  0.87772248069E+01 -0.22311875120E+02  0.31549308908E+02  0.00000000000E+00 0.  1.
         11    1    1    2    0    0  0.14039931107E+02 -0.16498303465E+02  0.64765418627E+02  0.68292555470E+02  0.00000000000E+00 0. -1.
</event>
<event>
 7    1  0.1538147E-010  0.7482732E+02  0.7561462E-02  0.1344407E+00
          1   -1    0    0  501    0  0.00000000000E+00  0.00000000000E+00  0.92251152561E+02  0.92251152561E+02  0.00000000000E+00 0. -1.
         -1   -1    0    0    0  501 -0.00000000000E+00 -0.00000000000E+00 -0.14727464500E+03  0.14727464500E+03  0.00000000000E+00 0.  1.
         25    2    1    2    0    0  0.31849812549E+02 -0.11021779632E+02 -0.60161909472E+02  0.14279608376E+03  0.12504149711E+03 0.  0.
          5    1    3    3  502    0  0.23499897235E+02 -0.31654039516E+02  0.30074523902E+02  0.49761157298E+02  0.41800000000E+01 0.  1.
         -5    1    3    3    0  502  0.83499153146E+01  0.20632259884E+02 -0.90236433374E+02  0.93034926461E+02  0.41800000000E+01 0.  1.
        -11    1    1    2    0    0  0.13284791857E+02  0.34153421001E+02  0.22642713244E+02  0.43077074226E+02  0.00000000000E+00 0. -1.
         11    1    1    2    0    0 -0.45134604406E+02 -0.23131641369E+02 -0.17504296208E+02  0.53652639572E+02  0.00000000000E+00 0.  1.
</event>
<event>
 7    1  0.1538147E-010  0.1022701E+03  0.7561462E-02  0.1275593E+00
          1   -1    0    0  501    0  0.00000000000E+00  0.00000000000E+00  0.41722767510E+02  0.41722767510E+02  0.00000000000E+00 0.  1.
         -1   -1    0    0    0  501 -0.00000000000E+00 -0.00000000000E+00 -0.41278829487E+03  0.41278829487E+03  0.00000000000E+00 0. -1.
         25    2    1    2    0    0 -0.42761016401E+02  0.63423869643E+01 -0.31111757434E+03  0.33808463223E+03  0.12505336098E+03 0.  0.
          5    1    3    3  502    0 -0.70024174464E+02 -0.32160241292E+02 -0.13289059574E+03  0.15367188737E+03  0.41800000000E+01 0. -1.
         -5    1    3    3    0  502  0.27263158062E+02  0.38502628256E+02 -0.17822697859E+03  0.18441274487E+03  0.41800000000E+01 0. -1.
        -11    1    1    2    0    0  0.40992136389E+02  0.25395368933E+02 -0.68256314408E+02  0.83571552968E+02  0.00000000000E+00 0. -1.
         11    1    1    2    0    0  0.17688800122E+01 -0.31737755897E+02  0.83083613830E+01  0.32854877184E+02  0.00000000000E+00 0.  1.
</event>
<event>
 7    1  0.1538147E-010  0.1416730E+03  0.7561462E-02  0.1211095E+00
         -2   -1    0    0    0  501 -0.00000000000E+00  0.00000000000E+00  0.43006886921E+03  0.43006886921E+03  0.00000000000E+00 0.  1.
          2   -1    0    0  501    0  0.00000000000E+00 -0.00000000000E+00 -0.58720397193E+02  0.58720397193E+02  0.00000000000E+00 0. -1.
         25    2    1    2    0    0 -0.59820568829E+02  0.98148923330E+02  0.21658111787E+03  0.27528325631E+03  0.12514702945E+03 0.  0.
          5    1    3    3  502    0 -0.73581656540E+01 -0.18590080811E+02  0.10014804567E+03  0.10220977036E+03  0.41800000000E+01 0. -1.
         -5    1    3    3    0  502 -0.52462403175E+02  0.11673900414E+03  0.11643307220E+03  0.17307348594E+03  0.41800000000E+01 0. -1.
        -11    1    1    2    0    0  0.33024395606E+02 -0.10252760996E+03  0.15188335028E+03  0.18620170139E+03  0.00000000000E+00 0.  1.
         11    1    1    2    0    0  0.26796173223E+02  0.43786866263E+01  0.28840038758E+01  0.27304308713E+02  0.00000000000E+00 0. -1.
</event>
<event>
 7    1  0.1538147E-010  0.1454798E+03  0.7561462E-02  0.1206140E+00
          3   -1    0    0  501    0  0.00000000000E+00  0.00000000000E+00  0.27115684588E+02  0.27115684588E+02  0.00000000000E+00 0. -1.
         -3   -1    0    0    0  501 -0.00000000000E+00 -0.00000000000E+00 -0.83195025064E+03  0.83195025064E+03  0.00000000000E+00 0.  1.
         25    2    1    2    0    0  0.96331700748E+02  0.29172580738E+02 -0.36246493694E+03  0.39642269226E+03  0.12505712452E+03 0.  0.
          5    1    3    3  502    0  0.12083967722E+03  0.43598645943E+02 -0.26050052512E+03  0.29048419149E+03  0.41800000000E+01 0.  1.
         -5    1    3    3    0  502 -0.24507976467E+02 -0.14426065206E+02 -0.10196441182E+03  0.10593850077E+03  0.41800000000E+01 0.  1.
        -11    1    1    2    0    0 -0.96100565025E+02  0.80710974231E+01 -0.28304458467E+03  0.29902290569E+03  0.00000000000E+00 0.  1.
         11    1    1    2    0    0 -0.23113572317E+00 -0.37243678161E+02 -0.15932504443E+03  0.16362033728E+03  0.00000000000E+00 0. -1.
</event>
<event>
 7    1  0.1538147E-010  0.1125078E+03  0.7561462E-02  0.1255995E+00
          2   -1    0    0  501    0  0.00000000000E+00  0.00000000000E+00  0.44544189107E+03  0.44544189107E+03  0.00000000000E+00 0. -1.
         -2   -1    0    0    0  501 -0.00000000000E+00 -0.00000000000E+00 -0.38231674369E+02  0.38231674369E+02  0.00000000000E+00 0.  1.
         25    2    1    2    0    0 -0.51028335935E+02  0.40424202817E+02  0.28543608221E+03  0.31838471142E+03  0.12512817509E+03 0.  0.
          5    1    3    3  502    0 -0.18625238694E+02 -0.30419809816E+02  0.18732114860E+02  0.40504677171E+02  0.41800000000E+01 0.  1.
         -5    1    3    3    0  502 -0.32403097240E+02  0.70844012632E+02  0.26670396735E+03  0.27788003425E+03  0.41800000000E+01 0.  1.
        -11    1    1    2    0    0 -0.22758943802E+02 -0.28291992164E+02  0.31527754833E+02  0.48087479331E+02  0.00000000000E+00 0.  1.
         11    1    1    2    0    0  0.73787279737E+02 -0.12132210653E+02  0.90246379662E+02  0.11720137469E+03  0.00000000000E+00 0. -1.
</event>
<event>
 7    1  0.1538147E-010  0.1672220E+03  0.7561462E-02  0.1180776E+00
          2   -1    0    0  501    0  0.00000000000E+00  0.00000000000E+00  0.37351655303E+02  0.37351655303E+02  0.00000000000E+00 0. -1.
         -2   -1    0    0    0  501 -0.00000000000E+00 -0.00000000000E+00 -0.86697859195E+03  0.86697859195E+03  0.00000000000E+00 0.  1.
         25    2    1    2    0    0  0.12384388105E+03 -0.72075901762E+02 -0.44769169653E+03  0.48643046879E+03  0.12511795770E+03 0.  0.
          5    1    3    3  502    0  0.14587980132E+03 -0.41371669842E+02 -0.34291307840E+03  0.37496584276E+03  0.41800000000E+01 0. -1.
         -5    1    3    3    0  502 -0.22035920267E+02 -0.30704231920E+02 -0.10477861813E+03  0.11146462603E+03  0.41800000000E+01 0. -1.
        -11    1    1    2    0    0 -0.91556082736E+02  0.42483541506E+02 -0.34843488430E+03  0.36275919862E+03  0.00000000000E+00 0. -1.
         11    1    1    2    0    0 -0.32287798315E+02  0.29592360256E+02 -0.33500355822E+02  0.55140579846E+02  0.00000000000E+00 0.  1.
</event>
<event>
 7    1  0.1538147E-010  0.1337910E+03  0.7561462E-02  0.1221937E+00
         -4   -1    0    0    0  501 -0.00000000000E+00  0.00000000000E+00  0.29720009729E+02  0.29720009729E+02  0.00000000000E+00 0. -1.
          4   -1    0    0  501    0  0.00000000000E+00 -0.00000000000E+00 -0.72483645622E+03  0.72483645622E+03  0.00000000000E+00 0.  1.
         25    2    1    2    0    0  0.81890223572E+02  0.50692023967E+02 -0.33020760756E+03  0.36599467453E+03  0.12505737754E+03 0.  0.
          5    1    3    3  502    0  0.10794697068E+03  0.56233564790E+02 -0.30750848130E+03  0.33074718557E+03  0.41800000000E+01 0.  1.
         -5    1    3    3    0  502 -0.26056747112E+02 -0.55415408226E+01 -0.22699126260E+02  0.35247488956E+02  0.41800000000E+01 0.  1.
        -11    1    1    2    0    0 -0.88095675110E+02 -0.23833408721E+02 -0.33775591405E+03  0.34986845645E+03  0.00000000000E+00 0.  1.
         11    1    1    2    0    0  0.62054515381E+01 -0.26858615246E+02 -0.27152924873E+02  0.38693334967E+02  0.00000000000E+00 0. -1.
</event>
<event>
 7    1  0.1538147E-010  0.1685019E+03  0.7561462E-02  0.1179419E+00
          2   -1    0    0  501    0  0.00000000000E+00  0.00000000000E+00  0.62644193998E+02  0.62644193998E+02  0.00000000000E+00 0. -1.
         -2   -1    0    0    0  501 -0.00000000000E+00 -0.00000000000E+00 -0.56274220666E+03  0.56274220666E+03  0.00000000000E+00 0.  1.
         25    2    1    2    0    0 -0.11334570607E+03 -0.84351458212E+02 -0.16644162142E+03  0.25163103708E+03  0.12511174163E+03 0.  0.
          5    1    3    3  502    0 -0.11446246051E+03 -0.29995176713E+02 -0.61623002262E+02  0.13347745990E+03  0.41800000000E+01 0. -1.
         -5    1    3    3    0  502  0.11167544463E+01 -0.54356281499E+02 -0.10481861916E+03  0.11815357719E+03  0.41800000000E+01 0. -1.
        -11    1    1    2    0    0 -0.59192913106E+01 -0.10256250744E+02 -0.80488513542E+01  0.14318264457E+02  0.00000000000E+00 0. -1.
         11    1    1    2    0    0  0.11926499738E+03  0.94607708956E+02 -0.32560753988E+03  0.35943709911E+03  0.00000000000E+00 0.  1.
</event>
<event>
 7    1  0.1538147E-010  0.8665869E+02  0.7561462E-02  0.1311151E+00
         -2   -1    0    0    0  501 -0.00000000000E+00  0.00000000000E+00  0.23701812479E+03  0.23701812479E+03  0.00000000000E+00 0.  1.
          2   -1    0    0  501    0  0.00000000000E+00 -0.00000000000E+00 -0.74643981994E+02  0.74643981994E+02  0.00000000000E+00 0. -1.
         25    2    1    2    0    0 -0.69865209890E+01  0.11992083294E+02  0.12146479535E+01  0.12591761701E+03  0.12514451393E+03 0.  0.
          5    1    3    3  502    0 -0.94826427638E+01  0.45879533068E+02 -0.47191374979E+02  0.66628449935E+02  0.41800000000E+01 0.  1.
         -5    1    3    3    0  502  0.24961217748E+01 -0.33887449774E+02  0.48406022932E+02  0.59289167074E+02  0.41800000000E+01 0.  1.
        -11    1    1    2    0    0  0.14281998248E+02  0.38482643858E+02  0.64439916113E+02  0.76402828095E+02  0.00000000000E+00 0.  1.
         11    1    1    2    0    0 -0.72954772593E+01 -0.50474727152E+02  0.96719578734E+02  0.10934166168E+03  0.00000000000E+00 0. -1.
</event>
<event>
 7    1  0.1538147E-010  0.1236473E+03  0.7561462E-02  0.1237199E+00
          1   -1    0    0  501    0  0.00000000000E+00  0.00000000000E+00  0.21753335832E+03  0.21753335832E+03  0.00000000000E+00 0. -1.
         -1   -1    0    0    0  501 -0.00000000000E+00 -0.00000000000E+00 -0.77181479927E+02  0.77181479927E+02  0.00000000000E+00 0.  1.
         25    2    1    2    0    0  0.24513662995E+02 -0.63599416982E+02  0.75063866408E+02  0.16106865578E+03  0.12515079832E+03 0.  0.
          5    1    3    3  502    0  0.13904008719E+02 -0.96706130020E+02  0.79160330017E+02  0.12581425710E+03  0.41800000000E+01 0. -1.
         -5    1    3    3    0  502  0.10609654276E+02  0.33106713038E+02 -0.40964636088E+01  0.35254398678E+02  0.41800000000E+01 0. -1.
        -11    1    1    2    0    0  0.21701992599E+02  0.64718061581E+02  0.26229370081E+02  0.73125808252E+02  0.00000000000E+00 0.  1.
         11    1    1    2    0    0 -0.46215655594E+02 -0.11186445994E+01  0.39058641905E+02  0.60520374215E+02  0.00000000000E+00 0. -1.
</event>
<event>
 7    1  0.1538147E-010  0.1177291E+03  0.7561462E-02  0.1246891E+00
          2   -1    0    0  501    0  0.00000000000E+00  0.00000000000E+00  0.45642339799E+03  0.45642339799E+03  0.00000000000E+00 0. -1.
         -2   -1    0    0    0  501 -0.00000000000E+00 -0.00000000000E+00 -0.39660701120E+02  0.39660701120E+02  0.00000000000E+00 0.  1.
         25    2    1    2    0    0  0.17653264127E+02  0.59876095632E+02  0.14244788798E+03  0.19957532765E+03  0.12506848546E+03 0.  0.
          5    1    3    3  502    0  0.40087654886E+02  0.81849685756E+02  0.14089822384E+03  0.16785759742E+03  0.41800000000E+01 0.  1.
         -5    1    3    3    0  502 -0.22434390759E+02 -0.21973590124E+02  0.15496641394E+01  0.31717730225E+02  0.41800000000E+01 0.  1.
        -11    1    1    2    0    0 -0.10489897578E+02  0.25132187431E+02  0.64477517641E+02  0.69992964485E+02  0.00000000000E+00 0.  1.
         11    1    1    2    0    0 -0.71633665481E+01 -0.85008283063E+02  0.20983729126E+03  0.22651580698E+03  0.00000000000E+00 0. -1.
</event>
<event>
 7    1  0.1538147E-010  0.8566738E+02  0.7561462E-02  0.1313696E+00
         -2   -1    0    0    0  501 -0.00000000000E+00  0.00000000000E+00  0.87772160055E+02  0.87772160055E+02  0.00000000000E+00 0.  1.
          2   -1    0    0  501    0  0.00000000000E+00 -0.00000000000E+00 -0.20347566039E+03  0.20347566039E+03  0.00000000000E+00 0. -1.
         25    2    1    2    0    0 -0.12364140141E+02 -0.36371585699E+02  0.96173651484E+01  0.13124553152E+03  0.12512846049E+03 0.  0.
          5    1    3    3  502    0 -0.32471883460E+02  0.27425767870E+01  0.57419923599E+02  0.66154855974E+02  0.41800000000E+01 0. -1.
         -5    1    3    3    0  502  0.20107743318E+02 -0.39114162486E+02 -0.47802558451E+02  0.65090675544E+02  0.41800000000E+01 0. -1.
        -11    1    1    2    0    0  0.45642423479E+02  0.88228751469E+00 -0.86321327589E+02  0.97649274698E+02  0.00000000000E+00 0.  1.
         11    1    1    2    0    0 -0.33278283338E+02  0.35489298185E+02 -0.38999537897E+02  0.62353014232E+02  0.00000000000E+00 0. -1.
</event>
<event>
 6    1  0.1538147E-010  0.8926763E+02  0.7561462E-02  0.1304635E+00
         -4   -1    0    0    0  501 -0.00000000000E+00  0.00000000000E+00  0.23849746024E+02  0.23849746024E+02  0.00000000000E+00 0.  1.
          4   -1    0    0  501    0  0.00000000000E+00 -0.00000000000E+00 -0.71976374531E+03  0.71976374531E+03  0.00000000000E+00 0. -1.
          5    1    1    2  502    0  0.69115695658E+02  0.29066317404E+02 -0.12658314299E+03  0.14718218195E+03  0.41800000000E+01 0.  1.
         -5    1    1    2    0  502 -0.57770633928E+01 -0.12373056728E+01 -0.36091670906E+03  0.36098926392E+03  0.41800000000E+01 0.  1.
        -11    1    1    2    0    0  0.91121314345E+01  0.10773038099E+02 -0.32726818811E+01  0.14484465329E+02  0.00000000000E+00 0. -1.
         11    1    1    2    0    0 -0.72450763700E+02 -0.38602049830E+02 -0.20514146536E+03  0.22095758014E+03  0.00000000000E+00 0.  1.
</event>
<event>
 7    1  0.1538147E-010  0.1145739E+03  0.7561462E-02  0.1252327E+00
         -3   -1    0    0    0  501 -0.00000000000E+00  0.00000000000E+00  0.66021180547E+02  0.66021180547E+02  0.00000000000E+00 0.  1.
          3   -1    0    0  501    0  0.00000000000E+00 -0.00000000000E+00 -0.38499875107E+03  0.38499875107E+03  0.00000000000E+00 0. -1.
         25    2    1    2    0    0 -0.94622945355E+02 -0.42044889020E+02 -0.24634216758E+03  0.29506183421E+03  0.12512293154E+03 0.  0.
          5    1    3    3  502    0 -0.43302084959E+02  0.17016217456E+02 -0.12377132043E+02  0.48324817805E+02  0.41800000000E+01 0.  1.
         -5    1    3    3    0  502 -0.51320860396E+02 -0.59061106476E+02 -0.23396503554E+03  0.24673701640E+03  0.41800000000E+01 0.  1.
        -11    1    1    2    0    0  0.11795182930E+02  0.92752839601E+01 -0.64828078189E+02  0.66541993918E+02  0.00000000000E+00 0. -1.
         11    1    1    2    0    0  0.82827762425E+02  0.32769605060E+02 -0.78073247591E+01  0.89416103494E+02  0.00000000000E+00 0.  1.
</event>
<event>
 7    1  0.1538147E-010  0.1219427E+03  0.7561462E-02  0.1239926E+00
         -2   -1    0    0    0  501 -0.00000000000E+00  0.00000000000E+00  0.31851947565E+02  0.31851947565E+02  0.00000000000E+00 0.  1.
          2   -1    0    0  501    0  0.00000000000E+00 -0.00000000000E+00 -0.64535731225E+03  0.64535731225E+03  0.00000000000E+00 0. -1.
         25    2    1    2    0    0 -0.88500508427E+02  0.17801147329E+02 -0.28062934927E+03  0.32022255669E+03  0.12506171797E+03 0.  0.
          5    1    3    3  502    0 -0.46608938914E+02 -0.46119196591E+02 -0.69465243415E+02  0.95615197137E+02  0.41800000000E+01 0. -1.
         -5    1    3    3    0  502 -0.41891569513E+02  0.63920343920E+02 -0.21116410585E+03  0.22460735955E+03  0.41800000000E+01 0. -1.
        -11    1    1    2    0    0  0.68731625694E+02 -0.33442205700E+02 -0.31936791824E+03  0.32838740033E+03  0.00000000000E+00 0. -1.
         11    1    1    2    0    0  0.19768882733E+02  0.15641058371E+02 -0.13508097178E+02  0.28599302803E+02  0.00000000000E+00 0.  1.
</event>
<event>
 6    1  0.1538147E-010  0.2141644E+03  0.7561462E-02  0.1138310E+00
          2   -1    0    0  501    0  0.00000000000E+00  0.00000000000E+00  0.49654777056E+03  0.49654777056E+03  0.00000000000E+00 0. -1.
         -2   -1    0    0    0  501 -0.00000000000E+00 -0.00000000000E+00 -0.12320542947E+03  0.12320542947E+03  0.00000000000E+00 0.  1.
          5    1    1    2  502    0 -0.24617970985E+02 -0.73551178226E+02 -0.26200790939E+02  0.81974228631E+02  0.41800000000E+01 0.  1.
         -5    1    1    2    0  502 -0.84061168371E+02 -0.10047888416E+03  0.11465902871E+03  0.17414491510E+03  0.41800000000E+01 0.  1.
        -11    1    1    2    0    0  0.31862317295E+02  0.12372095998E+03  0.20688383391E+03  0.24315222379E+03  0.00000000000E+00 0. -1.
         11    1    1    2    0    0  0.76816822061E+02  0.50309102403E+02  0.78000269413E+02  0.12048183251E+03  0.00000000000E+00 0.  1.
</event>
<event>
 7    1  0.1538147E-010  0.1261687E+03  0.7561462E-02  0.1233254E+00
         -2   -1    0    0    0  501 -0.00000000000E+00  0.00000000000E+00  0.57826988817E+03  0.57826988817E+03  0.00000000000E+00 0. -1.
          2   -1    0    0  501    0  0.00000000000E+00 -0.00000000000E+00 -0.40740654638E+02  0.40740654638E+02  0.00000000000E+00 0.  1.
         25    2    1    2    0    0  0.72992192710E+02 -0.55279229867E+02  0.15887680078E+03  0.22195923300E+03  0.12506162415E+03 0.  0.
          5    1    3    3  502    0  0.59424524687E+02  0.18247273109E+02  0.12521061784E+03  0.13985495461E+03  0.41800000000E+01 0.  1.
         -5    1    3    3    0  502  0.13567668023E+02 -0.73526502975E+02  0.33666182938E+02  0.82104278384E+02  0.41800000000E+01 0.  1.
        -11    1    1    2    0    0 -0.52771175229E+02 -0.36008890281E+01  0.12230663192E+03  0.13325417647E+03  0.00000000000E+00 0.  1.
         11    1    1    2    0    0 -0.20221017481E+02  0.58880118895E+02  0.25634580084E+03  0.26379713334E+03  0.00000000000E+00 0. -1.
</event>
<event>
 7    1  0.1538147E-010  0.3321112E+03  0.7561462E-02  0.1070207E+00
          1   -1    0    0  501    0  0.00000000000E+00  0.00000000000E+00  0.93307858817E+03  0.93307858817E+03  0.00000000000E+00 0. -1.
         -1   -1    0    0    0  501 -0.00000000000E+00 -0.00000000000E+00 -0.13382621008E+03  0.13382621008E+03  0.00000000000E+00 0.  1.
         25    2    1    2    0    0 -0.34913244314E+02  0.32629140011E+03  0.50974512437E+03  0.61900412321E+03  0.12506398492E+03 0.  0.
          5    1    3    3  502    0 -0.35245068297E+01  0.23837436333E+03  0.26216771087E+03  0.35437852681E+03  0.41800000000E+01 0.  1.
         -5    1    3    3    0  502 -0.31388737484E+02  0.87917036781E+02  0.24757741350E+03  0.26462559640E+03  0.41800000000E+01 0.  1.
        -11    1    1    2    0    0  0.45163189470E+02 -0.30864740948E+03  0.23757384295E+03  0.39210236918E+03  0.00000000000E+00 0. -1.
         11    1    1    2    0    0 -0.10249945156E+02 -0.17643990631E+02  0.51933410770E+02  0.55798305846E+02  0.00000000000E+00 0.  1.
</event>
<event>
 7    1  0.1538147E-010  0.1280965E+03  0.7561462E-02  0.1230308E+00
          1   -1    0    0  501    0  0.00000000000E+00  0.00000000000E+00  0.13792740386E+03  0.13792740386E+03  0.00000000000E+00 0. -1.
         -1   -1    0    0    0  501 -0.00000000000E+00 -0.00000000000E+00 -0.14724161292E+03  0.14724161292E+03  0.00000000000E+00 0.  1.
         25    2    1    2    0    0 -0.76942566705E+02 -0.29492641649E+02 -0.16601362872E+02  0.15068743132E+03  0.12506447228E+03 0.  0.
          5    1    3    3  502    0 -0.62405715666E+01  0.37929750491E+02  0.23221995337E+02  0.45103704651E+02  0.41800000000E+01 0.  1.
         -5    1    3    3    0  502 -0.70701995139E+02 -0.67422392140E+02 -0.39823358209E+02  0.10558372667E+03  0.41800000000E+01 0.  1.
        -11    1    1    2    0    0 -0.16614640273E+02  0.19551190436E+02  0.28175105520E+02  0.38106848333E+02  0.00000000000E+00 0. -1.
         11    1    1    2    0    0  0.93557206978E+02  0.99414512126E+01 -0.20887951706E+02  0.96374737127E+02  0.00000000000E+00 0.  1.
</event>
<event>
 7    1  0.2685063E-010  0.5916078E+02  0.7561462E-02  0.1401388E+00
          1   -1    0    0  501    0  0.00000000000E+00  0.00000000000E+00  0.79814829358E+02  0.79814829358E+02  0.00000000000E+00 0. -1.
         -1   -1    0    0    0  501 -0.00000000000E+00 -0.00000000000E+00 -0.32175274216E+03  0.32175274216E+03  0.00000000000E+00 0.  1.
         25    2    1    2    0    0  0.28841017115E+02  0.18075356226E+02 -0.27078557081E+03  0.30020934631E+03  0.12506919478E+03 0.  0.
          5    1    3    3  502    0  0.31965781821E+02 -0.23574419398E+02 -0.17730856195E+02  0.43696912005E+02  0.41800000000E+01 0. -1.
         -5    1    3    3    0  502 -0.31247647062E+01  0.41649775624E+02 -0.25305471462E+03  0.25651243431E+03  0.41800000000E+01 0. -1.
        -11    1    1    2    0    0 -0.21001876875E+02 -0.57046998325E+01 -0.32041001475E+02  0.38733037681E+02  0.00000000000E+00 0.  1.
         11    1    1    2    0    0 -0.78391402396E+01 -0.12370656394E+02  0.60888659483E+02  0.62625187528E+02  0.00000000000E+00 0. -1.
</event>
<event>
 6    1  0.1538147E-010  0.7715221E+02  0.7561462E-02  0.1337333E+00
          1   -1    0    0  501    0  0.00000000000E+00  0.00000000000E+00  0.35041993735E+03  0.35041993735E+03  0.00000000000E+00 0. -1.
         -1   -1    0    0    0  501 -0.00000000000E+00 -0.00000000000E+00 -0.73642962739E+02  0.73642962739E+02  0.00000000000E+00 0.  1.
          5    1    1    2  502    0 -0.65806848756E+02 -0.70095929938E+01  0.16490430652E+03  0.17773738618E+03  0.41800000000E+01 0.  1.
         -5    1    1    2    0  502  0.58772536488E+02  0.41668113249E+01  0.13831801246E+03  0.15040252103E+03  0.41800000000E+01 0.  1.
        -11    1    1    2    0    0  0.99977524048E+01  0.14099835294E+02 -0.58931618355E+02  0.61414135591E+02  0.00000000000E+00 0.  1.
         11    1    1    2    0    0 -0.29634401365E+01 -0.11257053625E+02  0.32486273992E+02  0.34508857292E+02  0.00000000000E+00 0. -1.
</event>
