<event>
 7    1  0.2733606E-009  0.7347262E+02  0.7561462E-02  0.1348667E+00
         -1   -1    0    0    0  501 -0.00000000000E+00  0.00000000000E+00  0.10605043157E+03  0.10605043157E+03  0.00000000000E+00 0.  1.
          1   -1    0    0  501    0  0.00000000000E+00 -0.00000000000E+00 -0.11226330217E+03  0.11226330217E+03  0.00000000000E+00 0. -1.
         25    2    1    2    0    0  0.31286773041E+02 -0.26759698866E+01  0.15025210070E+02  0.12984254760E+03  0.12508919717E+03 0.  0.
          5    1    3    3  502    0 -0.19407646992E+02 -0.49995601628E+01 -0.46008191414E+02  0.50357506301E+02  0.41800000000E+01 0. -1.
         -5    1    3    3    0  502  0.50694420033E+02  0.23235902762E+01  0.61033401485E+02  0.79485041303E+02  0.41800000000E+01 0. -1.
        -11    1    1    2    0    0  0.19340251529E+02  0.13749088756E+02  0.12314031888E+02  0.26734213139E+02  0.00000000000E+00 0. -1.
         11    1    1    2    0    0 -0.50627024570E+02 -0.11073118869E+02 -0.33552112551E+02  0.61736972998E+02  0.00000000000E+00 0.  1.
</event>
<event>
 7    1  0.2733606E-009  0.2289610E+03  0.7561462E-02  0.1127373E+00
          1   -1    0    0  501    0  0.00000000000E+00  0.00000000000E+00  0.39534691443E+04  0.39534691443E+04  0.00000000000E+00 0. -1.
         -1   -1    0    0    0  501 -0.00000000000E+00 -0.00000000000E+00 -0.29881254575E+02  0.29881254575E+02  0.00000000000E+00 0.  1.
         25    2    1    2    0    0 -0.20423396650E+03  0.86191766709E+02  0.33757587850E+04  0.33853412654E+04  0.12509026822E+03 0.  0.
          5    1    3    3  502    0 -0.35471916980E+02  0.13671150561E+02  0.15262006022E+04  0.15266797005E+04  0.41800000000E+01 0.  1.
         -5    1    3    3    0  502 -0.16876204952E+03  0.72520616147E+02  0.18495581828E+04  0.18586615650E+04  0.41800000000E+01 0.  1.
        -11    1    1    2    0    0  0.65312375863E+02  0.11227831566E+02  0.10958760659E+03  0.12806722516E+03  0.00000000000E+00 0.  1.
         11    1    1    2    0    0  0.13892159064E+03 -0.97419598274E+02  0.43824149815E+03  0.46994190829E+03  0.00000000000E+00 0. -1.
</event>
<event>
 7    1  0.2733606E-009  0.1166972E+03  0.7561462E-02  0.1248647E+00
          1   -1    0    0  501    0  0.00000000000E+00  0.00000000000E+00  0.37453176007E+02  0.37453176007E+02  0.00000000000E+00 0. -1.
         -1   -1    0    0    0  501 -0.00000000000E+00 -0.00000000000E+00 -0.62901532304E+03  0.62901532304E+03  0.00000000000E+00 0.  1.
         25    2    1    2    0    0  0.32645683130E+02 -0.90970984729E+02 -0.21159279854E+03  0.26412185743E+03  0.12508949791E+03 0.  0.
          5    1    3    3  502    0  0.25182796124E+02 -0.30364746541E+01  0.84051325527E+01  0.27046479478E+02  0.41800000000E+01 0.  1.
         -5    1    3    3    0  502  0.74628870066E+01 -0.87934510075E+02 -0.21999793109E+03  0.23707537795E+03  0.41800000000E+01 0.  1.
        -11    1    1    2    0    0  0.18010089983E+02  0.53154624235E+02 -0.26755050575E+03  0.27337346350E+03  0.00000000000E+00 0.  1.
         11    1    1    2    0    0 -0.50655773114E+02  0.37816360494E+02 -0.11241884274E+03  0.12897317812E+03  0.00000000000E+00 0. -1.
</event>
<event>
 7    1  0.2733606E-009  0.4240415E+03  0.7561462E-02  0.1035759E+00
         -1   -1    0    0    0  501 -0.00000000000E+00  0.00000000000E+00  0.36395135848E+03  0.36395135848E+03  0.00000000000E+00 0.  1.
          1   -1    0    0  501    0  0.00000000000E+00 -0.00000000000E+00 -0.49863659633E+03  0.49863659633E+03  0.00000000000E+00 0. -1.
         25    2    1    2    0    0  0.20065923810E+03 -0.35800618402E+03 -0.10046357134E+03  0.44065533559E+03  0.12510650658E+03 0.  0.
          5    1    3    3  502    0  0.75223253881E+02 -0.36644082375E+02 -0.25887342842E+02  0.87686678674E+02  0.41800000000E+01 0.  1.
         -5    1    3    3    0  502  0.12543598422E+03 -0.32136210164E+03 -0.74576228499E+02  0.35296865692E+03  0.41800000000E+01 0.  1.
        -11    1    1    2    0    0 -0.15472335170E+03  0.33256141994E+03 -0.40609351846E+02  0.36903324112E+03  0.00000000000E+00 0. -1.
         11    1    1    2    0    0 -0.45935886405E+02  0.25444764077E+02  0.63876853316E+01  0.52899378093E+02  0.00000000000E+00 0.  1.
</event>
<event>
 7    1  0.2733606E-009  0.1248258E+03  0.7561462E-02  0.1235342E+00
          1   -1    0    0  501    0  0.00000000000E+00  0.00000000000E+00  0.10355935077E+04  0.10355935077E+04  0.00000000000E+00 0. -1.
         -1   -1    0    0    0  501 -0.00000000000E+00 -0.00000000000E+00 -0.21548242720E+02  0.21548242720E+02  0.00000000000E+00 0.  1.
         25    2    1    2    0    0  0.75725227321E+02 -0.61660538312E+02  0.58110177350E+03  0.60238217811E+03  0.12509470531E+03 0.  0.
          5    1    3    3  502    0  0.87845365155E+02 -0.39541410186E+02  0.21790107569E+03  0.23828277841E+03  0.41800000000E+01 0.  1.
         -5    1    3    3    0  502 -0.12120137834E+02 -0.22119128127E+02  0.36320069781E+03  0.36409939970E+03  0.41800000000E+01 0.  1.
        -11    1    1    2    0    0  0.12427507040E+02 -0.84486052584E+01  0.12672567869E+02  0.19657462665E+02  0.00000000000E+00 0.  1.
         11    1    1    2    0    0 -0.88152734361E+02  0.70109143571E+02  0.42027092357E+03  0.43510210961E+03  0.00000000000E+00 0. -1.
</event>
<event>
 7    1  0.2733606E-009  0.1340614E+03  0.7561462E-02  0.1221551E+00
         -2   -1    0    0    0  501 -0.00000000000E+00  0.00000000000E+00  0.28122556133E+02  0.28122556133E+02  0.00000000000E+00 0.  1.
          2   -1    0    0  501    0  0.00000000000E+00 -0.00000000000E+00 -0.71232340495E+03  0.71232340495E+03  0.00000000000E+00 0. -1.
         25    2    1    2    0    0 -0.91505623489E+02 -0.20344685419E+01 -0.36483804349E+03  0.39639825772E+03  0.12508941823E+03 0.  0.
          5    1    3    3  502    0 -0.57545202463E+02  0.60362223463E+02 -0.20989132676E+03  0.22589132298E+03  0.41800000000E+01 0.  1.
         -5    1    3    3    0  502 -0.33960421027E+02 -0.62396692005E+02 -0.15494671673E+03  0.17050693474E+03  0.41800000000E+01 0.  1.
        -11    1    1    2    0    0  0.39540937350E+02  0.34255038615E+02 -0.70538934961E+02  0.87821607492E+02  0.00000000000E+00 0.  1.
         11    1    1    2    0    0  0.51964686140E+02 -0.32220570073E+02 -0.24882387036E+03  0.25622609587E+03  0.00000000000E+00 0. -1.
</event>
<event>
 7    1  0.2733606E-009  0.1625569E+03  0.7561462E-02  0.1185840E+00
         -3   -1    0    0    0  501 -0.00000000000E+00  0.00000000000E+00  0.56761563778E+02  0.56761563778E+02  0.00000000000E+00 0.  1.
          3   -1    0    0  501    0  0.00000000000E+00 -0.00000000000E+00 -0.72701333326E+03  0.72701333326E+03  0.00000000000E+00 0. -1.
         25    2    1    2    0    0  0.15043685935E+03  0.29952433779E+02 -0.53631726938E+03  0.57167690107E+03  0.12509943585E+03 0.  0.
          5    1    3    3  502    0  0.43477780462E+02  0.39057085924E+02 -0.61841359253E+02  0.85191545760E+02  0.41800000000E+01 0.  1.
         -5    1    3    3    0  502  0.10695907889E+03 -0.91046521448E+01 -0.47447591012E+03  0.48648535531E+03  0.41800000000E+01 0.  1.
        -11    1    1    2    0    0 -0.10578475180E+03 -0.83949745885E+00 -0.62173749596E+02  0.12270571954E+03  0.00000000000E+00 0.  1.
         11    1    1    2    0    0 -0.44652107552E+02 -0.29112936320E+02 -0.71760750508E+02  0.89392276420E+02  0.00000000000E+00 0. -1.
</event>
<event>
 7    1  0.2733606E-009  0.2408410E+03  0.7561462E-02  0.1119234E+00
          1   -1    0    0  501    0  0.00000000000E+00  0.00000000000E+00  0.62577162366E+03  0.62577162366E+03  0.00000000000E+00 0. -1.
         -1   -1    0    0    0  501 -0.00000000000E+00 -0.00000000000E+00 -0.11044832732E+03  0.11044832732E+03  0.00000000000E+00 0.  1.
         25    2    1    2    0    0 -0.19385352592E+03 -0.96098299479E+02  0.40873219307E+03  0.47908583244E+03  0.12508859470E+03 0.  0.
          5    1    3    3  502    0 -0.16261667483E+02  0.26937283219E+02  0.33997682165E+02  0.46512082829E+02  0.41800000000E+01 0. -1.
         -5    1    3    3    0  502 -0.17759185844E+03 -0.12303558270E+03  0.37473451090E+03  0.43257374962E+03  0.41800000000E+01 0. -1.
        -11    1    1    2    0    0  0.53097247674E+02  0.74444416023E+02  0.46161612221E+02  0.10243135863E+03  0.00000000000E+00 0.  1.
         11    1    1    2    0    0  0.14075627825E+03  0.21653883456E+02  0.60429491050E+02  0.15470275991E+03  0.00000000000E+00 0. -1.
</event>
<event>
 7    1  0.2733606E-009  0.1188011E+03  0.7561462E-02  0.1245088E+00
          3   -1    0    0  501    0  0.00000000000E+00  0.00000000000E+00  0.75709612690E+03  0.75709612690E+03  0.00000000000E+00 0. -1.
         -3   -1    0    0    0  501 -0.00000000000E+00 -0.00000000000E+00 -0.22944280765E+02  0.22944280765E+02  0.00000000000E+00 0.  1.
         25    2    1    2    0    0 -0.53807557121E+02  0.51434619497E+02  0.40424745968E+03  0.42965535499E+03  0.12508773770E+03 0.  0.
          5    1    3    3  502    0 -0.26519765742E+02 -0.40191233396E+02  0.10765181501E+03  0.11800431726E+03  0.41800000000E+01 0. -1.
         -5    1    3    3    0  502 -0.27287791378E+02  0.91625852893E+02  0.29659564468E+03  0.31165103773E+03  0.41800000000E+01 0. -1.
        -11    1    1    2    0    0  0.15394860533E+02 -0.52939525738E+02  0.28915630770E+03  0.29436536039E+03  0.00000000000E+00 0. -1.
         11    1    1    2    0    0  0.38412696588E+02  0.15049062410E+01  0.40748078755E+02  0.56019692289E+02  0.00000000000E+00 0.  1.
</event>
<event>
 7    1  0.2733606E-009  0.9183523E+02  0.7561462E-02  0.1298467E+00
         -3   -1    0    0    0  501 -0.00000000000E+00  0.00000000000E+00  0.39402968632E+02  0.39402968632E+02  0.00000000000E+00 0.  1.
          3   -1    0    0  501    0  0.00000000000E+00 -0.00000000000E+00 -0.47935542619E+03  0.47935542619E+03  0.00000000000E+00 0. -1.
         25    2    1    2    0    0 -0.67608226332E+02 -0.28267456472E+02 -0.32226825150E+03  0.35337610349E+03  0.12509165931E+03 0.  0.
          5    1    3    3  502    0 -0.54989703895E+02  0.68951822434E+01 -0.39656777574E+02  0.68275496924E+02  0.41800000000E+01 0. -1.
         -5    1    3    3    0  502 -0.12618522437E+02 -0.35162638716E+02 -0.28261147392E+03  0.28510060656E+03  0.41800000000E+01 0. -1.
        -11    1    1    2    0    0  0.65505468520E+02  0.41209348899E+02 -0.40989004232E+02  0.87574398717E+02  0.00000000000E+00 0.  1.
         11    1    1    2    0    0  0.21027578123E+01 -0.12941892427E+02 -0.76695201828E+02  0.77807892616E+02  0.00000000000E+00 0. -1.
</event>
<event>
 7    1  0.2733606E-009  0.9085848E+02  0.7561462E-02  0.1300786E+00
         -2   -1    0    0    0  501 -0.00000000000E+00  0.00000000000E+00  0.46626521802E+02  0.46626521802E+02  0.00000000000E+00 0.  1.
          2   -1    0    0  501    0  0.00000000000E+00 -0.00000000000E+00 -0.55795933242E+03  0.55795933242E+03  0.00000000000E+00 0. -1.
         25    2    1    2    0    0  0.18083937812E+02  0.39997986513E+02 -0.48324232708E+03  0.50109494260E+03  0.12508447978E+03 0.  0.
          5    1    3    3  502    0 -0.41272466100E+02  0.39902701792E+02 -0.35604496761E+03  0.36066762182E+03  0.41800000000E+01 0. -1.
         -5    1    3    3    0  502  0.59356403912E+02  0.95284721444E-01 -0.12719735948E+03  0.14042732078E+03  0.41800000000E+01 0. -1.
        -11    1    1    2    0    0 -0.95635282091E+01 -0.50347779481E+02  0.18902684155E+02  0.54622993682E+02  0.00000000000E+00 0.  1.
         11    1    1    2    0    0 -0.85204096028E+01  0.10349792968E+02 -0.46993167688E+02  0.48867917938E+02  0.00000000000E+00 0. -1.
</event>
<event>
 7    1  0.2733606E-009  0.1035539E+03  0.7561462E-02  0.1272995E+00
          2   -1    0    0  501    0  0.00000000000E+00  0.00000000000E+00  0.63021941143E+03  0.63021941143E+03  0.00000000000E+00 0. -1.
         -2   -1    0    0    0  501 -0.00000000000E+00 -0.00000000000E+00 -0.24526178787E+02  0.24526178787E+02  0.00000000000E+00 0.  1.
         25    2    1    2    0    0  0.22213078670E+02  0.55022361468E+02  0.32165857786E+03  0.35018516329E+03  0.12507808260E+03 0.  0.
          5    1    3    3  502    0 -0.71634038158E+01 -0.19524236777E+02  0.28120459148E+01  0.21398368587E+02  0.41800000000E+01 0. -1.
         -5    1    3    3    0  502  0.29376482486E+02  0.74546598245E+02  0.31884653195E+03  0.32878679470E+03  0.41800000000E+01 0. -1.
        -11    1    1    2    0    0 -0.40958290411E+02 -0.70377685388E+02  0.17722616013E+03  0.19503771940E+03  0.00000000000E+00 0.  1.
         11    1    1    2    0    0  0.18745211741E+02  0.15355323920E+02  0.10680849465E+03  0.10952270754E+03  0.00000000000E+00 0. -1.
</event>
<event>
 7    1  0.2863068E-009  0.1330635E+03  0.7561462E-02  0.1222980E+00
          1   -1    0    0  501    0  0.00000000000E+00  0.00000000000E+00  0.10487596404E+04  0.10487596404E+04  0.00000000000E+00 0. -1.
         -1   -1    0    0    0  501 -0.00000000000E+00 -0.00000000000E+00 -0.26762483980E+02  0.26762483980E+02  0.00000000000E+00 0.  1.
         25    2    1    2    0    0  0.86832404616E+02 -0.83764331937E+02  0.67633569914E+03  0.69830755147E+03  0.12508848352E+03 0.  0.
          5    1    3    3  502    0  0.56182822336E+02 -0.17506436696E+02  0.91184146749E+02  0.10860481513E+03  0.41800000000E+01 0. -1.
         -5    1    3    3    0  502  0.30649582280E+02 -0.66257895241E+02  0.58515155239E+03  0.58970273634E+03  0.41800000000E+01 0. -1.
        -11    1    1    2    0    0 -0.14602217686E+02  0.53908492833E+02  0.64156627858E+02  0.85061291190E+02  0.00000000000E+00 0.  1.
         11    1    1    2    0    0 -0.72230186930E+02  0.29855839104E+02  0.28150482937E+03  0.29215328167E+03  0.00000000000E+00 0. -1.
</event>
<event>
 7    1  0.2733606E-009  0.1506993E+03  0.7561462E-02  0.1199616E+00
         -3   -1    0    0    0  501 -0.00000000000E+00  0.00000000000E+00  0.67305892061E+02  0.67305892061E+02  0.00000000000E+00 0.  1.
          3   -1    0    0  501    0  0.00000000000E+00 -0.00000000000E+00 -0.39241164968E+03  0.39241164968E+03  0.00000000000E+00 0. -1.
         25    2    1    2    0    0  0.60988295273E+02  0.98051804897E+02 -0.22720055379E+03  0.28390420018E+03  0.12509106535E+03 0.  0.
          5    1    3    3  502    0 -0.23858542155E+02 -0.15116349148E+02 -0.33380770688E+02  0.43925872753E+02  0.41800000000E+01 0. -1.
         -5    1    3    3    0  502  0.84846837428E+02  0.11316815404E+03 -0.19381978310E+03  0.23997832743E+03  0.41800000000E+01 0. -1.
        -11    1    1    2    0    0 -0.17833411242E+02  0.59038186198E+01 -0.50134653455E+02  0.53538482495E+02  0.00000000000E+00 0. -1.
         11    1    1    2    0    0 -0.43154884031E+02 -0.10395562352E+03 -0.47770550367E+02  0.12227485906E+03  0.00000000000E+00 0.  1.
</event>
<event>
 7    1  0.2733606E-009  0.1087770E+03  0.7561462E-02  0.1262852E+00
          4   -1    0    0  501    0  0.00000000000E+00  0.00000000000E+00  0.32583998250E+03  0.32583998250E+03  0.00000000000E+00 0. -1.
         -4   -1    0    0    0  501 -0.00000000000E+00 -0.00000000000E+00 -0.57521289588E+02  0.57521289588E+02  0.00000000000E+00 0.  1.
         25    2    1    2    0    0  0.87473555645E+01  0.84151534302E+02  0.14366803366E+03  0.20843811556E+03  0.12509175499E+03 0.  0.
          5    1    3    3  502    0 -0.14257251069E+01 -0.21550299565E+02  0.83428213019E+02  0.86279703471E+02  0.41800000000E+01 0. -1.
         -5    1    3    3    0  502  0.10173080671E+02  0.10570183387E+03  0.60239820645E+02  0.12215841209E+03  0.41800000000E+01 0. -1.
        -11    1    1    2    0    0 -0.19289911840E+02 -0.54094371830E+02  0.13046334271E+03  0.14254467915E+03  0.00000000000E+00 0. -1.
         11    1    1    2    0    0  0.10542556275E+02 -0.30057162472E+02 -0.58126834570E+01  0.32378477383E+02  0.00000000000E+00 0.  1.
</event>
<event>
 7    1  0.2733606E-009  0.9978297E+02  0.7561462E-02  0.1280753E+00
         -3   -1    0    0    0  501 -0.00000000000E+00  0.00000000000E+00  0.45849233302E+02  0.45849233302E+02  0.00000000000E+00 0.  1.
          3   -1    0    0  501    0  0.00000000000E+00 -0.00000000000E+00 -0.61864097285E+03  0.61864097285E+03  0.00000000000E+00 0. -1.
         25    2    1    2    0    0  0.24901608016E+02  0.27181960209E+02 -0.54641916310E+03  0.56176275734E+03  0.12507815433E+03 0.  0.
          5    1    3    3  502    0 -0.38338841137E+02 -0.10184105847E+02 -0.78067634375E+02  0.87667614822E+02  0.41800000000E+01 0.  1.
         -5    1    3    3    0  502  0.63240449153E+02  0.37366066056E+02 -0.46835152872E+03  0.47409514252E+03  0.41800000000E+01 0.  1.
        -11    1    1    2    0    0  0.32242325202E+01  0.25863547446E+02  0.14755823876E+02  0.29950844731E+02  0.00000000000E+00 0.  1.
         11    1    1    2    0    0 -0.28125840536E+02 -0.53045507655E+02 -0.41128400327E+02  0.72776604082E+02  0.00000000000E+00 0. -1.
</event>
<event>
 7    1  0.2733606E-009  0.9947388E+02  0.7561462E-02  0.1281406E+00
          1   -1    0    0  501    0  0.00000000000E+00  0.00000000000E+00  0.41469290560E+03  0.41469290560E+03  0.00000000000E+00 0. -1.
         -1   -1    0    0    0  501 -0.00000000000E+00 -0.00000000000E+00 -0.50316745725E+02  0.50316745725E+02  0.00000000000E+00 0.  1.
         25    2    1    2    0    0  0.10150151568E+02 -0.90927474717E+02  0.23894430248E+03  0.28480231358E+03  0.12508855621E+03 0.  0.
          5    1    3    3  502    0  0.32839663621E+02 -0.43881646322E+02  0.18167673787E+02  0.57892824784E+02  0.41800000000E+01 0. -1.
         -5    1    3    3    0  502 -0.22689512053E+02 -0.47045828395E+02  0.22077662869E+03  0.22690948879E+03  0.41800000000E+01 0. -1.
        -11    1    1    2    0    0 -0.28034847438E+01  0.12516406734E+02 -0.14670661451E+02  0.19487130923E+02  0.00000000000E+00 0.  1.
         11    1    1    2    0    0 -0.73466668238E+01  0.78411067984E+02  0.14010251885E+03  0.16072020683E+03  0.00000000000E+00 0. -1.
</event>
<event>
 7    1  0.2733606E-009  0.1133552E+03  0.7561462E-02  0.1254480E+00
          2   -1    0    0  501    0  0.00000000000E+00  0.00000000000E+00  0.51289865237E+03  0.51289865237E+03  0.00000000000E+00 0. -1.
         -2   -1    0    0    0  501 -0.00000000000E+00 -0.00000000000E+00 -0.37356835498E+02  0.37356835498E+02  0.00000000000E+00 0.  1.
         25    2    1    2    0    0  0.12092700171E+02  0.51104407436E+02  0.40047008377E+03  0.42282617879E+03  0.12509114925E+03 0.  0.
          5    1    3    3  502    0  0.57948998870E+02  0.53073836193E+02  0.16394453361E+03  0.18185214065E+03  0.41800000000E+01 0.  1.
         -5    1    3    3    0  502 -0.45856298699E+02 -0.19694287571E+01  0.23652555016E+03  0.24097403814E+03  0.41800000000E+01 0.  1.
        -11    1    1    2    0    0  0.34329119846E+02 -0.20466560780E+01  0.17028777227E+02  0.38375207157E+02  0.00000000000E+00 0.  1.
         11    1    1    2    0    0 -0.46421820017E+02 -0.49057751358E+02  0.58042955877E+02  0.89054101921E+02  0.00000000000E+00 0. -1.
</event>
<event>
 7    1  0.2733606E-009  0.1908117E+03  0.7561462E-02  0.1157731E+00
         -2   -1    0    0    0  501 -0.00000000000E+00  0.00000000000E+00  0.39038423768E+02  0.39038423768E+02  0.00000000000E+00 0.  1.
          2   -1    0    0  501    0  0.00000000000E+00 -0.00000000000E+00 -0.10469381359E+04  0.10469381359E+04  0.00000000000E+00 0. -1.
         25    2    1    2    0    0 -0.76833051916E+02 -0.15200746952E+03 -0.53306665974E+03  0.57342376457E+03  0.12508061954E+03 0.  0.
          5    1    3    3  502    0 -0.10002303770E+03 -0.73862696018E+02 -0.25674176041E+03  0.28529652973E+03  0.41800000000E+01 0. -1.
         -5    1    3    3    0  502  0.23189985787E+02 -0.78144773506E+02 -0.27632489933E+03  0.28812723484E+03  0.41800000000E+01 0. -1.
        -11    1    1    2    0    0  0.48218615798E+02  0.13239651343E+03 -0.26753280637E+03  0.30237009468E+03  0.00000000000E+00 0. -1.
         11    1    1    2    0    0  0.28614436117E+02  0.19610956097E+02 -0.20730024599E+03  0.21018270039E+03  0.00000000000E+00 0.  1.
</event>
<event>
 7    1  0.3455231E-009  0.2910677E+03  0.7561462E-02  0.1089793E+00
         -1   -1    0    0    0  501 -0.00000000000E+00  0.00000000000E+00  0.14614580793E+03  0.14614580793E+03  0.00000000000E+00 0.  1.
          1   -1    0    0  501    0  0.00000000000E+00 -0.00000000000E+00 -0.62132597959E+03  0.62132597959E+03  0.00000000000E+00 0. -1.
         25    2    1    2    0    0  0.27983432225E+03 -0.17890439536E+02 -0.22253593822E+03  0.37920413548E+03  0.12508483851E+03 0.  0.
          5    1    3    3  502    0  0.26431706684E+03  0.16581202125E+01 -0.15353024363E+03  0.30570454575E+03  0.41800000000E+01 0. -1.
         -5    1    3    3    0  502  0.15517255416E+02 -0.19548559748E+02 -0.69005694591E+02  0.73499589726E+02  0.41800000000E+01 0. -1.
        -11    1    1    2    0    0 -0.18418129472E+03 -0.28145081720E+02 -0.18394987815E+03  0.26182523297E+03  0.00000000000E+00 0.  1.
         11    1    1    2    0    0 -0.95653027533E+02  0.46035521256E+02 -0.68694355292E+02  0.12644241908E+03  0.00000000000E+00 0. -1.
</event>
<event>
 7    1  0.2733606E-009  0.1344466E+03  0.7561462E-02  0.1221003E+00
          2   -1    0    0  501    0  0.00000000000E+00  0.00000000000E+00  0.92836828970E+03  0.92836828970E+03  0.00000000000E+00 0. -1.
         -2   -1    0    0    0  501 -0.00000000000E+00 -0.00000000000E+00 -0.19802598746E+02  0.19802598746E+02  0.00000000000E+00 0.  1.
         25    2    1    2    0    0 -0.13543947272E+02 -0.80581776696E+02  0.48630855623E+03  0.50874454481E+03  0.12509252087E+03 0.  0.
          5    1    3    3  502    0  0.51636870654E+02 -0.12821976276E+02  0.13846811431E+03  0.14839696954E+03  0.41800000000E+01 0.  1.
         -5    1    3    3    0  502 -0.65180817926E+02 -0.67759800420E+02  0.34784044191E+03  0.36034757528E+03  0.41800000000E+01 0.  1.
        -11    1    1    2    0    0  0.40968264771E+02  0.53253225718E+01  0.13135898197E+03  0.13770235990E+03  0.00000000000E+00 0.  1.
         11    1    1    2    0    0 -0.27424317499E+02  0.75256454124E+02  0.29089815277E+03  0.30172398373E+03  0.00000000000E+00 0. -1.
</event>
<event>
 7    1  0.2733606E-009  0.7813081E+02  0.7561462E-02  0.1334441E+00
          1   -1    0    0  501    0  0.00000000000E+00  0.00000000000E+00  0.24644571409E+03  0.24644571409E+03  0.00000000000E+00 0. -1.
         -1   -1    0    0    0  501 -0.00000000000E+00 -0.00000000000E+00 -0.57173065657E+02  0.57173065657E+02  0.00000000000E+00 0.  1.
         25    2    1    2    0    0  0.10133710404E+02 -0.38104649971E+02  0.15334226788E+03  0.20177955535E+03  0.12508589610E+03 0.  0.
          5    1    3    3  502    0 -0.11505496561E+02  0.44709775616E+01  0.15328476816E+03  0.15383776728E+03  0.41800000000E+01 0.  1.
         -5    1    3    3    0  502  0.21639206965E+02 -0.42575627533E+02  0.57499723829E-01  0.47941788078E+02  0.41800000000E+01 0.  1.
        -11    1    1    2    0    0 -0.71338548334E+01 -0.28112027822E+02  0.10590136513E+02  0.30876026046E+02  0.00000000000E+00 0. -1.
         11    1    1    2    0    0 -0.29998555702E+01  0.66216677793E+02  0.25340244034E+02  0.70963198343E+02  0.00000000000E+00 0.  1.
</event>
<event>
 7    1  0.2733606E-009  0.1175373E+03  0.7561462E-02  0.1247216E+00
         -2   -1    0    0    0  501 -0.00000000000E+00  0.00000000000E+00  0.40390775128E+02  0.40390775128E+02  0.00000000000E+00 0.  1.
          2   -1    0    0  501    0  0.00000000000E+00 -0.00000000000E+00 -0.39704249560E+03  0.39704249560E+03  0.00000000000E+00 0. -1.
         25    2    1    2    0    0  0.39076313029E+02  0.50692405086E+02 -0.20391920868E+03  0.24764309556E+03  0.12508949171E+03 0.  0.
          5    1    3    3  502    0 -0.16374954625E+02  0.70786901948E+02 -0.15373034160E+03  0.17008649257E+03  0.41800000000E+01 0. -1.
         -5    1    3    3    0  502  0.55451267654E+02 -0.20094496862E+02 -0.50188867085E+02  0.77556602994E+02  0.41800000000E+01 0. -1.
        -11    1    1    2    0    0 -0.56355985331E+02 -0.77558678532E+01 -0.44990960411E+02  0.72528181333E+02  0.00000000000E+00 0.  1.
         11    1    1    2    0    0  0.17279672302E+02 -0.42936537233E+02 -0.10774155138E+03  0.11726199383E+03  0.00000000000E+00 0. -1.
</event>
<event>
 7    1  0.2733606E-009  0.1113935E+03  0.7561462E-02  0.1258011E+00
         -2   -1    0    0    0  501 -0.00000000000E+00  0.00000000000E+00  0.24245097441E+02  0.24245097441E+02  0.00000000000E+00 0. -1.
          2   -1    0    0  501    0  0.00000000000E+00 -0.00000000000E+00 -0.14772653144E+04  0.14772653144E+04  0.00000000000E+00 0.  1.
         25    2    1    2    0    0  0.66765908147E+02  0.50891130114E+02 -0.12855194641E+04  0.12943165533E+04  0.12508978410E+03 0.  0.
          5    1    3    3  502    0 -0.22170950741E+02 -0.85665742817E+00 -0.54423331726E+02  0.58920763360E+02  0.41800000000E+01 0.  1.
         -5    1    3    3    0  502  0.88936858888E+02  0.51747787542E+02 -0.12310961324E+04  0.12353957900E+04  0.41800000000E+01 0.  1.
        -11    1    1    2    0    0 -0.88822310314E+01 -0.36523701758E+02 -0.10172037640E+02  0.38940276937E+02  0.00000000000E+00 0. -1.
         11    1    1    2    0    0 -0.57883677116E+02 -0.14367428356E+02 -0.15732871527E+03  0.16825358160E+03  0.00000000000E+00 0.  1.
</event>
<event>
 7    1  0.2733606E-009  0.8216200E+02  0.7561462E-02  0.1323026E+00
         -2   -1    0    0    0  501 -0.00000000000E+00  0.00000000000E+00  0.25396492299E+02  0.25396492299E+02  0.00000000000E+00 0.  1.
          2   -1    0    0  501    0  0.00000000000E+00 -0.00000000000E+00 -0.57322870770E+03  0.57322870770E+03  0.00000000000E+00 0. -1.
         25    2    1    2    0    0 -0.48436634698E+02 -0.16210594663E+02 -0.36106898993E+03  0.38552200212E+03  0.12508999828E+03 0.  0.
          5    1    3    3  502    0 -0.33297676018E+02  0.66108501016E+01 -0.35565324502E+03  0.35729419484E+03  0.41800000000E+01 0. -1.
         -5    1    3    3    0  502 -0.15138958680E+02 -0.22821444765E+02 -0.54157449026E+01  0.28227807282E+02  0.41800000000E+01 0. -1.
        -11    1    1    2    0    0  0.32011624312E+02 -0.35711284036E+02 -0.94298695095E+02  0.10579359052E+03  0.00000000000E+00 0.  1.
         11    1    1    2    0    0  0.16425010386E+02  0.51921878699E+02 -0.92464530380E+02  0.10730960736E+03  0.00000000000E+00 0. -1.
</event>
<event>
 7    1  0.2733606E-009  0.6835600E+02  0.7561462E-02  0.1365774E+00
         -2   -1    0    0    0  501 -0.00000000000E+00  0.00000000000E+00  0.29870552911E+02  0.29870552911E+02  0.00000000000E+00 0.  1.
          2   -1    0    0  501    0  0.00000000000E+00 -0.00000000000E+00 -0.47731930007E+03  0.47731930007E+03  0.00000000000E+00 0. -1.
         25    2    1    2    0    0 -0.14090444187E+02  0.39351368708E+02 -0.31159144125E+03  0.33835379221E+03  0.12508793550E+03 0.  0.
          5    1    3    3  502    0  0.10033601024E+02  0.94857234688E+01  0.79602663981E+01  0.16476963930E+02  0.41800000000E+01 0.  1.
         -5    1    3    3    0  502 -0.24124045211E+02  0.29865645239E+02 -0.31955170765E+03  0.32187682828E+03  0.41800000000E+01 0.  1.
        -11    1    1    2    0    0  0.33537833437E+02 -0.50969190717E+02 -0.13258172412E+03  0.14594710770E+03  0.00000000000E+00 0. -1.
         11    1    1    2    0    0 -0.19447389250E+02  0.11617822009E+02 -0.32755817912E+01  0.22888953077E+02  0.00000000000E+00 0.  1.
</event>
<event>
 7    1  0.2733606E-009  0.1219089E+03  0.7561462E-02  0.1239981E+00
         -1   -1    0    0    0  501 -0.00000000000E+00  0.00000000000E+00  0.57403023945E+02  0.57403023945E+02  0.00000000000E+00 0.  1.
          1   -1    0    0  501    0  0.00000000000E+00 -0.00000000000E+00 -0.36067941004E+03  0.36067941004E+03  0.00000000000E+00 0. -1.
         25    2    1    2    0    0 -0.54271969931E+02 -0.57020057023E+02 -0.11419747884E+03  0.18677488618E+03  0.12508821011E+03 0.  0.
          5    1    3    3  502    0 -0.19109426180E+02  0.31931818177E+02  0.39682152493E+00  0.37449179542E+02  0.41800000000E+01 0. -1.
         -5    1    3    3    0  502 -0.35162543751E+02 -0.88951875200E+02 -0.11459430037E+03  0.14932570663E+03  0.41800000000E+01 0. -1.
        -11    1    1    2    0    0 -0.17926625731E+02 -0.10768526694E+01  0.28437676197E+01  0.18182698811E+02  0.00000000000E+00 0.  1.
         11    1    1    2    0    0  0.72198595662E+02  0.58096909692E+02 -0.19192267488E+03  0.21312484900E+03  0.00000000000E+00 0. -1.
</event>
<event>
 7    1  0.2733606E-009  0.1393634E+03  0.7561462E-02  0.1214188E+00
         -1   -1    0    0    0  501 -0.00000000000E+00  0.00000000000E+00  0.89261568671E+02  0.89261568671E+02  0.00000000000E+00 0.  1.
          1   -1    0    0  501    0  0.00000000000E+00 -0.00000000000E+00 -0.44152468318E+03  0.44152468318E+03  0.00000000000E+00 0. -1.
         25    2    1    2    0    0 -0.37120285899E+02  0.89586148909E+02 -0.36242238042E+03  0.39547593246E+03  0.12509051774E+03 0.  0.
          5    1    3    3  502    0 -0.69583096187E+02  0.16299614585E+02 -0.11600502802E+03  0.13631626329E+03  0.41800000000E+01 0.  1.
         -5    1    3    3    0  502  0.32462810288E+02  0.73286534323E+02 -0.24641735239E+03  0.25915966917E+03  0.41800000000E+01 0.  1.
        -11    1    1    2    0    0  0.13987989904E+02 -0.10037861135E+03 -0.11281281992E+02  0.10197449094E+03  0.00000000000E+00 0. -1.
         11    1    1    2    0    0  0.23132295995E+02  0.10792462446E+02  0.21440547903E+02  0.33335828444E+02  0.00000000000E+00 0.  1.
</event>
<event>
 7    1  0.2733606E-009  0.1511174E+03  0.7561462E-02  0.1199107E+00
         -1   -1    0    0    0  501 -0.00000000000E+00  0.00000000000E+00  0.31787399365E+02  0.31787399365E+02  0.00000000000E+00 0.  1.
          1   -1    0    0  501    0  0.00000000000E+00 -0.00000000000E+00 -0.88845421443E+03  0.88845421443E+03  0.00000000000E+00 0. -1.
         25    2    1    2    0    0  0.12012277128E+03 -0.40488167741E+02 -0.45756584433E+03  0.49100092937E+03  0.12508652537E+03 0.  0.
          5    1    3    3  502    0  0.71448217564E+02 -0.83666555139E+02 -0.32742315929E+03  0.34543934038E+03  0.41800000000E+01 0.  1.
         -5    1    3    3    0  502  0.48674553717E+02  0.43178387398E+02 -0.13014268505E+03  0.14556158899E+03  0.41800000000E+01 0.  1.
        -11    1    1    2    0    0 -0.69274442259E+02  0.26766494080E+02 -0.94852639191E+02  0.12046749237E+03  0.00000000000E+00 0.  1.
         11    1    1    2    0    0 -0.50848329022E+02  0.13721673661E+02 -0.30424833154E+03  0.30877319206E+03  0.00000000000E+00 0. -1.
</event>
<event>
 7    1  0.2733606E-009  0.1144039E+03  0.7561462E-02  0.1252625E+00
         -1   -1    0    0    0  501 -0.00000000000E+00  0.00000000000E+00  0.33822392914E+02  0.33822392914E+02  0.00000000000E+00 0.  1.
          1   -1    0    0  501    0  0.00000000000E+00 -0.00000000000E+00 -0.42187939876E+03  0.42187939876E+03  0.00000000000E+00 0. -1.
         25    2    1    2    0    0 -0.31846840955E+02  0.36681975022E+02 -0.20133118189E+03  0.24195475662E+03  0.12509224948E+03 0.  0.
          5    1    3    3  502    0  0.43367843957E+02 -0.80958502846E+01 -0.89566515446E+02  0.99929704144E+02  0.41800000000E+01 0. -1.
         -5    1    3    3    0  502 -0.75214684912E+02  0.44777825306E+02 -0.11176466644E+03  0.14202505248E+03  0.41800000000E+01 0. -1.
        -11    1    1    2    0    0 -0.25763302059E+02  0.43530532938E+01 -0.91306321644E+02  0.94971265013E+02  0.00000000000E+00 0.  1.
         11    1    1    2    0    0  0.57610143015E+02 -0.41035028315E+02 -0.95419502315E+02  0.11877577004E+03  0.00000000000E+00 0. -1.
</event>
<event>
 7    1  0.2733606E-009  0.9876481E+02  0.7561462E-02  0.1282915E+00
         -2   -1    0    0    0  501 -0.00000000000E+00  0.00000000000E+00  0.18625037954E+02  0.18625037954E+02  0.00000000000E+00 0.  1.
          2   -1    0    0  501    0  0.00000000000E+00 -0.00000000000E+00 -0.70982153052E+03  0.70982153052E+03  0.00000000000E+00 0. -1.
         25    2    1    2    0    0 -0.19316491217E+02 -0.29442519262E+02 -0.42411025619E+03  0.44357366106E+03  0.12509234435E+03 0.  0.
          5    1    3    3  502    0 -0.26245594064E+02  0.36220924427E+02 -0.68885694833E+02  0.82240488367E+02  0.41800000000E+01 0. -1.
         -5    1    3    3    0  502  0.69291028476E+01 -0.65663443689E+02 -0.35522456135E+03  0.36133317270E+03  0.41800000000E+01 0. -1.
        -11    1    1    2    0    0  0.45657434931E+02 -0.16585105935E+01 -0.69815690028E+02  0.83436098878E+02  0.00000000000E+00 0.  1.
         11    1    1    2    0    0 -0.26340943714E+02  0.31101029855E+02 -0.19727054635E+03  0.20143680853E+03  0.00000000000E+00 0. -1.
</event>
<event>
 7    1  0.2733606E-009  0.2014001E+03  0.7561462E-02  0.1148563E+00
          2   -1    0    0  501    0  0.00000000000E+00  0.00000000000E+00  0.82871465438E+03  0.82871465438E+03  0.00000000000E+00 0. -1.
         -2   -1    0    0    0  501 -0.00000000000E+00 -0.00000000000E+00 -0.62879024133E+02  0.62879024133E+02  0.00000000000E+00 0.  1.
         25    2    1    2    0    0  0.17226804207E+03 -0.10018400568E+03  0.35105102359E+03  0.42260897093E+03  0.12509359630E+03 0.  0.
          5    1    3    3  502    0  0.33237071344E+02 -0.18896452855E+02  0.19345010725E+03  0.19723639430E+03  0.41800000000E+01 0.  1.
         -5    1    3    3    0  502  0.13903097072E+03 -0.81287552823E+02  0.15760091634E+03  0.22537257663E+03  0.41800000000E+01 0.  1.
        -11    1    1    2    0    0 -0.87131295650E+02  0.27720759798E+02  0.27611182429E+03  0.29085742679E+03  0.00000000000E+00 0. -1.
         11    1    1    2    0    0 -0.85136746418E+02  0.72463245879E+02  0.13867278236E+03  0.17812728079E+03  0.00000000000E+00 0.  1.
</event>
<event>
 7    1  0.2733606E-009  0.8586171E+02  0.7561462E-02  0.1313194E+00
         -2   -1    0    0    0  501 -0.00000000000E+00  0.00000000000E+00  0.30166932557E+02  0.30166932557E+02  0.00000000000E+00 0.  1.
          2   -1    0    0  501    0  0.00000000000E+00 -0.00000000000E+00 -0.55697939386E+03  0.55697939386E+03  0.00000000000E+00 0. -1.
         25    2    1    2    0    0 -0.34738515093E+02 -0.39528538957E+02 -0.39470040911E+03  0.41737863806E+03  0.12508894729E+03 0.  0.
          5    1    3    3  502    0 -0.38194265202E+01 -0.71837570973E+02 -0.33503757280E+03  0.34269939044E+03  0.41800000000E+01 0. -1.
         -5    1    3    3    0  502 -0.30919088572E+02  0.32309032016E+02 -0.59662836311E+02  0.74679247617E+02  0.41800000000E+01 0. -1.
        -11    1    1    2    0    0  0.62072304039E+01  0.17899869736E+02  0.11228806163E+02  0.22023195356E+02  0.00000000000E+00 0.  1.
         11    1    1    2    0    0  0.28531284689E+02  0.21628669221E+02 -0.14334085836E+03  0.14774449301E+03  0.00000000000E+00 0. -1.
</event>
<event>
 7    1  0.2733606E-009  0.1009943E+03  0.7561462E-02  0.1278219E+00
         -2   -1    0    0    0  501 -0.00000000000E+00  0.00000000000E+00  0.30523594377E+02  0.30523594377E+02  0.00000000000E+00 0.  1.
          2   -1    0    0  501    0  0.00000000000E+00 -0.00000000000E+00 -0.65411886331E+03  0.65411886331E+03  0.00000000000E+00 0. -1.
         25    2    1    2    0    0 -0.52520582853E+01 -0.33308445256E+02 -0.54364205614E+03  0.55886634001E+03  0.12509142316E+03 0.  0.
          5    1    3    3  502    0 -0.23801008635E+02  0.33744361272E+02 -0.36099641860E+03  0.36337454035E+03  0.41800000000E+01 0. -1.
         -5    1    3    3    0  502  0.18548950350E+02 -0.67052806528E+02 -0.18264563754E+03  0.19549179966E+03  0.41800000000E+01 0. -1.
        -11    1    1    2    0    0  0.44733914432E+02  0.21103779691E+02 -0.20893001964E+02  0.53693669541E+02  0.00000000000E+00 0.  1.
         11    1    1    2    0    0 -0.39481856147E+02  0.12204665566E+02 -0.59060210825E+02  0.72082448135E+02  0.00000000000E+00 0. -1.
</event>
<event>
 7    1  0.2733606E-009  0.1336125E+03  0.7561462E-02  0.1222192E+00
         -2   -1    0    0    0  501 -0.00000000000E+00  0.00000000000E+00  0.32649713500E+02  0.32649713500E+02  0.00000000000E+00 0.  1.
          2   -1    0    0  501    0  0.00000000000E+00 -0.00000000000E+00 -0.82011681332E+03  0.82011681332E+03  0.00000000000E+00 0. -1.
         25    2    1    2    0    0 -0.73583976367E+02  0.84917214549E+02 -0.29905930395E+03  0.34308763835E+03  0.12508847031E+03 0.  0.
          5    1    3    3  502    0 -0.25545009942E+02 -0.43396802694E+00 -0.20698292476E+03  0.20859563611E+03  0.41800000000E+01 0.  1.
         -5    1    3    3    0  502 -0.48038966425E+02  0.85351182576E+02 -0.92076379190E+02  0.13449200224E+03  0.41800000000E+01 0.  1.
        -11    1    1    2    0    0  0.52608641621E+02 -0.10297038950E+03 -0.35246067539E+03  0.37094352398E+03  0.00000000000E+00 0.  1.
         11    1    1    2    0    0  0.20975334746E+02  0.18053174949E+02 -0.13594712047E+03  0.13873536448E+03  0.00000000000E+00 0. -1.
</event>
<event>
 7    1  0.2733606E-009  0.9178561E+02  0.7561462E-02  0.1298584E+00
          1   -1    0    0  501    0  0.00000000000E+00  0.00000000000E+00  0.69335467009E+03  0.69335467009E+03  0.00000000000E+00 0. -1.
         -1   -1    0    0    0  501 -0.00000000000E+00 -0.00000000000E+00 -0.29331787512E+02  0.29331787512E+02  0.00000000000E+00 0.  1.
         25    2    1    2    0    0 -0.12119210443E+02 -0.10734579851E+02  0.59331126408E+03  0.60656964854E+03  0.12508547469E+03 0.  0.
          5    1    3    3  502    0  0.39708514798E+02  0.30884863964E+02  0.14957958121E+03  0.15786755362E+03  0.41800000000E+01 0. -1.
         -5    1    3    3    0  502 -0.51827725241E+02 -0.41619443815E+02  0.44373168287E+03  0.44870209492E+03  0.41800000000E+01 0. -1.
        -11    1    1    2    0    0  0.38205266900E+02  0.12876918627E+02  0.78973911843E+02  0.88669815631E+02  0.00000000000E+00 0. -1.
         11    1    1    2    0    0 -0.26086056457E+02 -0.21423387767E+01 -0.82622933469E+01  0.27446993429E+02  0.00000000000E+00 0.  1.
</event>
<event>
 7    1  0.2733606E-009  0.9421536E+02  0.7561462E-02  0.1292953E+00
          3   -1    0    0  501    0  0.00000000000E+00  0.00000000000E+00  0.26780161207E+02  0.26780161207E+02  0.00000000000E+00 0. -1.
         -3   -1    0    0    0  501 -0.00000000000E+00 -0.00000000000E+00 -0.60489073591E+03  0.60489073591E+03  0.00000000000E+00 0.  1.
         25    2    1    2    0    0  0.21797420914E+02 -0.74659364714E+01 -0.48181032685E+03  0.49831618757E+03  0.12508782502E+03 0.  0.
          5    1    3    3  502    0  0.28851810671E+02  0.47585589176E+02 -0.36116273511E+03  0.36544877741E+03  0.41800000000E+01 0.  1.
         -5    1    3    3    0  502 -0.70543897572E+01 -0.55051525647E+02 -0.12064759175E+03  0.13286741017E+03  0.41800000000E+01 0.  1.
        -11    1    1    2    0    0 -0.33842616181E+02 -0.25171196627E+02 -0.14729439812E+02  0.44675140815E+02  0.00000000000E+00 0.  1.
         11    1    1    2    0    0  0.12045195268E+02  0.32637133098E+02 -0.81570808033E+02  0.88679568724E+02  0.00000000000E+00 0. -1.
</event>
<event>
 7    1  0.2733606E-009  0.2052404E+03  0.7561462E-02  0.1145391E+00
         -1   -1    0    0    0  501 -0.00000000000E+00  0.00000000000E+00  0.44916880158E+02  0.44916880158E+02  0.00000000000E+00 0.  1.
          1   -1    0    0  501    0  0.00000000000E+00 -0.00000000000E+00 -0.18142868108E+04  0.18142868108E+04  0.00000000000E+00 0. -1.
         25    2    1    2    0    0  0.18343517146E+03  0.72542800842E+02 -0.14787355776E+04  0.14970688216E+04  0.12508088572E+03 0.  0.
          5    1    3    3  502    0  0.12771150003E+03  0.82337795478E+02 -0.13155428281E+04  0.13242960941E+04  0.41800000000E+01 0.  1.
         -5    1    3    3    0  502  0.55723671423E+02 -0.97949946369E+01 -0.16319274944E+03  0.17277272743E+03  0.41800000000E+01 0.  1.
        -11    1    1    2    0    0 -0.14140470836E+03 -0.35690044202E+02 -0.14290524834E+03  0.20418369378E+03  0.00000000000E+00 0.  1.
         11    1    1    2    0    0 -0.42030463093E+02 -0.36852756640E+02 -0.14772910467E+03  0.15795117558E+03  0.00000000000E+00 0. -1.
</event>
<event>
 7    1  0.2733606E-009  0.9654264E+02  0.7561462E-02  0.1287739E+00
          1   -1    0    0  501    0  0.00000000000E+00  0.00000000000E+00  0.55968816328E+03  0.55968816328E+03  0.00000000000E+00 0. -1.
         -1   -1    0    0    0  501 -0.00000000000E+00 -0.00000000000E+00 -0.21012105733E+02  0.21012105733E+02  0.00000000000E+00 0.  1.
         25    2    1    2    0    0  0.94784347359E+01 -0.10777542960E+02  0.37991370753E+03  0.40023439962E+03  0.12508858187E+03 0.  0.
          5    1    3    3  502    0 -0.56791753030E+02 -0.71099389735E+01  0.14082767409E+03  0.15207156419E+03  0.41800000000E+01 0. -1.
         -5    1    3    3    0  502  0.66270187766E+02 -0.36676039864E+01  0.23908603344E+03  0.24816283543E+03  0.41800000000E+01 0. -1.
        -11    1    1    2    0    0  0.13400154191E+02  0.34030455094E+02  0.13563202390E+03  0.14047662408E+03  0.00000000000E+00 0. -1.
         11    1    1    2    0    0 -0.22878588927E+02 -0.23252912134E+02  0.23130326114E+02  0.39989245306E+02  0.00000000000E+00 0.  1.
</event>
<event>
 7    1  0.2733606E-009  0.1137924E+03  0.7561462E-02  0.1253704E+00
         -2   -1    0    0    0  501 -0.00000000000E+00  0.00000000000E+00  0.93126764711E+02  0.93126764711E+02  0.00000000000E+00 0.  1.
          2   -1    0    0  501    0  0.00000000000E+00 -0.00000000000E+00 -0.22955967935E+03  0.22955967935E+03  0.00000000000E+00 0. -1.
         25    2    1    2    0    0  0.76021825142E+02 -0.35575447429E+02 -0.11937683957E+02  0.15110032043E+03  0.12507544994E+03 0.  0.
          5    1    3    3  502    0  0.52673602937E+02  0.31213564444E+02 -0.41734105948E+02  0.74215921816E+02  0.41800000000E+01 0.  1.
         -5    1    3    3    0  502  0.23348222205E+02 -0.66789011873E+02  0.29796421991E+02  0.76884398616E+02  0.41800000000E+01 0.  1.
        -11    1    1    2    0    0 -0.37571836495E+02  0.42003434698E+02 -0.11970760140E+03  0.13230964158E+03  0.00000000000E+00 0.  1.
         11    1    1    2    0    0 -0.38449988648E+02 -0.64279872686E+01 -0.47876292812E+01  0.39276482040E+02  0.00000000000E+00 0. -1.
</event>
<event>
 7    1  0.2733606E-009  0.1116899E+03  0.7561462E-02  0.1257472E+00
         -1   -1    0    0    0  501 -0.00000000000E+00  0.00000000000E+00  0.35012018274E+03  0.35012018274E+03  0.00000000000E+00 0.  1.
          1   -1    0    0  501    0  0.00000000000E+00 -0.00000000000E+00 -0.12868955201E+03  0.12868955201E+03  0.00000000000E+00 0. -1.
         25    2    1    2    0    0  0.78369064793E+02 -0.18126196045E+02 -0.69381797857E+02  0.16410990863E+03  0.12509180204E+03 0.  0.
          5    1    3    3  502    0 -0.16358004393E+02 -0.16760438643E+02 -0.64958345133E+02  0.69177710382E+02  0.41800000000E+01 0.  1.
         -5    1    3    3    0  502  0.94727069187E+02 -0.13657574022E+01 -0.44234527241E+01  0.94932198247E+02  0.41800000000E+01 0.  1.
        -11    1    1    2    0    0 -0.72915569615E+02 -0.12216308056E+02  0.26295062074E+03  0.27314638461E+03  0.00000000000E+00 0.  1.
         11    1    1    2    0    0 -0.54534951787E+01  0.30342504102E+02  0.27861807845E+02  0.41553441509E+02  0.00000000000E+00 0. -1.
</event>
<event>
 7    1  0.2733606E-009  0.1333686E+03  0.7561462E-02  0.1222541E+00
          1   -1    0    0  501    0  0.00000000000E+00  0.00000000000E+00  0.14296616902E+04  0.14296616902E+04  0.00000000000E+00 0.  1.
         -1   -1    0    0    0  501 -0.00000000000E+00 -0.00000000000E+00 -0.29603686349E+02  0.29603686349E+02  0.00000000000E+00 0. -1.
         25    2    1    2    0    0 -0.11511105146E+03  0.47689353740E+01  0.11984365386E+04  0.12104425495E+04  0.12509089372E+03 0.  0.
          5    1    3    3  502    0 -0.48912570808E+02 -0.24865800590E+02  0.15497593366E+03  0.16445595166E+03  0.41800000000E+01 0.  1.
         -5    1    3    3    0  502 -0.66198480657E+02  0.29634735964E+02  0.10434606049E+04  0.10459865979E+04  0.41800000000E+01 0.  1.
        -11    1    1    2    0    0  0.18513969962E+02 -0.33503233587E+02  0.93416083727E+02  0.10095443746E+03  0.00000000000E+00 0.  1.
         11    1    1    2    0    0  0.96597081503E+02  0.28734298213E+02  0.10820538156E+03  0.14786838961E+03  0.00000000000E+00 0. -1.
</event>
<event>
 7    1  0.2733606E-009  0.8923756E+02  0.7561462E-02  0.1304709E+00
          1   -1    0    0  501    0  0.00000000000E+00  0.00000000000E+00  0.48317061283E+03  0.48317061283E+03  0.00000000000E+00 0. -1.
         -1   -1    0    0    0  501 -0.00000000000E+00 -0.00000000000E+00 -0.32440492736E+02  0.32440492736E+02  0.00000000000E+00 0.  1.
         25    2    1    2    0    0 -0.68081513731E+02 -0.14149133608E+02  0.24953849395E+03  0.28766452171E+03  0.12508447784E+03 0.  0.
          5    1    3    3  502    0 -0.22792249591E+02 -0.14841946499E+02  0.23950934243E+03  0.24108497989E+03  0.41800000000E+01 0. -1.
         -5    1    3    3    0  502 -0.45289264140E+02  0.69281289039E+00  0.10029151516E+02  0.46579541820E+02  0.41800000000E+01 0. -1.
        -11    1    1    2    0    0 -0.65305823685E+01 -0.21722361331E+02  0.28401960255E+02  0.36348051312E+02  0.00000000000E+00 0.  1.
         11    1    1    2    0    0  0.74612096100E+02  0.35871494939E+02  0.17278966590E+03  0.19159853255E+03  0.00000000000E+00 0. -1.
</event>
<event>
 7    1  0.2733606E-009  0.1769182E+03  0.7561462E-02  0.1170819E+00
         -3   -1    0    0    0  501 -0.00000000000E+00  0.00000000000E+00  0.36664785429E+03  0.36664785429E+03  0.00000000000E+00 0.  1.
          3   -1    0    0  501    0  0.00000000000E+00 -0.00000000000E+00 -0.10913609028E+03  0.10913609028E+03  0.00000000000E+00 0. -1.
         25    2    1    2    0    0  0.33028587779E+02 -0.16390110596E+03  0.13740340106E+03  0.24996446051E+03  0.12509227293E+03 0.  0.
          5    1    3    3  502    0  0.47994449826E+02 -0.58264264500E+02 -0.44152035228E+00  0.75603300669E+02  0.41800000000E+01 0.  1.
         -5    1    3    3    0  502 -0.14965862047E+02 -0.10563684146E+03  0.13784492142E+03  0.17436115984E+03  0.41800000000E+01 0.  1.
        -11    1    1    2    0    0 -0.41689337464E+02  0.13529953863E+03  0.13208536151E+03  0.19362465942E+03  0.00000000000E+00 0.  1.
         11    1    1    2    0    0  0.86607496855E+01  0.28601567326E+02 -0.11976998560E+02  0.32194824633E+02  0.00000000000E+00 0. -1.
</event>
<event>
 7    1  0.2733606E-009  0.1310974E+03  0.7561462E-02  0.1225836E+00
         -2   -1    0    0    0  501 -0.00000000000E+00  0.00000000000E+00  0.69776307362E+03  0.69776307362E+03  0.00000000000E+00 0.  1.
          2   -1    0    0  501    0  0.00000000000E+00 -0.00000000000E+00 -0.33281003773E+02  0.33281003773E+02  0.00000000000E+00 0. -1.
         25    2    1    2    0    0 -0.66943440202E+02 -0.64511135093E+02  0.47838011661E+03  0.50312843205E+03  0.12509025715E+03 0.  0.
          5    1    3    3  502    0 -0.47203288445E+02  0.24725075148E+02  0.27459044331E+03  0.27974428277E+03  0.41800000000E+01 0. -1.
         -5    1    3    3    0  502 -0.19740151756E+02 -0.89236210241E+02  0.20378967330E+03  0.22338414929E+03  0.41800000000E+01 0. -1.
        -11    1    1    2    0    0  0.36982031358E+02 -0.88375378151E+01  0.17982403108E+02  0.42061140493E+02  0.00000000000E+00 0. -1.
         11    1    1    2    0    0  0.29961408843E+02  0.73348672908E+02  0.16811955012E+03  0.18585450484E+03  0.00000000000E+00 0.  1.
</event>
<event>
 7    1  0.2733606E-009  0.1343297E+03  0.7561462E-02  0.1221169E+00
          2   -1    0    0  501    0  0.00000000000E+00  0.00000000000E+00  0.64109204384E+03  0.64109204384E+03  0.00000000000E+00 0. -1.
         -2   -1    0    0    0  501 -0.00000000000E+00 -0.00000000000E+00 -0.43997891084E+02  0.43997891084E+02  0.00000000000E+00 0.  1.
         25    2    1    2    0    0 -0.91606160391E+02  0.33707616117E+02  0.47575061389E+03  0.50151147192E+03  0.12508883981E+03 0.  0.
          5    1    3    3  502    0 -0.87023042334E+01  0.46149048143E+02  0.32974337246E+03  0.33309702614E+03  0.41800000000E+01 0.  1.
         -5    1    3    3    0  502 -0.82903856158E+02 -0.12441432026E+02  0.14600724143E+03  0.16841444578E+03  0.41800000000E+01 0.  1.
        -11    1    1    2    0    0  0.10945203279E+03 -0.12973077923E+02  0.93357602825E+02  0.14444268842E+03  0.00000000000E+00 0.  1.
         11    1    1    2    0    0 -0.17845872404E+02 -0.20734538194E+02  0.27985936040E+02  0.39135774580E+02  0.00000000000E+00 0. -1.
</event>
<event>
 7    1  0.2733606E-009  0.1622715E+03  0.7561462E-02  0.1186156E+00
         -1   -1    0    0    0  501 -0.00000000000E+00  0.00000000000E+00  0.28171650726E+03  0.28171650726E+03  0.00000000000E+00 0.  1.
          1   -1    0    0  501    0  0.00000000000E+00 -0.00000000000E+00 -0.10297700959E+03  0.10297700959E+03  0.00000000000E+00 0. -1.
         25    2    1    2    0    0  0.10700763643E+03 -0.67694195380E+02  0.13117269595E+03  0.22110480203E+03  0.12509164231E+03 0.  0.
          5    1    3    3  502    0  0.38177005878E+01  0.32067574595E+02  0.12710720238E+02  0.34956243894E+02  0.41800000000E+01 0. -1.
         -5    1    3    3    0  502  0.10318993584E+03 -0.99761769976E+02  0.11846197571E+03  0.18614855814E+03  0.41800000000E+01 0. -1.
        -11    1    1    2    0    0 -0.81686959286E+01  0.46618536038E+02  0.40481373642E+02  0.62279668492E+02  0.00000000000E+00 0. -1.
         11    1    1    2    0    0 -0.98838940500E+02  0.21075659342E+02  0.70854280767E+01  0.10130904632E+03  0.00000000000E+00 0.  1.
</event>
<event>
 7    1  0.2733606E-009  0.8287325E+02  0.7561462E-02  0.1321090E+00
          1   -1    0    0  501    0  0.00000000000E+00  0.00000000000E+00  0.73209387950E+02  0.73209387950E+02  0.00000000000E+00 0. -1.
         -1   -1    0    0    0  501 -0.00000000000E+00 -0.00000000000E+00 -0.17593688655E+03  0.17593688655E+03  0.00000000000E+00 0.  1.
         25    2    1    2    0    0 -0.29337867945E+02  0.97903164924E+01 -0.45500109537E+02  0.13665627348E+03  0.12509243111E+03 0.  0.
          5    1    3    3  502    0 -0.28853214264E+02 -0.32437405434E+02  0.27969164582E+02  0.51811579903E+02  0.41800000000E+01 0. -1.
         -5    1    3    3    0  502 -0.48465368160E+00  0.42227721926E+02 -0.73469274119E+02  0.84844693575E+02  0.41800000000E+01 0. -1.
        -11    1    1    2    0    0  0.27296340613E+02  0.29593007045E+02  0.31411070956E+01  0.40381961699E+02  0.00000000000E+00 0. -1.
         11    1    1    2    0    0  0.20415273317E+01 -0.39383323538E+02 -0.60368496159E+02  0.72108039324E+02  0.00000000000E+00 0.  1.
</event>
<event>
 7    1  0.2733606E-009  0.8317386E+02  0.7561462E-02  0.1320278E+00
         -2   -1    0    0    0  501 -0.00000000000E+00  0.00000000000E+00  0.62304624835E+02  0.62304624835E+02  0.00000000000E+00 0. -1.
          2   -1    0    0  501    0  0.00000000000E+00 -0.00000000000E+00 -0.23760530784E+03  0.23760530784E+03  0.00000000000E+00 0.  1.
         25    2    1    2    0    0  0.36357608988E+01  0.24661502051E+02 -0.58373133838E+02  0.14027474417E+03  0.12509265629E+03 0.  0.
          5    1    3    3  502    0  0.18073715905E+01 -0.16437961154E+02  0.34569202547E+02  0.38548350467E+02  0.41800000000E+01 0.  1.
         -5    1    3    3    0  502  0.18283893083E+01  0.41099463205E+02 -0.92942336385E+02  0.10172639370E+03  0.41800000000E+01 0.  1.
        -11    1    1    2    0    0  0.56903340817E+01 -0.65653262318E+02 -0.62131882891E+02  0.90570975630E+02  0.00000000000E+00 0.  1.
         11    1    1    2    0    0 -0.93260949805E+01  0.40991760267E+02 -0.54795666275E+02  0.69064212874E+02  0.00000000000E+00 0. -1.
</event>
<event>
 7    1  0.2733606E-009  0.1466199E+03  0.7561462E-02  0.1204689E+00
          2   -1    0    0  501    0  0.00000000000E+00  0.00000000000E+00  0.89557209064E+03  0.89557209064E+03  0.00000000000E+00 0. -1.
         -2   -1    0    0    0  501 -0.00000000000E+00 -0.00000000000E+00 -0.29682248861E+02  0.29682248861E+02  0.00000000000E+00 0.  1.
         25    2    1    2    0    0 -0.10214071310E+03  0.12018091922E+02  0.27943054911E+03  0.32296360319E+03  0.12508755896E+03 0.  0.
          5    1    3    3  502    0  0.21219623018E+02  0.24035502250E+02  0.98018626663E+02  0.10321386216E+03  0.41800000000E+01 0.  1.
         -5    1    3    3    0  502 -0.12336033612E+03 -0.12017410328E+02  0.18141192244E+03  0.21974974103E+03  0.41800000000E+01 0.  1.
        -11    1    1    2    0    0  0.72656682346E+02  0.35580642212E+02  0.32701597715E+03  0.33687449429E+03  0.00000000000E+00 0. -1.
         11    1    1    2    0    0  0.29484030752E+02 -0.47598734135E+02  0.25944331552E+03  0.26541624202E+03  0.00000000000E+00 0.  1.
</event>
<event>
 7    1  0.2733606E-009  0.1176605E+03  0.7561462E-02  0.1247007E+00
          1   -1    0    0  501    0  0.00000000000E+00  0.00000000000E+00  0.58668003317E+03  0.58668003317E+03  0.00000000000E+00 0. -1.
         -1   -1    0    0    0  501 -0.00000000000E+00 -0.00000000000E+00 -0.24906189614E+02  0.24906189614E+02  0.00000000000E+00 0.  1.
         25    2    1    2    0    0 -0.49719727777E+02 -0.12237817787E+02  0.38858857947E+03  0.41142524723E+03  0.12509130446E+03 0.  0.
          5    1    3    3  502    0  0.16773314360E+02 -0.53856302308E+02  0.15729966731E+03  0.16716011220E+03  0.41800000000E+01 0. -1.
         -5    1    3    3    0  502 -0.66493042137E+02  0.41618484521E+02  0.23128891216E+03  0.24426513503E+03  0.41800000000E+01 0. -1.
        -11    1    1    2    0    0  0.51374588959E+02 -0.28958317284E+02  0.10730719323E+03  0.12244495192E+03  0.00000000000E+00 0.  1.
         11    1    1    2    0    0 -0.16548611826E+01  0.41196135071E+02  0.65878070856E+02  0.77716023637E+02  0.00000000000E+00 0. -1.
</event>
<event>
 7    1  0.2733606E-009  0.1051897E+03  0.7561462E-02  0.1269746E+00
          1   -1    0    0  501    0  0.00000000000E+00  0.00000000000E+00  0.60854945311E+03  0.60854945311E+03  0.00000000000E+00 0. -1.
         -1   -1    0    0    0  501 -0.00000000000E+00 -0.00000000000E+00 -0.32737379458E+02  0.32737379458E+02  0.00000000000E+00 0.  1.
         25    2    1    2    0    0  0.72080021800E+02  0.42374342818E+02  0.23548955542E+03  0.27945038247E+03  0.12508425592E+03 0.  0.
          5    1    3    3  502    0  0.49391155696E+02 -0.29971978843E+01  0.13165236812E+02  0.51373780438E+02  0.41800000000E+01 0.  1.
         -5    1    3    3    0  502  0.22688866104E+02  0.45371540702E+02  0.22232431861E+03  0.22807660203E+03  0.41800000000E+01 0.  1.
        -11    1    1    2    0    0 -0.32429112674E+02 -0.58603109208E+02  0.12036358628E+03  0.13774383710E+03  0.00000000000E+00 0.  1.
         11    1    1    2    0    0 -0.39650909126E+02  0.16228766390E+02  0.21995893195E+03  0.22409261300E+03  0.00000000000E+00 0. -1.
</event>
<event>
 7    1  0.2733606E-009  0.9107111E+02  0.7561462E-02  0.1300278E+00
          2   -1    0    0  501    0  0.00000000000E+00  0.00000000000E+00  0.42477282537E+03  0.42477282537E+03  0.00000000000E+00 0. -1.
         -2   -1    0    0    0  501 -0.00000000000E+00 -0.00000000000E+00 -0.29102670928E+02  0.29102670928E+02  0.00000000000E+00 0.  1.
         25    2    1    2    0    0  0.19494961664E+02 -0.79328171014E+01  0.31081281965E+03  0.33569792892E+03  0.12508200312E+03 0.  0.
          5    1    3    3  502    0  0.24511461323E+02 -0.64365099381E+02  0.19147685049E+03  0.20353018063E+03  0.41800000000E+01 0. -1.
         -5    1    3    3    0  502 -0.50164996592E+01  0.56432282280E+02  0.11933596916E+03  0.13216774829E+03  0.41800000000E+01 0. -1.
        -11    1    1    2    0    0 -0.23207336542E+02  0.27747289755E+02  0.58551590118E+01  0.36643900518E+02  0.00000000000E+00 0.  1.
         11    1    1    2    0    0  0.37123748782E+01 -0.19814472654E+02  0.79002175781E+02  0.81533666861E+02  0.00000000000E+00 0. -1.
</event>
<event>
 7    1  0.2733606E-009  0.6292950E+02  0.7561462E-02  0.1385934E+00
          1   -1    0    0  501    0  0.00000000000E+00  0.00000000000E+00  0.34593111392E+02  0.34593111392E+02  0.00000000000E+00 0. -1.
         -1   -1    0    0    0  501 -0.00000000000E+00 -0.00000000000E+00 -0.40212446141E+03  0.40212446141E+03  0.00000000000E+00 0.  1.
         25    2    1    2    0    0 -0.25539024258E+01 -0.33081872931E+02 -0.27045218926E+03  0.29982193547E+03  0.12509146085E+03 0.  0.
          5    1    3    3  502    0 -0.62617866146E+01 -0.13004853404E+02  0.10350687378E+02  0.18246789111E+02  0.41800000000E+01 0. -1.
         -5    1    3    3    0  502  0.37078841887E+01 -0.20077019526E+02 -0.28080287664E+03  0.28157514636E+03  0.41800000000E+01 0. -1.
        -11    1    1    2    0    0 -0.23365798402E+02  0.52592793765E+02 -0.84204585931E+02  0.10199203294E+03  0.00000000000E+00 0.  1.
         11    1    1    2    0    0  0.25919700828E+02 -0.19510920834E+02 -0.12874574826E+02  0.34903604395E+02  0.00000000000E+00 0. -1.
</event>
<event>
 7    1  0.2733606E-009  0.1214825E+03  0.7561462E-02  0.1240671E+00
         -4   -1    0    0    0  501 -0.00000000000E+00  0.00000000000E+00  0.14981662870E+03  0.14981662870E+03  0.00000000000E+00 0.  1.
          4   -1    0    0  501    0  0.00000000000E+00 -0.00000000000E+00 -0.12592199266E+03  0.12592199266E+03  0.00000000000E+00 0. -1.
         25    2    1    2    0    0 -0.40598541705E+02 -0.73765198870E+02  0.22819480461E+02  0.15249033951E+03  0.12507209442E+03 0.  0.
          5    1    3    3  502    0 -0.83703281836E+02 -0.61697209565E+02  0.51821920543E+01  0.10419746913E+03  0.41800000000E+01 0. -1.
         -5    1    3    3    0  502  0.43104740131E+02 -0.12067989305E+02  0.17637288407E+02  0.48292870384E+02  0.41800000000E+01 0. -1.
        -11    1    1    2    0    0 -0.77650424396E+01  0.20866336139E+02  0.36917039331E+02  0.43111108324E+02  0.00000000000E+00 0.  1.
         11    1    1    2    0    0  0.48363584145E+02  0.52898862730E+02 -0.35841883751E+02  0.80137173523E+02  0.00000000000E+00 0. -1.
</event>
<event>
 7    1  0.2733606E-009  0.1208760E+03  0.7561462E-02  0.1241659E+00
          1   -1    0    0  501    0  0.00000000000E+00  0.00000000000E+00  0.21530368345E+03  0.21530368345E+03  0.00000000000E+00 0. -1.
         -1   -1    0    0    0  501 -0.00000000000E+00 -0.00000000000E+00 -0.71096651860E+02  0.71096651860E+02  0.00000000000E+00 0.  1.
         25    2    1    2    0    0  0.37816236704E+02 -0.41888813589E+02  0.68719954989E+02  0.15347601789E+03  0.12509082856E+03 0.  0.
          5    1    3    3  502    0 -0.43331708088E+02  0.32207418315E+01  0.28998757062E+02  0.52406205882E+02  0.41800000000E+01 0.  1.
         -5    1    3    3    0  502  0.81147944793E+02 -0.45109555420E+02  0.39721197927E+02  0.10106981201E+03  0.41800000000E+01 0.  1.
        -11    1    1    2    0    0  0.56200270436E+01  0.58418126928E+02  0.60016788855E+02  0.83942106253E+02  0.00000000000E+00 0.  1.
         11    1    1    2    0    0 -0.43436263748E+02 -0.16529313339E+02  0.15470287743E+02  0.48982211166E+02  0.00000000000E+00 0. -1.
</event>
<event>
 7    1  0.2733606E-009  0.7518080E+02  0.7561462E-02  0.1343312E+00
          1   -1    0    0  501    0  0.00000000000E+00  0.00000000000E+00  0.10033919383E+03  0.10033919383E+03  0.00000000000E+00 0. -1.
         -1   -1    0    0    0  501 -0.00000000000E+00 -0.00000000000E+00 -0.13319959029E+03  0.13319959029E+03  0.00000000000E+00 0.  1.
         25    2    1    2    0    0 -0.37650979951E+02  0.31461040741E+01 -0.38660600839E+02  0.13627077407E+03  0.12509031756E+03 0.  0.
          5    1    3    3  502    0 -0.26760242995E+02  0.25992403538E+02  0.39210652534E+02  0.54283177126E+02  0.41800000000E+01 0. -1.
         -5    1    3    3    0  502 -0.10890736956E+02 -0.22846299464E+02 -0.77871253373E+02  0.81987596943E+02  0.41800000000E+01 0. -1.
        -11    1    1    2    0    0  0.92611372148E+01 -0.39768475595E+02 -0.18633220151E+02  0.44883150590E+02  0.00000000000E+00 0.  1.
         11    1    1    2    0    0  0.28389842736E+02  0.36622371521E+02  0.24433424528E+02  0.52384859459E+02  0.00000000000E+00 0. -1.
</event>
<event>
 7    1  0.2733606E-009  0.2267850E+03  0.7561462E-02  0.1128923E+00
         -2   -1    0    0    0  501 -0.00000000000E+00  0.00000000000E+00  0.70585830107E+03  0.70585830107E+03  0.00000000000E+00 0.  1.
          2   -1    0    0  501    0  0.00000000000E+00 -0.00000000000E+00 -0.88151794222E+02  0.88151794222E+02  0.00000000000E+00 0. -1.
         25    2    1    2    0    0  0.25997759989E+01  0.21860303174E+03  0.23928949647E+03  0.34742078638E+03  0.12509074852E+03 0.  0.
          5    1    3    3  502    0  0.33131447865E+02  0.14000314800E+03  0.74048681120E+02  0.16186183572E+03  0.41800000000E+01 0. -1.
         -5    1    3    3    0  502 -0.30531671866E+02  0.78599883740E+02  0.16524081535E+03  0.18555895066E+03  0.41800000000E+01 0. -1.
        -11    1    1    2    0    0  0.15916805466E+02 -0.19139737002E+02  0.10337350290E+03  0.10632852548E+03  0.00000000000E+00 0.  1.
         11    1    1    2    0    0 -0.18516581465E+02 -0.19946329474E+03  0.27504350748E+03  0.34026078344E+03  0.00000000000E+00 0. -1.
</event>
<event>
 7    1  0.2733606E-009  0.6574815E+02  0.7561462E-02  0.1375179E+00
          1   -1    0    0  501    0  0.00000000000E+00  0.00000000000E+00  0.13244053661E+03  0.13244053661E+03  0.00000000000E+00 0. -1.
         -1   -1    0    0    0  501 -0.00000000000E+00 -0.00000000000E+00 -0.15622424954E+03  0.15622424954E+03  0.00000000000E+00 0.  1.
         25    2    1    2    0    0 -0.13520220301E+02 -0.47783544719E+02 -0.98078603532E+02  0.16653372343E+03  0.12509198642E+03 0.  0.
          5    1    3    3  502    0  0.79813947458E+01  0.51836143469E+01 -0.10788385625E+03  0.10838344596E+03  0.41800000000E+01 0.  1.
         -5    1    3    3    0  502 -0.21501615046E+02 -0.52967159066E+02  0.98052527171E+01  0.58150277471E+02  0.41800000000E+01 0.  1.
        -11    1    1    2    0    0  0.15144884164E+02 -0.80711801224E+00 -0.14445746172E+02  0.20945131614E+02  0.00000000000E+00 0.  1.
         11    1    1    2    0    0 -0.16246638637E+01  0.48590662731E+02  0.88740636781E+02  0.10118593111E+03  0.00000000000E+00 0. -1.
</event>
<event>
 7    1  0.2733606E-009  0.9835297E+02  0.7561462E-02  0.1283798E+00
         -2   -1    0    0    0  501 -0.00000000000E+00  0.00000000000E+00  0.62353684409E+02  0.62353684409E+02  0.00000000000E+00 0.  1.
          2   -1    0    0  501    0  0.00000000000E+00 -0.00000000000E+00 -0.48404069016E+03  0.48404069016E+03  0.00000000000E+00 0. -1.
         25    2    1    2    0    0  0.17585229611E+02 -0.58813608250E+02 -0.41519354481E+03  0.43795238088E+03  0.12509327500E+03 0.  0.
          5    1    3    3  502    0  0.49094972581E+02 -0.12545984539E+02 -0.34175883241E+03  0.34552031776E+03  0.41800000000E+01 0. -1.
         -5    1    3    3    0  502 -0.31509742971E+02 -0.46267623712E+02 -0.73434712406E+02  0.92432063118E+02  0.41800000000E+01 0. -1.
        -11    1    1    2    0    0  0.10678917594E+02  0.60478435901E+02  0.24807876301E+02  0.66235271695E+02  0.00000000000E+00 0.  1.
         11    1    1    2    0    0 -0.28264147205E+02 -0.16648276502E+01 -0.31301337243E+02  0.42206721994E+02  0.00000000000E+00 0. -1.
</event>
<event>
 7    1  0.2733606E-009  0.1457246E+03  0.7561462E-02  0.1205827E+00
         -1   -1    0    0    0  501 -0.00000000000E+00  0.00000000000E+00  0.55930953705E+02  0.55930953705E+02  0.00000000000E+00 0.  1.
          1   -1    0    0  501    0  0.00000000000E+00 -0.00000000000E+00 -0.54839200635E+03  0.54839200635E+03  0.00000000000E+00 0. -1.
         25    2    1    2    0    0 -0.58362260165E+02  0.12133380106E+03 -0.21468886701E+03  0.28260688181E+03  0.12508914954E+03 0.  0.
          5    1    3    3  502    0  0.56226278866E+01  0.76336587368E+02 -0.30590560159E+02  0.82535709158E+02  0.41800000000E+01 0.  1.
         -5    1    3    3    0  502 -0.63984888052E+02  0.44997213696E+02 -0.18409830685E+03  0.20007117265E+03  0.41800000000E+01 0.  1.
        -11    1    1    2    0    0  0.19712143862E+02 -0.66577297874E+02 -0.22770791902E+03  0.23805881961E+03  0.00000000000E+00 0.  1.
         11    1    1    2    0    0  0.38650116304E+02 -0.54756503190E+02 -0.50064266612E+02  0.83657258641E+02  0.00000000000E+00 0. -1.
</event>
<event>
 7    1  0.2733606E-009  0.1603720E+03  0.7561462E-02  0.1188277E+00
         -2   -1    0    0    0  501 -0.00000000000E+00  0.00000000000E+00  0.12585868735E+03  0.12585868735E+03  0.00000000000E+00 0.  1.
          2   -1    0    0  501    0  0.00000000000E+00 -0.00000000000E+00 -0.29767133110E+03  0.29767133110E+03  0.00000000000E+00 0. -1.
         25    2    1    2    0    0  0.11634437682E+03  0.37768790984E+02 -0.20268278339E+03  0.26775073429E+03  0.12509056496E+03 0.  0.
          5    1    3    3  502    0 -0.22851016563E+02 -0.12123288177E+02 -0.40516131004E+02  0.48251138284E+02  0.41800000000E+01 0. -1.
         -5    1    3    3    0  502  0.13919539339E+03  0.49892079160E+02 -0.16216665238E+03  0.21949959601E+03  0.41800000000E+01 0. -1.
        -11    1    1    2    0    0 -0.14277811679E+02  0.23553749467E+02 -0.10860013168E+02  0.29607007723E+02  0.00000000000E+00 0. -1.
         11    1    1    2    0    0 -0.10206656515E+03 -0.61322540451E+02  0.41730152804E+02  0.12617227644E+03  0.00000000000E+00 0.  1.
</event>
<event>
 7    1  0.2733606E-009  0.2645486E+03  0.7561462E-02  0.1104441E+00
          1   -1    0    0  501    0  0.00000000000E+00  0.00000000000E+00  0.10909545082E+04  0.10909545082E+04  0.00000000000E+00 0. -1.
         -1   -1    0    0    0  501 -0.00000000000E+00 -0.00000000000E+00 -0.69610177020E+02  0.69610177020E+02  0.00000000000E+00 0.  1.
         25    2    1    2    0    0  0.10766270842E+01  0.25266382332E+03  0.53166970062E+03  0.60179783912E+03  0.12509117422E+03 0.  0.
          5    1    3    3  502    0 -0.29535209990E+02  0.10899794859E+03  0.12069525860E+03  0.16534116026E+03  0.41800000000E+01 0.  1.
         -5    1    3    3    0  502  0.30611837075E+02  0.14366587473E+03  0.41097444202E+03  0.43645667886E+03  0.41800000000E+01 0.  1.
        -11    1    1    2    0    0  0.40018634100E+02 -0.59853008142E+02  0.12957879148E+03  0.14823810866E+03  0.00000000000E+00 0. -1.
         11    1    1    2    0    0 -0.41095261185E+02 -0.19281081518E+03  0.36009583909E+03  0.41052873744E+03  0.00000000000E+00 0.  1.
</event>
<event>
 7    1  0.2733606E-009  0.1456079E+03  0.7561462E-02  0.1205976E+00
         -2   -1    0    0    0  501 -0.00000000000E+00  0.00000000000E+00  0.29305823023E+02  0.29305823023E+02  0.00000000000E+00 0. -1.
          2   -1    0    0  501    0  0.00000000000E+00 -0.00000000000E+00 -0.92947808401E+03  0.92947808401E+03  0.00000000000E+00 0.  1.
         25    2    1    2    0    0  0.10804844667E+03  0.70952611981E+02 -0.55017901213E+03  0.57883803380E+03  0.12509110282E+03 0.  0.
          5    1    3    3  502    0  0.99745446758E+02  0.93568846549E+02 -0.52925367356E+03  0.54665455872E+03  0.41800000000E+01 0.  1.
         -5    1    3    3    0  502  0.83029999131E+01 -0.22616234568E+02 -0.20925338567E+02  0.32183475073E+02  0.41800000000E+01 0.  1.
        -11    1    1    2    0    0 -0.48618371267E+02 -0.24129335106E+02 -0.24247308082E+03  0.24847367217E+03  0.00000000000E+00 0.  1.
         11    1    1    2    0    0 -0.59430075404E+02 -0.46823276876E+02 -0.10752016804E+03  0.13147220107E+03  0.00000000000E+00 0. -1.
</event>
<event>
 7    1  0.2733606E-009  0.8637753E+02  0.7561462E-02  0.1311869E+00
         -2   -1    0    0    0  501 -0.00000000000E+00  0.00000000000E+00  0.26161581413E+03  0.26161581413E+03  0.00000000000E+00 0.  1.
          2   -1    0    0  501    0  0.00000000000E+00 -0.00000000000E+00 -0.49807672296E+02  0.49807672296E+02  0.00000000000E+00 0. -1.
         25    2    1    2    0    0  0.12744407616E+02  0.31299136965E+02  0.13077139198E+03  0.18408658465E+03  0.12507860644E+03 0.  0.
          5    1    3    3  502    0 -0.16793668289E+02 -0.24898852166E+02  0.11445343872E+03  0.11840203617E+03  0.41800000000E+01 0. -1.
         -5    1    3    3    0  502  0.29538075906E+02  0.56197989131E+02  0.16317953255E+02  0.65684548480E+02  0.41800000000E+01 0. -1.
        -11    1    1    2    0    0 -0.29536858100E+02  0.12368606579E+02 -0.19385499087E+01  0.32080623293E+02  0.00000000000E+00 0. -1.
         11    1    1    2    0    0  0.16792450483E+02 -0.43667743545E+02  0.82975299770E+02  0.95256278488E+02  0.00000000000E+00 0.  1.
</event>
<event>
 7    1  0.2733606E-009  0.1454414E+03  0.7561462E-02  0.1206189E+00
          2   -1    0    0  501    0  0.00000000000E+00  0.00000000000E+00  0.34726467260E+03  0.34726467260E+03  0.00000000000E+00 0. -1.
         -2   -1    0    0    0  501 -0.00000000000E+00 -0.00000000000E+00 -0.63692697173E+02  0.63692697173E+02  0.00000000000E+00 0.  1.
         25    2    1    2    0    0 -0.97094481541E+02  0.17536645649E+02  0.12252491400E+03  0.20098322810E+03  0.12508809352E+03 0.  0.
          5    1    3    3  502    0 -0.75536450607E+02  0.69556550247E+02  0.82173631267E+02  0.13158209273E+03  0.41800000000E+01 0. -1.
         -5    1    3    3    0  502 -0.21558030934E+02 -0.52019904598E+02  0.40351282732E+02  0.69401135367E+02  0.41800000000E+01 0. -1.
        -11    1    1    2    0    0  0.66449140986E+02 -0.52842313128E+02  0.12421985145E+03  0.15046052602E+03  0.00000000000E+00 0. -1.
         11    1    1    2    0    0  0.30645340555E+02  0.35305667479E+02  0.36827209976E+02  0.59513615656E+02  0.00000000000E+00 0.  1.
</event>
<event>
 7    1  0.2733606E-009  0.7922751E+02  0.7561462E-02  0.1331258E+00
         -3   -1    0    0    0  501 -0.00000000000E+00  0.00000000000E+00  0.10827125172E+03  0.10827125172E+03  0.00000000000E+00 0.  1.
          3   -1    0    0  501    0  0.00000000000E+00 -0.00000000000E+00 -0.12282035916E+03  0.12282035916E+03  0.00000000000E+00 0. -1.
         25    2    1    2    0    0  0.12618140220E+02  0.17066386365E+02 -0.42013821678E+02  0.13364568421E+03  0.12508208780E+03 0.  0.
          5    1    3    3  502    0  0.10767396529E+02 -0.42027141983E+02 -0.57722127905E+02  0.72329343570E+02  0.41800000000E+01 0.  1.
         -5    1    3    3    0  502  0.18507436910E+01  0.59093528348E+02  0.15708306228E+02  0.61316340639E+02  0.41800000000E+01 0.  1.
        -11    1    1    2    0    0 -0.28777151463E+02  0.39952956184E+01 -0.25206176062E+02  0.38463465068E+02  0.00000000000E+00 0. -1.
         11    1    1    2    0    0  0.16159011243E+02 -0.21061681983E+02  0.52670890299E+02  0.58982461607E+02  0.00000000000E+00 0.  1.
</event>
<event>
 7    1  0.2733606E-009  0.1119915E+03  0.7561462E-02  0.1256926E+00
          1   -1    0    0  501    0  0.00000000000E+00  0.00000000000E+00  0.82338703116E+03  0.82338703116E+03  0.00000000000E+00 0. -1.
         -1   -1    0    0    0  501 -0.00000000000E+00 -0.00000000000E+00 -0.16433689879E+02  0.16433689879E+02  0.00000000000E+00 0.  1.
         25    2    1    2    0    0  0.21536593339E+02  0.33183638180E+02  0.38411123185E+03  0.40589948122E+03  0.12509185316E+03 0.  0.
          5    1    3    3  502    0  0.50546051459E+02  0.66008626245E+02  0.29492092886E+03  0.30644390797E+03  0.41800000000E+01 0.  1.
         -5    1    3    3    0  502 -0.29009458120E+02 -0.32824988066E+02  0.89190302997E+02  0.99455573251E+02  0.41800000000E+01 0.  1.
        -11    1    1    2    0    0  0.13393359661E+02 -0.54292967846E+02  0.21842878862E+03  0.22547337790E+03  0.00000000000E+00 0. -1.
         11    1    1    2    0    0 -0.34929953000E+02  0.21109329667E+02  0.20441332080E+03  0.20844786192E+03  0.00000000000E+00 0.  1.
</event>
<event>
 7    1  0.2733606E-009  0.1109167E+03  0.7561462E-02  0.1258882E+00
         -1   -1    0    0    0  501 -0.00000000000E+00  0.00000000000E+00  0.80770275758E+02  0.80770275758E+02  0.00000000000E+00 0.  1.
          1   -1    0    0  501    0  0.00000000000E+00 -0.00000000000E+00 -0.26899000141E+03  0.26899000141E+03  0.00000000000E+00 0. -1.
         25    2    1    2    0    0 -0.72452787007E+01 -0.37229002086E+02 -0.21068734072E+03  0.24794107620E+03  0.12508848496E+03 0.  0.
          5    1    3    3  502    0 -0.50148503132E+02 -0.57588202370E+02 -0.89558705477E+02  0.11776887341E+03  0.41800000000E+01 0. -1.
         -5    1    3    3    0  502  0.42903224432E+02  0.20359200284E+02 -0.12112863524E+03  0.13017220278E+03  0.41800000000E+01 0. -1.
        -11    1    1    2    0    0  0.48621559234E+02  0.16048606901E+02  0.20921590157E+02  0.55311180972E+02  0.00000000000E+00 0. -1.
         11    1    1    2    0    0 -0.41376280533E+02  0.21180395185E+02  0.15460249090E+01  0.46508019996E+02  0.00000000000E+00 0.  1.
</event>
<event>
 7    1  0.2733606E-009  0.1234541E+03  0.7561462E-02  0.1237505E+00
          2   -1    0    0  501    0  0.00000000000E+00  0.00000000000E+00  0.25209895493E+02  0.25209895493E+02  0.00000000000E+00 0.  1.
         -2   -1    0    0    0  501 -0.00000000000E+00 -0.00000000000E+00 -0.76814074239E+03  0.76814074239E+03  0.00000000000E+00 0. -1.
         25    2    1    2    0    0  0.51861630321E+02 -0.70219102725E+02 -0.43714643229E+03  0.46299779555E+03  0.12509837864E+03 0.  0.
          5    1    3    3  502    0  0.78200158438E+02 -0.47341911927E+02 -0.16572270689E+03  0.18930929555E+03  0.41800000000E+01 0. -1.
         -5    1    3    3    0  502 -0.26338528116E+02 -0.22877190798E+02 -0.27142372540E+03  0.27368850000E+03  0.41800000000E+01 0. -1.
        -11    1    1    2    0    0 -0.36294705853E+02 -0.10716273625E+02 -0.58302397243E+02  0.69507652224E+02  0.00000000000E+00 0. -1.
         11    1    1    2    0    0 -0.15566924468E+02  0.80935376350E+02 -0.24748201737E+03  0.26084519011E+03  0.00000000000E+00 0.  1.
</event>
<event>
 7    1  0.2964654E-009  0.1110109E+03  0.7561462E-02  0.1258709E+00
         -3   -1    0    0    0  501 -0.00000000000E+00  0.00000000000E+00  0.49113774666E+02  0.49113774666E+02  0.00000000000E+00 0.  1.
          3   -1    0    0  501    0  0.00000000000E+00 -0.00000000000E+00 -0.34506878985E+03  0.34506878985E+03  0.00000000000E+00 0. -1.
         25    2    1    2    0    0 -0.51664840023E+02  0.11918214077E+02 -0.91476788738E+02  0.16379176911E+03  0.12509372978E+03 0.  0.
          5    1    3    3  502    0 -0.14499840123E+02  0.67238731713E+02 -0.50659109070E+02  0.85528417136E+02  0.41800000000E+01 0.  1.
         -5    1    3    3    0  502 -0.37164999900E+02 -0.55320517636E+02 -0.40817679668E+02  0.78263351976E+02  0.41800000000E+01 0.  1.
        -11    1    1    2    0    0  0.57126755626E+02 -0.32030457712E+02 -0.19802402767E+03  0.20857356487E+03  0.00000000000E+00 0. -1.
         11    1    1    2    0    0 -0.54619156033E+01  0.20112243635E+02 -0.64541987756E+01  0.21817230528E+02  0.00000000000E+00 0.  1.
</event>
<event>
 7    1  0.2733606E-009  0.9457483E+02  0.7561462E-02  0.1292137E+00
         -2   -1    0    0    0  501 -0.00000000000E+00  0.00000000000E+00  0.54301055633E+02  0.54301055633E+02  0.00000000000E+00 0.  1.
          2   -1    0    0  501    0  0.00000000000E+00 -0.00000000000E+00 -0.29668608441E+03  0.29668608441E+03  0.00000000000E+00 0. -1.
         25    2    1    2    0    0  0.48207771963E+02 -0.25915169672E+02 -0.18583544115E+03  0.23059803123E+03  0.12508019635E+03 0.  0.
          5    1    3    3  502    0  0.88539021983E+01  0.24547026263E+02 -0.15883074711E+03  0.16101436802E+03  0.41800000000E+01 0.  1.
         -5    1    3    3    0  502  0.39353869765E+02 -0.50462195935E+02 -0.27004694043E+02  0.69583663201E+02  0.41800000000E+01 0.  1.
        -11    1    1    2    0    0 -0.62651512464E+02 -0.66148312210E+01 -0.56757397897E+02  0.84796050746E+02  0.00000000000E+00 0.  1.
         11    1    1    2    0    0  0.14443740500E+02  0.32530000893E+02  0.20781027545E+00  0.35593058071E+02  0.00000000000E+00 0. -1.
</event>
<event>
 7    1  0.2733606E-009  0.8662548E+02  0.7561462E-02  0.1311236E+00
         -4   -1    0    0    0  501 -0.00000000000E+00  0.00000000000E+00  0.14212285717E+03  0.14212285717E+03  0.00000000000E+00 0. -1.
          4   -1    0    0  501    0  0.00000000000E+00 -0.00000000000E+00 -0.97760490250E+02  0.97760490250E+02  0.00000000000E+00 0.  1.
         25    2    1    2    0    0 -0.50083330262E+01 -0.34313496288E+02  0.56261820797E+02  0.14147516026E+03  0.12508928437E+03 0.  0.
          5    1    3    3  502    0 -0.27271292274E+02  0.15801484375E+02 -0.26984961934E+02  0.41702168545E+02  0.41800000000E+01 0.  1.
         -5    1    3    3    0  502  0.22262959248E+02 -0.50114980663E+02  0.83246782731E+02  0.99772991718E+02  0.41800000000E+01 0.  1.
        -11    1    1    2    0    0 -0.31404827205E+02 -0.61748556671E+01 -0.27028277738E+02  0.41891763054E+02  0.00000000000E+00 0.  1.
         11    1    1    2    0    0  0.36413160232E+02  0.40488351955E+02  0.15128823862E+02  0.56516424104E+02  0.00000000000E+00 0. -1.
</event>
<event>
 7    1  0.2733606E-009  0.9585014E+02  0.7561462E-02  0.1289273E+00
          1   -1    0    0  501    0  0.00000000000E+00  0.00000000000E+00  0.33916015270E+02  0.33916015270E+02  0.00000000000E+00 0. -1.
         -1   -1    0    0    0  501 -0.00000000000E+00 -0.00000000000E+00 -0.45411884389E+03  0.45411884389E+03  0.00000000000E+00 0.  1.
         25    2    1    2    0    0 -0.11587544750E+02 -0.40087815358E+02 -0.14338569729E+03  0.19480196574E+03  0.12508814306E+03 0.  0.
          5    1    3    3  502    0  0.16792685356E+02 -0.75903649761E+02 -0.12065904988E+03  0.14359469714E+03  0.41800000000E+01 0. -1.
         -5    1    3    3    0  502 -0.28380230106E+02  0.35815834403E+02 -0.22726647407E+02  0.51207268598E+02  0.41800000000E+01 0. -1.
        -11    1    1    2    0    0  0.29001020379E+02  0.41345284078E+02 -0.26968594296E+03  0.27437383171E+03  0.00000000000E+00 0.  1.
         11    1    1    2    0    0 -0.17413475629E+02 -0.12574687200E+01 -0.71311883768E+01  0.18859061714E+02  0.00000000000E+00 0. -1.
</event>
<event>
 7    1  0.2733606E-009  0.1673438E+03  0.7561462E-02  0.1180646E+00
          2   -1    0    0  501    0  0.00000000000E+00  0.00000000000E+00  0.53898526621E+03  0.53898526621E+03  0.00000000000E+00 0. -1.
         -2   -1    0    0    0  501 -0.00000000000E+00 -0.00000000000E+00 -0.10945532032E+03  0.10945532032E+03  0.00000000000E+00 0.  1.
         25    2    1    2    0    0 -0.34388259563E+02 -0.15634008560E+03  0.25844063332E+02  0.20478287084E+03  0.12507331377E+03 0.  0.
          5    1    3    3  502    0 -0.38794871382E+02 -0.74364670650E+02  0.71904825325E+02  0.11055732717E+03  0.41800000000E+01 0. -1.
         -5    1    3    3    0  502  0.44066118195E+01 -0.81975414948E+02 -0.46060761992E+02  0.94225543665E+02  0.41800000000E+01 0. -1.
        -11    1    1    2    0    0 -0.10529218285E+02  0.73709674370E+02  0.93488014467E+02  0.11951564493E+03  0.00000000000E+00 0.  1.
         11    1    1    2    0    0  0.44917477848E+02  0.82630411228E+02  0.31019786809E+03  0.32414207077E+03  0.00000000000E+00 0. -1.
</event>
<event>
 7    1  0.2733606E-009  0.9482969E+02  0.7561462E-02  0.1291560E+00
          1   -1    0    0  501    0  0.00000000000E+00  0.00000000000E+00  0.25431988507E+03  0.25431988507E+03  0.00000000000E+00 0. -1.
         -1   -1    0    0    0  501 -0.00000000000E+00 -0.00000000000E+00 -0.53121695079E+02  0.53121695079E+02  0.00000000000E+00 0.  1.
         25    2    1    2    0    0 -0.55343344577E+01  0.39418866888E+02  0.13402572044E+03  0.18760383307E+03  0.12509128074E+03 0.  0.
          5    1    3    3  502    0 -0.40804690283E+02  0.43748257971E+01 -0.34096400988E+01  0.41391543768E+02  0.41800000000E+01 0.  1.
         -5    1    3    3    0  502  0.35270355826E+02  0.35044041091E+02  0.13743536054E+03  0.14621228930E+03  0.41800000000E+01 0.  1.
        -11    1    1    2    0    0 -0.35710934811E+02 -0.44387630501E+02  0.31608346794E+02  0.65150749755E+02  0.00000000000E+00 0.  1.
         11    1    1    2    0    0  0.41245269268E+02  0.49687636131E+01  0.35564122749E+02  0.54686997319E+02  0.00000000000E+00 0. -1.
</event>
<event>
 7    1  0.2733606E-009  0.1944287E+03  0.7561462E-02  0.1154527E+00
          2   -1    0    0  501    0  0.00000000000E+00  0.00000000000E+00  0.81091137003E+02  0.81091137003E+02  0.00000000000E+00 0. -1.
         -2   -1    0    0    0  501 -0.00000000000E+00 -0.00000000000E+00 -0.50744437946E+03  0.50744437946E+03  0.00000000000E+00 0.  1.
         25    2    1    2    0    0  0.16510093759E+03 -0.28730737293E+02 -0.17646828206E+03  0.27362487768E+03  0.12508294949E+03 0.  0.
          5    1    3    3  502    0  0.18067859858E+03 -0.42597536965E+02 -0.16902438672E+03  0.25108966894E+03  0.41800000000E+01 0. -1.
         -5    1    3    3    0  502 -0.15577660994E+02  0.13866799672E+02 -0.74438953391E+01  0.22535208741E+02  0.41800000000E+01 0. -1.
        -11    1    1    2    0    0 -0.72453736928E+02 -0.22720540363E+02 -0.57421951390E+02  0.95200039132E+02  0.00000000000E+00 0. -1.
         11    1    1    2    0    0 -0.92647200661E+02  0.51451277656E+02 -0.19246300900E+03  0.21971059965E+03  0.00000000000E+00 0.  1.
</event>
<event>
 7    1  0.2733606E-009  0.1077231E+03  0.7561462E-02  0.1264845E+00
          2   -1    0    0  501    0  0.00000000000E+00  0.00000000000E+00  0.51742031287E+03  0.51742031287E+03  0.00000000000E+00 0.  1.
         -2   -1    0    0    0  501 -0.00000000000E+00 -0.00000000000E+00 -0.23370055032E+02  0.23370055032E+02  0.00000000000E+00 0. -1.
         25    2    1    2    0    0  0.18212057447E+02 -0.59393928080E+01  0.29639149977E+03  0.32227375549E+03  0.12508196082E+03 0.  0.
          5    1    3    3  502    0 -0.47972781315E+02 -0.23833454080E+02  0.90740821509E+02  0.10545515809E+03  0.41800000000E+01 0.  1.
         -5    1    3    3    0  502  0.66184838762E+02  0.17894061272E+02  0.20565067826E+03  0.21681859740E+03  0.41800000000E+01 0.  1.
        -11    1    1    2    0    0 -0.11562432709E+02 -0.42545759285E+02  0.99701748850E+02  0.10901499992E+03  0.00000000000E+00 0. -1.
         11    1    1    2    0    0 -0.66496247383E+01  0.48485152093E+02  0.97957009226E+02  0.10950161250E+03  0.00000000000E+00 0.  1.
</event>
<event>
 7    1  0.2733606E-009  0.2055507E+03  0.7561462E-02  0.1145139E+00
         -1   -1    0    0    0  501 -0.00000000000E+00  0.00000000000E+00  0.67004266109E+03  0.67004266109E+03  0.00000000000E+00 0.  1.
          1   -1    0    0  501    0  0.00000000000E+00 -0.00000000000E+00 -0.68573444037E+02  0.68573444037E+02  0.00000000000E+00 0. -1.
         25    2    1    2    0    0 -0.14842319707E+02 -0.18216572750E+03  0.27986213619E+03  0.35689747596E+03  0.12509335052E+03 0.  0.
          5    1    3    3  502    0 -0.68277361706E+02 -0.74095176617E+02  0.12850716913E+03  0.16335072157E+03  0.41800000000E+01 0. -1.
         -5    1    3    3    0  502  0.53435041999E+02 -0.10807055089E+03  0.15135496707E+03  0.19354675440E+03  0.41800000000E+01 0. -1.
        -11    1    1    2    0    0 -0.18687720399E+02  0.53779749111E+02  0.17476456280E+03  0.18380463737E+03  0.00000000000E+00 0.  1.
         11    1    1    2    0    0  0.33530040105E+02  0.12838597839E+03  0.14684251806E+03  0.19791399179E+03  0.00000000000E+00 0. -1.
</event>
<event>
 7    1  0.2733606E-009  0.9031345E+02  0.7561462E-02  0.1302094E+00
          2   -1    0    0  501    0  0.00000000000E+00  0.00000000000E+00  0.79752720964E+02  0.79752720964E+02  0.00000000000E+00 0. -1.
         -2   -1    0    0    0  501 -0.00000000000E+00 -0.00000000000E+00 -0.21863490075E+03  0.21863490075E+03  0.00000000000E+00 0.  1.
         25    2    1    2    0    0  0.45320898733E+02 -0.42614477727E+02 -0.29922027357E+02  0.14287120818E+03  0.12508747672E+03 0.  0.
          5    1    3    3  502    0  0.39497910059E+02 -0.62871228053E+02  0.29255051291E+02  0.79913745013E+02  0.41800000000E+01 0.  1.
         -5    1    3    3    0  502  0.58229886742E+01  0.20256750326E+02 -0.59177078648E+02  0.62957463165E+02  0.41800000000E+01 0.  1.
        -11    1    1    2    0    0  0.10676047337E+02  0.23143868184E+02  0.59868600657E+01  0.26181274123E+02  0.00000000000E+00 0. -1.
         11    1    1    2    0    0 -0.55996946071E+02  0.19470609543E+02 -0.11494701249E+03  0.12933513941E+03  0.00000000000E+00 0.  1.
</event>
<event>
 7    1  0.2733606E-009  0.1189937E+03  0.7561462E-02  0.1244766E+00
         -2   -1    0    0    0  501 -0.00000000000E+00  0.00000000000E+00  0.16029822546E+03  0.16029822546E+03  0.00000000000E+00 0.  1.
          2   -1    0    0  501    0  0.00000000000E+00 -0.00000000000E+00 -0.14850029621E+03  0.14850029621E+03  0.00000000000E+00 0. -1.
         25    2    1    2    0    0  0.87049086107E+02 -0.84223695612E+01 -0.56105256095E+02  0.16262235799E+03  0.12509896825E+03 0.  0.
          5    1    3    3  502    0 -0.10300419565E+02 -0.13149811943E+02  0.28628118795E+02  0.33407451011E+02  0.41800000000E+01 0.  1.
         -5    1    3    3    0  502  0.97349505672E+02  0.47274423820E+01 -0.84733374890E+02  0.12921490698E+03  0.41800000000E+01 0.  1.
        -11    1    1    2    0    0  0.10493502062E+00  0.32733404416E+02  0.39587352477E+02  0.51367745251E+02  0.00000000000E+00 0.  1.
         11    1    1    2    0    0 -0.87154021128E+02 -0.24311034855E+02  0.28315832865E+02  0.94808418430E+02  0.00000000000E+00 0. -1.
</event>
<event>
 7    1  0.2733606E-009  0.1181168E+03  0.7561462E-02  0.1246236E+00
          2   -1    0    0  501    0  0.00000000000E+00  0.00000000000E+00  0.91335108474E+03  0.91335108474E+03  0.00000000000E+00 0. -1.
         -2   -1    0    0    0  501 -0.00000000000E+00 -0.00000000000E+00 -0.19358447867E+02  0.19358447867E+02  0.00000000000E+00 0.  1.
         25    2    1    2    0    0  0.39162251473E+02 -0.46543181536E+02  0.65851182261E+03  0.67304201504E+03  0.12509110204E+03 0.  0.
          5    1    3    3  502    0  0.57669619863E+02  0.19122759905E+02  0.18870513544E+03  0.19828909587E+03  0.41800000000E+01 0.  1.
         -5    1    3    3    0  502 -0.18507368391E+02 -0.65665941441E+02  0.46980668717E+03  0.47475291917E+03  0.41800000000E+01 0.  1.
        -11    1    1    2    0    0 -0.32345133996E+02  0.72901525820E+02  0.14900142296E+03  0.16900374021E+03  0.00000000000E+00 0. -1.
         11    1    1    2    0    0 -0.68171174768E+01 -0.26358344284E+02  0.86479391298E+02  0.90663777350E+02  0.00000000000E+00 0.  1.
</event>
<event>
 7    1  0.2733606E-009  0.1093022E+03  0.7561462E-02  0.1261868E+00
         -1   -1    0    0    0  501 -0.00000000000E+00  0.00000000000E+00  0.14379935333E+03  0.14379935333E+03  0.00000000000E+00 0.  1.
          1   -1    0    0  501    0  0.00000000000E+00 -0.00000000000E+00 -0.12184266477E+03  0.12184266477E+03  0.00000000000E+00 0. -1.
         25    2    1    2    0    0  0.63382361719E+02  0.19147309215E+02 -0.21840786737E+02  0.14320733702E+03  0.12508948071E+03 0.  0.
          5    1    3    3  502    0  0.49570167028E+02 -0.44461940930E+02 -0.36930767939E+02  0.76258898962E+02  0.41800000000E+01 0.  1.
         -5    1    3    3    0  502  0.13812194691E+02  0.63609250145E+02  0.15089981202E+02  0.66948438061E+02  0.41800000000E+01 0.  1.
        -11    1    1    2    0    0 -0.50643198364E+02  0.12825132740E+02 -0.14958008618E+02  0.54341140880E+02  0.00000000000E+00 0. -1.
         11    1    1    2    0    0 -0.12739163355E+02 -0.31972441955E+02  0.58755483909E+02  0.68093540199E+02  0.00000000000E+00 0.  1.
</event>
<event>
 7    1  0.2733606E-009  0.1694730E+03  0.7561462E-02  0.1178399E+00
          1   -1    0    0  501    0  0.00000000000E+00  0.00000000000E+00  0.43150340904E+03  0.43150340904E+03  0.00000000000E+00 0. -1.
         -1   -1    0    0    0  501 -0.00000000000E+00 -0.00000000000E+00 -0.72887699698E+02  0.72887699698E+02  0.00000000000E+00 0.  1.
         25    2    1    2    0    0  0.40639302697E+02 -0.12709374827E+03  0.13110249256E+03  0.22503228595E+03  0.12508913779E+03 0.  0.
          5    1    3    3  502    0 -0.79891222761E+01 -0.12783760534E+03  0.67461642663E+02  0.14482687956E+03  0.41800000000E+01 0. -1.
         -5    1    3    3    0  502  0.48628424973E+02  0.74385706392E+00  0.63640849892E+02  0.80205406387E+02  0.41800000000E+01 0. -1.
        -11    1    1    2    0    0  0.39939328961E+01  0.11589076389E+03  0.15773346720E+03  0.19577146710E+03  0.00000000000E+00 0. -1.
         11    1    1    2    0    0 -0.44633235593E+02  0.11202984386E+02  0.69779749583E+02  0.83587355686E+02  0.00000000000E+00 0.  1.
</event>
<event>
 7    1  0.2733606E-009  0.1350409E+03  0.7561462E-02  0.1220162E+00
         -2   -1    0    0    0  501 -0.00000000000E+00  0.00000000000E+00  0.70365027388E+03  0.70365027388E+03  0.00000000000E+00 0.  1.
          2   -1    0    0  501    0  0.00000000000E+00 -0.00000000000E+00 -0.35487747181E+02  0.35487747181E+02  0.00000000000E+00 0. -1.
         25    2    1    2    0    0  0.16552445318E+02 -0.84031482951E+02  0.18169734973E+03  0.23663588928E+03  0.12508934256E+03 0.  0.
          5    1    3    3  502    0 -0.52816516107E+02 -0.33503353288E+02  0.10031339122E+03  0.11828908620E+03  0.41800000000E+01 0. -1.
         -5    1    3    3    0  502  0.69368961425E+02 -0.50528129663E+02  0.81383958503E+02  0.11834680307E+03  0.41800000000E+01 0. -1.
        -11    1    1    2    0    0  0.17914622907E+02  0.85124596649E+02  0.28078850429E+03  0.29395461352E+03  0.00000000000E+00 0. -1.
         11    1    1    2    0    0 -0.34467068225E+02 -0.10931136972E+01  0.20567667268E+03  0.20854751826E+03  0.00000000000E+00 0.  1.
</event>
<event>
 7    1  0.2733606E-009  0.1681286E+03  0.7561462E-02  0.1179814E+00
          2   -1    0    0  501    0  0.00000000000E+00  0.00000000000E+00  0.59739487923E+03  0.59739487923E+03  0.00000000000E+00 0.  1.
         -2   -1    0    0    0  501 -0.00000000000E+00 -0.00000000000E+00 -0.51822907974E+02  0.51822907974E+02  0.00000000000E+00 0. -1.
         25    2    1    2    0    0  0.11474582122E+03  0.72025248535E+02  0.27092752011E+03  0.32772680957E+03  0.12509556605E+03 0.  0.
          5    1    3    3  502    0  0.48651380494E+02 -0.26900895421E+02  0.42369478685E+02  0.70023282717E+02  0.41800000000E+01 0. -1.
         -5    1    3    3    0  502  0.66094440728E+02  0.98926143956E+02  0.22855804142E+03  0.25770352685E+03  0.41800000000E+01 0. -1.
        -11    1    1    2    0    0 -0.74817009953E+02 -0.90535258320E+02  0.23286838774E+03  0.26081009180E+03  0.00000000000E+00 0.  1.
         11    1    1    2    0    0 -0.39928811268E+02  0.18510009785E+02  0.41776063412E+02  0.60680885836E+02  0.00000000000E+00 0. -1.
</event>
<event>
 7    1  0.2733606E-009  0.1020324E+03  0.7561462E-02  0.1276079E+00
          2   -1    0    0  501    0  0.00000000000E+00  0.00000000000E+00  0.10555409595E+04  0.10555409595E+04  0.00000000000E+00 0. -1.
         -2   -1    0    0    0  501 -0.00000000000E+00 -0.00000000000E+00 -0.11791114996E+02  0.11791114996E+02  0.00000000000E+00 0.  1.
         25    2    1    2    0    0  0.95706777651E+01  0.39807438732E+01  0.71120485566E+03  0.72219541642E+03  0.12508568496E+03 0.  0.
          5    1    3    3  502    0  0.53384866121E+02  0.30926117934E+02  0.22780282871E+03  0.23604654174E+03  0.41800000000E+01 0. -1.
         -5    1    3    3    0  502 -0.43814188355E+02 -0.26945374061E+02  0.48340202695E+03  0.48614887467E+03  0.41800000000E+01 0. -1.
        -11    1    1    2    0    0 -0.30560440819E+02  0.34929149367E+02  0.20361491242E+03  0.20883730169E+03  0.00000000000E+00 0. -1.
         11    1    1    2    0    0  0.20989763054E+02 -0.38909893241E+02  0.12893007643E+03  0.13629935639E+03  0.00000000000E+00 0.  1.
</event>
<event>
 7    1  0.2733606E-009  0.2686259E+03  0.7561462E-02  0.1102069E+00
         -2   -1    0    0    0  501 -0.00000000000E+00  0.00000000000E+00  0.29854270544E+02  0.29854270544E+02  0.00000000000E+00 0. -1.
          2   -1    0    0  501    0  0.00000000000E+00 -0.00000000000E+00 -0.26776159321E+04  0.26776159321E+04  0.00000000000E+00 0.  1.
         25    2    1    2    0    0 -0.13862223837E+03 -0.21995552869E+03 -0.12731909639E+04  0.13054729586E+04  0.12509138778E+03 0.  0.
          5    1    3    3  502    0 -0.16373144363E+02 -0.57747954423E+02 -0.58033717260E+03  0.58344803745E+03  0.41800000000E+01 0. -1.
         -5    1    3    3    0  502 -0.12224909400E+03 -0.16220757427E+03 -0.69285379134E+03  0.72202492111E+03  0.41800000000E+01 0. -1.
        -11    1    1    2    0    0  0.11143300344E+02  0.94194493928E+02 -0.39819741427E+03  0.40933843767E+03  0.00000000000E+00 0. -1.
         11    1    1    2    0    0  0.12747893802E+03  0.12576103477E+03 -0.97637328334E+03  0.99265880640E+03  0.00000000000E+00 0.  1.
</event>
<event>
 7    1  0.2733606E-009  0.8382143E+02  0.7561462E-02  0.1318544E+00
         -2   -1    0    0    0  501 -0.00000000000E+00  0.00000000000E+00  0.85955245404E+02  0.85955245404E+02  0.00000000000E+00 0.  1.
          2   -1    0    0  501    0  0.00000000000E+00 -0.00000000000E+00 -0.14807034919E+03  0.14807034919E+03  0.00000000000E+00 0. -1.
         25    2    1    2    0    0  0.19053736025E+02  0.24631510015E+02 -0.24957663354E+02  0.13131631399E+03  0.12510528853E+03 0.  0.
          5    1    3    3  502    0  0.41737529068E+02  0.53175185730E+01  0.40953557987E+02  0.58863941835E+02  0.41800000000E+01 0.  1.
         -5    1    3    3    0  502 -0.22683793043E+02  0.19313991442E+02 -0.65911221341E+02  0.72452372155E+02  0.41800000000E+01 0.  1.
        -11    1    1    2    0    0 -0.40957718070E+02  0.19984973710E+02 -0.22889465398E+02  0.50998641843E+02  0.00000000000E+00 0.  1.
         11    1    1    2    0    0  0.21903982045E+02 -0.44616483725E+02 -0.14267975033E+02  0.51710638760E+02  0.00000000000E+00 0. -1.
</event>
<event>
 7    1  0.2733606E-009  0.3287181E+03  0.7561462E-02  0.1071705E+00
          2   -1    0    0  501    0  0.00000000000E+00  0.00000000000E+00  0.21305415768E+03  0.21305415768E+03  0.00000000000E+00 0.  1.
         -2   -1    0    0    0  501 -0.00000000000E+00 -0.00000000000E+00 -0.62296832141E+03  0.62296832141E+03  0.00000000000E+00 0. -1.
         25    2    1    2    0    0 -0.17564160554E+03 -0.19013693615E+03 -0.30932430270E+03  0.42229301854E+03  0.12509133136E+03 0.  0.
          5    1    3    3  502    0 -0.31902798970E+02 -0.25180991705E+02 -0.13930557575E+03  0.14517364348E+03  0.41800000000E+01 0.  1.
         -5    1    3    3    0  502 -0.14373880657E+03 -0.16495594445E+03 -0.17001872695E+03  0.27711937506E+03  0.41800000000E+01 0.  1.
        -11    1    1    2    0    0  0.24196444078E+03  0.56379660228E+02 -0.89293452751E+02  0.26400526017E+03  0.00000000000E+00 0. -1.
         11    1    1    2    0    0 -0.66322835245E+02  0.13375727592E+03 -0.11296408275E+02  0.14972420037E+03  0.00000000000E+00 0.  1.
</event>
<event>
 7    1  0.2733606E-009  0.1108615E+03  0.7561462E-02  0.1258983E+00
          2   -1    0    0  501    0  0.00000000000E+00  0.00000000000E+00  0.80778044932E+03  0.80778044932E+03  0.00000000000E+00 0. -1.
         -2   -1    0    0    0  501 -0.00000000000E+00 -0.00000000000E+00 -0.20106680707E+02  0.20106680707E+02  0.00000000000E+00 0.  1.
         25    2    1    2    0    0  0.31241891949E+02  0.54156967990E+02  0.51326986110E+03  0.53197918654E+03  0.12508745580E+03 0.  0.
          5    1    3    3  502    0 -0.25977392808E+02 -0.28678718939E+02  0.15464348291E+03  0.15946589938E+03  0.41800000000E+01 0. -1.
         -5    1    3    3    0  502  0.57219284757E+02  0.82835686929E+02  0.35862637819E+03  0.37251328716E+03  0.41800000000E+01 0. -1.
        -11    1    1    2    0    0 -0.44806959581E+02 -0.28747843115E+02  0.25656031309E+03  0.26202537351E+03  0.00000000000E+00 0. -1.
         11    1    1    2    0    0  0.13565067633E+02 -0.25409124874E+02  0.17843594428E+02  0.33882569986E+02  0.00000000000E+00 0.  1.
</event>
<event>
 7    1  0.2733606E-009  0.9476706E+02  0.7561462E-02  0.1291702E+00
         -2   -1    0    0    0  501 -0.00000000000E+00  0.00000000000E+00  0.10285755145E+03  0.10285755145E+03  0.00000000000E+00 0.  1.
          2   -1    0    0  501    0  0.00000000000E+00 -0.00000000000E+00 -0.13783687622E+03  0.13783687622E+03  0.00000000000E+00 0. -1.
         25    2    1    2    0    0  0.47282863342E+02  0.55897309655E+01 -0.74491671305E+01  0.13404436505E+03  0.12508192296E+03 0.  0.
          5    1    3    3  502    0  0.63568724448E+02 -0.20647313346E+02 -0.48369211908E+02  0.82609608018E+02  0.41800000000E+01 0. -1.
         -5    1    3    3    0  502 -0.16285861105E+02  0.26237044312E+02  0.40920044778E+02  0.51434757030E+02  0.41800000000E+01 0. -1.
        -11    1    1    2    0    0  0.36569377122E+01 -0.33241768815E+02  0.13046669391E+02  0.35897130381E+02  0.00000000000E+00 0.  1.
         11    1    1    2    0    0 -0.50939801055E+02  0.27652037849E+02 -0.40576827028E+02  0.70752932239E+02  0.00000000000E+00 0. -1.
</event>
<event>
 7    1  0.3993808E-009  0.2253980E+03  0.7561462E-02  0.1129921E+00
         -1   -1    0    0    0  501 -0.00000000000E+00  0.00000000000E+00  0.38646887184E+02  0.38646887184E+02  0.00000000000E+00 0.  1.
          1   -1    0    0  501    0  0.00000000000E+00 -0.00000000000E+00 -0.15172087024E+04  0.15172087024E+04  0.00000000000E+00 0. -1.
         25    2    1    2    0    0 -0.37098083874E+02  0.20692014427E+03 -0.92462852823E+03  0.95644025767E+03  0.12509131597E+03 0.  0.
          5    1    3    3  502    0 -0.63950845125E+02  0.92133172095E+02 -0.29034266351E+03  0.31127892098E+03  0.41800000000E+01 0. -1.
         -5    1    3    3    0  502  0.26852761251E+02  0.11478697217E+03 -0.63428586472E+03  0.64516133668E+03  0.41800000000E+01 0. -1.
        -11    1    1    2    0    0  0.55346720264E+02 -0.12545324545E+03 -0.26111900265E+03  0.29493204265E+03  0.00000000000E+00 0.  1.
         11    1    1    2    0    0 -0.18248636390E+02 -0.81466898823E+02 -0.29281428432E+03  0.30448328926E+03  0.00000000000E+00 0. -1.
</event>
<event>
 7    1  0.2733606E-009  0.1141600E+03  0.7561462E-02  0.1253054E+00
         -1   -1    0    0    0  501 -0.00000000000E+00  0.00000000000E+00  0.61737459775E+03  0.61737459775E+03  0.00000000000E+00 0.  1.
          1   -1    0    0  501    0  0.00000000000E+00 -0.00000000000E+00 -0.31755884188E+02  0.31755884188E+02  0.00000000000E+00 0. -1.
         25    2    1    2    0    0 -0.44853546661E+02 -0.75443193359E+02  0.33310457180E+03  0.36648223912E+03  0.12508820794E+03 0.  0.
          5    1    3    3  502    0 -0.62029911905E+02 -0.46329663060E+02  0.81150774169E+02  0.11223666156E+03  0.41800000000E+01 0. -1.
         -5    1    3    3    0  502  0.17176365244E+02 -0.29113530299E+02  0.25195379763E+03  0.25424557756E+03  0.41800000000E+01 0. -1.
        -11    1    1    2    0    0  0.65351268336E+02  0.69464247472E+02  0.14867176847E+03  0.17663341895E+03  0.00000000000E+00 0.  1.
         11    1    1    2    0    0 -0.20497721676E+02  0.59789458864E+01  0.10384237330E+03  0.10601482387E+03  0.00000000000E+00 0. -1.
</event>
<event>
 7    1  0.2733606E-009  0.1046162E+03  0.7561462E-02  0.1270878E+00
          1   -1    0    0  501    0  0.00000000000E+00  0.00000000000E+00  0.11119108438E+03  0.11119108438E+03  0.00000000000E+00 0. -1.
         -1   -1    0    0    0  501 -0.00000000000E+00 -0.00000000000E+00 -0.14757849158E+03  0.14757849158E+03  0.00000000000E+00 0.  1.
         25    2    1    2    0    0  0.39156308705E+02  0.52152675891E+02 -0.34360869954E+02  0.14519413443E+03  0.12509016418E+03 0.  0.
          5    1    3    3  502    0 -0.25208305896E+02 -0.12924026324E+01  0.30094575091E+02  0.39500441018E+02  0.41800000000E+01 0.  1.
         -5    1    3    3    0  502  0.64364614601E+02  0.53445078524E+02 -0.64455445046E+02  0.10569369341E+03  0.41800000000E+01 0.  1.
        -11    1    1    2    0    0 -0.62034255035E+02 -0.34477587850E+02  0.23752635764E+02  0.74840768084E+02  0.00000000000E+00 0. -1.
         11    1    1    2    0    0  0.22877946330E+02 -0.17675088042E+02 -0.25779173007E+02  0.38734673440E+02  0.00000000000E+00 0.  1.
</event>
<event>
 7    1  0.2733606E-009  0.1049382E+03  0.7561462E-02  0.1270241E+00
         -2   -1    0    0    0  501 -0.00000000000E+00  0.00000000000E+00  0.35712580490E+03  0.35712580490E+03  0.00000000000E+00 0.  1.
          2   -1    0    0  501    0  0.00000000000E+00 -0.00000000000E+00 -0.40339450974E+02  0.40339450974E+02  0.00000000000E+00 0. -1.
         25    2    1    2    0    0  0.50377241647E+01  0.77066762650E+01  0.26206099446E+03  0.29052913858E+03  0.12508574668E+03 0.  0.
          5    1    3    3  502    0  0.34876796823E+01  0.63527136252E+02  0.95687792058E+02  0.11498472463E+03  0.41800000000E+01 0.  1.
         -5    1    3    3    0  502  0.15500444823E+01 -0.55820459987E+02  0.16637320240E+03  0.17554441395E+03  0.41800000000E+01 0.  1.
        -11    1    1    2    0    0  0.36739552797E+02 -0.25487214703E+02  0.16764159360E+02  0.47753846883E+02  0.00000000000E+00 0. -1.
         11    1    1    2    0    0 -0.41777276962E+02  0.17780538438E+02  0.37961200111E+02  0.59182270414E+02  0.00000000000E+00 0.  1.
</event>
<event>
 7    1  0.2733606E-009  0.1046533E+03  0.7561462E-02  0.1270804E+00
          2   -1    0    0  501    0  0.00000000000E+00  0.00000000000E+00  0.26690012194E+03  0.26690012194E+03  0.00000000000E+00 0.  1.
         -2   -1    0    0    0  501 -0.00000000000E+00 -0.00000000000E+00 -0.68419220838E+02  0.68419220838E+02  0.00000000000E+00 0. -1.
         25    2    1    2    0    0 -0.94775302028E+00 -0.12285020317E+02  0.20706892171E+03  0.24223825327E+03  0.12510001217E+03 0.  0.
          5    1    3    3  502    0 -0.51973284093E+02  0.20684183722E+02  0.14414186652E+03  0.15467193604E+03  0.41800000000E+01 0.  1.
         -5    1    3    3    0  502  0.51025531073E+02 -0.32969204039E+02  0.62927055193E+02  0.87566317221E+02  0.41800000000E+01 0.  1.
        -11    1    1    2    0    0  0.30002460670E+02 -0.29071320461E+02  0.21894597396E+00  0.41777233716E+02  0.00000000000E+00 0. -1.
         11    1    1    2    0    0 -0.29054707650E+02  0.41356340778E+02 -0.88069665856E+01  0.51303855797E+02  0.00000000000E+00 0.  1.
</event>
<event>
 7    1  0.2733606E-009  0.7406750E+02  0.7561462E-02  0.1346783E+00
          1   -1    0    0  501    0  0.00000000000E+00  0.00000000000E+00  0.16515523249E+03  0.16515523249E+03  0.00000000000E+00 0. -1.
         -1   -1    0    0    0  501 -0.00000000000E+00 -0.00000000000E+00 -0.89225563641E+02  0.89225563641E+02  0.00000000000E+00 0.  1.
         25    2    1    2    0    0 -0.89812722320E+01 -0.35325221444E+02  0.83228601001E+02  0.15459777092E+03  0.12507971949E+03 0.  0.
          5    1    3    3  502    0  0.71912169001E+01 -0.43574321740E+02  0.11191865308E+03  0.12038975215E+03  0.41800000000E+01 0. -1.
         -5    1    3    3    0  502 -0.16172489132E+02  0.82491002966E+01 -0.28690052075E+02  0.34208018775E+02  0.41800000000E+01 0. -1.
        -11    1    1    2    0    0 -0.28751130506E+02 -0.58015352677E+01  0.22077163717E+02  0.36710849550E+02  0.00000000000E+00 0. -1.
         11    1    1    2    0    0  0.37732402738E+02  0.41126756711E+02 -0.29376095869E+02  0.63072175660E+02  0.00000000000E+00 0.  1.
</event>
<event>
 7    1  0.2733606E-009  0.1110749E+03  0.7561462E-02  0.1258592E+00
         -2   -1    0    0    0  501 -0.00000000000E+00  0.00000000000E+00  0.82774099580E+02  0.82774099580E+02  0.00000000000E+00 0. -1.
          2   -1    0    0  501    0  0.00000000000E+00 -0.00000000000E+00 -0.24580274078E+03  0.24580274078E+03  0.00000000000E+00 0.  1.
         25    2    1    2    0    0 -0.42181288554E+02 -0.71742982374E+02 -0.12798574467E+03  0.19736835633E+03  0.12509036981E+03 0.  0.
          5    1    3    3  502    0 -0.65598200575E+02 -0.86175216735E+02 -0.13025921544E+03  0.16945272941E+03  0.41800000000E+01 0. -1.
         -5    1    3    3    0  502  0.23416912021E+02  0.14432234361E+02  0.22734707673E+01  0.27915626924E+02  0.41800000000E+01 0. -1.
        -11    1    1    2    0    0 -0.95728560758E+00  0.13146069611E+02 -0.54351262019E+02  0.55926695101E+02  0.00000000000E+00 0.  1.
         11    1    1    2    0    0  0.43138574162E+02  0.58596912763E+02  0.19308365487E+02  0.75281788926E+02  0.00000000000E+00 0. -1.
</event>
<event>
 7    1  0.2733606E-009  0.6738602E+02  0.7561462E-02  0.1369215E+00
         -4   -1    0    0    0  501 -0.00000000000E+00  0.00000000000E+00  0.15277854750E+03  0.15277854750E+03  0.00000000000E+00 0.  1.
          4   -1    0    0  501    0  0.00000000000E+00 -0.00000000000E+00 -0.66838428394E+02  0.66838428394E+02  0.00000000000E+00 0. -1.
         25    2    1    2    0    0  0.20567369565E+02 -0.14647587348E+02  0.46483348110E+02  0.13581423471E+03  0.12508891314E+03 0.  0.
          5    1    3    3  502    0  0.58630293710E+00 -0.41540501450E+02  0.78735711027E+02  0.89122060135E+02  0.41800000000E+01 0.  1.
         -5    1    3    3    0  502  0.19981066628E+02  0.26892914102E+02 -0.32252362916E+02  0.46692174571E+02  0.41800000000E+01 0.  1.
        -11    1    1    2    0    0 -0.32154661833E+02  0.27240202412E+02  0.15022481987E+01  0.42168799541E+02  0.00000000000E+00 0. -1.
         11    1    1    2    0    0  0.11587292268E+02 -0.12592615064E+02  0.37954522794E+02  0.41633941644E+02  0.00000000000E+00 0.  1.
</event>
<event>
 7    1  0.2733606E-009  0.1018891E+03  0.7561462E-02  0.1276373E+00
          1   -1    0    0  501    0  0.00000000000E+00  0.00000000000E+00  0.33948901142E+03  0.33948901142E+03  0.00000000000E+00 0. -1.
         -1   -1    0    0    0  501 -0.00000000000E+00 -0.00000000000E+00 -0.42488829510E+02  0.42488829510E+02  0.00000000000E+00 0.  1.
         25    2    1    2    0    0  0.48143903242E+02  0.14701607735E+02  0.14887516420E+03  0.20086457269E+03  0.12509512123E+03 0.  0.
          5    1    3    3  502    0 -0.33908453954E+02 -0.24833498347E+02  0.34113283191E+02  0.54292489165E+02  0.41800000000E+01 0.  1.
         -5    1    3    3    0  502  0.82052357196E+02  0.39535106082E+02  0.11476188101E+03  0.14657208352E+03  0.41800000000E+01 0.  1.
        -11    1    1    2    0    0 -0.39470800455E+02 -0.32132012960E+02  0.15283151942E+03  0.16108346803E+03  0.00000000000E+00 0. -1.
         11    1    1    2    0    0 -0.86731027876E+01  0.17430405225E+02 -0.47065017102E+01  0.20029800214E+02  0.00000000000E+00 0.  1.
</event>
<event>
 7    1  0.2733606E-009  0.1426372E+03  0.7561462E-02  0.1209824E+00
         -1   -1    0    0    0  501 -0.00000000000E+00  0.00000000000E+00  0.15313147997E+03  0.15313147997E+03  0.00000000000E+00 0.  1.
          1   -1    0    0  501    0  0.00000000000E+00 -0.00000000000E+00 -0.31796011714E+03  0.31796011714E+03  0.00000000000E+00 0. -1.
         25    2    1    2    0    0  0.60122319023E+01 -0.14143478705E+03  0.48142057941E+02  0.19494932689E+03  0.12509051280E+03 0.  0.
          5    1    3    3  502    0  0.81050460471E+01 -0.19000246899E+02  0.67672861269E+02  0.70878697124E+02  0.41800000000E+01 0.  1.
         -5    1    3    3    0  502 -0.20928141448E+01 -0.12243454015E+03 -0.19530803328E+02  0.12407062977E+03  0.41800000000E+01 0.  1.
        -11    1    1    2    0    0 -0.62088808092E+01  0.80124879293E+02 -0.34542081585E+02  0.87474006898E+02  0.00000000000E+00 0.  1.
         11    1    1    2    0    0  0.19664890692E+00  0.61309907754E+02 -0.17842861352E+03  0.18866826332E+03  0.00000000000E+00 0. -1.
</event>
<event>
 7    1  0.2733606E-009  0.1052784E+03  0.7561462E-02  0.1269572E+00
          3   -1    0    0  501    0  0.00000000000E+00  0.00000000000E+00  0.11881228868E+03  0.11881228868E+03  0.00000000000E+00 0. -1.
         -3   -1    0    0    0  501 -0.00000000000E+00 -0.00000000000E+00 -0.15170946092E+03  0.15170946092E+03  0.00000000000E+00 0.  1.
         25    2    1    2    0    0  0.12946505568E+02  0.75906532015E+02 -0.33688230191E+02  0.15070617994E+03  0.12509213488E+03 0.  0.
          5    1    3    3  502    0  0.93661394952E+01 -0.39763174407E+01  0.40245048257E+02  0.41721361179E+02  0.41800000000E+01 0. -1.
         -5    1    3    3    0  502  0.35803660726E+01  0.79882849456E+02 -0.73933278447E+02  0.10898481876E+03  0.41800000000E+01 0. -1.
        -11    1    1    2    0    0  0.39664172562E+02 -0.32504452803E+02 -0.40502922386E+01  0.51441140192E+02  0.00000000000E+00 0.  1.
         11    1    1    2    0    0 -0.52610678130E+02 -0.43402079213E+02  0.48413501828E+01  0.68374429466E+02  0.00000000000E+00 0. -1.
</event>
<event>
 7    1  0.2733606E-009  0.1381464E+03  0.7561462E-02  0.1215845E+00
          1   -1    0    0  501    0  0.00000000000E+00  0.00000000000E+00  0.55523590628E+02  0.55523590628E+02  0.00000000000E+00 0. -1.
         -1   -1    0    0    0  501 -0.00000000000E+00 -0.00000000000E+00 -0.46997361125E+03  0.46997361125E+03  0.00000000000E+00 0.  1.
         25    2    1    2    0    0  0.10242441240E+03  0.60434024240E+02 -0.20813682530E+03  0.27038996353E+03  0.12508702086E+03 0.  0.
          5    1    3    3  502    0  0.49876387811E+02  0.78403462791E+02 -0.56459667946E+02  0.10881141274E+03  0.41800000000E+01 0. -1.
         -5    1    3    3    0  502  0.52548024591E+02 -0.17969438551E+02 -0.15167715735E+03  0.16157855078E+03  0.41800000000E+01 0. -1.
        -11    1    1    2    0    0 -0.73065718273E+02 -0.65094457748E+02 -0.20279895150E+03  0.22517393798E+03  0.00000000000E+00 0.  1.
         11    1    1    2    0    0 -0.29358694130E+02  0.46604335085E+01 -0.35142438249E+01  0.29933300372E+02  0.00000000000E+00 0. -1.
</event>
<event>
 7    1  0.2733606E-009  0.9457279E+02  0.7561462E-02  0.1292141E+00
          1   -1    0    0  501    0  0.00000000000E+00  0.00000000000E+00  0.63381316545E+02  0.63381316545E+02  0.00000000000E+00 0. -1.
         -1   -1    0    0    0  501 -0.00000000000E+00 -0.00000000000E+00 -0.20286298303E+03  0.20286298303E+03  0.00000000000E+00 0.  1.
         25    2    1    2    0    0  0.69243247495E+01  0.84481984654E+01 -0.11702319391E+03  0.17164223079E+03  0.12508920476E+03 0.  0.
          5    1    3    3  502    0  0.57913437106E+02  0.20829416487E+02 -0.97751261281E+02  0.11558811475E+03  0.41800000000E+01 0. -1.
         -5    1    3    3    0  502 -0.50989112357E+02 -0.12381218021E+02 -0.19271932628E+02  0.56054116047E+02  0.41800000000E+01 0. -1.
        -11    1    1    2    0    0 -0.17278253785E+02  0.30209245506E+02  0.16709049035E+02  0.38604778041E+02  0.00000000000E+00 0. -1.
         11    1    1    2    0    0  0.10353929036E+02 -0.38657443972E+02 -0.39167521606E+02  0.55997290735E+02  0.00000000000E+00 0.  1.
</event>
<event>
 7    1  0.3936295E-009  0.1196146E+03  0.7561462E-02  0.1243734E+00
          2   -1    0    0  501    0  0.00000000000E+00  0.00000000000E+00  0.31641951013E+03  0.31641951013E+03  0.00000000000E+00 0. -1.
         -2   -1    0    0    0  501 -0.00000000000E+00 -0.00000000000E+00 -0.77289524512E+02  0.77289524512E+02  0.00000000000E+00 0.  1.
         25    2    1    2    0    0  0.56209851027E+02  0.78475266240E+02  0.56955685859E+02  0.16795497781E+03  0.12508800763E+03 0.  0.
          5    1    3    3  502    0  0.66094599610E+01  0.87802763545E+02 -0.45685963897E+01  0.88268650834E+02  0.41800000000E+01 0.  1.
         -5    1    3    3    0  502  0.49600391066E+02 -0.93274973051E+01  0.61524282249E+02  0.79686326971E+02  0.41800000000E+01 0.  1.
        -11    1    1    2    0    0 -0.23879695523E+02 -0.12472722482E+02 -0.24371578458E+01  0.27050848467E+02  0.00000000000E+00 0.  1.
         11    1    1    2    0    0 -0.32330155504E+02 -0.66002543758E+02  0.18461145760E+03  0.19870320837E+03  0.00000000000E+00 0. -1.
</event>
<event>
 7    1  0.2733606E-009  0.1221915E+03  0.7561462E-02  0.1239525E+00
         -1   -1    0    0    0  501 -0.00000000000E+00  0.00000000000E+00  0.17869302894E+02  0.17869302894E+02  0.00000000000E+00 0.  1.
          1   -1    0    0  501    0  0.00000000000E+00 -0.00000000000E+00 -0.96517190980E+03  0.96517190980E+03  0.00000000000E+00 0. -1.
         25    2    1    2    0    0  0.16105455668E+02 -0.68658543238E+02 -0.59658984818E+03  0.61362842727E+03  0.12508804316E+03 0.  0.
          5    1    3    3  502    0  0.66614932450E+02 -0.38843766444E+02 -0.23705661365E+03  0.24931846681E+03  0.41800000000E+01 0. -1.
         -5    1    3    3    0  502 -0.50509476782E+02 -0.29814776794E+02 -0.35953323454E+03  0.36430996047E+03  0.41800000000E+01 0. -1.
        -11    1    1    2    0    0 -0.42668915307E+02  0.69754093796E+02 -0.19505803227E+03  0.21150391459E+03  0.00000000000E+00 0.  1.
         11    1    1    2    0    0  0.26563459638E+02 -0.10955505580E+01 -0.15565472646E+03  0.15790887083E+03  0.00000000000E+00 0. -1.
</event>
<event>
 7    1  0.2733606E-009  0.1675303E+03  0.7561462E-02  0.1180448E+00
          2   -1    0    0  501    0  0.00000000000E+00  0.00000000000E+00  0.19155939379E+03  0.19155939379E+03  0.00000000000E+00 0. -1.
         -2   -1    0    0    0  501 -0.00000000000E+00 -0.00000000000E+00 -0.18037938042E+03  0.18037938042E+03  0.00000000000E+00 0.  1.
         25    2    1    2    0    0 -0.96503132309E+02 -0.10996147943E+03 -0.23968960005E+02  0.19397594284E+03  0.12509106225E+03 0.  0.
          5    1    3    3  502    0 -0.12470245233E+03 -0.91122066571E+02 -0.43304481929E+01  0.15456441315E+03  0.41800000000E+01 0. -1.
         -5    1    3    3    0  502  0.28199320016E+02 -0.18839412856E+02 -0.19638511812E+02  0.39411529688E+02  0.41800000000E+01 0. -1.
        -11    1    1    2    0    0  0.44421190631E+02  0.54379070683E+02 -0.31304749545E+02  0.76878559102E+02  0.00000000000E+00 0.  1.
         11    1    1    2    0    0  0.52081941678E+02  0.55582408744E+02  0.66453722911E+02  0.10108427227E+03  0.00000000000E+00 0. -1.
</event>
<event>
 7    1  0.2733606E-009  0.1091643E+03  0.7561462E-02  0.1262125E+00
          1   -1    0    0  501    0  0.00000000000E+00  0.00000000000E+00  0.34434605616E+03  0.34434605616E+03  0.00000000000E+00 0. -1.
         -1   -1    0    0    0  501 -0.00000000000E+00 -0.00000000000E+00 -0.51305066905E+02  0.51305066905E+02  0.00000000000E+00 0.  1.
         25    2    1    2    0    0  0.30890463720E+02  0.68391125182E+02  0.18330235454E+03  0.23426353331E+03  0.12509229835E+03 0.  0.
          5    1    3    3  502    0 -0.22773027830E+02  0.80465781899E+02  0.14384852287E+03  0.16644285141E+03  0.41800000000E+01 0. -1.
         -5    1    3    3    0  502  0.53663491549E+02 -0.12074656716E+02  0.39453831674E+02  0.67820681903E+02  0.41800000000E+01 0. -1.
        -11    1    1    2    0    0 -0.20662555697E+02 -0.16215730641E+02  0.10474178310E+03  0.10798487049E+03  0.00000000000E+00 0. -1.
         11    1    1    2    0    0 -0.10227908023E+02 -0.52175394542E+02  0.49968516080E+01  0.53402719257E+02  0.00000000000E+00 0.  1.
</event>
<event>
 7    1  0.2733606E-009  0.1200880E+03  0.7561462E-02  0.1242952E+00
          1   -1    0    0  501    0  0.00000000000E+00  0.00000000000E+00  0.31631794335E+03  0.31631794335E+03  0.00000000000E+00 0. -1.
         -1   -1    0    0    0  501 -0.00000000000E+00 -0.00000000000E+00 -0.57092127840E+02  0.57092127840E+02  0.00000000000E+00 0.  1.
         25    2    1    2    0    0 -0.20022773113E+02  0.46173088609E+02  0.22448609850E+03  0.26187176939E+03  0.12509975871E+03 0.  0.
          5    1    3    3  502    0  0.24544761430E+02 -0.34179197851E+02  0.82312332391E+02  0.92538939604E+02  0.41800000000E+01 0.  1.
         -5    1    3    3    0  502 -0.44567534543E+02  0.80352286460E+02  0.14217376611E+03  0.16933282979E+03  0.41800000000E+01 0.  1.
        -11    1    1    2    0    0  0.49126886613E+02 -0.56643850260E+02  0.26555194809E+02  0.79543416647E+02  0.00000000000E+00 0. -1.
         11    1    1    2    0    0 -0.29104113500E+02  0.10470761651E+02  0.81845222013E+01  0.31994885151E+02  0.00000000000E+00 0.  1.
</event>
<event>
 7    1  0.2733606E-009  0.9107435E+02  0.7561462E-02  0.1300271E+00
          2   -1    0    0  501    0  0.00000000000E+00  0.00000000000E+00  0.26488776009E+02  0.26488776009E+02  0.00000000000E+00 0. -1.
         -2   -1    0    0    0  501 -0.00000000000E+00 -0.00000000000E+00 -0.10553897804E+04  0.10553897804E+04  0.00000000000E+00 0.  1.
         25    2    1    2    0    0  0.75435598260E+02 -0.13607950533E+01 -0.88322529521E+03  0.89522586903E+03  0.12510017275E+03 0.  0.
          5    1    3    3  502    0  0.99068720117E+01 -0.31348466102E+02 -0.57621909112E+02  0.66472770739E+02  0.41800000000E+01 0.  1.
         -5    1    3    3    0  502  0.65528726248E+02  0.29987671049E+02 -0.82560338610E+03  0.82875309829E+03  0.41800000000E+01 0.  1.
        -11    1    1    2    0    0 -0.48591538150E+02 -0.60678662005E+01 -0.12423053133E+02  0.50520182394E+02  0.00000000000E+00 0. -1.
         11    1    1    2    0    0 -0.26844060110E+02  0.74286612538E+01 -0.13325265602E+03  0.13613250497E+03  0.00000000000E+00 0.  1.
</event>
<event>
 7    1  0.2733606E-009  0.1093479E+03  0.7561462E-02  0.1261782E+00
         -3   -1    0    0    0  501 -0.00000000000E+00  0.00000000000E+00  0.30025119189E+02  0.30025119189E+02  0.00000000000E+00 0.  1.
          3   -1    0    0  501    0  0.00000000000E+00 -0.00000000000E+00 -0.51258893070E+03  0.51258893070E+03  0.00000000000E+00 0. -1.
         25    2    1    2    0    0  0.45538460037E+02  0.26782149289E+02 -0.32543297520E+03  0.35262511160E+03  0.12508722206E+03 0.  0.
          5    1    3    3  502    0  0.10343089066E+02  0.74594414509E+02 -0.16214876139E+03  0.17883232199E+03  0.41800000000E+01 0.  1.
         -5    1    3    3    0  502  0.35195370971E+02 -0.47812265220E+02 -0.16328421381E+03  0.17379278961E+03  0.41800000000E+01 0.  1.
        -11    1    1    2    0    0  0.85129278726E+00 -0.36374392920E+02 -0.13600200790E+02  0.38843102621E+02  0.00000000000E+00 0.  1.
         11    1    1    2    0    0 -0.46389752825E+02  0.95922436312E+01 -0.14353063553E+03  0.15114583567E+03  0.00000000000E+00 0. -1.
</event>
<event>
 7    1  0.2733606E-009  0.9940945E+02  0.7561462E-02  0.1281543E+00
         -1   -1    0    0    0  501 -0.00000000000E+00  0.00000000000E+00  0.54160947212E+02  0.54160947212E+02  0.00000000000E+00 0.  1.
          1   -1    0    0  501    0  0.00000000000E+00 -0.00000000000E+00 -0.50136340177E+03  0.50136340177E+03  0.00000000000E+00 0. -1.
         25    2    1    2    0    0  0.36017605033E+01 -0.36985738445E+01 -0.44641046253E+03  0.46363464322E+03  0.12509248263E+03 0.  0.
          5    1    3    3  502    0  0.29825057402E+02  0.52450277928E+02 -0.17331393116E+03  0.18356404016E+03  0.41800000000E+01 0.  1.
         -5    1    3    3    0  502 -0.26223296898E+02 -0.56148851773E+02 -0.27309653137E+03  0.28007060306E+03  0.41800000000E+01 0.  1.
        -11    1    1    2    0    0  0.24037440183E+02  0.29747809581E+02  0.25258937371E+02  0.45833880727E+02  0.00000000000E+00 0.  1.
         11    1    1    2    0    0 -0.27639200686E+02 -0.26049235737E+02 -0.26050929400E+02  0.46055825035E+02  0.00000000000E+00 0. -1.
</event>
<event>
 7    1  0.2733606E-009  0.1123211E+03  0.7561462E-02  0.1256331E+00
          4   -1    0    0  501    0  0.00000000000E+00  0.00000000000E+00  0.18784402541E+03  0.18784402541E+03  0.00000000000E+00 0. -1.
         -4   -1    0    0    0  501 -0.00000000000E+00 -0.00000000000E+00 -0.71207407226E+02  0.71207407226E+02  0.00000000000E+00 0.  1.
         25    2    1    2    0    0 -0.32675789433E+01  0.43681534804E+02  0.62983695431E+02  0.14674060008E+03  0.12508838582E+03 0.  0.
          5    1    3    3  502    0 -0.63016084321E+02  0.28619088391E+02  0.22503182375E+02  0.72896808713E+02  0.41800000000E+01 0. -1.
         -5    1    3    3    0  502  0.59748505378E+02  0.15062446413E+02  0.40480513055E+02  0.73843791371E+02  0.41800000000E+01 0. -1.
        -11    1    1    2    0    0 -0.35306354605E+02 -0.47493060185E-01  0.35486065665E+01  0.35484271722E+02  0.00000000000E+00 0.  1.
         11    1    1    2    0    0  0.38573933548E+02 -0.43634041744E+02  0.50104316186E+02  0.76826560828E+02  0.00000000000E+00 0. -1.
</event>
<event>
 7    1  0.2733606E-009  0.6736655E+02  0.7561462E-02  0.1369284E+00
         -1   -1    0    0    0  501 -0.00000000000E+00  0.00000000000E+00  0.84540904395E+02  0.84540904395E+02  0.00000000000E+00 0.  1.
          1   -1    0    0  501    0  0.00000000000E+00 -0.00000000000E+00 -0.14079890752E+03  0.14079890752E+03  0.00000000000E+00 0. -1.
         25    2    1    2    0    0 -0.94087387602E+01 -0.14578612728E+02 -0.26268728323E+02  0.12898749104E+03  0.12508663575E+03 0.  0.
          5    1    3    3  502    0 -0.17769944398E+02  0.23669045245E+02  0.41181680675E+02  0.50886126301E+02  0.41800000000E+01 0. -1.
         -5    1    3    3    0  502  0.83612056375E+01 -0.38247657973E+02 -0.67450408998E+02  0.78101364739E+02  0.41800000000E+01 0. -1.
        -11    1    1    2    0    0  0.22978879518E+01 -0.25076288627E+02 -0.46446251294E+02  0.52833273603E+02  0.00000000000E+00 0. -1.
         11    1    1    2    0    0  0.71108508084E+01  0.39654901355E+02  0.16456976488E+02  0.43519047276E+02  0.00000000000E+00 0.  1.
</event>
<event>
 7    1  0.2733606E-009  0.1197401E+03  0.7561462E-02  0.1243526E+00
         -2   -1    0    0    0  501 -0.00000000000E+00  0.00000000000E+00  0.15668022732E+02  0.15668022732E+02  0.00000000000E+00 0.  1.
          2   -1    0    0  501    0  0.00000000000E+00 -0.00000000000E+00 -0.15284570878E+04  0.15284570878E+04  0.00000000000E+00 0. -1.
         25    2    1    2    0    0  0.60544988799E+02 -0.51334339244E+01 -0.12723685469E+04  0.12799454595E+04  0.12508641976E+03 0.  0.
          5    1    3    3  502    0  0.90019714344E+02 -0.27519718589E+02 -0.69237413137E+03  0.69875624796E+03  0.41800000000E+01 0.  1.
         -5    1    3    3    0  502 -0.29474725545E+02  0.22386284665E+02 -0.57999441551E+03  0.58118921153E+03  0.41800000000E+01 0.  1.
        -11    1    1    2    0    0 -0.43845534339E+02  0.46189108468E+02 -0.16252674524E+03  0.17455889419E+03  0.00000000000E+00 0.  1.
         11    1    1    2    0    0 -0.16699454460E+02 -0.41055674544E+02 -0.77893772935E+02  0.89620756823E+02  0.00000000000E+00 0. -1.
</event>
<event>
 7    1  0.2733606E-009  0.1492088E+03  0.7561462E-02  0.1201449E+00
          2   -1    0    0  501    0  0.00000000000E+00  0.00000000000E+00  0.13892613540E+04  0.13892613540E+04  0.00000000000E+00 0. -1.
         -2   -1    0    0    0  501 -0.00000000000E+00 -0.00000000000E+00 -0.19866572736E+02  0.19866572736E+02  0.00000000000E+00 0.  1.
         25    2    1    2    0    0  0.86445406035E+02 -0.86505932986E+02  0.85685353808E+03  0.87452981099E+03  0.12509324490E+03 0.  0.
          5    1    3    3  502    0  0.97410277523E+02 -0.97069967439E+02  0.84091167862E+03  0.85209228631E+03  0.41800000000E+01 0. -1.
         -5    1    3    3    0  502 -0.10964871489E+02  0.10564034453E+02  0.15941859455E+02  0.22437524675E+02  0.41800000000E+01 0. -1.
        -11    1    1    2    0    0 -0.83351373958E+02  0.10058450228E+03  0.49472422067E+03  0.51168031832E+03  0.00000000000E+00 0. -1.
         11    1    1    2    0    0 -0.30940320765E+01 -0.14078569298E+02  0.17817022547E+02  0.22917797460E+02  0.00000000000E+00 0.  1.
</event>
<event>
 7    1  0.2733606E-009  0.1139680E+03  0.7561462E-02  0.1253393E+00
          1   -1    0    0  501    0  0.00000000000E+00  0.00000000000E+00  0.12720740228E+04  0.12720740228E+04  0.00000000000E+00 0.  1.
         -1   -1    0    0    0  501 -0.00000000000E+00 -0.00000000000E+00 -0.10829643807E+02  0.10829643807E+02  0.00000000000E+00 0. -1.
         25    2    1    2    0    0  0.27158057009E+02 -0.29749907660E+02  0.81118690097E+03  0.82176287031E+03  0.12508960645E+03 0.  0.
          5    1    3    3  502    0  0.67204534903E+01 -0.77010671063E+02  0.55935495651E+03  0.56468685812E+03  0.41800000000E+01 0.  1.
         -5    1    3    3    0  502  0.20437603518E+02  0.47260763403E+02  0.25183194446E+03  0.25707601219E+03  0.41800000000E+01 0.  1.
        -11    1    1    2    0    0 -0.11609294075E+02  0.61989125027E+02  0.32496970476E+03  0.33103283273E+03  0.00000000000E+00 0.  1.
         11    1    1    2    0    0 -0.15548762933E+02 -0.32239217367E+02  0.12508777323E+03  0.13010796354E+03  0.00000000000E+00 0. -1.
</event>
<event>
 7    1  0.2733606E-009  0.1043439E+03  0.7561462E-02  0.1271418E+00
          3   -1    0    0  501    0  0.00000000000E+00  0.00000000000E+00  0.15299135712E+03  0.15299135712E+03  0.00000000000E+00 0. -1.
         -3   -1    0    0    0  501 -0.00000000000E+00 -0.00000000000E+00 -0.86562234588E+02  0.86562234588E+02  0.00000000000E+00 0.  1.
         25    2    1    2    0    0  0.20483235935E+02  0.35383297183E+02  0.44694956961E+02  0.13898754146E+03  0.12509339243E+03 0.  0.
          5    1    3    3  502    0 -0.14187667162E+02 -0.33266497020E+02  0.49923996243E+02  0.61788571147E+02  0.41800000000E+01 0. -1.
         -5    1    3    3    0  502  0.34670903098E+02  0.68649794203E+02 -0.52290392824E+01  0.77198970314E+02  0.41800000000E+01 0. -1.
        -11    1    1    2    0    0  0.33895524521E+02 -0.16477304713E+02 -0.32062384713E+01  0.37824438110E+02  0.00000000000E+00 0.  1.
         11    1    1    2    0    0 -0.54378760456E+02 -0.18905992470E+02  0.24940404047E+02  0.62741612141E+02  0.00000000000E+00 0. -1.
</event>
<event>
 7    1  0.2733606E-009  0.9705779E+02  0.7561462E-02  0.1286608E+00
          1   -1    0    0  501    0  0.00000000000E+00  0.00000000000E+00  0.95137891359E+03  0.95137891359E+03  0.00000000000E+00 0. -1.
         -1   -1    0    0    0  501 -0.00000000000E+00 -0.00000000000E+00 -0.13740913869E+02  0.13740913869E+02  0.00000000000E+00 0.  1.
         25    2    1    2    0    0 -0.30581639451E+02  0.22445940466E+02  0.52378776806E+03  0.53985098924E+03  0.12508560147E+03 0.  0.
          5    1    3    3  502    0  0.17837152482E+02 -0.23662631740E+02  0.33144924416E+02  0.44655823406E+02  0.41800000000E+01 0. -1.
         -5    1    3    3    0  502 -0.48418791933E+02  0.46108572206E+02  0.49064284364E+03  0.49519516583E+03  0.41800000000E+01 0. -1.
        -11    1    1    2    0    0  0.75760601825E-01  0.33487061693E+02  0.16740452342E+03  0.17072101072E+03  0.00000000000E+00 0.  1.
         11    1    1    2    0    0  0.30505878849E+02 -0.55933002159E+02  0.24644570824E+03  0.25454782750E+03  0.00000000000E+00 0. -1.
</event>
<event>
 7    1  0.2733606E-009  0.2119086E+03  0.7561462E-02  0.1140063E+00
         -4   -1    0    0    0  501 -0.00000000000E+00  0.00000000000E+00  0.34837848952E+03  0.34837848952E+03  0.00000000000E+00 0. -1.
          4   -1    0    0  501    0  0.00000000000E+00 -0.00000000000E+00 -0.14714302960E+03  0.14714302960E+03  0.00000000000E+00 0.  1.
         25    2    1    2    0    0  0.19249580004E+03 -0.12773847096E+01  0.53594235003E+02  0.23574638826E+03  0.12509097812E+03 0.  0.
          5    1    3    3  502    0  0.20339635256E+03  0.12357613828E+02  0.29862026806E+02  0.20599029079E+03  0.41800000000E+01 0.  1.
         -5    1    3    3    0  502 -0.10900552527E+02 -0.13634998538E+02  0.23732208196E+02  0.29756097466E+02  0.41800000000E+01 0.  1.
        -11    1    1    2    0    0 -0.88078442901E+02 -0.30007069312E+02  0.11085714503E+03  0.14473266016E+03  0.00000000000E+00 0.  1.
         11    1    1    2    0    0 -0.10441735713E+03  0.31284454022E+02  0.36784079891E+02  0.11504247071E+03  0.00000000000E+00 0. -1.
</event>
<event>
 7    1  0.2733606E-009  0.9417547E+02  0.7561462E-02  0.1293044E+00
          1   -1    0    0  501    0  0.00000000000E+00  0.00000000000E+00  0.12836252176E+03  0.12836252176E+03  0.00000000000E+00 0. -1.
         -1   -1    0    0    0  501 -0.00000000000E+00 -0.00000000000E+00 -0.11186672986E+03  0.11186672986E+03  0.00000000000E+00 0.  1.
         25    2    1    2    0    0 -0.34967747356E+02  0.29527400976E+02 -0.13196434194E+02  0.13385351656E+03  0.12509199517E+03 0.  0.
          5    1    3    3  502    0 -0.34356538929E+02  0.77235756012E+02 -0.19616277268E+01  0.84658455911E+02  0.41800000000E+01 0.  1.
         -5    1    3    3    0  502 -0.61120842691E+00 -0.47708355036E+02 -0.11234806467E+02  0.49195060650E+02  0.41800000000E+01 0.  1.
        -11    1    1    2    0    0 -0.15993969526E+01 -0.17136146844E+02 -0.30408935486E+02  0.34941507647E+02  0.00000000000E+00 0.  1.
         11    1    1    2    0    0  0.36567144309E+02 -0.12391254132E+02  0.60101161581E+02  0.71434227407E+02  0.00000000000E+00 0. -1.
</event>
<event>
 7    1  0.2733606E-009  0.2576935E+03  0.7561462E-02  0.1108537E+00
         -3   -1    0    0    0  501 -0.00000000000E+00  0.00000000000E+00  0.76035707124E+02  0.76035707124E+02  0.00000000000E+00 0.  1.
          3   -1    0    0  501    0  0.00000000000E+00 -0.00000000000E+00 -0.96567240363E+03  0.96567240363E+03  0.00000000000E+00 0. -1.
         25    2    1    2    0    0  0.20870528826E+02  0.24308620094E+03 -0.46141224051E+03  0.53672659934E+03  0.12509079373E+03 0.  0.
          5    1    3    3  502    0  0.55003791386E+01 -0.13047869339E+02 -0.11285109923E+02  0.18582980679E+02  0.41800000000E+01 0. -1.
         -5    1    3    3    0  502  0.15370149687E+02  0.25613407028E+03 -0.45012713059E+03  0.51814361866E+03  0.41800000000E+01 0. -1.
        -11    1    1    2    0    0 -0.11931969789E+02 -0.15361344979E+03 -0.16016896401E+03  0.22224662178E+03  0.00000000000E+00 0.  1.
         11    1    1    2    0    0 -0.89385590367E+01 -0.89472751150E+02 -0.26805549198E+03  0.28273488963E+03  0.00000000000E+00 0. -1.
</event>
<event>
 7    1  0.2733606E-009  0.1823335E+03  0.7561462E-02  0.1165564E+00
         -1   -1    0    0    0  501 -0.00000000000E+00  0.00000000000E+00  0.12278217023E+03  0.12278217023E+03  0.00000000000E+00 0.  1.
          1   -1    0    0  501    0  0.00000000000E+00 -0.00000000000E+00 -0.35359322743E+03  0.35359322743E+03  0.00000000000E+00 0. -1.
         25    2    1    2    0    0  0.17556676679E+03  0.10227010463E+02 -0.14625330174E+03  0.26070238562E+03  0.12508966487E+03 0.  0.
          5    1    3    3  502    0  0.58769412784E+02 -0.27684615869E+02  0.56333588231E+01  0.65341326635E+02  0.41800000000E+01 0.  1.
         -5    1    3    3    0  502  0.11679735400E+03  0.37911626332E+02 -0.15188666056E+03  0.19536105899E+03  0.41800000000E+01 0.  1.
        -11    1    1    2    0    0 -0.13588288841E+03 -0.67646063490E+00 -0.17276113577E+02  0.13697839633E+03  0.00000000000E+00 0.  1.
         11    1    1    2    0    0 -0.39683878379E+02 -0.95505498278E+01 -0.67281641884E+02  0.78694615698E+02  0.00000000000E+00 0. -1.
</event>
<event>
 7    1  0.2733606E-009  0.1378899E+03  0.7561462E-02  0.1216197E+00
          3   -1    0    0  501    0  0.00000000000E+00  0.00000000000E+00  0.52645693617E+02  0.52645693617E+02  0.00000000000E+00 0. -1.
         -3   -1    0    0    0  501 -0.00000000000E+00 -0.00000000000E+00 -0.53499118852E+03  0.53499118852E+03  0.00000000000E+00 0.  1.
         25    2    1    2    0    0 -0.10363966508E+03 -0.14967564719E+02 -0.38519712738E+03  0.41831771910E+03  0.12509068308E+03 0.  0.
          5    1    3    3  502    0 -0.90471531457E+02 -0.53244157235E+02 -0.34681639572E+03  0.36237980494E+03  0.41800000000E+01 0. -1.
         -5    1    3    3    0  502 -0.13168133618E+02  0.38276592516E+02 -0.38380731660E+02  0.55937914158E+02  0.41800000000E+01 0. -1.
        -11    1    1    2    0    0  0.85069603695E+02  0.43837149054E+02 -0.95123113886E+02  0.13493309418E+03  0.00000000000E+00 0.  1.
         11    1    1    2    0    0  0.18570061380E+02 -0.28869584335E+02 -0.20252536328E+01  0.34386068860E+02  0.00000000000E+00 0. -1.
</event>
<event>
 7    1  0.2733606E-009  0.2318305E+03  0.7561462E-02  0.1125358E+00
         -2   -1    0    0    0  501 -0.00000000000E+00  0.00000000000E+00  0.30230036530E+03  0.30230036530E+03  0.00000000000E+00 0. -1.
          2   -1    0    0  501    0  0.00000000000E+00 -0.00000000000E+00 -0.28180633667E+03  0.28180633667E+03  0.00000000000E+00 0.  1.
         25    2    1    2    0    0 -0.19487356717E+03  0.70845951147E+02  0.18467177294E+03  0.30454313958E+03  0.12509198284E+03 0.  0.
          5    1    3    3  502    0 -0.17533447248E+03  0.12629828739E+02  0.10852765129E+03  0.20663352416E+03  0.41800000000E+01 0.  1.
         -5    1    3    3    0  502 -0.19539094688E+02  0.58216122408E+02  0.76144121659E+02  0.97909615425E+02  0.41800000000E+01 0.  1.
        -11    1    1    2    0    0  0.78767521092E+02  0.17120117198E+02 -0.57633611246E+02  0.99091139549E+02  0.00000000000E+00 0.  1.
         11    1    1    2    0    0  0.11610604607E+03 -0.87966068344E+02 -0.10654413307E+03  0.18047242284E+03  0.00000000000E+00 0. -1.
</event>
<event>
 7    1  0.2733606E-009  0.9543402E+02  0.7561462E-02  0.1290202E+00
          4   -1    0    0  501    0  0.00000000000E+00  0.00000000000E+00  0.77679933724E+02  0.77679933724E+02  0.00000000000E+00 0. -1.
         -4   -1    0    0    0  501 -0.00000000000E+00 -0.00000000000E+00 -0.23954367815E+03  0.23954367815E+03  0.00000000000E+00 0.  1.
         25    2    1    2    0    0  0.74300350761E+02 -0.35762940191E+01 -0.53327807665E+02  0.15499406882E+03  0.12508386905E+03 0.  0.
          5    1    3    3  502    0  0.35482086475E+02 -0.27330133695E+01  0.40073844682E+02  0.53757169292E+02  0.41800000000E+01 0. -1.
         -5    1    3    3    0  502  0.38818264286E+02 -0.84328064960E+00 -0.93401652347E+02  0.10123689953E+03  0.41800000000E+01 0. -1.
        -11    1    1    2    0    0 -0.92195897637E+02  0.16824751081E+02 -0.10306004401E+03  0.13930013805E+03  0.00000000000E+00 0.  1.
         11    1    1    2    0    0  0.17895546875E+02 -0.13248457062E+02 -0.54758927529E+01  0.22929405006E+02  0.00000000000E+00 0. -1.
</event>
<event>
 7    1  0.2733606E-009  0.9426953E+02  0.7561462E-02  0.1292830E+00
          1   -1    0    0  501    0  0.00000000000E+00  0.00000000000E+00  0.39663827414E+03  0.39663827414E+03  0.00000000000E+00 0. -1.
         -1   -1    0    0    0  501 -0.00000000000E+00 -0.00000000000E+00 -0.35636876441E+02  0.35636876441E+02  0.00000000000E+00 0.  1.
         25    2    1    2    0    0  0.90563301915E+01  0.72851522381E+01  0.12704935051E+03  0.17867378613E+03  0.12509074237E+03 0.  0.
          5    1    3    3  502    0  0.14534490983E+02  0.54476165010E+02  0.11698748430E+03  0.12993247425E+03  0.41800000000E+01 0.  1.
         -5    1    3    3    0  502 -0.54781607912E+01 -0.47191012772E+02  0.10061866211E+02  0.48741311880E+02  0.41800000000E+01 0.  1.
        -11    1    1    2    0    0  0.34335674965E+02 -0.19165072791E+02  0.17544198338E+03  0.17979468324E+03  0.00000000000E+00 0. -1.
         11    1    1    2    0    0 -0.43392005157E+02  0.11879920553E+02  0.58510063810E+02  0.73806681208E+02  0.00000000000E+00 0.  1.
</event>
<event>
 7    1  0.2733606E-009  0.1493452E+03  0.7561462E-02  0.1201280E+00
          2   -1    0    0  501    0  0.00000000000E+00  0.00000000000E+00  0.10226080577E+03  0.10226080577E+03  0.00000000000E+00 0. -1.
         -2   -1    0    0    0  501 -0.00000000000E+00 -0.00000000000E+00 -0.30792578888E+03  0.30792578888E+03  0.00000000000E+00 0.  1.
         25    2    1    2    0    0  0.12553345288E+02  0.13300111573E+03 -0.15831880947E+03  0.24199085265E+03  0.12509134291E+03 0.  0.
          5    1    3    3  502    0  0.42390722603E+02  0.10940709076E+03 -0.16563961364E+03  0.20302915770E+03  0.41800000000E+01 0. -1.
         -5    1    3    3    0  502 -0.29837377315E+02  0.23594024971E+02  0.73208041710E+01  0.38961694946E+02  0.41800000000E+01 0. -1.
        -11    1    1    2    0    0 -0.30796400994E+02 -0.10634814828E+03  0.19903902564E+00  0.11071759830E+03  0.00000000000E+00 0. -1.
         11    1    1    2    0    0  0.18243055706E+02 -0.26652967443E+02 -0.47545212667E+02  0.57478143694E+02  0.00000000000E+00 0.  1.
</event>
<event>
 7    1  0.2733606E-009  0.1583221E+03  0.7561462E-02  0.1190604E+00
         -1   -1    0    0    0  501 -0.00000000000E+00  0.00000000000E+00  0.79392433552E+02  0.79392433552E+02  0.00000000000E+00 0.  1.
          1   -1    0    0  501    0  0.00000000000E+00 -0.00000000000E+00 -0.41416535301E+03  0.41416535301E+03  0.00000000000E+00 0. -1.
         25    2    1    2    0    0  0.82608134076E+02 -0.12009849127E+03 -0.18919190833E+03  0.26960827851E+03  0.12508914518E+03 0.  0.
          5    1    3    3  502    0  0.47835727064E+02 -0.10251784781E+02 -0.13214522360E+03  0.14097229655E+03  0.41800000000E+01 0.  1.
         -5    1    3    3    0  502  0.34772407013E+02 -0.10984670649E+03 -0.57046684733E+02  0.12863598196E+03  0.41800000000E+01 0.  1.
        -11    1    1    2    0    0 -0.17837418546E+02  0.64396343905E+02 -0.15946024671E+02  0.68697440357E+02  0.00000000000E+00 0.  1.
         11    1    1    2    0    0 -0.64770715530E+02  0.55702147362E+02 -0.12963498646E+03  0.15525206770E+03  0.00000000000E+00 0. -1.
</event>
<event>
 7    1  0.2733606E-009  0.1582828E+03  0.7561462E-02  0.1190649E+00
         -1   -1    0    0    0  501 -0.00000000000E+00  0.00000000000E+00  0.39979114683E+02  0.39979114683E+02  0.00000000000E+00 0.  1.
          1   -1    0    0  501    0  0.00000000000E+00 -0.00000000000E+00 -0.11948237316E+04  0.11948237316E+04  0.00000000000E+00 0. -1.
         25    2    1    2    0    0 -0.30237184326E+02  0.13724578227E+03 -0.95402616933E+03  0.97240064959E+03  0.12508556869E+03 0.  0.
          5    1    3    3  502    0  0.56391440230E+01  0.77842849213E+02 -0.79511660811E+03  0.79894881063E+03  0.41800000000E+01 0. -1.
         -5    1    3    3    0  502 -0.35876328349E+02  0.59402933055E+02 -0.15890956121E+03  0.17345183895E+03  0.41800000000E+01 0. -1.
        -11    1    1    2    0    0 -0.31909597287E+02 -0.24820677083E+02 -0.49519838693E+02  0.63925760332E+02  0.00000000000E+00 0. -1.
         11    1    1    2    0    0  0.62146781612E+02 -0.11242510519E+03 -0.15129860895E+03  0.19847643641E+03  0.00000000000E+00 0.  1.
</event>
<event>
 7    1  0.2733606E-009  0.4405010E+03  0.7561462E-02  0.1030593E+00
         -2   -1    0    0    0  501 -0.00000000000E+00  0.00000000000E+00  0.20730057952E+03  0.20730057952E+03  0.00000000000E+00 0.  1.
          2   -1    0    0  501    0  0.00000000000E+00 -0.00000000000E+00 -0.99360675341E+03  0.99360675341E+03  0.00000000000E+00 0. -1.
         25    2    1    2    0    0 -0.40624442418E+03  0.14432526941E+03 -0.27693264593E+03  0.52745032149E+03  0.12509130941E+03 0.  0.
          5    1    3    3  502    0  0.54372910191E+01  0.12325873477E+02 -0.20154910722E+02  0.24600490174E+02  0.41800000000E+01 0. -1.
         -5    1    3    3    0  502 -0.41168171520E+03  0.13199939593E+03 -0.25677773521E+03  0.50284983132E+03  0.41800000000E+01 0. -1.
        -11    1    1    2    0    0  0.31778923612E+03 -0.88236831633E+02 -0.33542976017E+03  0.47041350008E+03  0.00000000000E+00 0.  1.
         11    1    1    2    0    0  0.88455188068E+02 -0.56088437778E+02 -0.17394376779E+03  0.20304351135E+03  0.00000000000E+00 0. -1.
</event>
<event>
 7    1  0.2733606E-009  0.1141853E+03  0.7561462E-02  0.1253010E+00
          1   -1    0    0  501    0  0.00000000000E+00  0.00000000000E+00  0.23296221581E+03  0.23296221581E+03  0.00000000000E+00 0. -1.
         -1   -1    0    0    0  501 -0.00000000000E+00 -0.00000000000E+00 -0.63411674163E+02  0.63411674163E+02  0.00000000000E+00 0.  1.
         25    2    1    2    0    0  0.97572130235E+01  0.25271712620E+02  0.71287042508E+02  0.14650398563E+03  0.12509081785E+03 0.  0.
          5    1    3    3  502    0 -0.23263185608E+02 -0.43885999794E+02  0.38774251910E+02  0.63151182045E+02  0.41800000000E+01 0.  1.
         -5    1    3    3    0  502  0.33020398632E+02  0.69157712414E+02  0.32512790599E+02  0.83352803580E+02  0.41800000000E+01 0.  1.
        -11    1    1    2    0    0  0.16159150101E+02  0.33691836355E+02  0.67624538871E+01  0.37973526983E+02  0.00000000000E+00 0.  1.
         11    1    1    2    0    0 -0.25916363124E+02 -0.58963548975E+02  0.91501045255E+02  0.11189637737E+03  0.00000000000E+00 0. -1.
</event>
<event>
 7    1  0.2733606E-009  0.1138622E+03  0.7561462E-02  0.1253580E+00
          2   -1    0    0  501    0  0.00000000000E+00  0.00000000000E+00  0.46642055622E+03  0.46642055622E+03  0.00000000000E+00 0. -1.
         -2   -1    0    0    0  501 -0.00000000000E+00 -0.00000000000E+00 -0.45446919308E+02  0.45446919308E+02  0.00000000000E+00 0.  1.
         25    2    1    2    0    0  0.54601767466E+01  0.60307070274E+02  0.35801841834E+03  0.38404680198E+03  0.12509197411E+03 0.  0.
          5    1    3    3  502    0  0.23876105057E+02 -0.21576013448E+02  0.26066133209E+02  0.41623412276E+02  0.41800000000E+01 0.  1.
         -5    1    3    3    0  502 -0.18415928311E+02  0.81883083722E+02  0.33195228513E+03  0.34242338970E+03  0.41800000000E+01 0.  1.
        -11    1    1    2    0    0 -0.38572952482E+02 -0.67138932255E+02  0.43566299650E+02  0.88845547737E+02  0.00000000000E+00 0.  1.
         11    1    1    2    0    0  0.33112775736E+02  0.68318619813E+01  0.19388918931E+02  0.38975125816E+02  0.00000000000E+00 0. -1.
</event>
<event>
 7    1  0.2733606E-009  0.9362859E+02  0.7561462E-02  0.1294295E+00
         -2   -1    0    0    0  501 -0.00000000000E+00  0.00000000000E+00  0.36499019136E+03  0.36499019136E+03  0.00000000000E+00 0.  1.
          2   -1    0    0  501    0  0.00000000000E+00 -0.00000000000E+00 -0.55963284240E+02  0.55963284240E+02  0.00000000000E+00 0. -1.
         25    2    1    2    0    0 -0.34996648547E+02 -0.20818320636E+02  0.47674445447E+02  0.13992184714E+03  0.12508837945E+03 0.  0.
          5    1    3    3  502    0 -0.23120993365E+02  0.35822973820E+02  0.66339489484E+02  0.78970032623E+02  0.41800000000E+01 0. -1.
         -5    1    3    3    0  502 -0.11875655182E+02 -0.56641294456E+02 -0.18665044037E+02  0.60951814514E+02  0.41800000000E+01 0. -1.
        -11    1    1    2    0    0 -0.18524056161E+02  0.26757084051E+02  0.18354313047E+03  0.18640590910E+03  0.00000000000E+00 0.  1.
         11    1    1    2    0    0  0.53520704709E+02 -0.59387634151E+01  0.77809331206E+02  0.94625719369E+02  0.00000000000E+00 0. -1.
</event>
<event>
 7    1  0.2733606E-009  0.1198381E+03  0.7561462E-02  0.1243364E+00
          1   -1    0    0  501    0  0.00000000000E+00  0.00000000000E+00  0.14374564215E+04  0.14374564215E+04  0.00000000000E+00 0. -1.
         -1   -1    0    0    0  501 -0.00000000000E+00 -0.00000000000E+00 -0.16627251384E+02  0.16627251384E+02  0.00000000000E+00 0.  1.
         25    2    1    2    0    0  0.10715592577E+03 -0.41206831228E+02  0.86738086579E+03  0.88384266554E+03  0.12509154932E+03 0.  0.
          5    1    3    3  502    0  0.10461057710E+03 -0.46840480163E+02  0.39278511198E+03  0.40918824521E+03  0.41800000000E+01 0. -1.
         -5    1    3    3    0  502  0.25453486674E+01  0.56336489345E+01  0.47459575381E+03  0.47465442033E+03  0.41800000000E+01 0. -1.
        -11    1    1    2    0    0 -0.32314503797E+02  0.48903708460E+00  0.49332208902E+02  0.58975699640E+02  0.00000000000E+00 0.  1.
         11    1    1    2    0    0 -0.74841421969E+02  0.40717794144E+02  0.50411609539E+03  0.51126530767E+03  0.00000000000E+00 0. -1.
</event>
<event>
 7    1  0.2733606E-009  0.1093586E+03  0.7561462E-02  0.1261762E+00
         -1   -1    0    0    0  501 -0.00000000000E+00  0.00000000000E+00  0.12875382177E+03  0.12875382177E+03  0.00000000000E+00 0.  1.
          1   -1    0    0  501    0  0.00000000000E+00 -0.00000000000E+00 -0.13917331154E+03  0.13917331154E+03  0.00000000000E+00 0. -1.
         25    2    1    2    0    0  0.72453583311E+02  0.27808001002E+02  0.65631287927E+00  0.14720843953E+03  0.12508831787E+03 0.  0.
          5    1    3    3  502    0 -0.23314713179E+02  0.36326083733E+02  0.22007992310E+02  0.48631104609E+02  0.41800000000E+01 0.  1.
         -5    1    3    3    0  502  0.95768296491E+02 -0.85180827306E+01 -0.21351679431E+02  0.98577334924E+02  0.41800000000E+01 0.  1.
        -11    1    1    2    0    0 -0.50354594622E+02 -0.11505980553E+02 -0.50786362121E+02  0.72437748208E+02  0.00000000000E+00 0. -1.
         11    1    1    2    0    0 -0.22098988690E+02 -0.16302020449E+02  0.39710559472E+02  0.48280945573E+02  0.00000000000E+00 0.  1.
</event>
<event>
 7    1  0.2733606E-009  0.1223459E+03  0.7561462E-02  0.1239276E+00
         -2   -1    0    0    0  501 -0.00000000000E+00  0.00000000000E+00  0.24490593709E+02  0.24490593709E+02  0.00000000000E+00 0.  1.
          2   -1    0    0  501    0  0.00000000000E+00 -0.00000000000E+00 -0.70544205471E+03  0.70544205471E+03  0.00000000000E+00 0. -1.
         25    2    1    2    0    0  0.73631335252E+02  0.52261323776E+01 -0.38514253835E+03  0.41161837417E+03  0.12508407218E+03 0.  0.
          5    1    3    3  502    0  0.95327559137E+02  0.31087407740E+02 -0.20445038250E+03  0.22775250109E+03  0.41800000000E+01 0.  1.
         -5    1    3    3    0  502 -0.21696223885E+02 -0.25861275362E+02 -0.18069215586E+03  0.18386587308E+03  0.41800000000E+01 0.  1.
        -11    1    1    2    0    0 -0.90241791875E+02 -0.14341487723E+02 -0.19009185827E+03  0.21091271619E+03  0.00000000000E+00 0. -1.
         11    1    1    2    0    0  0.16610456623E+02  0.91153553457E+01 -0.10571706438E+03  0.10740155806E+03  0.00000000000E+00 0.  1.
</event>
<event>
 7    1  0.2733606E-009  0.7128114E+02  0.7561462E-02  0.1355790E+00
         -3   -1    0    0    0  501 -0.00000000000E+00  0.00000000000E+00  0.10873074832E+03  0.10873074832E+03  0.00000000000E+00 0.  1.
          3   -1    0    0  501    0  0.00000000000E+00 -0.00000000000E+00 -0.14232922856E+03  0.14232922856E+03  0.00000000000E+00 0. -1.
         25    2    1    2    0    0 -0.47997462648E+02  0.30675347478E+02 -0.36569319087E+01  0.13750005375E+03  0.12509259877E+03 0.  0.
          5    1    3    3  502    0 -0.41702219108E+02 -0.29181968736E+01 -0.58933836146E+02  0.72375827418E+02  0.41800000000E+01 0.  1.
         -5    1    3    3    0  502 -0.62952435400E+01  0.33593544351E+02  0.55276904237E+02  0.65124226332E+02  0.41800000000E+01 0.  1.
        -11    1    1    2    0    0 -0.93686929339E+00 -0.14570102092E+02 -0.54548297205E+02  0.56468418847E+02  0.00000000000E+00 0. -1.
         11    1    1    2    0    0  0.48934331942E+02 -0.16105245386E+02  0.24606748873E+02  0.57091504286E+02  0.00000000000E+00 0.  1.
</event>
<event>
 7    1  0.2733606E-009  0.9513543E+02  0.7561462E-02  0.1290871E+00
          2   -1    0    0  501    0  0.00000000000E+00  0.00000000000E+00  0.29826690133E+03  0.29826690133E+03  0.00000000000E+00 0. -1.
         -2   -1    0    0    0  501 -0.00000000000E+00 -0.00000000000E+00 -0.42949775223E+02  0.42949775223E+02  0.00000000000E+00 0.  1.
         25    2    1    2    0    0  0.25567028385E+02  0.17299313749E+02  0.17538430804E+03  0.21763002782E+03  0.12510089650E+03 0.  0.
          5    1    3    3  502    0 -0.24581246138E+02 -0.27810764681E+02  0.13232754194E+03  0.13749809835E+03  0.41800000000E+01 0.  1.
         -5    1    3    3    0  502  0.50148274523E+02  0.45110078429E+02  0.43056766093E+02  0.80131929466E+02  0.41800000000E+01 0.  1.
        -11    1    1    2    0    0 -0.38096008816E+02 -0.42572786817E+02  0.26095827415E+02  0.62807167374E+02  0.00000000000E+00 0.  1.
         11    1    1    2    0    0  0.12528980431E+02  0.25273473068E+02  0.53836990658E+02  0.60779481362E+02  0.00000000000E+00 0. -1.
</event>
<event>
 7    1  0.2733606E-009  0.1185258E+03  0.7561462E-02  0.1245549E+00
         -1   -1    0    0    0  501 -0.00000000000E+00  0.00000000000E+00  0.20239688336E+03  0.20239688336E+03  0.00000000000E+00 0.  1.
          1   -1    0    0  501    0  0.00000000000E+00 -0.00000000000E+00 -0.82270215584E+02  0.82270215584E+02  0.00000000000E+00 0. -1.
         25    2    1    2    0    0  0.48473064728E+02 -0.55173581930E+02  0.65591440427E+02  0.15920698438E+03  0.12510341590E+03 0.  0.
          5    1    3    3  502    0  0.72484044376E+02  0.11470438674E+02  0.26125310382E+02  0.78009691033E+02  0.41800000000E+01 0. -1.
         -5    1    3    3    0  502 -0.24010979648E+02 -0.66644020605E+02  0.39466130045E+02  0.81197293346E+02  0.41800000000E+01 0. -1.
        -11    1    1    2    0    0 -0.22015541990E+02  0.61551758971E+02  0.68655917917E+02  0.94799463008E+02  0.00000000000E+00 0.  1.
         11    1    1    2    0    0 -0.26457522738E+02 -0.63781770401E+01 -0.14120690569E+02  0.30660651557E+02  0.00000000000E+00 0. -1.
</event>
<event>
 7    1  0.2733606E-009  0.1573951E+03  0.7561462E-02  0.1191669E+00
         -2   -1    0    0    0  501 -0.00000000000E+00  0.00000000000E+00  0.29491522757E+02  0.29491522757E+02  0.00000000000E+00 0.  1.
          2   -1    0    0  501    0  0.00000000000E+00 -0.00000000000E+00 -0.10906093633E+04  0.10906093633E+04  0.00000000000E+00 0. -1.
         25    2    1    2    0    0  0.13283673258E+03  0.24011796359E+02 -0.41608568558E+03  0.45496788391E+03  0.12508522597E+03 0.  0.
          5    1    3    3  502    0  0.77048283162E+02  0.54566131298E+02 -0.12345671307E+03  0.15547647097E+03  0.41800000000E+01 0.  1.
         -5    1    3    3    0  502  0.55788449415E+02 -0.30554334939E+02 -0.29262897251E+03  0.29949141294E+03  0.41800000000E+01 0.  1.
        -11    1    1    2    0    0 -0.12997354561E+03 -0.43333363934E+02 -0.60821699007E+03  0.62345714368E+03  0.00000000000E+00 0. -1.
         11    1    1    2    0    0 -0.28631869698E+01  0.19321567575E+02 -0.36815164852E+02  0.41675858435E+02  0.00000000000E+00 0.  1.
</event>
<event>
 7    1  0.2733606E-009  0.1112755E+03  0.7561462E-02  0.1258226E+00
          1   -1    0    0  501    0  0.00000000000E+00  0.00000000000E+00  0.20240215846E+03  0.20240215846E+03  0.00000000000E+00 0. -1.
         -1   -1    0    0    0  501 -0.00000000000E+00 -0.00000000000E+00 -0.10699967457E+03  0.10699967457E+03  0.00000000000E+00 0.  1.
         25    2    1    2    0    0  0.50046691206E+02 -0.51450888425E+02  0.12644313015E+03  0.19180182730E+03  0.12509280783E+03 0.  0.
          5    1    3    3  502    0  0.76954678071E+02 -0.21019730428E+02  0.27036533999E+02  0.84334442045E+02  0.41800000000E+01 0. -1.
         -5    1    3    3    0  502 -0.26907986866E+02 -0.30431157997E+02  0.99406596153E+02  0.10746738525E+03  0.41800000000E+01 0. -1.
        -11    1    1    2    0    0 -0.66153958767E+02  0.24717009814E+02 -0.44648790712E+02  0.83551130135E+02  0.00000000000E+00 0.  1.
         11    1    1    2    0    0  0.16107267561E+02  0.26733878611E+02  0.13608144450E+02  0.34048875594E+02  0.00000000000E+00 0. -1.
</event>
<event>
 7    1  0.2733606E-009  0.2570052E+03  0.7561462E-02  0.1108956E+00
         -1   -1    0    0    0  501 -0.00000000000E+00  0.00000000000E+00  0.39197295323E+03  0.39197295323E+03  0.00000000000E+00 0.  1.
          1   -1    0    0  501    0  0.00000000000E+00 -0.00000000000E+00 -0.19110189403E+03  0.19110189403E+03  0.00000000000E+00 0. -1.
         25    2    1    2    0    0 -0.22648110554E+03  0.91635550165E+02  0.42019438352E+02  0.27767808106E+03  0.12509483715E+03 0.  0.
          5    1    3    3  502    0  0.13068116399E+02  0.80945790151E+01 -0.98062136570E+01  0.18706472194E+02  0.41800000000E+01 0.  1.
         -5    1    3    3    0  502 -0.23954922194E+03  0.83540971149E+02  0.51825652009E+02  0.25897160887E+03  0.41800000000E+01 0.  1.
        -11    1    1    2    0    0  0.91747591659E+02 -0.39166739029E+02  0.11926592609E+03  0.15548638252E+03  0.00000000000E+00 0.  1.
         11    1    1    2    0    0  0.13473351388E+03 -0.52468811135E+02  0.39585694758E+02  0.14991038368E+03  0.00000000000E+00 0. -1.
</event>
<event>
 7    1  0.2733606E-009  0.1462059E+03  0.7561462E-02  0.1205214E+00
         -3   -1    0    0    0  501 -0.00000000000E+00  0.00000000000E+00  0.89569431979E+02  0.89569431979E+02  0.00000000000E+00 0.  1.
          3   -1    0    0  501    0  0.00000000000E+00 -0.00000000000E+00 -0.36930892864E+03  0.36930892864E+03  0.00000000000E+00 0. -1.
         25    2    1    2    0    0  0.11071838552E+03  0.16696486011E+01 -0.30678719921E+02  0.16985401054E+03  0.12509137629E+03 0.  0.
          5    1    3    3  502    0 -0.20533021028E+01  0.44227890663E+02  0.31746655199E+01  0.44585572365E+02  0.41800000000E+01 0. -1.
         -5    1    3    3    0  502  0.11277168762E+03 -0.42558242061E+02 -0.33853385441E+02  0.12526843817E+03  0.41800000000E+01 0. -1.
        -11    1    1    2    0    0 -0.19187280306E+02 -0.26290327083E+02 -0.14353988450E+03  0.14718366576E+03  0.00000000000E+00 0. -1.
         11    1    1    2    0    0 -0.91531105212E+02  0.24620678482E+02 -0.10552089224E+03  0.14184068432E+03  0.00000000000E+00 0.  1.
</event>
<event>
 7    1  0.2733606E-009  0.7575931E+02  0.7561462E-02  0.1341536E+00
         -1   -1    0    0    0  501 -0.00000000000E+00  0.00000000000E+00  0.16080108954E+03  0.16080108954E+03  0.00000000000E+00 0.  1.
          1   -1    0    0  501    0  0.00000000000E+00 -0.00000000000E+00 -0.75405713464E+02  0.75405713464E+02  0.00000000000E+00 0. -1.
         25    2    1    2    0    0  0.59180505156E+01 -0.52362772415E+01  0.71289159843E+02  0.14419110792E+03  0.12508592795E+03 0.  0.
          5    1    3    3  502    0  0.51551999506E+02  0.10780643533E+02 -0.57381053724E+01  0.53143477316E+02  0.41800000000E+01 0. -1.
         -5    1    3    3    0  502 -0.45633948990E+02 -0.16016920775E+02  0.77027265215E+02  0.91047630601E+02  0.41800000000E+01 0. -1.
        -11    1    1    2    0    0 -0.22390044728E+02  0.18460262758E+02  0.45625956677E+02  0.54072389689E+02  0.00000000000E+00 0.  1.
         11    1    1    2    0    0  0.16471994213E+02 -0.13223985517E+02 -0.31519740448E+02  0.37943305394E+02  0.00000000000E+00 0. -1.
</event>
<event>
 7    1  0.2733606E-009  0.1099541E+03  0.7561462E-02  0.1260655E+00
         -1   -1    0    0    0  501 -0.00000000000E+00  0.00000000000E+00  0.20255866532E+03  0.20255866532E+03  0.00000000000E+00 0.  1.
          1   -1    0    0  501    0  0.00000000000E+00 -0.00000000000E+00 -0.85158830309E+02  0.85158830309E+02  0.00000000000E+00 0. -1.
         25    2    1    2    0    0 -0.35516206905E+01  0.57981291253E+02  0.84717151652E+02  0.16186661526E+03  0.12509740688E+03 0.  0.
          5    1    3    3  502    0 -0.32368977377E+02 -0.24056626877E+02  0.21554742573E+00  0.40546157078E+02  0.41800000000E+01 0.  1.
         -5    1    3    3    0  502  0.28817356686E+02  0.82037918129E+02  0.84501604226E+02  0.12132045818E+03  0.41800000000E+01 0.  1.
        -11    1    1    2    0    0  0.36816949149E+02 -0.20286574493E+02 -0.25335853102E+02  0.49080936235E+02  0.00000000000E+00 0. -1.
         11    1    1    2    0    0 -0.33265328458E+02 -0.37694716759E+02  0.58018536465E+02  0.76769944135E+02  0.00000000000E+00 0.  1.
</event>
<event>
 7    1  0.2733606E-009  0.9862030E+02  0.7561462E-02  0.1283224E+00
          1   -1    0    0  501    0  0.00000000000E+00  0.00000000000E+00  0.12869918817E+03  0.12869918817E+03  0.00000000000E+00 0. -1.
         -1   -1    0    0    0  501 -0.00000000000E+00 -0.00000000000E+00 -0.12203644884E+03  0.12203644884E+03  0.00000000000E+00 0.  1.
         25    2    1    2    0    0  0.27228377273E+02  0.53147493415E+02  0.12184761864E+02  0.13914741436E+03  0.12508994331E+03 0.  0.
          5    1    3    3  502    0  0.72715030663E+02  0.45982820471E+02 -0.11999794450E+02  0.86967597010E+02  0.41800000000E+01 0.  1.
         -5    1    3    3    0  502 -0.45486653390E+02  0.71646729441E+01  0.24184556313E+02  0.52179817354E+02  0.41800000000E+01 0.  1.
        -11    1    1    2    0    0 -0.29556083836E+02 -0.31877647289E+02 -0.47550461106E+02  0.64426646970E+02  0.00000000000E+00 0.  1.
         11    1    1    2    0    0  0.23277065629E+01 -0.21269846126E+02  0.42028438572E+02  0.47161575683E+02  0.00000000000E+00 0. -1.
</event>
<event>
 7    1  0.2733606E-009  0.7302750E+02  0.7561462E-02  0.1350090E+00
          1   -1    0    0  501    0  0.00000000000E+00  0.00000000000E+00  0.42624146120E+03  0.42624146120E+03  0.00000000000E+00 0. -1.
         -1   -1    0    0    0  501 -0.00000000000E+00 -0.00000000000E+00 -0.29846681216E+02  0.29846681216E+02  0.00000000000E+00 0.  1.
         25    2    1    2    0    0  0.44099030731E+02  0.71676635755E+01  0.24025192728E+03  0.27452524923E+03  0.12508806494E+03 0.  0.
          5    1    3    3  502    0 -0.11715478262E+02 -0.84190286898E+01  0.20707585293E+03  0.20761987800E+03  0.41800000000E+01 0. -1.
         -5    1    3    3    0  502  0.55814508993E+02  0.15586692265E+02  0.33176074349E+02  0.66905371228E+02  0.41800000000E+01 0. -1.
        -11    1    1    2    0    0 -0.41124544903E+02 -0.29368845175E+02  0.15007668777E+03  0.15835646331E+03  0.00000000000E+00 0. -1.
         11    1    1    2    0    0 -0.29744858281E+01  0.22201181600E+02  0.60661649299E+01  0.23206429870E+02  0.00000000000E+00 0.  1.
</event>
<event>
 7    1  0.2733606E-009  0.1326944E+03  0.7561462E-02  0.1223512E+00
          1   -1    0    0  501    0  0.00000000000E+00  0.00000000000E+00  0.44664269163E+03  0.44664269163E+03  0.00000000000E+00 0. -1.
         -1   -1    0    0    0  501 -0.00000000000E+00 -0.00000000000E+00 -0.45474180303E+02  0.45474180303E+02  0.00000000000E+00 0.  1.
         25    2    1    2    0    0  0.15999948931E+02  0.81740838754E+02  0.28774207960E+03  0.32462368835E+03  0.12508985403E+03 0.  0.
          5    1    3    3  502    0  0.37977930281E+02 -0.16836846195E+02  0.13624411998E+03  0.14249819370E+03  0.41800000000E+01 0.  1.
         -5    1    3    3    0  502 -0.21977981350E+02  0.98577684949E+02  0.15149795962E+03  0.18212549465E+03  0.41800000000E+01 0.  1.
        -11    1    1    2    0    0 -0.14788364232E+01  0.19861793935E+02  0.12303503344E+02  0.23410553390E+02  0.00000000000E+00 0.  1.
         11    1    1    2    0    0 -0.14521112508E+02 -0.10160263269E+03  0.10112292839E+03  0.14408263019E+03  0.00000000000E+00 0. -1.
</event>
<event>
 7    1  0.2733606E-009  0.1239498E+03  0.7561462E-02  0.1236720E+00
         -1   -1    0    0    0  501 -0.00000000000E+00  0.00000000000E+00  0.11794247224E+03  0.11794247224E+03  0.00000000000E+00 0.  1.
          1   -1    0    0  501    0  0.00000000000E+00 -0.00000000000E+00 -0.13710684030E+03  0.13710684030E+03  0.00000000000E+00 0. -1.
         25    2    1    2    0    0  0.57864102164E+02  0.27030065565E+02 -0.13918390335E+02  0.14114134469E+03  0.12509308065E+03 0.  0.
          5    1    3    3  502    0  0.64556012280E+02  0.67184490633E+02 -0.28776358763E+02  0.97605254607E+02  0.41800000000E+01 0. -1.
         -5    1    3    3    0  502 -0.66919101158E+01 -0.40154425068E+02  0.14857968428E+02  0.43536090079E+02  0.41800000000E+01 0. -1.
        -11    1    1    2    0    0 -0.68763354822E+02  0.14923574536E+02 -0.52759476407E+01  0.70561658617E+02  0.00000000000E+00 0.  1.
         11    1    1    2    0    0  0.10899252657E+02 -0.41953640101E+02  0.29969917935E-01  0.43346309236E+02  0.00000000000E+00 0. -1.
</event>
<event>
 7    1  0.2733606E-009  0.9922199E+02  0.7561462E-02  0.1281941E+00
          2   -1    0    0  501    0  0.00000000000E+00  0.00000000000E+00  0.57898649042E+03  0.57898649042E+03  0.00000000000E+00 0. -1.
         -2   -1    0    0    0  501 -0.00000000000E+00 -0.00000000000E+00 -0.27430213955E+02  0.27430213955E+02  0.00000000000E+00 0.  1.
         25    2    1    2    0    0  0.41292746028E+02 -0.46776572963E+02  0.35229904719E+03  0.37901863229E+03  0.12508943330E+03 0.  0.
          5    1    3    3  502    0 -0.60105463964E+01 -0.72255914011E+02  0.11765158783E+03  0.13826211447E+03  0.41800000000E+01 0. -1.
         -5    1    3    3    0  502  0.47303292424E+02  0.25479341048E+02  0.23464745935E+03  0.24075651783E+03  0.41800000000E+01 0. -1.
        -11    1    1    2    0    0 -0.11429191222E+02  0.39595499008E+02  0.19127305835E+03  0.19566249719E+03  0.00000000000E+00 0. -1.
         11    1    1    2    0    0 -0.29863554806E+02  0.71810739553E+01  0.79841709305E+01  0.31735574900E+02  0.00000000000E+00 0.  1.
</event>
<event>
 7    1  0.2733606E-009  0.1285338E+03  0.7561462E-02  0.1229648E+00
          2   -1    0    0  501    0  0.00000000000E+00  0.00000000000E+00  0.66881933185E+03  0.66881933185E+03  0.00000000000E+00 0. -1.
         -2   -1    0    0    0  501 -0.00000000000E+00 -0.00000000000E+00 -0.33923252101E+02  0.33923252101E+02  0.00000000000E+00 0.  1.
         25    2    1    2    0    0 -0.10080711598E+03 -0.18521591750E+02  0.29482013633E+03  0.33626352790E+03  0.12509645647E+03 0.  0.
          5    1    3    3  502    0 -0.58739120569E+02 -0.43657039226E+02  0.27261735205E+03  0.28230110591E+03  0.41800000000E+01 0. -1.
         -5    1    3    3    0  502 -0.42067995408E+02  0.25135447476E+02  0.22202784273E+02  0.53962421989E+02  0.41800000000E+01 0. -1.
        -11    1    1    2    0    0  0.69791271490E+02  0.53420468184E+02  0.19075028978E+03  0.21002438203E+03  0.00000000000E+00 0.  1.
         11    1    1    2    0    0  0.31015844487E+02 -0.34898876434E+02  0.14932565365E+03  0.15645467402E+03  0.00000000000E+00 0. -1.
</event>
<event>
 7    1  0.2733606E-009  0.1325108E+03  0.7561462E-02  0.1223777E+00
         -4   -1    0    0    0  501 -0.00000000000E+00  0.00000000000E+00  0.18447297473E+03  0.18447297473E+03  0.00000000000E+00 0.  1.
          4   -1    0    0  501    0  0.00000000000E+00 -0.00000000000E+00 -0.15391403386E+03  0.15391403386E+03  0.00000000000E+00 0. -1.
         25    2    1    2    0    0 -0.78230975174E+02 -0.44235145566E+02 -0.74085668412E+02  0.17091510560E+03  0.12508578447E+03 0.  0.
          5    1    3    3  502    0 -0.10204572295E+03 -0.18054403633E+02 -0.19203961688E+02  0.10547774935E+03  0.41800000000E+01 0.  1.
         -5    1    3    3    0  502  0.23814747777E+02 -0.26180741934E+02 -0.54881706724E+02  0.65437356249E+02  0.41800000000E+01 0.  1.
        -11    1    1    2    0    0  0.46110927309E+02 -0.22722677582E+02  0.66297922484E+02  0.83892503953E+02  0.00000000000E+00 0.  1.
         11    1    1    2    0    0  0.32120047865E+02  0.66957823148E+02  0.38346686796E+02  0.83579399040E+02  0.00000000000E+00 0. -1.
</event>
<event>
 7    1  0.2733606E-009  0.7181020E+02  0.7561462E-02  0.1354043E+00
         -2   -1    0    0    0  501 -0.00000000000E+00  0.00000000000E+00  0.13107640863E+02  0.13107640863E+02  0.00000000000E+00 0.  1.
          2   -1    0    0  501    0  0.00000000000E+00 -0.00000000000E+00 -0.96189654261E+03  0.96189654261E+03  0.00000000000E+00 0. -1.
         25    2    1    2    0    0  0.27814556864E+02  0.60380704213E+01 -0.57446638993E+03  0.58861632008E+03  0.12508969275E+03 0.  0.
          5    1    3    3  502    0  0.75969754202E+01 -0.20495859883E+02 -0.54003597421E+03  0.54049432943E+03  0.41800000000E+01 0.  1.
         -5    1    3    3    0  502  0.20217581444E+02  0.26533930305E+02 -0.34430415718E+02  0.48121990642E+02  0.41800000000E+01 0.  1.
        -11    1    1    2    0    0 -0.48607136699E+02 -0.29134092892E+02 -0.30768507314E+03  0.31286027766E+03  0.00000000000E+00 0. -1.
         11    1    1    2    0    0  0.20792579835E+02  0.23096022471E+02 -0.66637438675E+02  0.73527585730E+02  0.00000000000E+00 0.  1.
</event>
<event>
 7    1  0.3167796E-009  0.1910120E+03  0.7561462E-02  0.1157552E+00
          1   -1    0    0  501    0  0.00000000000E+00  0.00000000000E+00  0.32356690478E+03  0.32356690478E+03  0.00000000000E+00 0. -1.
         -1   -1    0    0    0  501 -0.00000000000E+00 -0.00000000000E+00 -0.16274895317E+03  0.16274895317E+03  0.00000000000E+00 0.  1.
         25    2    1    2    0    0  0.45364382979E+01  0.17659131808E+03 -0.20485781151E+02  0.21742085384E+03  0.12508831905E+03 0.  0.
          5    1    3    3  502    0 -0.28179573488E+02  0.70870263634E+01 -0.33142599145E+02  0.44274355814E+02  0.41800000000E+01 0. -1.
         -5    1    3    3    0  502  0.32716011786E+02  0.16950429172E+03  0.12656817994E+02  0.17314649803E+03  0.41800000000E+01 0. -1.
        -11    1    1    2    0    0  0.11394613656E+02 -0.13445903067E+03  0.77198065769E+02  0.15546256626E+03  0.00000000000E+00 0.  1.
         11    1    1    2    0    0 -0.15931051954E+02 -0.42132287408E+02  0.10410566699E+03  0.11343243785E+03  0.00000000000E+00 0. -1.
</event>
<event>
 7    1  0.2733606E-009  0.7903114E+02  0.7561462E-02  0.1331824E+00
          3   -1    0    0  501    0  0.00000000000E+00  0.00000000000E+00  0.48219322930E+02  0.48219322930E+02  0.00000000000E+00 0. -1.
         -3   -1    0    0    0  501 -0.00000000000E+00 -0.00000000000E+00 -0.28797279662E+03  0.28797279662E+03  0.00000000000E+00 0.  1.
         25    2    1    2    0    0  0.14947147292E+02  0.21700629756E+02 -0.15112701831E+03  0.19794240884E+03  0.12508991570E+03 0.  0.
          5    1    3    3  502    0 -0.75676794978E+01  0.48663514175E+02 -0.74612193918E+01  0.49985493692E+02  0.41800000000E+01 0.  1.
         -5    1    3    3    0  502  0.22514826789E+02 -0.26962884418E+02 -0.14366579892E+03  0.14795691515E+03  0.41800000000E+01 0.  1.
        -11    1    1    2    0    0  0.11272489630E+02  0.20606787929E+02  0.11710412439E+02  0.26245809012E+02  0.00000000000E+00 0. -1.
         11    1    1    2    0    0 -0.26219636922E+02 -0.42307417685E+02 -0.10033686782E+03  0.11200390170E+03  0.00000000000E+00 0.  1.
</event>
<event>
 7    1  0.2733606E-009  0.1030182E+03  0.7561462E-02  0.1274074E+00
         -2   -1    0    0    0  501 -0.00000000000E+00  0.00000000000E+00  0.20064912664E+03  0.20064912664E+03  0.00000000000E+00 0.  1.
          2   -1    0    0  501    0  0.00000000000E+00 -0.00000000000E+00 -0.73607724556E+02  0.73607724556E+02  0.00000000000E+00 0. -1.
         25    2    1    2    0    0  0.52870475973E+02 -0.63619559027E+01  0.50187211831E+02  0.14491962071E+03  0.12508868263E+03 0.  0.
          5    1    3    3  502    0  0.76326466853E+02 -0.19504621386E+02  0.74442625769E+02  0.10846813693E+03  0.41800000000E+01 0.  1.
         -5    1    3    3    0  502 -0.23455990879E+02  0.13142665483E+02 -0.24255413938E+02  0.36451483776E+02  0.41800000000E+01 0.  1.
        -11    1    1    2    0    0 -0.20792657179E+02 -0.39106974269E+02  0.16549260161E+02  0.47281793969E+02  0.00000000000E+00 0. -1.
         11    1    1    2    0    0 -0.32077818794E+02  0.45468930172E+02  0.60304930093E+02  0.82055436523E+02  0.00000000000E+00 0.  1.
</event>
<event>
 7    1  0.2733606E-009  0.1167285E+03  0.7561462E-02  0.1248594E+00
         -1   -1    0    0    0  501 -0.00000000000E+00  0.00000000000E+00  0.59867250824E+02  0.59867250824E+02  0.00000000000E+00 0.  1.
          1   -1    0    0  501    0  0.00000000000E+00 -0.00000000000E+00 -0.37177237178E+03  0.37177237178E+03  0.00000000000E+00 0. -1.
         25    2    1    2    0    0  0.27910331737E+01  0.74956851613E+02 -0.20191033912E+03  0.24908059776E+03  0.12508812760E+03 0.  0.
          5    1    3    3  502    0 -0.30735109446E+02 -0.21852448374E+02 -0.27858159125E+02  0.47071497559E+02  0.41800000000E+01 0.  1.
         -5    1    3    3    0  502  0.33526142620E+02  0.96809299987E+02 -0.17405218000E+03  0.20200910020E+03  0.41800000000E+01 0.  1.
        -11    1    1    2    0    0 -0.26141490177E+02 -0.18914582481E+02 -0.11707057124E+03  0.12143581675E+03  0.00000000000E+00 0. -1.
         11    1    1    2    0    0  0.23350457004E+02 -0.56042269132E+02  0.70757894065E+01  0.61123208092E+02  0.00000000000E+00 0.  1.
</event>
<event>
 7    1  0.2733606E-009  0.1391929E+03  0.7561462E-02  0.1214419E+00
          1   -1    0    0  501    0  0.00000000000E+00  0.00000000000E+00  0.87237267072E+02  0.87237267072E+02  0.00000000000E+00 0. -1.
         -1   -1    0    0    0  501 -0.00000000000E+00 -0.00000000000E+00 -0.46185473024E+03  0.46185473024E+03  0.00000000000E+00 0.  1.
         25    2    1    2    0    0 -0.29700752480E+02  0.91587110860E+02 -0.68505780053E+01  0.15800132865E+03  0.12508859206E+03 0.  0.
          5    1    3    3  502    0  0.10587854480E+02 -0.22932591771E+02  0.21307022952E+02  0.33308678372E+02  0.41800000000E+01 0. -1.
         -5    1    3    3    0  502 -0.40288606960E+02  0.11451970263E+03 -0.28157600957E+02  0.12469265028E+03  0.41800000000E+01 0. -1.
        -11    1    1    2    0    0  0.47988052159E+02 -0.11748291965E+02 -0.10908565893E+03  0.11975206261E+03  0.00000000000E+00 0. -1.
         11    1    1    2    0    0 -0.18287299678E+02 -0.79838818895E+02 -0.25868122623E+03  0.27133860605E+03  0.00000000000E+00 0.  1.
</event>
<event>
 7    1  0.4141580E-009  0.1677271E+03  0.7561462E-02  0.1180239E+00
         -1   -1    0    0    0  501 -0.00000000000E+00  0.00000000000E+00  0.31124791586E+02  0.31124791586E+02  0.00000000000E+00 0.  1.
          1   -1    0    0  501    0  0.00000000000E+00 -0.00000000000E+00 -0.95154959197E+03  0.95154959197E+03  0.00000000000E+00 0. -1.
         25    2    1    2    0    0 -0.12841010271E+03  0.31420112887E+02 -0.53799586784E+03  0.56794773533E+03  0.12509475724E+03 0.  0.
          5    1    3    3  502    0 -0.64776828100E+02  0.77297522716E+02 -0.25500422379E+03  0.27425457340E+03  0.41800000000E+01 0. -1.
         -5    1    3    3    0  502 -0.63633274608E+02 -0.45877409828E+02 -0.28299164404E+03  0.29369316194E+03  0.41800000000E+01 0. -1.
        -11    1    1    2    0    0  0.37315188866E+02 -0.50595006717E+02 -0.10832359887E+03  0.12524488052E+03  0.00000000000E+00 0. -1.
         11    1    1    2    0    0  0.91094913842E+02  0.19174893830E+02 -0.27410533367E+03  0.28948176770E+03  0.00000000000E+00 0.  1.
</event>
<event>
 7    1  0.2733606E-009  0.1200655E+03  0.7561462E-02  0.1242989E+00
          1   -1    0    0  501    0  0.00000000000E+00  0.00000000000E+00  0.39091130457E+03  0.39091130457E+03  0.00000000000E+00 0. -1.
         -1   -1    0    0    0  501 -0.00000000000E+00 -0.00000000000E+00 -0.42303711208E+02  0.42303711208E+02  0.00000000000E+00 0.  1.
         25    2    1    2    0    0 -0.53364278498E+02 -0.27098433304E+02  0.20064503648E+03  0.24390194793E+03  0.12509060010E+03 0.  0.
          5    1    3    3  502    0 -0.40573614838E+02 -0.69711036377E+02  0.17410844932E+03  0.19192986047E+03  0.41800000000E+01 0. -1.
         -5    1    3    3    0  502 -0.12790663661E+02  0.42612603073E+02  0.26536587158E+02  0.51972087465E+02  0.41800000000E+01 0. -1.
        -11    1    1    2    0    0  0.66269161752E+02 -0.17259775732E+02  0.65333402031E+02  0.94646474201E+02  0.00000000000E+00 0.  1.
         11    1    1    2    0    0 -0.12904883254E+02  0.44358209037E+02  0.82629154848E+02  0.94666593641E+02  0.00000000000E+00 0. -1.
</event>
<event>
 7    1  0.2733606E-009  0.9304340E+02  0.7561462E-02  0.1295645E+00
          2   -1    0    0  501    0  0.00000000000E+00  0.00000000000E+00  0.74252529329E+03  0.74252529329E+03  0.00000000000E+00 0. -1.
         -2   -1    0    0    0  501 -0.00000000000E+00 -0.00000000000E+00 -0.20236196453E+02  0.20236196453E+02  0.00000000000E+00 0.  1.
         25    2    1    2    0    0 -0.34910526143E+02  0.17872921410E+02  0.54393475281E+03  0.55950965564E+03  0.12509137973E+03 0.  0.
          5    1    3    3  502    0 -0.41163108565E+02  0.65012782237E+02  0.41337787684E+03  0.42049947066E+03  0.41800000000E+01 0. -1.
         -5    1    3    3    0  502  0.62525824220E+01 -0.47139860827E+02  0.13055687596E+03  0.13901018498E+03  0.41800000000E+01 0. -1.
        -11    1    1    2    0    0  0.17155726442E+02  0.15735216782E+02  0.25878715669E+01  0.23422490820E+02  0.00000000000E+00 0.  1.
         11    1    1    2    0    0  0.17754799700E+02 -0.33608138192E+02  0.17576647247E+03  0.17982934329E+03  0.00000000000E+00 0. -1.
</event>
<event>
 7    1  0.2733606E-009  0.1077573E+03  0.7561462E-02  0.1264780E+00
         -1   -1    0    0    0  501 -0.00000000000E+00  0.00000000000E+00  0.29558908390E+03  0.29558908390E+03  0.00000000000E+00 0.  1.
          1   -1    0    0  501    0  0.00000000000E+00 -0.00000000000E+00 -0.53580302803E+02  0.53580302803E+02  0.00000000000E+00 0. -1.
         25    2    1    2    0    0 -0.42738041008E+02  0.23366296222E+02  0.78031643743E+02  0.15527310408E+03  0.12509306726E+03 0.  0.
          5    1    3    3  502    0  0.32160217851E+02 -0.14744634913E+02  0.59134285425E+02  0.69036367109E+02  0.41800000000E+01 0. -1.
         -5    1    3    3    0  502 -0.74898258859E+02  0.38110931136E+02  0.18897358318E+02  0.86236736972E+02  0.41800000000E+01 0. -1.
        -11    1    1    2    0    0  0.55872941170E+02 -0.44116709178E+02  0.83361667833E+02  0.10962316018E+03  0.00000000000E+00 0.  1.
         11    1    1    2    0    0 -0.13134900162E+02  0.20750412956E+02  0.80615469527E+02  0.84273122448E+02  0.00000000000E+00 0. -1.
</event>
<event>
 7    1  0.2733606E-009  0.9370197E+02  0.7561462E-02  0.1294127E+00
          1   -1    0    0  501    0  0.00000000000E+00  0.00000000000E+00  0.45413802703E+03  0.45413802703E+03  0.00000000000E+00 0. -1.
         -1   -1    0    0    0  501 -0.00000000000E+00 -0.00000000000E+00 -0.33434019185E+02  0.33434019185E+02  0.00000000000E+00 0.  1.
         25    2    1    2    0    0 -0.37188413128E+02 -0.43824236754E+02  0.23821844759E+03  0.27513370257E+03  0.12508790397E+03 0.  0.
          5    1    3    3  502    0  0.10613008625E+02 -0.38925428802E+02  0.21978729767E+03  0.22349888943E+03  0.41800000000E+01 0.  1.
         -5    1    3    3    0  502 -0.47801421753E+02 -0.48988079525E+01  0.18431149926E+02  0.51634813145E+02  0.41800000000E+01 0.  1.
        -11    1    1    2    0    0  0.40649063700E+02 -0.12228788015E+02  0.12526906396E+03  0.13226574772E+03  0.00000000000E+00 0.  1.
         11    1    1    2    0    0 -0.34606505717E+01  0.56053024770E+02  0.57216496295E+02  0.80172595920E+02  0.00000000000E+00 0. -1.
</event>
<event>
 7    1  0.2733606E-009  0.7788231E+02  0.7561462E-02  0.1335171E+00
          2   -1    0    0  501    0  0.00000000000E+00  0.00000000000E+00  0.25005778510E+03  0.25005778510E+03  0.00000000000E+00 0. -1.
         -2   -1    0    0    0  501 -0.00000000000E+00 -0.00000000000E+00 -0.74011038753E+02  0.74011038753E+02  0.00000000000E+00 0.  1.
         25    2    1    2    0    0  0.68143901378E+01 -0.47738581356E+02  0.17681286691E+03  0.22189134001E+03  0.12509024265E+03 0.  0.
          5    1    3    3  502    0  0.21516738895E+02  0.23798214862E+01 -0.12579782359E+02  0.25384186557E+02  0.41800000000E+01 0. -1.
         -5    1    3    3    0  502 -0.14702348757E+02 -0.50118402842E+02  0.18939264927E+03  0.19650715346E+03  0.41800000000E+01 0. -1.
        -11    1    1    2    0    0  0.26489290247E+02  0.38545774376E+02 -0.31128917714E+02  0.56182459345E+02  0.00000000000E+00 0.  1.
         11    1    1    2    0    0 -0.33303680385E+02  0.91928069800E+01  0.30362797149E+02  0.45995024493E+02  0.00000000000E+00 0. -1.
</event>
<event>
 7    1  0.2733606E-009  0.1370794E+03  0.7561462E-02  0.1217314E+00
          2   -1    0    0  501    0  0.00000000000E+00  0.00000000000E+00  0.83186964351E+03  0.83186964351E+03  0.00000000000E+00 0. -1.
         -2   -1    0    0    0  501 -0.00000000000E+00 -0.00000000000E+00 -0.32679867862E+02  0.32679867862E+02  0.00000000000E+00 0.  1.
         25    2    1    2    0    0 -0.88353131635E+02 -0.92394315989E+02  0.43952653673E+03  0.47452511272E+03  0.12509005002E+03 0.  0.
          5    1    3    3  502    0 -0.69339441304E+02 -0.71657133089E+02  0.43428254383E+03  0.44560240475E+03  0.41800000000E+01 0. -1.
         -5    1    3    3    0  502 -0.19013690331E+02 -0.20737182901E+02  0.52439928988E+01  0.28922707967E+02  0.41800000000E+01 0. -1.
        -11    1    1    2    0    0  0.10018404031E+03  0.76253941351E+02  0.26660210466E+03  0.29483586572E+03  0.00000000000E+00 0.  1.
         11    1    1    2    0    0 -0.11830908670E+02  0.16140374639E+02  0.93061134257E+02  0.95188532937E+02  0.00000000000E+00 0. -1.
</event>
<event>
 7    1  0.2733606E-009  0.9726435E+02  0.7561462E-02  0.1286156E+00
          2   -1    0    0  501    0  0.00000000000E+00  0.00000000000E+00  0.55408114302E+02  0.55408114302E+02  0.00000000000E+00 0. -1.
         -2   -1    0    0    0  501 -0.00000000000E+00 -0.00000000000E+00 -0.25082891299E+03  0.25082891299E+03  0.00000000000E+00 0.  1.
         25    2    1    2    0    0  0.35438396536E+02  0.76655524652E+01 -0.72443220468E+02  0.14902995055E+03  0.12508902960E+03 0.  0.
          5    1    3    3  502    0  0.16074782574E+02  0.65792068194E+02 -0.28924324517E+02  0.73763702597E+02  0.41800000000E+01 0. -1.
         -5    1    3    3    0  502  0.19363613962E+02 -0.58126515729E+02 -0.43518895950E+02  0.75266247955E+02  0.41800000000E+01 0. -1.
        -11    1    1    2    0    0 -0.19432728708E+02 -0.31226704236E+02 -0.12335469498E+03  0.12872108909E+03  0.00000000000E+00 0.  1.
         11    1    1    2    0    0 -0.16005667828E+02  0.23561151771E+02  0.37711676090E+00  0.28485987650E+02  0.00000000000E+00 0. -1.
</event>
<event>
 7    1  0.2733606E-009  0.1763609E+03  0.7561462E-02  0.1171372E+00
         -2   -1    0    0    0  501 -0.00000000000E+00  0.00000000000E+00  0.86228874421E+02  0.86228874421E+02  0.00000000000E+00 0.  1.
          2   -1    0    0  501    0  0.00000000000E+00 -0.00000000000E+00 -0.46782509144E+03  0.46782509144E+03  0.00000000000E+00 0. -1.
         25    2    1    2    0    0 -0.84591574857E+02  0.12244503934E+03 -0.90955728529E+02  0.21463643273E+03  0.12508929414E+03 0.  0.
          5    1    3    3  502    0 -0.65473329214E+01 -0.16941603902E+02 -0.44457317513E+02  0.48205922786E+02  0.41800000000E+01 0. -1.
         -5    1    3    3    0  502 -0.78044241936E+02  0.13938664324E+03 -0.46498411016E+02  0.16643050995E+03  0.41800000000E+01 0. -1.
        -11    1    1    2    0    0  0.96060026487E+02 -0.65675558646E+02 -0.21076623285E+03  0.24075550378E+03  0.00000000000E+00 0.  1.
         11    1    1    2    0    0 -0.11468451629E+02 -0.56769480694E+02 -0.79874255642E+02  0.98662029350E+02  0.00000000000E+00 0. -1.
</event>
<event>
 7    1  0.2733606E-009  0.1041153E+03  0.7561462E-02  0.1271873E+00
         -1   -1    0    0    0  501 -0.00000000000E+00  0.00000000000E+00  0.90383844719E+02  0.90383844719E+02  0.00000000000E+00 0.  1.
          1   -1    0    0  501    0  0.00000000000E+00 -0.00000000000E+00 -0.33443232831E+03  0.33443232831E+03  0.00000000000E+00 0. -1.
         25    2    1    2    0    0 -0.15712315248E+02 -0.21284926416E+02  0.32545484331E+02  0.13193373388E+03  0.12508947455E+03 0.  0.
          5    1    3    3  502    0 -0.26210792620E+02  0.48630832103E+02  0.39086379814E+01  0.55540195640E+02  0.41800000000E+01 0. -1.
         -5    1    3    3    0  502  0.10498477372E+02 -0.69915758518E+02  0.28636846349E+02  0.76393538242E+02  0.41800000000E+01 0. -1.
        -11    1    1    2    0    0  0.20574104788E+02 -0.26737560994E+02 -0.44612679224E+02  0.55932835645E+02  0.00000000000E+00 0.  1.
         11    1    1    2    0    0 -0.48617895403E+01  0.48022487409E+02 -0.23198128869E+03  0.23694960350E+03  0.00000000000E+00 0. -1.
</event>
<event>
 7    1  0.3307039E-009  0.9782984E+02  0.7561462E-02  0.1284927E+00
         -2   -1    0    0    0  501 -0.00000000000E+00  0.00000000000E+00  0.39292404712E+03  0.39292404712E+03  0.00000000000E+00 0.  1.
          2   -1    0    0  501    0  0.00000000000E+00 -0.00000000000E+00 -0.34736514063E+02  0.34736514063E+02  0.00000000000E+00 0. -1.
         25    2    1    2    0    0  0.85181934841E+01 -0.40019942981E+02  0.23014043296E+03  0.26511525126E+03  0.12508925658E+03 0.  0.
          5    1    3    3  502    0  0.53073792507E+02  0.19886288669E+02  0.98331910924E+02  0.11357345215E+03  0.41800000000E+01 0.  1.
         -5    1    3    3    0  502 -0.44555599023E+02 -0.59906231649E+02  0.13180852203E+03  0.15154179910E+03  0.41800000000E+01 0.  1.
        -11    1    1    2    0    0 -0.23165518077E+02  0.43241149264E+02  0.13669677707E+03  0.14523238991E+03  0.00000000000E+00 0.  1.
         11    1    1    2    0    0  0.14647324593E+02 -0.32212062837E+01 -0.86496769743E+01  0.17312920014E+02  0.00000000000E+00 0. -1.
</event>
<event>
 7    1  0.2733606E-009  0.1186197E+03  0.7561462E-02  0.1245392E+00
         -2   -1    0    0    0  501 -0.00000000000E+00  0.00000000000E+00  0.12089988706E+03  0.12089988706E+03  0.00000000000E+00 0.  1.
          2   -1    0    0  501    0  0.00000000000E+00 -0.00000000000E+00 -0.15355672995E+03  0.15355672995E+03  0.00000000000E+00 0. -1.
         25    2    1    2    0    0  0.44040204128E+02 -0.45547150423E+02  0.34785668012E+02  0.14447124628E+03  0.12509122995E+03 0.  0.
          5    1    3    3  502    0  0.64761194295E+02 -0.69312197522E+02 -0.31041471835E+01  0.95001584943E+02  0.41800000000E+01 0.  1.
         -5    1    3    3    0  502 -0.20720990167E+02  0.23765047099E+02  0.37889815195E+02  0.49469661336E+02  0.41800000000E+01 0.  1.
        -11    1    1    2    0    0 -0.71469534857E+02  0.23319266313E+02 -0.39262989631E+02  0.84813117788E+02  0.00000000000E+00 0. -1.
         11    1    1    2    0    0  0.27429330729E+02  0.22227884111E+02 -0.28179521276E+02  0.45172252939E+02  0.00000000000E+00 0.  1.
</event>
<event>
 7    1  0.2733606E-009  0.1012072E+03  0.7561462E-02  0.1277778E+00
          2   -1    0    0  501    0  0.00000000000E+00  0.00000000000E+00  0.11561847043E+03  0.11561847043E+03  0.00000000000E+00 0.  1.
         -2   -1    0    0    0  501 -0.00000000000E+00 -0.00000000000E+00 -0.10914406878E+03  0.10914406878E+03  0.00000000000E+00 0. -1.
         25    2    1    2    0    0  0.18909023896E+02  0.86504643621E+00 -0.21367078640E+02  0.12830264905E+03  0.12508684269E+03 0.  0.
          5    1    3    3  502    0 -0.17496021090E+02 -0.50990523795E+02 -0.33570290045E+02  0.63644175260E+02  0.41800000000E+01 0. -1.
         -5    1    3    3    0  502  0.36405044985E+02  0.51855570231E+02  0.12203211405E+02  0.64658473791E+02  0.41800000000E+01 0. -1.
        -11    1    1    2    0    0 -0.30487597962E+02 -0.36395717934E+02  0.34253151754E+02  0.58544174079E+02  0.00000000000E+00 0.  1.
         11    1    1    2    0    0  0.11578574067E+02  0.35530671498E+02 -0.64116714630E+01  0.37915716075E+02  0.00000000000E+00 0. -1.
</event>
<event>
 7    1  0.2733606E-009  0.1017215E+03  0.7561462E-02  0.1276717E+00
          1   -1    0    0  501    0  0.00000000000E+00  0.00000000000E+00  0.24638930799E+03  0.24638930799E+03  0.00000000000E+00 0. -1.
         -1   -1    0    0    0  501 -0.00000000000E+00 -0.00000000000E+00 -0.66556666974E+02  0.66556666974E+02  0.00000000000E+00 0.  1.
         25    2    1    2    0    0  0.74078737274E+01 -0.67891788555E+02  0.11269099739E+03  0.18168521875E+03  0.12508431666E+03 0.  0.
          5    1    3    3  502    0 -0.42980486327E+02 -0.26704467807E+02 -0.81398053791E+00  0.50779777176E+02  0.41800000000E+01 0. -1.
         -5    1    3    3    0  502  0.50388360054E+02 -0.41187320748E+02  0.11350497793E+03  0.13090544158E+03  0.41800000000E+01 0. -1.
        -11    1    1    2    0    0 -0.29358687631E+02  0.22343215085E+02 -0.10722519996E+02  0.38420362242E+02  0.00000000000E+00 0.  1.
         11    1    1    2    0    0  0.21950813904E+02  0.45548573470E+02  0.77864163619E+02  0.92840393969E+02  0.00000000000E+00 0. -1.
</event>
<event>
 7    1  0.2733606E-009  0.5810728E+02  0.7561462E-02  0.1405951E+00
          2   -1    0    0  501    0  0.00000000000E+00  0.00000000000E+00  0.67319740132E+02  0.67319740132E+02  0.00000000000E+00 0. -1.
         -2   -1    0    0    0  501 -0.00000000000E+00 -0.00000000000E+00 -0.18894748981E+03  0.18894748981E+03  0.00000000000E+00 0.  1.
         25    2    1    2    0    0  0.19324964665E+02  0.81727316288E+01 -0.48612557084E+02  0.13584275471E+03  0.12509926259E+03 0.  0.
          5    1    3    3  502    0  0.10871073619E+01 -0.24722344765E+02  0.35577246249E+02  0.43538362208E+02  0.41800000000E+01 0.  1.
         -5    1    3    3    0  502  0.18237857303E+02  0.32895076394E+02 -0.84189803333E+02  0.92304392502E+02  0.41800000000E+01 0.  1.
        -11    1    1    2    0    0  0.13080103185E+02  0.96835457036E+01  0.16737126887E+02  0.23345054576E+02  0.00000000000E+00 0. -1.
         11    1    1    2    0    0 -0.32405067849E+02 -0.17856277332E+02 -0.89752319477E+02  0.97079420651E+02  0.00000000000E+00 0.  1.
</event>
<event>
 7    1  0.2733606E-009  0.9828189E+02  0.7561462E-02  0.1283951E+00
          2   -1    0    0  501    0  0.00000000000E+00  0.00000000000E+00  0.40298927417E+03  0.40298927417E+03  0.00000000000E+00 0. -1.
         -2   -1    0    0    0  501 -0.00000000000E+00 -0.00000000000E+00 -0.42400766228E+02  0.42400766228E+02  0.00000000000E+00 0.  1.
         25    2    1    2    0    0  0.11715929721E+01 -0.41577620789E+02  0.30334432114E+03  0.33074876731E+03  0.12508756425E+03 0.  0.
          5    1    3    3  502    0  0.99087651274E+01 -0.75982261827E+02  0.10996566964E+03  0.13409477484E+03  0.41800000000E+01 0. -1.
         -5    1    3    3    0  502 -0.87371721553E+01  0.34404641037E+02  0.19337865149E+03  0.19665399247E+03  0.41800000000E+01 0. -1.
        -11    1    1    2    0    0  0.33982540915E+02  0.34099843706E+02  0.61881842232E+02  0.78402645528E+02  0.00000000000E+00 0. -1.
         11    1    1    2    0    0 -0.35154133887E+02  0.74777770836E+01 -0.46376554269E+01  0.36238627558E+02  0.00000000000E+00 0.  1.
</event>
<event>
 7    1  0.2733606E-009  0.1369203E+03  0.7561462E-02  0.1217534E+00
         -2   -1    0    0    0  501 -0.00000000000E+00  0.00000000000E+00  0.30863880445E+02  0.30863880445E+02  0.00000000000E+00 0.  1.
          2   -1    0    0  501    0  0.00000000000E+00 -0.00000000000E+00 -0.86326899979E+03  0.86326899979E+03  0.00000000000E+00 0. -1.
         25    2    1    2    0    0  0.84692228159E+02  0.82399269894E+02 -0.36471539116E+03  0.40327030169E+03  0.12508879440E+03 0.  0.
          5    1    3    3  502    0  0.13597281047E+01 -0.62532443481E+01 -0.19094397837E+03  0.19109690527E+03  0.41800000000E+01 0. -1.
         -5    1    3    3    0  502  0.83332500055E+02  0.88652514242E+02 -0.17377141279E+03  0.21217339642E+03  0.41800000000E+01 0. -1.
        -11    1    1    2    0    0 -0.14865568313E+02  0.17253070159E+02 -0.38249807614E+02  0.44516304133E+02  0.00000000000E+00 0.  1.
         11    1    1    2    0    0 -0.69826659846E+02 -0.99652340053E+02 -0.42943992057E+03  0.44634627441E+03  0.00000000000E+00 0. -1.
</event>
<event>
 7    1  0.2733606E-009  0.8252453E+02  0.7561462E-02  0.1322036E+00
          2   -1    0    0  501    0  0.00000000000E+00  0.00000000000E+00  0.89887385996E+03  0.89887385996E+03  0.00000000000E+00 0. -1.
         -2   -1    0    0    0  501 -0.00000000000E+00 -0.00000000000E+00 -0.13865926342E+02  0.13865926342E+02  0.00000000000E+00 0.  1.
         25    2    1    2    0    0 -0.12995467615E+02 -0.18231052921E+02  0.59784862549E+03  0.61120521881E+03  0.12509031551E+03 0.  0.
          5    1    3    3  502    0  0.24436240915E+02 -0.34321539370E+02  0.53183750400E+03  0.53352010365E+03  0.41800000000E+01 0. -1.
         -5    1    3    3    0  502 -0.37431708530E+02  0.16090486449E+02  0.66011121481E+02  0.77685115156E+02  0.41800000000E+01 0. -1.
        -11    1    1    2    0    0 -0.14782751963E+02  0.42418138738E+02  0.85937251357E+02  0.96969270496E+02  0.00000000000E+00 0. -1.
         11    1    1    2    0    0  0.27778219579E+02 -0.24187085817E+02  0.20122205677E+03  0.20456529699E+03  0.00000000000E+00 0.  1.
</event>
<event>
 7    1  0.2733606E-009  0.1549762E+03  0.7561462E-02  0.1194488E+00
          1   -1    0    0  501    0  0.00000000000E+00  0.00000000000E+00  0.24434851649E+03  0.24434851649E+03  0.00000000000E+00 0. -1.
         -1   -1    0    0    0  501 -0.00000000000E+00 -0.00000000000E+00 -0.14615080636E+03  0.14615080636E+03  0.00000000000E+00 0.  1.
         25    2    1    2    0    0 -0.12274363148E+03  0.22642975269E+02  0.14554986126E+03  0.22893604274E+03  0.12509295005E+03 0.  0.
          5    1    3    3  502    0 -0.44756864218E+02 -0.43162700355E+02  0.98345368749E+02  0.11642800158E+03  0.41800000000E+01 0. -1.
         -5    1    3    3    0  502 -0.77986767266E+02  0.65805675625E+02  0.47204492512E+02  0.11250804116E+03  0.41800000000E+01 0. -1.
        -11    1    1    2    0    0  0.14583001899E+01  0.17645209025E+02  0.11238679898E+02  0.20971122212E+02  0.00000000000E+00 0.  1.
         11    1    1    2    0    0  0.12128533129E+03 -0.40288184294E+02 -0.58590831027E+02  0.14059215789E+03  0.00000000000E+00 0. -1.
</event>
<event>
 7    1  0.2733606E-009  0.1648636E+03  0.7561462E-02  0.1183313E+00
         -3   -1    0    0    0  501 -0.00000000000E+00  0.00000000000E+00  0.19093336897E+03  0.19093336897E+03  0.00000000000E+00 0.  1.
          3   -1    0    0  501    0  0.00000000000E+00 -0.00000000000E+00 -0.17098171750E+03  0.17098171750E+03  0.00000000000E+00 0. -1.
         25    2    1    2    0    0 -0.22750311689E+02 -0.12946465198E+03 -0.48362628964E+02  0.18778409602E+03  0.12508097394E+03 0.  0.
          5    1    3    3  502    0 -0.27615076639E+02 -0.14854044816E+03 -0.62114524548E+02  0.16340912997E+03  0.41800000000E+01 0. -1.
         -5    1    3    3    0  502  0.48647649502E+01  0.19075796178E+02  0.13751895584E+02  0.24374966051E+02  0.41800000000E+01 0. -1.
        -11    1    1    2    0    0  0.56144798051E+02  0.65254434182E+02  0.24398486415E+02  0.89474385541E+02  0.00000000000E+00 0.  1.
         11    1    1    2    0    0 -0.33394486363E+02  0.64210217801E+02  0.43915794020E+02  0.84656604904E+02  0.00000000000E+00 0. -1.
</event>
<event>
 7    1  0.2733606E-009  0.1177429E+03  0.7561462E-02  0.1246868E+00
          1   -1    0    0  501    0  0.00000000000E+00  0.00000000000E+00  0.15526373076E+03  0.15526373076E+03  0.00000000000E+00 0. -1.
         -1   -1    0    0    0  501 -0.00000000000E+00 -0.00000000000E+00 -0.23405216061E+03  0.23405216061E+03  0.00000000000E+00 0.  1.
         25    2    1    2    0    0  0.81945063219E+02  0.64270085579E+02 -0.16218498212E+03  0.22977668696E+03  0.12509084762E+03 0.  0.
          5    1    3    3  502    0  0.56310823561E+02  0.40203911612E+01 -0.19640591730E+01  0.56642760558E+02  0.41800000000E+01 0. -1.
         -5    1    3    3    0  502  0.25634239658E+02  0.60249694417E+02 -0.16022092295E+03  0.17313392640E+03  0.41800000000E+01 0. -1.
        -11    1    1    2    0    0 -0.50468414213E+02 -0.11404829150E+02 -0.48430590620E+01  0.51967164461E+02  0.00000000000E+00 0.  1.
         11    1    1    2    0    0 -0.31476649006E+02 -0.52865256428E+02  0.88239611335E+02  0.10757203995E+03  0.00000000000E+00 0. -1.
</event>
<event>
 7    1  0.2733606E-009  0.8389057E+02  0.7561462E-02  0.1318360E+00
          1   -1    0    0  501    0  0.00000000000E+00  0.00000000000E+00  0.31264930585E+03  0.31264930585E+03  0.00000000000E+00 0. -1.
         -1   -1    0    0    0  501 -0.00000000000E+00 -0.00000000000E+00 -0.39989711793E+02  0.39989711793E+02  0.00000000000E+00 0.  1.
         25    2    1    2    0    0 -0.10813940878E+02  0.23125542899E+02  0.17141980359E+03  0.21374030880E+03  0.12509371884E+03 0.  0.
          5    1    3    3  502    0 -0.58587714043E+02  0.27800756788E+02  0.14475108215E+03  0.15866868153E+03  0.41800000000E+01 0.  1.
         -5    1    3    3    0  502  0.47773773165E+02 -0.46752138888E+01  0.26668721443E+02  0.55071627275E+02  0.41800000000E+01 0.  1.
        -11    1    1    2    0    0 -0.26642204373E+01 -0.35926727490E+02  0.59847151009E-01  0.36025427136E+02  0.00000000000E+00 0.  1.
         11    1    1    2    0    0  0.13478161315E+02  0.12801184591E+02  0.10117994331E+03  0.10287328170E+03  0.00000000000E+00 0. -1.
</event>
<event>
 7    1  0.2733606E-009  0.1107278E+03  0.7561462E-02  0.1259228E+00
         -2   -1    0    0    0  501 -0.00000000000E+00  0.00000000000E+00  0.37601083609E+02  0.37601083609E+02  0.00000000000E+00 0.  1.
          2   -1    0    0  501    0  0.00000000000E+00 -0.00000000000E+00 -0.38099973616E+03  0.38099973616E+03  0.00000000000E+00 0. -1.
         25    2    1    2    0    0 -0.36017030436E+02 -0.24273118727E+02 -0.14739109599E+03  0.19813446193E+03  0.12508684603E+03 0.  0.
          5    1    3    3  502    0 -0.64070757723E+02  0.25858243602E+02 -0.51504725332E+02  0.86278154181E+02  0.41800000000E+01 0. -1.
         -5    1    3    3    0  502  0.28053727287E+02 -0.50131362329E+02 -0.95886370662E+02  0.11185630775E+03  0.41800000000E+01 0. -1.
        -11    1    1    2    0    0 -0.51536860853E+01  0.47222760562E+02 -0.60033417292E+02  0.76554299599E+02  0.00000000000E+00 0.  1.
         11    1    1    2    0    0  0.41170716521E+02 -0.22949641835E+02 -0.13597413927E+03  0.14391205825E+03  0.00000000000E+00 0. -1.
</event>
<event>
 7    1  0.2733606E-009  0.1134196E+03  0.7561462E-02  0.1254365E+00
          2   -1    0    0  501    0  0.00000000000E+00  0.00000000000E+00  0.10699496205E+04  0.10699496205E+04  0.00000000000E+00 0. -1.
         -2   -1    0    0    0  501 -0.00000000000E+00 -0.00000000000E+00 -0.23680969595E+02  0.23680969595E+02  0.00000000000E+00 0.  1.
         25    2    1    2    0    0  0.32241026232E+02 -0.14818678377E+02  0.93838687630E+03  0.94735228781E+03  0.12508937048E+03 0.  0.
          5    1    3    3  502    0 -0.47483601140E+02 -0.13961632100E+02  0.40177477751E+03  0.40483337781E+03  0.41800000000E+01 0.  1.
         -5    1    3    3    0  502  0.79724627372E+02 -0.85704627652E+00  0.53661209878E+03  0.54251890999E+03  0.41800000000E+01 0.  1.
        -11    1    1    2    0    0 -0.19396681481E+02  0.53322614687E+02  0.50286251331E+02  0.75817145570E+02  0.00000000000E+00 0.  1.
         11    1    1    2    0    0 -0.12844344751E+02 -0.38503936310E+02  0.57595523244E+02  0.70461156683E+02  0.00000000000E+00 0. -1.
</event>
<event>
 7    1  0.2733606E-009  0.1647492E+03  0.7561462E-02  0.1183437E+00
         -2   -1    0    0    0  501 -0.00000000000E+00  0.00000000000E+00  0.16414298858E+03  0.16414298858E+03  0.00000000000E+00 0.  1.
          2   -1    0    0  501    0  0.00000000000E+00 -0.00000000000E+00 -0.24291651706E+03  0.24291651706E+03  0.00000000000E+00 0. -1.
         25    2    1    2    0    0  0.63058784568E+02 -0.11281954978E+03  0.66595111375E+02  0.19180077984E+03  0.12509184291E+03 0.  0.
          5    1    3    3  502    0  0.36864478514E+02 -0.13696101159E+03  0.64511948682E+02  0.15587357824E+03  0.41800000000E+01 0. -1.
         -5    1    3    3    0  502  0.26194306054E+02  0.24141461807E+02  0.20831626932E+01  0.35927201597E+02  0.41800000000E+01 0. -1.
        -11    1    1    2    0    0 -0.67015247328E+02  0.38454565877E+02 -0.10556204884E+03  0.13081721280E+03  0.00000000000E+00 0. -1.
         11    1    1    2    0    0  0.39564627603E+01  0.74364983903E+02 -0.39806591016E+02  0.84441512995E+02  0.00000000000E+00 0.  1.
</event>
<event>
 7    1  0.2733606E-009  0.8255010E+02  0.7561462E-02  0.1321967E+00
          2   -1    0    0  501    0  0.00000000000E+00  0.00000000000E+00  0.20095184004E+03  0.20095184004E+03  0.00000000000E+00 0. -1.
         -2   -1    0    0    0  501 -0.00000000000E+00 -0.00000000000E+00 -0.64954936469E+02  0.64954936469E+02  0.00000000000E+00 0.  1.
         25    2    1    2    0    0  0.13792510220E+02  0.29988518860E+02  0.61275599014E+02  0.14314784044E+03  0.12508821122E+03 0.  0.
          5    1    3    3  502    0 -0.21395811443E+02  0.23018947637E+02  0.91005897026E+02  0.96370111503E+02  0.41800000000E+01 0. -1.
         -5    1    3    3    0  502  0.35188321663E+02  0.69695712231E+01 -0.29730298012E+02  0.46777728936E+02  0.41800000000E+01 0. -1.
        -11    1    1    2    0    0 -0.45887094824E+02  0.90221133032E+01  0.38925200078E+02  0.60845667068E+02  0.00000000000E+00 0. -1.
         11    1    1    2    0    0  0.32094584603E+02 -0.39010632163E+02  0.35796104479E+02  0.61913269002E+02  0.00000000000E+00 0.  1.
</event>
<event>
 7    1  0.2733606E-009  0.1190242E+03  0.7561462E-02  0.1244715E+00
          2   -1    0    0  501    0  0.00000000000E+00  0.00000000000E+00  0.49781439211E+03  0.49781439211E+03  0.00000000000E+00 0. -1.
         -2   -1    0    0    0  501 -0.00000000000E+00 -0.00000000000E+00 -0.61970621080E+02  0.61970621080E+02  0.00000000000E+00 0.  1.
         25    2    1    2    0    0  0.43058343659E+02 -0.74869091900E+02  0.60293665158E+02  0.16352919490E+03  0.12508824744E+03 0.  0.
          5    1    3    3  502    0 -0.30555847266E+02 -0.30295474536E+02 -0.18266001780E+02  0.46931810113E+02  0.41800000000E+01 0. -1.
         -5    1    3    3    0  502  0.73614190925E+02 -0.44573617364E+02  0.78559666937E+02  0.11659738479E+03  0.41800000000E+01 0. -1.
        -11    1    1    2    0    0  0.14987401543E+02  0.35464157915E+02  0.49326122772E+02  0.62573117945E+02  0.00000000000E+00 0.  1.
         11    1    1    2    0    0 -0.58045745202E+02  0.39404933985E+02  0.32622398310E+03  0.33368270034E+03  0.00000000000E+00 0. -1.
</event>
<event>
 7    1  0.2733606E-009  0.8800888E+02  0.7561462E-02  0.1307746E+00
          2   -1    0    0  501    0  0.00000000000E+00  0.00000000000E+00  0.15147926928E+04  0.15147926928E+04  0.00000000000E+00 0. -1.
         -2   -1    0    0    0  501 -0.00000000000E+00 -0.00000000000E+00 -0.11521534540E+02  0.11521534540E+02  0.00000000000E+00 0.  1.
         25    2    1    2    0    0 -0.15195761333E+02  0.15523857271E+02  0.12408404350E+04  0.12473183886E+04  0.12508507581E+03 0.  0.
          5    1    3    3  502    0 -0.38136665723E+02 -0.29716632970E+02  0.22359716311E+03  0.22880263831E+03  0.41800000000E+01 0.  1.
         -5    1    3    3    0  502  0.22940904390E+02  0.45240490241E+02  0.10172432719E+04  0.10185157503E+04  0.41800000000E+01 0.  1.
        -11    1    1    2    0    0  0.31269168471E+02  0.20333002063E+02  0.46954339970E+02  0.59965839540E+02  0.00000000000E+00 0.  1.
         11    1    1    2    0    0 -0.16073407138E+02 -0.35856859334E+02  0.21547638334E+03  0.21902999922E+03  0.00000000000E+00 0. -1.
</event>
<event>
 7    1  0.2733606E-009  0.1260978E+03  0.7561462E-02  0.1233364E+00
         -3   -1    0    0    0  501 -0.00000000000E+00  0.00000000000E+00  0.11269369544E+04  0.11269369544E+04  0.00000000000E+00 0.  1.
          3   -1    0    0  501    0  0.00000000000E+00 -0.00000000000E+00 -0.18146256400E+02  0.18146256400E+02  0.00000000000E+00 0. -1.
         25    2    1    2    0    0 -0.68972434966E+02  0.38555137487E+02  0.80021148469E+03  0.81377479176E+03  0.12508915244E+03 0.  0.
          5    1    3    3  502    0 -0.10297799731E+03  0.45329224364E+02  0.58280151922E+03  0.59357753471E+03  0.41800000000E+01 0.  1.
         -5    1    3    3    0  502  0.34005562346E+02 -0.67740868773E+01  0.21740996548E+03  0.22019725705E+03  0.41800000000E+01 0.  1.
        -11    1    1    2    0    0  0.76714826168E+02 -0.12786147824E+02  0.28535871893E+03  0.29576722030E+03  0.00000000000E+00 0.  1.
         11    1    1    2    0    0 -0.77423912011E+01 -0.25768989663E+02  0.23220494396E+02  0.35541198767E+02  0.00000000000E+00 0. -1.
</event>
<event>
 7    1  0.2733606E-009  0.1009713E+03  0.7561462E-02  0.1278267E+00
         -3   -1    0    0    0  501 -0.00000000000E+00  0.00000000000E+00  0.19637139229E+03  0.19637139229E+03  0.00000000000E+00 0.  1.
          3   -1    0    0  501    0  0.00000000000E+00 -0.00000000000E+00 -0.54091314349E+02  0.54091314349E+02  0.00000000000E+00 0. -1.
         25    2    1    2    0    0 -0.30070089878E+00  0.99557311731E+01  0.80665745035E+02  0.14917509462E+03  0.12508812665E+03 0.  0.
          5    1    3    3  502    0 -0.22421134822E+02  0.62372526111E+02  0.29983231842E+02  0.72866356378E+02  0.41800000000E+01 0. -1.
         -5    1    3    3    0  502  0.22120433923E+02 -0.52416794938E+02  0.50682513192E+02  0.76308738241E+02  0.41800000000E+01 0. -1.
        -11    1    1    2    0    0 -0.28680407883E+02  0.21401734315E+02  0.39146838925E+02  0.53038429707E+02  0.00000000000E+00 0.  1.
         11    1    1    2    0    0  0.28981108782E+02 -0.31357465488E+02  0.22467493981E+02  0.48249182312E+02  0.00000000000E+00 0. -1.
</event>
<event>
 7    1  0.2733606E-009  0.1091162E+03  0.7561462E-02  0.1262215E+00
          1   -1    0    0  501    0  0.00000000000E+00  0.00000000000E+00  0.89501722963E+02  0.89501722963E+02  0.00000000000E+00 0. -1.
         -1   -1    0    0    0  501 -0.00000000000E+00 -0.00000000000E+00 -0.16354893128E+03  0.16354893128E+03  0.00000000000E+00 0.  1.
         25    2    1    2    0    0 -0.97663394455E+01  0.18543015421E+02  0.87958934025E+01  0.12713766298E+03  0.12508953913E+03 0.  0.
          5    1    3    3  502    0  0.39714530268E+02 -0.35436188878E+02  0.12407082168E+01  0.53403924514E+02  0.41800000000E+01 0. -1.
         -5    1    3    3    0  502 -0.49480869714E+02  0.53979204299E+02  0.75551851857E+01  0.73733738462E+02  0.41800000000E+01 0. -1.
        -11    1    1    2    0    0  0.49259962815E+02 -0.40420534894E+01 -0.28047389444E+02  0.56829025925E+02  0.00000000000E+00 0.  1.
         11    1    1    2    0    0 -0.39493623370E+02 -0.14500961932E+02 -0.54795712278E+02  0.69083965345E+02  0.00000000000E+00 0. -1.
</event>
<event>
 7    1  0.2733606E-009  0.1119234E+03  0.7561462E-02  0.1257049E+00
          1   -1    0    0  501    0  0.00000000000E+00  0.00000000000E+00  0.23682320520E+03  0.23682320520E+03  0.00000000000E+00 0. -1.
         -1   -1    0    0    0  501 -0.00000000000E+00 -0.00000000000E+00 -0.67179446796E+02  0.67179446796E+02  0.00000000000E+00 0.  1.
         25    2    1    2    0    0  0.22703811859E+02  0.55251562852E+02  0.68929313574E+02  0.15481454973E+03  0.12509235096E+03 0.  0.
          5    1    3    3  502    0 -0.26907127693E+02 -0.18165843062E+02 -0.11876477434E+02  0.34821178772E+02  0.41800000000E+01 0. -1.
         -5    1    3    3    0  502  0.49610939552E+02  0.73417405914E+02  0.80805791008E+02  0.11999337096E+03  0.41800000000E+01 0. -1.
        -11    1    1    2    0    0  0.25504222674E+02 -0.47033713555E+02  0.25006207945E+02  0.59058835247E+02  0.00000000000E+00 0.  1.
         11    1    1    2    0    0 -0.48208034533E+02 -0.82178492974E+01  0.75708236887E+02  0.90129267018E+02  0.00000000000E+00 0. -1.
</event>
<event>
 7    1  0.2733606E-009  0.1323920E+03  0.7561462E-02  0.1223949E+00
          1   -1    0    0  501    0  0.00000000000E+00  0.00000000000E+00  0.47582443496E+03  0.47582443496E+03  0.00000000000E+00 0. -1.
         -1   -1    0    0    0  501 -0.00000000000E+00 -0.00000000000E+00 -0.53466097140E+02  0.53466097140E+02  0.00000000000E+00 0.  1.
         25    2    1    2    0    0  0.68432333182E+02  0.45804757051E+02  0.35970472658E+03  0.38963501615E+03  0.12508755132E+03 0.  0.
          5    1    3    3  502    0 -0.34678911816E+02  0.13096867929E+02  0.13738029101E+03  0.14235508994E+03  0.41800000000E+01 0.  1.
         -5    1    3    3    0  502  0.10311124500E+03  0.32707889122E+02  0.22232443557E+03  0.24727992621E+03  0.41800000000E+01 0.  1.
        -11    1    1    2    0    0 -0.85372784216E+02 -0.53358473714E+02  0.35459463645E+02  0.10673805584E+03  0.00000000000E+00 0. -1.
         11    1    1    2    0    0  0.16940451034E+02  0.75537166633E+01  0.27194147605E+02  0.32917460118E+02  0.00000000000E+00 0.  1.
</event>
<event>
 7    1  0.2733606E-009  0.9140868E+02  0.7561462E-02  0.1299476E+00
         -1   -1    0    0    0  501 -0.00000000000E+00  0.00000000000E+00  0.90147037268E+03  0.90147037268E+03  0.00000000000E+00 0. -1.
          1   -1    0    0  501    0  0.00000000000E+00 -0.00000000000E+00 -0.18780107488E+02  0.18780107488E+02  0.00000000000E+00 0.  1.
         25    2    1    2    0    0 -0.39439798975E+02 -0.60414701635E+02  0.61989713595E+03  0.63649781207E+03  0.12510624163E+03 0.  0.
          5    1    3    3  502    0 -0.16507755870E+02  0.18020666374E+02  0.22368903377E+02  0.33392973193E+02  0.41800000000E+01 0.  1.
         -5    1    3    3    0  502 -0.22932043106E+02 -0.78435368009E+02  0.59752823257E+03  0.60310483887E+03  0.41800000000E+01 0.  1.
        -11    1    1    2    0    0  0.37280084407E+02  0.36457372480E+02  0.25208672949E+03  0.25742312228E+03  0.00000000000E+00 0. -1.
         11    1    1    2    0    0  0.21597145681E+01  0.23957329156E+02  0.10706399762E+02  0.26329545821E+02  0.00000000000E+00 0.  1.
</event>
<event>
 7    1  0.2733606E-009  0.2333993E+03  0.7561462E-02  0.1124270E+00
         -2   -1    0    0    0  501 -0.00000000000E+00  0.00000000000E+00  0.11852540086E+04  0.11852540086E+04  0.00000000000E+00 0.  1.
          2   -1    0    0  501    0  0.00000000000E+00 -0.00000000000E+00 -0.51839839983E+02  0.51839839983E+02  0.00000000000E+00 0. -1.
         25    2    1    2    0    0  0.17734871971E+03  0.12940190306E+03  0.68375120683E+03  0.72894268294E+03  0.12507718123E+03 0.  0.
          5    1    3    3  502    0  0.19039421975E+03  0.12877710462E+03  0.67396619788E+03  0.71209648916E+03  0.41800000000E+01 0.  1.
         -5    1    3    3    0  502 -0.13045500046E+02  0.62479844056E+00  0.97850089525E+01  0.16846193776E+02  0.41800000000E+01 0.  1.
        -11    1    1    2    0    0 -0.84361095672E+02 -0.37056339382E+02  0.27339347753E+03  0.28850296413E+03  0.00000000000E+00 0.  1.
         11    1    1    2    0    0 -0.92987624034E+02 -0.92345563675E+02  0.17626948425E+03  0.21964820152E+03  0.00000000000E+00 0. -1.
</event>
<event>
 7    1  0.2733606E-009  0.1885736E+03  0.7561462E-02  0.1159754E+00
          1   -1    0    0  501    0  0.00000000000E+00  0.00000000000E+00  0.34818540856E+02  0.34818540856E+02  0.00000000000E+00 0. -1.
         -1   -1    0    0    0  501 -0.00000000000E+00 -0.00000000000E+00 -0.13635399646E+04  0.13635399646E+04  0.00000000000E+00 0.  1.
         25    2    1    2    0    0 -0.15924966516E+03 -0.99766457151E+02 -0.63845640826E+03  0.67719132256E+03  0.12509076817E+03 0.  0.
          5    1    3    3  502    0 -0.57901562102E+02 -0.38771305392E+02 -0.79318771096E+02  0.10566335630E+03  0.41800000000E+01 0.  1.
         -5    1    3    3    0  502 -0.10134810306E+03 -0.60995151759E+02 -0.55913763716E+03  0.57152796626E+03  0.41800000000E+01 0.  1.
        -11    1    1    2    0    0  0.96756593831E+02  0.48965871240E+02 -0.23473969697E+03  0.25857730049E+03  0.00000000000E+00 0. -1.
         11    1    1    2    0    0  0.62493071327E+02  0.50800585911E+02 -0.45552531853E+03  0.46258988242E+03  0.00000000000E+00 0.  1.
</event>
<event>
 7    1  0.2733606E-009  0.1389520E+03  0.7561462E-02  0.1214746E+00
          1   -1    0    0  501    0  0.00000000000E+00  0.00000000000E+00  0.10856587983E+04  0.10856587983E+04  0.00000000000E+00 0. -1.
         -1   -1    0    0    0  501 -0.00000000000E+00 -0.00000000000E+00 -0.24341194856E+02  0.24341194856E+02  0.00000000000E+00 0.  1.
         25    2    1    2    0    0  0.10444408413E+03  0.38075647194E+02  0.40876251027E+03  0.44169194383E+03  0.12508661727E+03 0.  0.
          5    1    3    3  502    0  0.24298055464E+01  0.31636392055E+02  0.25503703255E+03  0.25703720670E+03  0.41800000000E+01 0. -1.
         -5    1    3    3    0  502  0.10201427859E+03  0.64392551394E+01  0.15372547772E+03  0.18465473713E+03  0.41800000000E+01 0. -1.
        -11    1    1    2    0    0 -0.11375429132E+03 -0.10202868239E+02  0.54291732573E+03  0.55480028829E+03  0.00000000000E+00 0. -1.
         11    1    1    2    0    0  0.93102071881E+01 -0.27872778955E+02  0.10963776744E+03  0.11350776103E+03  0.00000000000E+00 0.  1.
</event>
<event>
 7    1  0.2733606E-009  0.1416547E+03  0.7561462E-02  0.1211120E+00
         -2   -1    0    0    0  501 -0.00000000000E+00  0.00000000000E+00  0.18917049572E+03  0.18917049572E+03  0.00000000000E+00 0.  1.
          2   -1    0    0  501    0  0.00000000000E+00 -0.00000000000E+00 -0.14649388752E+03  0.14649388752E+03  0.00000000000E+00 0. -1.
         25    2    1    2    0    0 -0.33913457309E+02 -0.12157889414E+03  0.38392902989E+02  0.18180456552E+03  0.12508930793E+03 0.  0.
          5    1    3    3  502    0 -0.13722959639E+01 -0.58671594522E+02 -0.43708418076E+02  0.73294866196E+02  0.41800000000E+01 0. -1.
         -5    1    3    3    0  502 -0.32541161346E+02 -0.62907299618E+02  0.82101321065E+02  0.10850969932E+03  0.41800000000E+01 0. -1.
        -11    1    1    2    0    0  0.94177466686E+01  0.12788388058E+03  0.69947587895E+01  0.12842082197E+03  0.00000000000E+00 0.  1.
         11    1    1    2    0    0  0.24495710641E+02 -0.63049864387E+01 -0.27110535759E+01  0.25438995760E+02  0.00000000000E+00 0. -1.
</event>
<event>
 7    1  0.2733606E-009  0.6741134E+02  0.7561462E-02  0.1369124E+00
          4   -1    0    0  501    0  0.00000000000E+00  0.00000000000E+00  0.41777401157E+03  0.41777401157E+03  0.00000000000E+00 0. -1.
         -4   -1    0    0    0  501 -0.00000000000E+00 -0.00000000000E+00 -0.32262977588E+02  0.32262977588E+02  0.00000000000E+00 0.  1.
         25    2    1    2    0    0 -0.26846281235E+01  0.42159638259E+02  0.23258451648E+03  0.26744563401E+03  0.12508783922E+03 0.  0.
          5    1    3    3  502    0  0.65320345402E+01  0.32054362345E+02  0.24578228234E+03  0.24798498408E+03  0.41800000000E+01 0.  1.
         -5    1    3    3    0  502 -0.92166626637E+01  0.10105275915E+02 -0.13197765859E+02  0.19460649929E+02  0.41800000000E+01 0.  1.
        -11    1    1    2    0    0 -0.29705728649E+02  0.52079762588E+01  0.16029365527E+02  0.34153973275E+02  0.00000000000E+00 0.  1.
         11    1    1    2    0    0  0.32390356772E+02 -0.47367614518E+02  0.13689715198E+03  0.14843738187E+03  0.00000000000E+00 0. -1.
</event>
<event>
 7    1  0.2733606E-009  0.8138761E+02  0.7561462E-02  0.1325159E+00
          3   -1    0    0  501    0  0.00000000000E+00  0.00000000000E+00  0.25863662182E+03  0.25863662182E+03  0.00000000000E+00 0. -1.
         -3   -1    0    0    0  501 -0.00000000000E+00 -0.00000000000E+00 -0.47186564076E+02  0.47186564076E+02  0.00000000000E+00 0.  1.
         25    2    1    2    0    0 -0.23094170766E+02 -0.91176475430E+01  0.13696747473E+03  0.18714074371E+03  0.12508036057E+03 0.  0.
          5    1    3    3  502    0  0.26208119181E+02 -0.53896302780E+02  0.74785689301E+02  0.95927309400E+02  0.41800000000E+01 0. -1.
         -5    1    3    3    0  502 -0.49302289947E+02  0.44778655237E+02  0.62181785433E+02  0.91213434309E+02  0.41800000000E+01 0. -1.
        -11    1    1    2    0    0  0.75137944397E+01 -0.92259492836E+01 -0.18853043257E+02  0.22293776869E+02  0.00000000000E+00 0.  1.
         11    1    1    2    0    0  0.15580376327E+02  0.18343596827E+02  0.93335626265E+02  0.96388665315E+02  0.00000000000E+00 0. -1.
</event>
<event>
 7    1  0.2733606E-009  0.8799212E+02  0.7561462E-02  0.1307788E+00
         -2   -1    0    0    0  501 -0.00000000000E+00  0.00000000000E+00  0.26344581248E+02  0.26344581248E+02  0.00000000000E+00 0. -1.
          2   -1    0    0  501    0  0.00000000000E+00 -0.00000000000E+00 -0.50142741872E+03  0.50142741872E+03  0.00000000000E+00 0.  1.
         25    2    1    2    0    0 -0.11933531291E+02 -0.30258001843E+02 -0.30379042528E+03  0.33014262612E+03  0.12509026840E+03 0.  0.
          5    1    3    3  502    0 -0.42589515295E+02 -0.15678811882E+02 -0.30775398998E+02  0.54993540881E+02  0.41800000000E+01 0. -1.
         -5    1    3    3    0  502  0.30655984004E+02 -0.14579189961E+02 -0.27301502628E+03  0.27514908524E+03  0.41800000000E+01 0. -1.
        -11    1    1    2    0    0  0.50170184273E+02  0.50861334689E+01 -0.11108229653E+03  0.12199259300E+03  0.00000000000E+00 0.  1.
         11    1    1    2    0    0 -0.38236652982E+02  0.25171868374E+02 -0.60210115666E+02  0.75636780849E+02  0.00000000000E+00 0. -1.
</event>
<event>
 7    1  0.2733606E-009  0.1330150E+03  0.7561462E-02  0.1223049E+00
         -1   -1    0    0    0  501 -0.00000000000E+00  0.00000000000E+00  0.16828179405E+03  0.16828179405E+03  0.00000000000E+00 0. -1.
          1   -1    0    0  501    0  0.00000000000E+00 -0.00000000000E+00 -0.17582725759E+03  0.17582725759E+03  0.00000000000E+00 0.  1.
         25    2    1    2    0    0  0.38202281177E+02  0.98400084887E+02  0.77654563441E+02  0.18116626220E+03  0.12509593256E+03 0.  0.
          5    1    3    3  502    0 -0.37836238991E+02  0.43270703272E+02 -0.24067524119E+01  0.57681882769E+02  0.41800000000E+01 0. -1.
         -5    1    3    3    0  502  0.76038520168E+02  0.55129381614E+02  0.80061315853E+02  0.12348437943E+03  0.41800000000E+01 0. -1.
        -11    1    1    2    0    0  0.94466639514E+01 -0.88392007767E+01  0.15372423247E+02  0.20091847269E+02  0.00000000000E+00 0. -1.
         11    1    1    2    0    0 -0.47648945129E+02 -0.89560884110E+02 -0.10057245022E+03  0.14285094217E+03  0.00000000000E+00 0.  1.
</event>
<event>
 7    1  0.2733606E-009  0.1367368E+03  0.7561462E-02  0.1217789E+00
          2   -1    0    0  501    0  0.00000000000E+00  0.00000000000E+00  0.13237562717E+04  0.13237562717E+04  0.00000000000E+00 0. -1.
         -2   -1    0    0    0  501 -0.00000000000E+00 -0.00000000000E+00 -0.20981419298E+02  0.20981419298E+02  0.00000000000E+00 0.  1.
         25    2    1    2    0    0  0.12024004411E+03 -0.30082600634E+02  0.77517383657E+03  0.79492138833E+03  0.12507160214E+03 0.  0.
          5    1    3    3  502    0  0.57689902697E+02 -0.23563219282E+02  0.10786157852E+03  0.12463925023E+03  0.41800000000E+01 0. -1.
         -5    1    3    3    0  502  0.62550141414E+02 -0.65193813514E+01  0.66731225805E+03  0.67028213811E+03  0.41800000000E+01 0. -1.
        -11    1    1    2    0    0 -0.71335521052E+02  0.57767402383E+02  0.24386358086E+03  0.26056721860E+03  0.00000000000E+00 0. -1.
         11    1    1    2    0    0 -0.48904523059E+02 -0.27684801749E+02  0.28373743498E+03  0.28924908406E+03  0.00000000000E+00 0.  1.
</event>
<event>
 7    1  0.2733606E-009  0.1127866E+03  0.7561462E-02  0.1255495E+00
          3   -1    0    0  501    0  0.00000000000E+00  0.00000000000E+00  0.19738221626E+03  0.19738221626E+03  0.00000000000E+00 0. -1.
         -3   -1    0    0    0  501 -0.00000000000E+00 -0.00000000000E+00 -0.88107049260E+02  0.88107049260E+02  0.00000000000E+00 0.  1.
         25    2    1    2    0    0 -0.19139914693E+02 -0.51111543790E+02  0.46798872135E+01  0.13655730832E+03  0.12508905176E+03 0.  0.
          5    1    3    3  502    0 -0.32149808312E+02 -0.87410186064E+02 -0.12637082879E+02  0.94081449107E+02  0.41800000000E+01 0. -1.
         -5    1    3    3    0  502  0.13009893620E+02  0.36298642274E+02  0.17316970093E+02  0.42475859216E+02  0.41800000000E+01 0. -1.
        -11    1    1    2    0    0  0.44249961242E+02  0.99692350400E+01  0.86077814507E+02  0.97297661161E+02  0.00000000000E+00 0. -1.
         11    1    1    2    0    0 -0.25110046549E+02  0.41142308750E+02  0.18517465284E+02  0.51634296040E+02  0.00000000000E+00 0.  1.
</event>
<event>
 7    1  0.2733606E-009  0.1057154E+03  0.7561462E-02  0.1268716E+00
         -3   -1    0    0    0  501 -0.00000000000E+00  0.00000000000E+00  0.35298406373E+03  0.35298406373E+03  0.00000000000E+00 0.  1.
          3   -1    0    0  501    0  0.00000000000E+00 -0.00000000000E+00 -0.36564914680E+02  0.36564914680E+02  0.00000000000E+00 0. -1.
         25    2    1    2    0    0 -0.18532810321E+02  0.24942696849E+02  0.20379645467E+03  0.24113530696E+03  0.12509051978E+03 0.  0.
          5    1    3    3  502    0 -0.71379648236E+02  0.23665747389E+02  0.13038791178E+03  0.15057756048E+03  0.41800000000E+01 0.  1.
         -5    1    3    3    0  502  0.52846837915E+02  0.12769494597E+01  0.73408542891E+02  0.90557746476E+02  0.41800000000E+01 0.  1.
        -11    1    1    2    0    0  0.10903581182E+02  0.27765403356E+02  0.81365800041E+02  0.86661405034E+02  0.00000000000E+00 0.  1.
         11    1    1    2    0    0  0.76292291389E+01 -0.52708100204E+02  0.31256894337E+02  0.61752266420E+02  0.00000000000E+00 0. -1.
</event>
<event>
 7    1  0.2733606E-009  0.1668542E+03  0.7561462E-02  0.1181169E+00
         -2   -1    0    0    0  501 -0.00000000000E+00  0.00000000000E+00  0.13581882946E+03  0.13581882946E+03  0.00000000000E+00 0. -1.
          2   -1    0    0  501    0  0.00000000000E+00 -0.00000000000E+00 -0.40623868614E+03  0.40623868614E+03  0.00000000000E+00 0.  1.
         25    2    1    2    0    0 -0.85176365170E+02 -0.11872449541E+03 -0.30959963819E+03  0.36448817920E+03  0.12509667386E+03 0.  0.
          5    1    3    3  502    0  0.26155548364E+02 -0.80666782915E+01 -0.17210753107E+02  0.32601632342E+02  0.41800000000E+01 0. -1.
         -5    1    3    3    0  502 -0.11133191353E+03 -0.11065781712E+03 -0.29238888509E+03  0.33188654686E+03  0.41800000000E+01 0. -1.
        -11    1    1    2    0    0  0.52631833245E+02  0.48398718067E+02  0.64245600306E+02  0.96125142080E+02  0.00000000000E+00 0. -1.
         11    1    1    2    0    0  0.32544531924E+02  0.70325777348E+02 -0.25065818786E+02  0.81444194324E+02  0.00000000000E+00 0.  1.
</event>
<event>
 7    1  0.2733606E-009  0.1257749E+03  0.7561462E-02  0.1233863E+00
          3   -1    0    0  501    0  0.00000000000E+00  0.00000000000E+00  0.98019321935E+03  0.98019321935E+03  0.00000000000E+00 0. -1.
         -3   -1    0    0    0  501 -0.00000000000E+00 -0.00000000000E+00 -0.28595276271E+02  0.28595276271E+02  0.00000000000E+00 0.  1.
         25    2    1    2    0    0 -0.73990081297E+02 -0.84211673846E+02  0.68028424698E+03  0.70071573346E+03  0.12509893797E+03 0.  0.
          5    1    3    3  502    0 -0.45433383711E+02 -0.40900602926E+02  0.94517771839E+02  0.11264161428E+03  0.41800000000E+01 0. -1.
         -5    1    3    3    0  502 -0.28556697586E+02 -0.43311070920E+02  0.58576647515E+03  0.58807411918E+03  0.41800000000E+01 0. -1.
        -11    1    1    2    0    0  0.38632144018E+02 -0.80171226515E+01  0.38295442586E+02  0.54984158899E+02  0.00000000000E+00 0. -1.
         11    1    1    2    0    0  0.35357937280E+02  0.92228796497E+02  0.23301825351E+03  0.25308860326E+03  0.00000000000E+00 0.  1.
</event>
<event>
 7    1  0.2733606E-009  0.1681510E+03  0.7561462E-02  0.1179790E+00
         -1   -1    0    0    0  501 -0.00000000000E+00  0.00000000000E+00  0.44092184405E+03  0.44092184405E+03  0.00000000000E+00 0. -1.
          1   -1    0    0  501    0  0.00000000000E+00 -0.00000000000E+00 -0.64839430279E+02  0.64839430279E+02  0.00000000000E+00 0.  1.
         25    2    1    2    0    0  0.72506590755E+02 -0.10564717970E+03  0.18799811028E+03  0.25963344070E+03  0.12509077417E+03 0.  0.
          5    1    3    3  502    0  0.36842563229E+02  0.23359634558E+02  0.33384633219E+02  0.55091316259E+02  0.41800000000E+01 0. -1.
         -5    1    3    3    0  502  0.35664027526E+02 -0.12900681426E+03  0.15461347706E+03  0.20454212445E+03  0.41800000000E+01 0. -1.
        -11    1    1    2    0    0 -0.81589073820E+01  0.92539203868E+02  0.11604816326E+03  0.14865143194E+03  0.00000000000E+00 0. -1.
         11    1    1    2    0    0 -0.64347683373E+02  0.13107975831E+02  0.72036140234E+02  0.97476401686E+02  0.00000000000E+00 0.  1.
</event>
<event>
 7    1  0.2733606E-009  0.1135213E+03  0.7561462E-02  0.1254184E+00
         -2   -1    0    0    0  501 -0.00000000000E+00  0.00000000000E+00  0.24037413498E+02  0.24037413498E+02  0.00000000000E+00 0.  1.
          2   -1    0    0  501    0  0.00000000000E+00 -0.00000000000E+00 -0.68391607183E+03  0.68391607183E+03  0.00000000000E+00 0. -1.
         25    2    1    2    0    0 -0.34160776894E+02 -0.55772920306E+02 -0.36709997329E+03  0.39330345219E+03  0.12509051840E+03 0.  0.
          5    1    3    3  502    0 -0.64934205502E+02  0.40057556010E+01 -0.11331141738E+03  0.13072661103E+03  0.41800000000E+01 0. -1.
         -5    1    3    3    0  502  0.30773428607E+02 -0.59778675907E+02 -0.25378855591E+03  0.26257684116E+03  0.41800000000E+01 0. -1.
        -11    1    1    2    0    0  0.42717018698E+02  0.50126800191E+01 -0.22743378885E+03  0.23146489789E+03  0.00000000000E+00 0. -1.
         11    1    1    2    0    0 -0.85562418035E+01  0.50760240287E+02 -0.65344896192E+02  0.83185135247E+02  0.00000000000E+00 0.  1.
</event>
<event>
 7    1  0.2733606E-009  0.3197158E+03  0.7561462E-02  0.1075780E+00
          2   -1    0    0  501    0  0.00000000000E+00  0.00000000000E+00  0.17490489006E+04  0.17490489006E+04  0.00000000000E+00 0. -1.
         -2   -1    0    0    0  501 -0.00000000000E+00 -0.00000000000E+00 -0.65797635544E+02  0.65797635544E+02  0.00000000000E+00 0.  1.
         25    2    1    2    0    0  0.30837159097E+03  0.57388204847E+02  0.66166158273E+03  0.74285334166E+03  0.12509433629E+03 0.  0.
          5    1    3    3  502    0  0.88542999996E+02  0.35980074991E+02  0.95740929858E+02  0.13534484362E+03  0.41800000000E+01 0.  1.
         -5    1    3    3    0  502  0.21982859097E+03  0.21408129856E+02  0.56592065288E+03  0.60750849803E+03  0.41800000000E+01 0.  1.
        -11    1    1    2    0    0 -0.12385744397E+03  0.14772279305E+02  0.33844818230E+03  0.36070217461E+03  0.00000000000E+00 0.  1.
         11    1    1    2    0    0 -0.18451414700E+03 -0.72160484152E+02  0.68314149999E+03  0.71129101985E+03  0.00000000000E+00 0. -1.
</event>
<event>
 7    1  0.2733606E-009  0.1242152E+03  0.7561462E-02  0.1236301E+00
          2   -1    0    0  501    0  0.00000000000E+00  0.00000000000E+00  0.15396609775E+03  0.15396609775E+03  0.00000000000E+00 0. -1.
         -2   -1    0    0    0  501 -0.00000000000E+00 -0.00000000000E+00 -0.12937226442E+03  0.12937226442E+03  0.00000000000E+00 0.  1.
         25    2    1    2    0    0  0.61413032666E+02  0.26048711506E+02 -0.47157080000E+02  0.14940526979E+03  0.12509216001E+03 0.  0.
          5    1    3    3  502    0 -0.17055870478E+02 -0.34070125993E+02 -0.30694629613E+02  0.49105080083E+02  0.41800000000E+01 0. -1.
         -5    1    3    3    0  502  0.78468903144E+02  0.60118837498E+02 -0.16462450387E+02  0.10030018971E+03  0.41800000000E+01 0. -1.
        -11    1    1    2    0    0 -0.28520149368E+02 -0.58420555963E+02  0.29605600322E+02  0.71434248435E+02  0.00000000000E+00 0. -1.
         11    1    1    2    0    0 -0.32892883298E+02  0.32371844458E+02  0.42145313014E+02  0.62498843944E+02  0.00000000000E+00 0.  1.
</event>
<event>
 7    1  0.2733606E-009  0.1218165E+03  0.7561462E-02  0.1240130E+00
          2   -1    0    0  501    0  0.00000000000E+00  0.00000000000E+00  0.11193481548E+04  0.11193481548E+04  0.00000000000E+00 0. -1.
         -2   -1    0    0    0  501 -0.00000000000E+00 -0.00000000000E+00 -0.13441447977E+02  0.13441447977E+02  0.00000000000E+00 0.  1.
         25    2    1    2    0    0 -0.58391075851E+02  0.15143664748E+01  0.58591369105E+03  0.60195876610E+03  0.12509073381E+03 0.  0.
          5    1    3    3  502    0 -0.65229191813E+02  0.54109443294E+02  0.36067666345E+03  0.37052369327E+03  0.41800000000E+01 0.  1.
         -5    1    3    3    0  502  0.68381159619E+01 -0.52595076819E+02  0.22523702760E+03  0.23143507283E+03  0.41800000000E+01 0.  1.
        -11    1    1    2    0    0  0.79713154781E+02  0.11587897294E+02  0.42687641895E+03  0.43440987957E+03  0.00000000000E+00 0. -1.
         11    1    1    2    0    0 -0.21322078930E+02 -0.13102263769E+02  0.93116596874E+02  0.96420957157E+02  0.00000000000E+00 0.  1.
</event>
<event>
 7    1  0.2733606E-009  0.1089966E+03  0.7561462E-02  0.1262439E+00
         -1   -1    0    0    0  501 -0.00000000000E+00  0.00000000000E+00  0.30242637300E+02  0.30242637300E+02  0.00000000000E+00 0.  1.
          1   -1    0    0  501    0  0.00000000000E+00 -0.00000000000E+00 -0.57561118431E+03  0.57561118431E+03  0.00000000000E+00 0. -1.
         25    2    1    2    0    0  0.42789723186E+02  0.83425023516E+00 -0.42346301382E+03  0.44362151766E+03  0.12508984961E+03 0.  0.
          5    1    3    3  502    0  0.37832704630E+02 -0.59976996241E+02 -0.22397335474E+03  0.23496827371E+03  0.41800000000E+01 0. -1.
         -5    1    3    3    0  502  0.49570185556E+01  0.60811246476E+02 -0.19948965908E+03  0.20865324395E+03  0.41800000000E+01 0. -1.
        -11    1    1    2    0    0 -0.56936831419E+02  0.20233216900E+02 -0.31122317104E+02  0.67968996315E+02  0.00000000000E+00 0. -1.
         11    1    1    2    0    0  0.14147108234E+02 -0.21067467135E+02 -0.90783216087E+02  0.94263307634E+02  0.00000000000E+00 0.  1.
</event>
<event>
 7    1  0.2733606E-009  0.1335633E+03  0.7561462E-02  0.1222262E+00
          1   -1    0    0  501    0  0.00000000000E+00  0.00000000000E+00  0.36924620513E+03  0.36924620513E+03  0.00000000000E+00 0. -1.
         -1   -1    0    0    0  501 -0.00000000000E+00 -0.00000000000E+00 -0.67558314057E+02  0.67558314057E+02  0.00000000000E+00 0.  1.
         25    2    1    2    0    0 -0.84052741950E+02 -0.51816989089E+01  0.55247488498E+02  0.16059654270E+03  0.12508897277E+03 0.  0.
          5    1    3    3  502    0  0.26854844479E+02  0.15228488240E+02 -0.66970797087E+01  0.31865542561E+02  0.41800000000E+01 0.  1.
         -5    1    3    3    0  502 -0.11090758643E+03 -0.20410187149E+02  0.61944568207E+02  0.12873100014E+03  0.41800000000E+01 0.  1.
        -11    1    1    2    0    0  0.92090246405E+02 -0.22082667435E+02  0.16913471683E+03  0.19384222998E+03  0.00000000000E+00 0.  1.
         11    1    1    2    0    0 -0.80375044545E+01  0.27264366344E+02  0.77305685742E+02  0.82365746509E+02  0.00000000000E+00 0. -1.
</event>
<event>
 7    1  0.2733606E-009  0.7667846E+02  0.7561462E-02  0.1338751E+00
          1   -1    0    0  501    0  0.00000000000E+00  0.00000000000E+00  0.23824339750E+02  0.23824339750E+02  0.00000000000E+00 0. -1.
         -1   -1    0    0    0  501 -0.00000000000E+00 -0.00000000000E+00 -0.72309444296E+03  0.72309444296E+03  0.00000000000E+00 0.  1.
         25    2    1    2    0    0  0.73403393963E+02 -0.17387254937E+02 -0.42394522457E+03  0.44840567165E+03  0.12509083920E+03 0.  0.
          5    1    3    3  502    0  0.64523452552E+02 -0.18626708977E+02 -0.43102189142E+03  0.43624256269E+03  0.41800000000E+01 0. -1.
         -5    1    3    3    0  502  0.88799414106E+01  0.12394540398E+01  0.70766668540E+01  0.12163108958E+02  0.41800000000E+01 0. -1.
        -11    1    1    2    0    0 -0.56725701032E+02  0.87564025812E+01 -0.27371192862E+03  0.27966533502E+03  0.00000000000E+00 0.  1.
         11    1    1    2    0    0 -0.16677692930E+02  0.86308523561E+01 -0.16129500209E+01  0.18847776040E+02  0.00000000000E+00 0. -1.
</event>
<event>
 7    1  0.2733606E-009  0.1156441E+03  0.7561462E-02  0.1250461E+00
          2   -1    0    0  501    0  0.00000000000E+00  0.00000000000E+00  0.47159369535E+03  0.47159369535E+03  0.00000000000E+00 0. -1.
         -2   -1    0    0    0  501 -0.00000000000E+00 -0.00000000000E+00 -0.37581901886E+02  0.37581901886E+02  0.00000000000E+00 0.  1.
         25    2    1    2    0    0  0.72114159377E+02  0.12646787584E+02  0.28127921602E+03  0.31642827923E+03  0.12509382604E+03 0.  0.
          5    1    3    3  502    0  0.67991928652E+02 -0.48335770333E+02  0.15503491346E+03  0.17610379282E+03  0.41800000000E+01 0. -1.
         -5    1    3    3    0  502  0.41222307248E+01  0.60982557917E+02  0.12624430255E+03  0.14032448640E+03  0.41800000000E+01 0. -1.
        -11    1    1    2    0    0 -0.38661393246E+02  0.16588144765E+02  0.99746562113E+01  0.43236138137E+02  0.00000000000E+00 0.  1.
         11    1    1    2    0    0 -0.33452766130E+02 -0.29234932349E+02  0.14275792123E+03  0.14951117987E+03  0.00000000000E+00 0. -1.
</event>
<event>
 7    1  0.2733606E-009  0.1361575E+03  0.7561462E-02  0.1218595E+00
         -2   -1    0    0    0  501 -0.00000000000E+00  0.00000000000E+00  0.20244267760E+03  0.20244267760E+03  0.00000000000E+00 0.  1.
          2   -1    0    0  501    0  0.00000000000E+00 -0.00000000000E+00 -0.11172960428E+03  0.11172960428E+03  0.00000000000E+00 0. -1.
         25    2    1    2    0    0  0.82209036064E+02 -0.60079646561E+02  0.69042058885E+02  0.17544843926E+03  0.12508980534E+03 0.  0.
          5    1    3    3  502    0 -0.11898178062E+02 -0.36509036471E+02  0.68156050911E+02  0.78340258239E+02  0.41800000000E+01 0.  1.
         -5    1    3    3    0  502  0.94107214125E+02 -0.23570610090E+02  0.88600797464E+00  0.97108181018E+02  0.41800000000E+01 0.  1.
        -11    1    1    2    0    0 -0.97690182856E+02  0.68163712426E+02  0.22554141134E+02  0.12123676340E+03  0.00000000000E+00 0.  1.
         11    1    1    2    0    0  0.15481146792E+02 -0.80840658643E+01 -0.88312669267E+00  0.17487079221E+02  0.00000000000E+00 0. -1.
</event>
<event>
 7    1  0.2733606E-009  0.1623123E+03  0.7561462E-02  0.1186111E+00
          3   -1    0    0  501    0  0.00000000000E+00  0.00000000000E+00  0.12271034842E+03  0.12271034842E+03  0.00000000000E+00 0. -1.
         -3   -1    0    0    0  501 -0.00000000000E+00 -0.00000000000E+00 -0.35020986348E+03  0.35020986348E+03  0.00000000000E+00 0.  1.
         25    2    1    2    0    0  0.98752347257E+02 -0.12248947985E+03 -0.20571572146E+03  0.28761652704E+03  0.12509440359E+03 0.  0.
          5    1    3    3  502    0  0.71984884909E+02 -0.80778248797E+02 -0.41376414399E+02  0.11591561242E+03  0.41800000000E+01 0. -1.
         -5    1    3    3    0  502  0.26767462348E+02 -0.41711231052E+02 -0.16433930706E+03  0.17170091462E+03  0.41800000000E+01 0. -1.
        -11    1    1    2    0    0 -0.78831165547E+02  0.54695391685E+02  0.26718867766E+02  0.99598375628E+02  0.00000000000E+00 0. -1.
         11    1    1    2    0    0 -0.19921181710E+02  0.67794088164E+02 -0.48502661368E+02  0.85705309232E+02  0.00000000000E+00 0.  1.
</event>
<event>
 7    1  0.2733606E-009  0.9619866E+02  0.7561462E-02  0.1288499E+00
          4   -1    0    0  501    0  0.00000000000E+00  0.00000000000E+00  0.31304094105E+02  0.31304094105E+02  0.00000000000E+00 0. -1.
         -4   -1    0    0    0  501 -0.00000000000E+00 -0.00000000000E+00 -0.44075537548E+03  0.44075537548E+03  0.00000000000E+00 0.  1.
         25    2    1    2    0    0 -0.28792292863E+02  0.19535590562E+02 -0.30631243490E+03  0.33269080674E+03  0.12508089256E+03 0.  0.
          5    1    3    3  502    0  0.49404207749E+02  0.30132252924E+01 -0.12449241523E+03  0.13403614855E+03  0.41800000000E+01 0. -1.
         -5    1    3    3    0  502 -0.78196500612E+02  0.16522365269E+02 -0.18182001968E+03  0.19865465818E+03  0.41800000000E+01 0. -1.
        -11    1    1    2    0    0  0.38659584802E+02 -0.29530550781E+02 -0.11244702666E+03  0.12251918516E+03  0.00000000000E+00 0.  1.
         11    1    1    2    0    0 -0.98672919387E+01  0.99949602195E+01  0.93081801914E+01  0.16849477691E+02  0.00000000000E+00 0. -1.
</event>
<event>
 7    1  0.2733606E-009  0.1054280E+03  0.7561462E-02  0.1269279E+00
         -2   -1    0    0    0  501 -0.00000000000E+00  0.00000000000E+00  0.25028662484E+02  0.25028662484E+02  0.00000000000E+00 0.  1.
          2   -1    0    0  501    0  0.00000000000E+00 -0.00000000000E+00 -0.56163549121E+03  0.56163549121E+03  0.00000000000E+00 0. -1.
         25    2    1    2    0    0  0.13720624438E+02 -0.24092407265E+02 -0.40907744702E+03  0.42867285274E+03  0.12508939760E+03 0.  0.
          5    1    3    3  502    0  0.68676717463E+02 -0.59075133480E+01 -0.24902246571E+03  0.25842029925E+03  0.41800000000E+01 0.  1.
         -5    1    3    3    0  502 -0.54956093025E+02 -0.18184893917E+02 -0.16005498131E+03  0.17025255349E+03  0.41800000000E+01 0.  1.
        -11    1    1    2    0    0 -0.34146671716E+02  0.43692495490E+02 -0.11366359575E+03  0.12646913596E+03  0.00000000000E+00 0. -1.
         11    1    1    2    0    0  0.20426047278E+02 -0.19600088224E+02 -0.13865785954E+02  0.31522164995E+02  0.00000000000E+00 0.  1.
</event>
<event>
 7    1  0.2733606E-009  0.1437510E+03  0.7561462E-02  0.1208369E+00
          2   -1    0    0  501    0  0.00000000000E+00  0.00000000000E+00  0.16032172866E+03  0.16032172866E+03  0.00000000000E+00 0. -1.
         -2   -1    0    0    0  501 -0.00000000000E+00 -0.00000000000E+00 -0.14151804919E+03  0.14151804919E+03  0.00000000000E+00 0.  1.
         25    2    1    2    0    0  0.73346672160E+02 -0.72954068605E+02  0.33461371202E+02  0.16573365482E+03  0.12508377406E+03 0.  0.
          5    1    3    3  502    0 -0.17642373084E+02  0.21602401672E+02 -0.56033101685E+01  0.28753896621E+02  0.41800000000E+01 0. -1.
         -5    1    3    3    0  502  0.90989045244E+02 -0.94556470276E+02  0.39064681371E+02  0.13697975820E+03  0.41800000000E+01 0. -1.
        -11    1    1    2    0    0 -0.11326347803E+02 -0.15978213412E+02 -0.19416889732E+02  0.27579069333E+02  0.00000000000E+00 0.  1.
         11    1    1    2    0    0 -0.62020324356E+02  0.88932282016E+02  0.47591979945E+01  0.10852705369E+03  0.00000000000E+00 0. -1.
</event>
<event>
 7    1  0.2733606E-009  0.1523369E+03  0.7561462E-02  0.1197630E+00
          3   -1    0    0  501    0  0.00000000000E+00  0.00000000000E+00  0.23093063522E+03  0.23093063522E+03  0.00000000000E+00 0. -1.
         -3   -1    0    0    0  501 -0.00000000000E+00 -0.00000000000E+00 -0.10534773738E+03  0.10534773738E+03  0.00000000000E+00 0.  1.
         25    2    1    2    0    0 -0.65825826219E+02  0.85216661440E+02  0.35083108598E+02  0.16873542275E+03  0.12508357046E+03 0.  0.
          5    1    3    3  502    0 -0.72122119430E+02  0.11417946205E+03  0.28879980248E+02  0.13816683873E+03  0.41800000000E+01 0. -1.
         -5    1    3    3    0  502  0.62962932113E+01 -0.28962800615E+02  0.62031283505E+01  0.30568584020E+02  0.41800000000E+01 0. -1.
        -11    1    1    2    0    0  0.81857710547E+01  0.18912813417E+02  0.22322169487E+02  0.30380595941E+02  0.00000000000E+00 0.  1.
         11    1    1    2    0    0  0.57640055164E+02 -0.10412947486E+03  0.68177619754E+02  0.13716235390E+03  0.00000000000E+00 0. -1.
</event>
<event>
 7    1  0.2733606E-009  0.1130234E+03  0.7561462E-02  0.1255071E+00
         -2   -1    0    0    0  501 -0.00000000000E+00  0.00000000000E+00  0.60717464571E+02  0.60717464571E+02  0.00000000000E+00 0. -1.
          2   -1    0    0  501    0  0.00000000000E+00 -0.00000000000E+00 -0.24047756257E+03  0.24047756257E+03  0.00000000000E+00 0.  1.
         25    2    1    2    0    0  0.43539677443E+02 -0.30953219266E+02 -0.96719509820E+02  0.16688823880E+03  0.12507284028E+03 0.  0.
          5    1    3    3  502    0 -0.16714101638E+02  0.38381471277E+02 -0.44079586361E+02  0.60934233930E+02  0.41800000000E+01 0.  1.
         -5    1    3    3    0  502  0.60253779081E+02 -0.69334690543E+02 -0.52639923459E+02  0.10595400487E+03  0.41800000000E+01 0.  1.
        -11    1    1    2    0    0 -0.15512707957E+01  0.47034823499E+02 -0.75132067262E+02  0.88653869593E+02  0.00000000000E+00 0.  1.
         11    1    1    2    0    0 -0.41988406647E+02 -0.16081604233E+02 -0.79085209209E+01  0.45652918753E+02  0.00000000000E+00 0. -1.
</event>
<event>
 7    1  0.2733606E-009  0.3397727E+03  0.7561462E-02  0.1066893E+00
          2   -1    0    0  501    0  0.00000000000E+00  0.00000000000E+00  0.90720529657E+03  0.90720529657E+03  0.00000000000E+00 0. -1.
         -2   -1    0    0    0  501 -0.00000000000E+00 -0.00000000000E+00 -0.17525901559E+03  0.17525901559E+03  0.00000000000E+00 0.  1.
         25    2    1    2    0    0  0.78293824739E+02  0.32616563265E+03  0.62279605059E+03  0.71835711578E+03  0.12509229489E+03 0.  0.
          5    1    3    3  502    0  0.91630035465E+01  0.15328403925E+02 -0.57664787458E+00  0.18350082388E+02  0.41800000000E+01 0. -1.
         -5    1    3    3    0  502  0.69130821193E+02  0.31083722872E+03  0.62337269847E+03  0.70000703339E+03  0.41800000000E+01 0. -1.
        -11    1    1    2    0    0 -0.62968504223E+02 -0.11572509382E+03  0.71092404649E+02  0.14970457529E+03  0.00000000000E+00 0. -1.
         11    1    1    2    0    0 -0.15325320516E+02 -0.21044053882E+03  0.38057825735E+02  0.21440262109E+03  0.00000000000E+00 0.  1.
</event>
<event>
 7    1  0.2733606E-009  0.8458401E+02  0.7561462E-02  0.1316524E+00
          1   -1    0    0  501    0  0.00000000000E+00  0.00000000000E+00  0.50887977672E+02  0.50887977672E+02  0.00000000000E+00 0. -1.
         -1   -1    0    0    0  501 -0.00000000000E+00 -0.00000000000E+00 -0.24592489410E+03  0.24592489410E+03  0.00000000000E+00 0.  1.
         25    2    1    2    0    0 -0.24953293555E+02 -0.86111163289E+01 -0.11700659019E+03  0.17331078265E+03  0.12509703055E+03 0.  0.
          5    1    3    3  502    0 -0.44151991507E+02  0.34487537767E+02 -0.11061214830E+02  0.57259160741E+02  0.41800000000E+01 0. -1.
         -5    1    3    3    0  502  0.19198697952E+02 -0.43098654096E+02 -0.10594537536E+03  0.11605162191E+03  0.41800000000E+01 0. -1.
        -11    1    1    2    0    0  0.80577926896E+01  0.34101134424E+02  0.46500842038E+01  0.35347399836E+02  0.00000000000E+00 0. -1.
         11    1    1    2    0    0  0.16895500865E+02 -0.25490018095E+02 -0.82680410448E+02  0.88154689290E+02  0.00000000000E+00 0.  1.
</event>
<event>
 7    1  0.2733606E-009  0.8356692E+02  0.7561462E-02  0.1319223E+00
         -1   -1    0    0    0  501 -0.00000000000E+00  0.00000000000E+00  0.54025908336E+03  0.54025908336E+03  0.00000000000E+00 0. -1.
          1   -1    0    0  501    0  0.00000000000E+00 -0.00000000000E+00 -0.26376352883E+02  0.26376352883E+02  0.00000000000E+00 0.  1.
         25    2    1    2    0    0  0.47073095841E+02  0.19405085392E+02  0.25468775823E+03  0.28828021148E+03  0.12508873830E+03 0.  0.
          5    1    3    3  502    0  0.31259651795E+02 -0.12127160797E+02  0.28054010392E+01  0.33905405680E+02  0.41800000000E+01 0.  1.
         -5    1    3    3    0  502  0.15813444046E+02  0.31532246190E+02  0.25188235719E+03  0.25437480580E+03  0.41800000000E+01 0.  1.
        -11    1    1    2    0    0  0.13424402412E+02  0.21106301514E+02  0.38073553607E+02  0.45555307352E+02  0.00000000000E+00 0.  1.
         11    1    1    2    0    0 -0.60497498253E+02 -0.40511386906E+02  0.22112141864E+03  0.23279991740E+03  0.00000000000E+00 0. -1.
</event>
<event>
 7    1  0.2733606E-009  0.2726999E+03  0.7561462E-02  0.1099744E+00
         -2   -1    0    0    0  501 -0.00000000000E+00  0.00000000000E+00  0.89656048638E+02  0.89656048638E+02  0.00000000000E+00 0.  1.
          2   -1    0    0  501    0  0.00000000000E+00 -0.00000000000E+00 -0.92548009782E+03  0.92548009782E+03  0.00000000000E+00 0. -1.
         25    2    1    2    0    0  0.46444773510E+02 -0.25806748241E+03 -0.34233257516E+03  0.44899367360E+03  0.12509110459E+03 0.  0.
          5    1    3    3  502    0  0.58332354792E+02 -0.93755232752E+02 -0.70388187459E+02  0.13101403214E+03  0.41800000000E+01 0.  1.
         -5    1    3    3    0  502 -0.11887581282E+02 -0.16431224966E+03 -0.27194438770E+03  0.31797964146E+03  0.41800000000E+01 0.  1.
        -11    1    1    2    0    0 -0.57264333457E+02  0.13606462767E+03 -0.33298408247E+03  0.36424056058E+03  0.00000000000E+00 0.  1.
         11    1    1    2    0    0  0.10819559947E+02  0.12200285474E+03 -0.16050739154E+03  0.20190191228E+03  0.00000000000E+00 0. -1.
</event>
<event>
 7    1  0.2733606E-009  0.9899834E+02  0.7561462E-02  0.1282417E+00
          3   -1    0    0  501    0  0.00000000000E+00  0.00000000000E+00  0.16095501863E+03  0.16095501863E+03  0.00000000000E+00 0. -1.
         -3   -1    0    0    0  501 -0.00000000000E+00 -0.00000000000E+00 -0.79406671482E+02  0.79406671482E+02  0.00000000000E+00 0.  1.
         25    2    1    2    0    0  0.11114813532E+01 -0.17290972856E+02  0.77631681655E+02  0.14823959054E+03  0.12509230621E+03 0.  0.
          5    1    3    3  502    0  0.31453267076E+02  0.37521654136E+02  0.97355792032E+00  0.49148781815E+02  0.41800000000E+01 0. -1.
         -5    1    3    3    0  502 -0.30341785723E+02 -0.54812626993E+02  0.76658123734E+02  0.99090808722E+02  0.41800000000E+01 0. -1.
        -11    1    1    2    0    0  0.17608606917E+02 -0.30234598341E+02 -0.14430397361E+02  0.37847461505E+02  0.00000000000E+00 0.  1.
         11    1    1    2    0    0 -0.18720088271E+02  0.47525571197E+02  0.18347062858E+02  0.54274638073E+02  0.00000000000E+00 0. -1.
</event>
<event>
 7    1  0.2733606E-009  0.1015918E+03  0.7561462E-02  0.1276984E+00
         -2   -1    0    0    0  501 -0.00000000000E+00  0.00000000000E+00  0.25250280230E+02  0.25250280230E+02  0.00000000000E+00 0.  1.
          2   -1    0    0  501    0  0.00000000000E+00 -0.00000000000E+00 -0.53541930893E+03  0.53541930893E+03  0.00000000000E+00 0. -1.
         25    2    1    2    0    0  0.30630716091E+02  0.18126806802E+02 -0.35779600326E+03  0.38069974438E+03  0.12508994174E+03 0.  0.
          5    1    3    3  502    0  0.16312595182E+02  0.69865194140E+02 -0.15454576900E+03  0.17043800406E+03  0.41800000000E+01 0. -1.
         -5    1    3    3    0  502  0.14318120909E+02 -0.51738387338E+02 -0.20325023426E+03  0.21026174031E+03  0.41800000000E+01 0. -1.
        -11    1    1    2    0    0 -0.52697515683E+02 -0.17018503929E+02 -0.14720801804E+03  0.15727955433E+03  0.00000000000E+00 0. -1.
         11    1    1    2    0    0  0.22066799592E+02 -0.11083028733E+01 -0.51650073982E+01  0.22690290454E+02  0.00000000000E+00 0.  1.
</event>
<event>
 7    1  0.2733606E-009  0.9035495E+02  0.7561462E-02  0.1301994E+00
         -2   -1    0    0    0  501 -0.00000000000E+00  0.00000000000E+00  0.25515187389E+03  0.25515187389E+03  0.00000000000E+00 0.  1.
          2   -1    0    0  501    0  0.00000000000E+00 -0.00000000000E+00 -0.59230206794E+02  0.59230206794E+02  0.00000000000E+00 0. -1.
         25    2    1    2    0    0  0.22915494462E+02 -0.29675557202E+01  0.17753862984E+03  0.21840557715E+03  0.12508838785E+03 0.  0.
          5    1    3    3  502    0  0.18645001017E+02  0.49829116747E+02  0.29189837390E+02  0.60828413965E+02  0.41800000000E+01 0. -1.
         -5    1    3    3    0  502  0.42704934449E+01 -0.52796672467E+02  0.14834879245E+03  0.15757716319E+03  0.41800000000E+01 0. -1.
        -11    1    1    2    0    0 -0.47536868829E+02 -0.61933200206E+01 -0.17908630813E+02  0.51174507018E+02  0.00000000000E+00 0. -1.
         11    1    1    2    0    0  0.24621374367E+02  0.91608757408E+01  0.36291668077E+02  0.44801996517E+02  0.00000000000E+00 0.  1.
</event>
<event>
 7    1  0.2733606E-009  0.1291587E+03  0.7561462E-02  0.1228709E+00
         -2   -1    0    0    0  501 -0.00000000000E+00  0.00000000000E+00  0.22269091292E+03  0.22269091292E+03  0.00000000000E+00 0.  1.
          2   -1    0    0  501    0  0.00000000000E+00 -0.00000000000E+00 -0.10074617284E+03  0.10074617284E+03  0.00000000000E+00 0. -1.
         25    2    1    2    0    0  0.81803631097E+02 -0.56050233374E+02  0.39985498819E+02  0.16455917175E+03  0.12508964053E+03 0.  0.
          5    1    3    3  502    0  0.48516377689E+02 -0.87345339053E+02  0.57611616260E+02  0.11541064893E+03  0.41800000000E+01 0.  1.
         -5    1    3    3    0  502  0.33287253408E+02  0.31295105679E+02 -0.17626117442E+02  0.49148522816E+02  0.41800000000E+01 0.  1.
        -11    1    1    2    0    0 -0.46639314744E+02  0.61147256921E+02  0.86210981845E+01  0.77385632016E+02  0.00000000000E+00 0. -1.
         11    1    1    2    0    0 -0.35164316354E+02 -0.50970235472E+01  0.73338143081E+02  0.81492281992E+02  0.00000000000E+00 0.  1.
</event>
<event>
 7    1  0.2733606E-009  0.3060896E+03  0.7561462E-02  0.1082235E+00
         -2   -1    0    0    0  501 -0.00000000000E+00  0.00000000000E+00  0.11227276861E+03  0.11227276861E+03  0.00000000000E+00 0.  1.
          2   -1    0    0  501    0  0.00000000000E+00 -0.00000000000E+00 -0.11659723355E+04  0.11659723355E+04  0.00000000000E+00 0. -1.
         25    2    1    2    0    0 -0.27826102685E+03  0.85330553929E+02 -0.84838294088E+03  0.90560030892E+03  0.12509117729E+03 0.  0.
          5    1    3    3  502    0 -0.86947374791E+02  0.75530258362E+02 -0.21595470743E+03  0.24478270767E+03  0.41800000000E+01 0. -1.
         -5    1    3    3    0  502 -0.19131365206E+03  0.98002955671E+01 -0.63242823345E+03  0.66081760125E+03  0.41800000000E+01 0. -1.
        -11    1    1    2    0    0  0.16200384044E+03 -0.15331730718E+01 -0.73396918141E+02  0.17786147005E+03  0.00000000000E+00 0.  1.
         11    1    1    2    0    0  0.11625718641E+03 -0.83797380858E+02 -0.13191970786E+03  0.19478332514E+03  0.00000000000E+00 0. -1.
</event>
<event>
 7    1  0.2733606E-009  0.1089384E+03  0.7561462E-02  0.1262549E+00
          1   -1    0    0  501    0  0.00000000000E+00  0.00000000000E+00  0.36358763291E+03  0.36358763291E+03  0.00000000000E+00 0. -1.
         -1   -1    0    0    0  501 -0.00000000000E+00 -0.00000000000E+00 -0.61547832570E+02  0.61547832570E+02  0.00000000000E+00 0.  1.
         25    2    1    2    0    0  0.72691447602E+02  0.71888855499E+01  0.27172964261E+03  0.30792899562E+03  0.12509013166E+03 0.  0.
          5    1    3    3  502    0  0.79787051155E+02 -0.24957818776E+02  0.88870834759E+02  0.12208343016E+03  0.41800000000E+01 0.  1.
         -5    1    3    3    0  502 -0.70956035522E+01  0.32146704326E+02  0.18285880786E+03  0.18584556545E+03  0.41800000000E+01 0.  1.
        -11    1    1    2    0    0 -0.86572595327E+02 -0.35851073737E+01  0.44175836640E+02  0.97258273681E+02  0.00000000000E+00 0. -1.
         11    1    1    2    0    0  0.13881147724E+02 -0.36037781761E+01 -0.13865678912E+02  0.19948196183E+02  0.00000000000E+00 0.  1.
</event>
<event>
 7    1  0.2733606E-009  0.1139844E+03  0.7561462E-02  0.1253364E+00
         -1   -1    0    0    0  501 -0.00000000000E+00  0.00000000000E+00  0.30572076815E+02  0.30572076815E+02  0.00000000000E+00 0.  1.
          1   -1    0    0  501    0  0.00000000000E+00 -0.00000000000E+00 -0.64805825906E+03  0.64805825906E+03  0.00000000000E+00 0. -1.
         25    2    1    2    0    0  0.55297612327E+02 -0.39496959968E+02 -0.47971568121E+03  0.50038744706E+03  0.12507048654E+03 0.  0.
          5    1    3    3  502    0  0.21603107318E+02  0.34892929915E+02 -0.30147827997E+03  0.30428742416E+03  0.41800000000E+01 0. -1.
         -5    1    3    3    0  502  0.33694505009E+02 -0.74389889883E+02 -0.17823740123E+03  0.19610002290E+03  0.41800000000E+01 0. -1.
        -11    1    1    2    0    0 -0.16984183536E+02 -0.24824077117E+02 -0.74065975095E+02  0.79940390053E+02  0.00000000000E+00 0. -1.
         11    1    1    2    0    0 -0.38313428791E+02  0.64321037085E+02 -0.63704525946E+02  0.98302498765E+02  0.00000000000E+00 0.  1.
</event>
<event>
 7    1  0.2733606E-009  0.1320853E+03  0.7561462E-02  0.1224394E+00
          1   -1    0    0  501    0  0.00000000000E+00  0.00000000000E+00  0.51029854212E+03  0.51029854212E+03  0.00000000000E+00 0.  1.
         -1   -1    0    0    0  501 -0.00000000000E+00 -0.00000000000E+00 -0.36537587014E+02  0.36537587014E+02  0.00000000000E+00 0. -1.
         25    2    1    2    0    0 -0.27430301387E+02  0.77088763145E+02  0.23055793619E+03  0.27477132597E+03  0.12508885163E+03 0.  0.
          5    1    3    3  502    0 -0.12579712537E+02  0.11052987926E+03  0.15640862209E+03  0.19197977195E+03  0.41800000000E+01 0.  1.
         -5    1    3    3    0  502 -0.14850588850E+02 -0.33441116111E+02  0.74149314098E+02  0.82791554021E+02  0.41800000000E+01 0.  1.
        -11    1    1    2    0    0  0.17179077250E+02 -0.94373576017E+02  0.16072434970E+03  0.18717320624E+03  0.00000000000E+00 0. -1.
         11    1    1    2    0    0  0.10251224136E+02  0.17284812873E+02  0.82478669218E+02  0.84891596924E+02  0.00000000000E+00 0.  1.
</event>
<event>
 7    1  0.2733606E-009  0.1382600E+03  0.7561462E-02  0.1215690E+00
          1   -1    0    0  501    0  0.00000000000E+00  0.00000000000E+00  0.60850591374E+02  0.60850591374E+02  0.00000000000E+00 0. -1.
         -1   -1    0    0    0  501 -0.00000000000E+00 -0.00000000000E+00 -0.59077166425E+03  0.59077166425E+03  0.00000000000E+00 0.  1.
         25    2    1    2    0    0  0.85563614217E+02  0.73832165196E+02 -0.46283945826E+03  0.49258526430E+03  0.12509019857E+03 0.  0.
          5    1    3    3  502    0 -0.17192220993E+02  0.22779628094E+02 -0.19988789613E+02  0.35092848687E+02  0.41800000000E+01 0.  1.
         -5    1    3    3    0  502  0.10275583521E+03  0.51052537102E+02 -0.44285066865E+03  0.45749241561E+03  0.41800000000E+01 0.  1.
        -11    1    1    2    0    0 -0.56113952701E+02 -0.30500391536E+01 -0.59746559674E+02  0.82022739649E+02  0.00000000000E+00 0.  1.
         11    1    1    2    0    0 -0.29449661516E+02 -0.70782126043E+02 -0.73350549355E+01  0.77014251677E+02  0.00000000000E+00 0. -1.
</event>
<event>
 7    1  0.2733606E-009  0.9287807E+02  0.7561462E-02  0.1296028E+00
         -1   -1    0    0    0  501 -0.00000000000E+00  0.00000000000E+00  0.21885073246E+03  0.21885073246E+03  0.00000000000E+00 0.  1.
          1   -1    0    0  501    0  0.00000000000E+00 -0.00000000000E+00 -0.67668781294E+02  0.67668781294E+02  0.00000000000E+00 0. -1.
         25    2    1    2    0    0  0.43081765020E+02  0.33724911516E+02  0.93129683406E+02  0.16526942209E+03  0.12508971106E+03 0.  0.
          5    1    3    3  502    0  0.81089546428E+02  0.21135456541E+01  0.33921605078E+02  0.88023458840E+02  0.41800000000E+01 0.  1.
         -5    1    3    3    0  502 -0.38007781408E+02  0.31611365862E+02  0.59208078328E+02  0.77245963251E+02  0.41800000000E+01 0.  1.
        -11    1    1    2    0    0 -0.88934280018E+01 -0.95352333826E+01  0.74959827979E+02  0.76085409560E+02  0.00000000000E+00 0.  1.
         11    1    1    2    0    0 -0.34188337018E+02 -0.24189678134E+02 -0.16907560224E+02  0.45164682098E+02  0.00000000000E+00 0. -1.
</event>
<event>
 7    1  0.2733606E-009  0.8475150E+02  0.7561462E-02  0.1316084E+00
          1   -1    0    0  501    0  0.00000000000E+00  0.00000000000E+00  0.77773869884E+02  0.77773869884E+02  0.00000000000E+00 0. -1.
         -1   -1    0    0    0  501 -0.00000000000E+00 -0.00000000000E+00 -0.16373319847E+03  0.16373319847E+03  0.00000000000E+00 0.  1.
         25    2    1    2    0    0  0.21612543005E+02 -0.29289432851E+02 -0.48134910558E+02  0.13888696274E+03  0.12509055085E+03 0.  0.
          5    1    3    3  502    0 -0.91357300885E+01 -0.66863945003E+02  0.37333871960E+01  0.67717496155E+02  0.41800000000E+01 0. -1.
         -5    1    3    3    0  502  0.30748273094E+02  0.37574512151E+02 -0.51868297754E+02  0.71169466582E+02  0.41800000000E+01 0. -1.
        -11    1    1    2    0    0  0.80925598866E+01  0.20714052243E+02 -0.60382421361E+02  0.64347480877E+02  0.00000000000E+00 0.  1.
         11    1    1    2    0    0 -0.29705102892E+02  0.85753806078E+01  0.22558003330E+02  0.38272624742E+02  0.00000000000E+00 0. -1.
</event>
<event>
 7    1  0.2733606E-009  0.6620514E+02  0.7561462E-02  0.1373495E+00
          1   -1    0    0  501    0  0.00000000000E+00  0.00000000000E+00  0.11641538474E+04  0.11641538474E+04  0.00000000000E+00 0. -1.
         -1   -1    0    0    0  501 -0.00000000000E+00 -0.00000000000E+00 -0.11322891514E+02  0.11322891514E+02  0.00000000000E+00 0.  1.
         25    2    1    2    0    0  0.80473766434E+00  0.26957133807E+02  0.78631134778E+03  0.79665795852E+03  0.12510408685E+03 0.  0.
          5    1    3    3  502    0 -0.44244575278E+01  0.33350097084E+02  0.78666437334E+03  0.78739450944E+03  0.41800000000E+01 0.  1.
         -5    1    3    3    0  502  0.52291951921E+01 -0.63929632768E+01 -0.35302556081E+00  0.92634490803E+01  0.41800000000E+01 0.  1.
        -11    1    1    2    0    0 -0.12473368859E+02  0.29275517114E+02  0.71506550235E+02  0.78267666118E+02  0.00000000000E+00 0. -1.
         11    1    1    2    0    0  0.11668631195E+02 -0.56232650921E+02  0.29501305788E+03  0.30055111429E+03  0.00000000000E+00 0.  1.
</event>
<event>
 7    1  0.2733606E-009  0.1833771E+03  0.7561462E-02  0.1164574E+00
          1   -1    0    0  501    0  0.00000000000E+00  0.00000000000E+00  0.10500947274E+04  0.10500947274E+04  0.00000000000E+00 0. -1.
         -1   -1    0    0    0  501 -0.00000000000E+00 -0.00000000000E+00 -0.34503519110E+02  0.34503519110E+02  0.00000000000E+00 0.  1.
         25    2    1    2    0    0 -0.61229571317E+02  0.14277071675E+03  0.52486426852E+03  0.56148272941E+03  0.12509123509E+03 0.  0.
          5    1    3    3  502    0 -0.79602223505E+02  0.54531495186E+02  0.17195018192E+03  0.19721697548E+03  0.41800000000E+01 0. -1.
         -5    1    3    3    0  502  0.18372652188E+02  0.88239221564E+02  0.35291408660E+03  0.36426575393E+03  0.41800000000E+01 0. -1.
        -11    1    1    2    0    0  0.51021051751E+02 -0.17025374948E+02  0.17632366436E+03  0.18434490969E+03  0.00000000000E+00 0.  1.
         11    1    1    2    0    0  0.10208519565E+02 -0.12574534180E+03  0.31440327541E+03  0.33877060741E+03  0.00000000000E+00 0. -1.
</event>
<event>
 7    1  0.2733606E-009  0.2569044E+03  0.7561462E-02  0.1109017E+00
          1   -1    0    0  501    0  0.00000000000E+00  0.00000000000E+00  0.16849232962E+03  0.16849232962E+03  0.00000000000E+00 0. -1.
         -1   -1    0    0    0  501 -0.00000000000E+00 -0.00000000000E+00 -0.45661615019E+03  0.45661615019E+03  0.00000000000E+00 0.  1.
         25    2    1    2    0    0 -0.23295486310E+03 -0.96483679578E+02 -0.18674698502E+03  0.33777933457E+03  0.12507347353E+03 0.  0.
          5    1    3    3  502    0 -0.21864740105E+03 -0.96378986792E+02 -0.20454357062E+03  0.31456500086E+03  0.41800000000E+01 0.  1.
         -5    1    3    3    0  502 -0.14307462046E+02 -0.10469278610E+00  0.17796585598E+02  0.23214333713E+02  0.41800000000E+01 0.  1.
        -11    1    1    2    0    0  0.11461997613E+03  0.81496605611E+02 -0.17975492229E+02  0.14178347567E+03  0.00000000000E+00 0.  1.
         11    1    1    2    0    0  0.11833488697E+03  0.14987073967E+02 -0.83401343325E+02  0.14554566956E+03  0.00000000000E+00 0. -1.
</event>
<event>
 7    1  0.2733606E-009  0.9264577E+02  0.7561462E-02  0.1296568E+00
         -1   -1    0    0    0  501 -0.00000000000E+00  0.00000000000E+00  0.37366404874E+03  0.37366404874E+03  0.00000000000E+00 0.  1.
          1   -1    0    0  501    0  0.00000000000E+00 -0.00000000000E+00 -0.36473273338E+02  0.36473273338E+02  0.00000000000E+00 0. -1.
         25    2    1    2    0    0  0.85103755123E+01 -0.21411113135E+02  0.24757674084E+03  0.27833927270E+03  0.12509055066E+03 0.  0.
          5    1    3    3  502    0 -0.52040255509E+02 -0.36642068784E+02  0.14087374923E+03  0.15464059952E+03  0.41800000000E+01 0.  1.
         -5    1    3    3    0  502  0.60550631022E+02  0.15230955649E+02  0.10670299161E+03  0.12369867318E+03  0.41800000000E+01 0.  1.
        -11    1    1    2    0    0 -0.53750524692E+01 -0.18312234717E+02 -0.12072767799E+02  0.22582755627E+02  0.00000000000E+00 0. -1.
         11    1    1    2    0    0 -0.31353230431E+01  0.39723347852E+02  0.10168680236E+03  0.10921529375E+03  0.00000000000E+00 0.  1.
</event>
<event>
 7    1  0.2733606E-009  0.1314874E+03  0.7561462E-02  0.1225265E+00
         -2   -1    0    0    0  501 -0.00000000000E+00  0.00000000000E+00  0.24640727751E+03  0.24640727751E+03  0.00000000000E+00 0.  1.
          2   -1    0    0  501    0  0.00000000000E+00 -0.00000000000E+00 -0.96736747678E+02  0.96736747678E+02  0.00000000000E+00 0. -1.
         25    2    1    2    0    0  0.10036500091E+03 -0.95496308114E+01  0.13019815687E+03  0.20679263915E+03  0.12508919497E+03 0.  0.
          5    1    3    3  502    0 -0.32961747226E+01 -0.46140956753E+02  0.18437263846E+02  0.49972570036E+02  0.41800000000E+01 0.  1.
         -5    1    3    3    0  502  0.10366117563E+03  0.36591325942E+02  0.11176089303E+03  0.15682006911E+03  0.41800000000E+01 0.  1.
        -11    1    1    2    0    0 -0.80968769249E+02  0.21451105198E+02  0.50549506016E+02  0.97833246222E+02  0.00000000000E+00 0.  1.
         11    1    1    2    0    0 -0.19396231657E+02 -0.11901474387E+02 -0.31077133062E+02  0.38518139810E+02  0.00000000000E+00 0. -1.
</event>
<event>
 7    1  0.2733606E-009  0.1325857E+03  0.7561462E-02  0.1223669E+00
          1   -1    0    0  501    0  0.00000000000E+00  0.00000000000E+00  0.59129850816E+02  0.59129850816E+02  0.00000000000E+00 0. -1.
         -1   -1    0    0    0  501 -0.00000000000E+00 -0.00000000000E+00 -0.36896383650E+03  0.36896383650E+03  0.00000000000E+00 0.  1.
         25    2    1    2    0    0  0.56476666906E+02 -0.80805813301E+02 -0.14306491112E+03  0.21408924540E+03  0.12508973912E+03 0.  0.
          5    1    3    3  502    0  0.69556434165E+02 -0.76600588962E+01 -0.11473556777E+03  0.13445630125E+03  0.41800000000E+01 0.  1.
         -5    1    3    3    0  502 -0.13079767258E+02 -0.73145754405E+02 -0.28329343359E+02  0.79632944151E+02  0.41800000000E+01 0.  1.
        -11    1    1    2    0    0 -0.72640101018E+02  0.59468878689E+02 -0.16138016909E+03  0.18669946648E+03  0.00000000000E+00 0.  1.
         11    1    1    2    0    0  0.16163434112E+02  0.21336934612E+02 -0.53889054629E+01  0.27304975426E+02  0.00000000000E+00 0. -1.
</event>
<event>
 7    1  0.2733606E-009  0.1580809E+03  0.7561462E-02  0.1190881E+00
         -1   -1    0    0    0  501 -0.00000000000E+00  0.00000000000E+00  0.41154205432E+02  0.41154205432E+02  0.00000000000E+00 0.  1.
          1   -1    0    0  501    0  0.00000000000E+00 -0.00000000000E+00 -0.86401634509E+03  0.86401634509E+03  0.00000000000E+00 0. -1.
         25    2    1    2    0    0 -0.13158013972E+03 -0.16600460333E+02 -0.62612833690E+03  0.65212964641E+03  0.12508985971E+03 0.  0.
          5    1    3    3  502    0  0.12993031921E+01  0.26989180244E+02 -0.23779719917E+03  0.23936391618E+03  0.41800000000E+01 0. -1.
         -5    1    3    3    0  502 -0.13287944292E+03 -0.43589640577E+02 -0.38833113774E+03  0.41276573023E+03  0.41800000000E+01 0. -1.
        -11    1    1    2    0    0  0.41299375169E+02 -0.26293103055E+02 -0.26598441411E+02  0.55717526355E+02  0.00000000000E+00 0.  1.
         11    1    1    2    0    0  0.90280764555E+02  0.42893563388E+02 -0.17013536134E+03  0.19732337775E+03  0.00000000000E+00 0. -1.
</event>
<event>
 7    1  0.2923390E-009  0.1060561E+03  0.7561462E-02  0.1268053E+00
          2   -1    0    0  501    0  0.00000000000E+00  0.00000000000E+00  0.23383119286E+03  0.23383119286E+03  0.00000000000E+00 0. -1.
         -2   -1    0    0    0  501 -0.00000000000E+00 -0.00000000000E+00 -0.57530287386E+02  0.57530287386E+02  0.00000000000E+00 0.  1.
         25    2    1    2    0    0 -0.23737304788E+02 -0.34767358250E+02  0.10079499918E+03  0.16607035881E+03  0.12508998111E+03 0.  0.
          5    1    3    3  502    0 -0.67725892424E+02  0.10538745079E+02  0.54209134606E+02  0.87486938038E+02  0.41800000000E+01 0. -1.
         -5    1    3    3    0  502  0.43988587636E+02 -0.45306103329E+02  0.46585864578E+02  0.78583420768E+02  0.41800000000E+01 0. -1.
        -11    1    1    2    0    0  0.22304781364E+02 -0.17202750627E+02 -0.58241164006E+01  0.28763835500E+02  0.00000000000E+00 0.  1.
         11    1    1    2    0    0  0.14325234236E+01  0.51970108878E+02  0.81330022691E+02  0.96527285941E+02  0.00000000000E+00 0. -1.
</event>
<event>
 7    1  0.2733606E-009  0.2314549E+03  0.7561462E-02  0.1125620E+00
          2   -1    0    0  501    0  0.00000000000E+00  0.00000000000E+00  0.13180670535E+04  0.13180670535E+04  0.00000000000E+00 0. -1.
         -2   -1    0    0    0  501 -0.00000000000E+00 -0.00000000000E+00 -0.47224773010E+02  0.47224773010E+02  0.00000000000E+00 0.  1.
         25    2    1    2    0    0 -0.22976123746E+02 -0.22072528724E+03  0.56852193856E+03  0.62298688886E+03  0.12509162392E+03 0.  0.
          5    1    3    3  502    0  0.17860774540E+02 -0.51399442113E+01  0.73320391867E+01  0.20412189797E+02  0.41800000000E+01 0. -1.
         -5    1    3    3    0  502 -0.40836898286E+02 -0.21558534303E+03  0.56118989937E+03  0.60257469906E+03  0.41800000000E+01 0. -1.
        -11    1    1    2    0    0 -0.74073201295E+01  0.84724558324E+02  0.14760627292E+03  0.17035472104E+03  0.00000000000E+00 0.  1.
         11    1    1    2    0    0  0.30383443876E+02  0.13600072892E+03  0.55471406902E+03  0.57195021662E+03  0.00000000000E+00 0. -1.
</event>
<event>
 7    1  0.2733606E-009  0.8156471E+02  0.7561462E-02  0.1324669E+00
          1   -1    0    0  501    0  0.00000000000E+00  0.00000000000E+00  0.91500284622E+03  0.91500284622E+03  0.00000000000E+00 0. -1.
         -1   -1    0    0    0  501 -0.00000000000E+00 -0.00000000000E+00 -0.13625536556E+02  0.13625536556E+02  0.00000000000E+00 0.  1.
         25    2    1    2    0    0  0.17995940983E+01  0.28552554620E+02  0.54696802328E+03  0.56181842138E+03  0.12508970058E+03 0.  0.
          5    1    3    3  502    0  0.35105824024E+02 -0.35201248739E+01  0.47402032809E+03  0.47534992795E+03  0.41800000000E+01 0. -1.
         -5    1    3    3    0  502 -0.33306229925E+02  0.32072679494E+02  0.72947695194E+02  0.86468493428E+02  0.41800000000E+01 0. -1.
        -11    1    1    2    0    0 -0.26446859421E+02 -0.44536963694E+02  0.30468274020E+03  0.30905428275E+03  0.00000000000E+00 0. -1.
         11    1    1    2    0    0  0.24647265323E+02  0.15984409075E+02  0.49726546179E+02  0.57755678650E+02  0.00000000000E+00 0.  1.
</event>
<event>
 7    1  0.2733606E-009  0.9619550E+02  0.7561462E-02  0.1288506E+00
         -1   -1    0    0    0  501 -0.00000000000E+00  0.00000000000E+00  0.19626634398E+03  0.19626634398E+03  0.00000000000E+00 0.  1.
          1   -1    0    0  501    0  0.00000000000E+00 -0.00000000000E+00 -0.79873504474E+02  0.79873504474E+02  0.00000000000E+00 0. -1.
         25    2    1    2    0    0  0.23492164436E+02 -0.45857519712E+02  0.25275684146E+02  0.13762597691E+03  0.12508898995E+03 0.  0.
          5    1    3    3  502    0  0.39560912008E+02  0.18472274284E+01  0.63034941997E+02  0.74561077786E+02  0.41800000000E+01 0.  1.
         -5    1    3    3    0  502 -0.16068747572E+02 -0.47704747140E+02 -0.37759257851E+02  0.63064899126E+02  0.41800000000E+01 0.  1.
        -11    1    1    2    0    0 -0.37999724714E+02 -0.13975892385E+02  0.50625752229E+02  0.64824929117E+02  0.00000000000E+00 0.  1.
         11    1    1    2    0    0  0.14507560278E+02  0.59833412097E+02  0.40491403133E+02  0.73688942428E+02  0.00000000000E+00 0. -1.
</event>
<event>
 7    1  0.2733606E-009  0.1348577E+03  0.7561462E-02  0.1220421E+00
          1   -1    0    0  501    0  0.00000000000E+00  0.00000000000E+00  0.11186527292E+03  0.11186527292E+03  0.00000000000E+00 0. -1.
         -1   -1    0    0    0  501 -0.00000000000E+00 -0.00000000000E+00 -0.20379481461E+03  0.20379481461E+03  0.00000000000E+00 0.  1.
         25    2    1    2    0    0 -0.53819430822E+02  0.75390856182E+02 -0.92730783271E+02  0.18118068780E+03  0.12508849322E+03 0.  0.
          5    1    3    3  502    0 -0.39693504358E+02 -0.25777962432E+02 -0.53815520369E+02  0.71788998238E+02  0.41800000000E+01 0.  1.
         -5    1    3    3    0  502 -0.14125926463E+02  0.10116881861E+03 -0.38915262901E+02  0.10939168956E+03  0.41800000000E+01 0.  1.
        -11    1    1    2    0    0 -0.19457386272E+02 -0.10622530937E+02  0.25321730463E+02  0.33654391655E+02  0.00000000000E+00 0. -1.
         11    1    1    2    0    0  0.73276817094E+02 -0.64768325246E+02 -0.24520488879E+02  0.10082500808E+03  0.00000000000E+00 0.  1.
</event>
<event>
 7    1  0.2733606E-009  0.1048702E+03  0.7561462E-02  0.1270376E+00
          1   -1    0    0  501    0  0.00000000000E+00  0.00000000000E+00  0.24513871983E+03  0.24513871983E+03  0.00000000000E+00 0. -1.
         -1   -1    0    0    0  501 -0.00000000000E+00 -0.00000000000E+00 -0.59101455283E+02  0.59101455283E+02  0.00000000000E+00 0.  1.
         25    2    1    2    0    0  0.32757007901E+01 -0.39781889338E+02  0.59211265208E+02  0.14403734248E+03  0.12508978042E+03 0.  0.
          5    1    3    3  502    0  0.46887101941E+02  0.18375222316E+02  0.49221323735E+02  0.70542612894E+02  0.41800000000E+01 0.  1.
         -5    1    3    3    0  502 -0.43611401151E+02 -0.58157111654E+02  0.99899414722E+01  0.73494729586E+02  0.41800000000E+01 0.  1.
        -11    1    1    2    0    0 -0.38381732043E+02  0.33048744196E+02  0.34729996734E+02  0.61412942615E+02  0.00000000000E+00 0.  1.
         11    1    1    2    0    0  0.35106031253E+02  0.67331451422E+01  0.92096002609E+02  0.98789890021E+02  0.00000000000E+00 0. -1.
</event>
<event>
 7    1  0.2733606E-009  0.1796558E+03  0.7561462E-02  0.1168137E+00
          1   -1    0    0  501    0  0.00000000000E+00  0.00000000000E+00  0.31571534244E+02  0.31571534244E+02  0.00000000000E+00 0. -1.
         -1   -1    0    0    0  501 -0.00000000000E+00 -0.00000000000E+00 -0.10646863564E+04  0.10646863564E+04  0.00000000000E+00 0.  1.
         25    2    1    2    0    0  0.11851124671E+03  0.52251922906E+01 -0.50208261739E+03  0.53085525212E+03  0.12509246893E+03 0.  0.
          5    1    3    3  502    0  0.65605742885E+00 -0.43182804607E+02 -0.98893477706E+02  0.10799341349E+03  0.41800000000E+01 0.  1.
         -5    1    3    3    0  502  0.11785518928E+03  0.48407996898E+02 -0.40318913969E+03  0.42286183863E+03  0.41800000000E+01 0.  1.
        -11    1    1    2    0    0 -0.13847076683E+03 -0.43613531525E+02 -0.34303360843E+03  0.37248939571E+03  0.00000000000E+00 0. -1.
         11    1    1    2    0    0  0.19959520123E+02  0.38388339235E+02 -0.18799859628E+03  0.19291324277E+03  0.00000000000E+00 0.  1.
</event>
<event>
 7    1  0.2733606E-009  0.8322349E+02  0.7561462E-02  0.1320145E+00
          2   -1    0    0  501    0  0.00000000000E+00  0.00000000000E+00  0.51981778553E+02  0.51981778553E+02  0.00000000000E+00 0. -1.
         -2   -1    0    0    0  501 -0.00000000000E+00 -0.00000000000E+00 -0.28010939813E+03  0.28010939813E+03  0.00000000000E+00 0.  1.
         25    2    1    2    0    0  0.31907618639E+02  0.26595112068E+02 -0.17476651027E+03  0.21889486009E+03  0.12508489337E+03 0.  0.
          5    1    3    3  502    0 -0.65568812101E+01  0.30688352226E+02  0.74897402383E+01  0.32532080511E+02  0.41800000000E+01 0.  1.
         -5    1    3    3    0  502  0.38464499849E+02 -0.40932401581E+01 -0.18225625050E+03  0.18636277958E+03  0.41800000000E+01 0.  1.
        -11    1    1    2    0    0  0.30077937713E+02 -0.10265699146E+02 -0.34740857753E+01  0.31970864674E+02  0.00000000000E+00 0. -1.
         11    1    1    2    0    0 -0.61985556352E+02 -0.16329412922E+02 -0.49887023536E+02  0.81225451922E+02  0.00000000000E+00 0.  1.
</event>
<event>
 7    1  0.2733606E-009  0.1098234E+03  0.7561462E-02  0.1260897E+00
          2   -1    0    0  501    0  0.00000000000E+00  0.00000000000E+00  0.64319079166E+02  0.64319079166E+02  0.00000000000E+00 0. -1.
         -2   -1    0    0    0  501 -0.00000000000E+00 -0.00000000000E+00 -0.32984545420E+03  0.32984545420E+03  0.00000000000E+00 0.  1.
         25    2    1    2    0    0  0.89759738008E+02 -0.37847989273E+01 -0.18946243177E+03  0.24415891087E+03  0.12508567238E+03 0.  0.
          5    1    3    3  502    0  0.34792920346E+02  0.23589247843E+02  0.27503571546E+01  0.42332455451E+02  0.41800000000E+01 0. -1.
         -5    1    3    3    0  502  0.54966817662E+02 -0.27374046770E+02 -0.19221278893E+03  0.20182645542E+03  0.41800000000E+01 0. -1.
        -11    1    1    2    0    0  0.53782512930E+01 -0.17549396558E+02  0.91552761512E+01  0.20511606176E+02  0.00000000000E+00 0. -1.
         11    1    1    2    0    0 -0.95137989302E+02  0.21334195485E+02 -0.85219219415E+02  0.12949401632E+03  0.00000000000E+00 0.  1.
</event>
<event>
 7    1  0.2733606E-009  0.8403949E+02  0.7561462E-02  0.1317964E+00
          1   -1    0    0  501    0  0.00000000000E+00  0.00000000000E+00  0.16369340799E+03  0.16369340799E+03  0.00000000000E+00 0. -1.
         -1   -1    0    0    0  501 -0.00000000000E+00 -0.00000000000E+00 -0.12052044567E+03  0.12052044567E+03  0.00000000000E+00 0.  1.
         25    2    1    2    0    0 -0.37993369792E+02  0.12445260247E+01 -0.56291393818E+02  0.14233312302E+03  0.12507978213E+03 0.  0.
          5    1    3    3  502    0 -0.58430439668E+02  0.16465706775E+01  0.21017895205E+02  0.62257945627E+02  0.41800000000E+01 0. -1.
         -5    1    3    3    0  502  0.20437069877E+02 -0.40204465278E+00 -0.77309289023E+02  0.80075177391E+02  0.41800000000E+01 0. -1.
        -11    1    1    2    0    0  0.45672473769E+02  0.31173426406E+02  0.92617819263E+02  0.10786944803E+03  0.00000000000E+00 0. -1.
         11    1    1    2    0    0 -0.76791039774E+01 -0.32417952430E+02  0.68465368676E+01  0.34011282610E+02  0.00000000000E+00 0.  1.
</event>
<event>
 7    1  0.2733606E-009  0.1330921E+03  0.7561462E-02  0.1222938E+00
         -1   -1    0    0    0  501 -0.00000000000E+00  0.00000000000E+00  0.46797144044E+02  0.46797144044E+02  0.00000000000E+00 0.  1.
          1   -1    0    0  501    0  0.00000000000E+00 -0.00000000000E+00 -0.50782983328E+03  0.50782983328E+03  0.00000000000E+00 0. -1.
         25    2    1    2    0    0  0.63278706046E+02  0.71414714015E+02 -0.18215596162E+03  0.24068793305E+03  0.12508249575E+03 0.  0.
          5    1    3    3  502    0  0.98828119474E+02  0.68946266001E+02 -0.12920252509E+03  0.17672393636E+03  0.41800000000E+01 0.  1.
         -5    1    3    3    0  502 -0.35549413428E+02  0.24684480146E+01 -0.52953436538E+02  0.63963996685E+02  0.41800000000E+01 0.  1.
        -11    1    1    2    0    0 -0.12876355717E+02 -0.55353569799E+02 -0.24410839133E+03  0.25063663927E+03  0.00000000000E+00 0. -1.
         11    1    1    2    0    0 -0.50402350328E+02 -0.16061144216E+02 -0.34768336283E+02  0.63302405010E+02  0.00000000000E+00 0.  1.
</event>
<event>
 7    1  0.2733606E-009  0.1470278E+03  0.7561462E-02  0.1204174E+00
          2   -1    0    0  501    0  0.00000000000E+00  0.00000000000E+00  0.35855582738E+03  0.35855582738E+03  0.00000000000E+00 0. -1.
         -2   -1    0    0    0  501 -0.00000000000E+00 -0.00000000000E+00 -0.89452704523E+02  0.89452704523E+02  0.00000000000E+00 0.  1.
         25    2    1    2    0    0  0.45271519946E+02  0.94711051171E+02  0.21920030892E+02  0.16476519471E+03  0.12508951955E+03 0.  0.
          5    1    3    3  502    0  0.14951968462E+02  0.12156344120E+03  0.15003131477E+02  0.12346577644E+03  0.41800000000E+01 0. -1.
         -5    1    3    3    0  502  0.30319551484E+02 -0.26852390029E+02  0.69168994152E+01  0.41299418276E+02  0.41800000000E+01 0. -1.
        -11    1    1    2    0    0 -0.46774470682E+02 -0.12300962788E+02  0.13943245114E+03  0.14758242858E+03  0.00000000000E+00 0. -1.
         11    1    1    2    0    0  0.15029507359E+01 -0.82410088383E+02  0.10775064083E+03  0.13566090862E+03  0.00000000000E+00 0.  1.
</event>
<event>
 7    1  0.2733606E-009  0.1195408E+03  0.7561462E-02  0.1243856E+00
         -2   -1    0    0    0  501 -0.00000000000E+00  0.00000000000E+00  0.24556283495E+02  0.24556283495E+02  0.00000000000E+00 0. -1.
          2   -1    0    0  501    0  0.00000000000E+00 -0.00000000000E+00 -0.72481284444E+03  0.72481284444E+03  0.00000000000E+00 0.  1.
         25    2    1    2    0    0 -0.41644186282E+02 -0.57402075168E+02 -0.45484388144E+03  0.47703217937E+03  0.12508999633E+03 0.  0.
          5    1    3    3  502    0 -0.63864869402E+02 -0.75280816470E+02 -0.22970530147E+03  0.25005583535E+03  0.41800000000E+01 0. -1.
         -5    1    3    3    0  502  0.22220683121E+02  0.17878741302E+02 -0.22513857998E+03  0.22697634402E+03  0.41800000000E+01 0. -1.
        -11    1    1    2    0    0  0.53813002313E+02  0.10786546272E+01 -0.74043740479E+02  0.91539489937E+02  0.00000000000E+00 0.  1.
         11    1    1    2    0    0 -0.12168816031E+02  0.56323420541E+02 -0.17136893903E+03  0.18079745863E+03  0.00000000000E+00 0. -1.
</event>
<event>
 7    1  0.2733606E-009  0.9491164E+02  0.7561462E-02  0.1291375E+00
          2   -1    0    0  501    0  0.00000000000E+00  0.00000000000E+00  0.29768730994E+03  0.29768730994E+03  0.00000000000E+00 0. -1.
         -2   -1    0    0    0  501 -0.00000000000E+00 -0.00000000000E+00 -0.44529780798E+02  0.44529780798E+02  0.00000000000E+00 0.  1.
         25    2    1    2    0    0  0.16052454408E+02  0.31719911986E+02  0.16193210143E+03  0.20768643893E+03  0.12509123604E+03 0.  0.
          5    1    3    3  502    0 -0.49746867772E+02  0.33185682772E+02  0.51349796735E+02  0.78932340767E+02  0.41800000000E+01 0.  1.
         -5    1    3    3    0  502  0.65799322180E+02 -0.14657707859E+01  0.11058230469E+03  0.12875409817E+03  0.41800000000E+01 0.  1.
        -11    1    1    2    0    0 -0.27522401910E+02 -0.40858613717E+02  0.78620076041E+01  0.49887073329E+02  0.00000000000E+00 0.  1.
         11    1    1    2    0    0  0.11469947502E+02  0.91387017312E+01  0.83363420104E+02  0.84643578472E+02  0.00000000000E+00 0. -1.
</event>
<event>
 7    1  0.2733606E-009  0.1175534E+03  0.7561462E-02  0.1247189E+00
         -1   -1    0    0    0  501 -0.00000000000E+00  0.00000000000E+00  0.13148130750E+03  0.13148130750E+03  0.00000000000E+00 0. -1.
          1   -1    0    0  501    0  0.00000000000E+00 -0.00000000000E+00 -0.16928228561E+03  0.16928228561E+03  0.00000000000E+00 0.  1.
         25    2    1    2    0    0  0.19548281485E+01 -0.99887388952E+02 -0.46516588528E+01  0.16015856878E+03  0.12509123630E+03 0.  0.
          5    1    3    3  502    0 -0.36664072730E+02 -0.77267752317E+02  0.42001576995E+02  0.95373815312E+02  0.41800000000E+01 0.  1.
         -5    1    3    3    0  502  0.38618900878E+02 -0.22619636636E+02 -0.46653235848E+02  0.64784753466E+02  0.41800000000E+01 0.  1.
        -11    1    1    2    0    0 -0.14178414250E+02  0.79528546429E+02 -0.63012055884E+02  0.10245162914E+03  0.00000000000E+00 0.  1.
         11    1    1    2    0    0  0.12223586101E+02  0.20358842523E+02  0.29862736625E+02  0.38153395193E+02  0.00000000000E+00 0. -1.
</event>
<event>
 7    1  0.2733606E-009  0.2191309E+03  0.7561462E-02  0.1134533E+00
          1   -1    0    0  501    0  0.00000000000E+00  0.00000000000E+00  0.15464365879E+03  0.15464365879E+03  0.00000000000E+00 0. -1.
         -1   -1    0    0    0  501 -0.00000000000E+00 -0.00000000000E+00 -0.39192476632E+03  0.39192476632E+03  0.00000000000E+00 0.  1.
         25    2    1    2    0    0 -0.81236368737E+02  0.17473283753E+03 -0.93399078422E+00  0.22973233023E+03  0.12508061039E+03 0.  0.
          5    1    3    3  502    0 -0.96793935453E+02  0.61786165406E+02 -0.96295023389E+01  0.11531173354E+03  0.41800000000E+01 0.  1.
         -5    1    3    3    0  502  0.15557566716E+02  0.11294667212E+03  0.86955115546E+01  0.11442059669E+03  0.41800000000E+01 0.  1.
        -11    1    1    2    0    0  0.21502137033E+02 -0.13685070874E+03 -0.17509018295E+03  0.22326448563E+03  0.00000000000E+00 0.  1.
         11    1    1    2    0    0  0.59734231704E+02 -0.37882128783E+02 -0.61256933800E+02  0.93571609246E+02  0.00000000000E+00 0. -1.
</event>
<event>
 7    1  0.2733606E-009  0.2220900E+03  0.7561462E-02  0.1132334E+00
         -4   -1    0    0    0  501 -0.00000000000E+00  0.00000000000E+00  0.12613885537E+03  0.12613885537E+03  0.00000000000E+00 0. -1.
          4   -1    0    0  501    0  0.00000000000E+00 -0.00000000000E+00 -0.43026961635E+03  0.43026961635E+03  0.00000000000E+00 0.  1.
         25    2    1    2    0    0  0.48971021323E+02 -0.19290844338E+03 -0.93800335102E+02  0.25309568042E+03  0.12508833730E+03 0.  0.
          5    1    3    3  502    0  0.54378630674E+02 -0.20677965836E+03 -0.10044383038E+03  0.23626531283E+03  0.41800000000E+01 0.  1.
         -5    1    3    3    0  502 -0.54076093512E+01  0.13871214979E+02  0.66434952772E+01  0.16830367595E+02  0.41800000000E+01 0.  1.
        -11    1    1    2    0    0 -0.71656839507E+02  0.13916535519E+03 -0.12688196203E+03  0.20149623078E+03  0.00000000000E+00 0. -1.
         11    1    1    2    0    0  0.22685818185E+02  0.53743088192E+02 -0.83448463857E+02  0.10181656052E+03  0.00000000000E+00 0.  1.
</event>
<event>
 7    1  0.2733606E-009  0.8860379E+02  0.7561462E-02  0.1306268E+00
          1   -1    0    0  501    0  0.00000000000E+00  0.00000000000E+00  0.12001191487E+04  0.12001191487E+04  0.00000000000E+00 0. -1.
         -1   -1    0    0    0  501 -0.00000000000E+00 -0.00000000000E+00 -0.12830174288E+02  0.12830174288E+02  0.00000000000E+00 0.  1.
         25    2    1    2    0    0  0.32803571051E+02  0.38108061386E+02  0.83020555791E+03  0.84108189185E+03  0.12509668978E+03 0.  0.
          5    1    3    3  502    0  0.53358067949E+02  0.29769829445E+02  0.80468244242E+03  0.80700968501E+03  0.41800000000E+01 0. -1.
         -5    1    3    3    0  502 -0.20554496898E+02  0.83382319412E+01  0.25523115495E+02  0.34072206843E+02  0.41800000000E+01 0. -1.
        -11    1    1    2    0    0  0.26128158159E+02 -0.87646733176E+01  0.43853872395E+02  0.51794423167E+02  0.00000000000E+00 0.  1.
         11    1    1    2    0    0 -0.58931729210E+02 -0.29343388069E+02  0.31322954412E+03  0.32007300798E+03  0.00000000000E+00 0. -1.
</event>
<event>
 7    1  0.2733606E-009  0.1044438E+03  0.7561462E-02  0.1271219E+00
         -3   -1    0    0    0  501 -0.00000000000E+00  0.00000000000E+00  0.64627962829E+02  0.64627962829E+02  0.00000000000E+00 0.  1.
          3   -1    0    0  501    0  0.00000000000E+00 -0.00000000000E+00 -0.26986028866E+03  0.26986028866E+03  0.00000000000E+00 0. -1.
         25    2    1    2    0    0  0.65519747039E+02  0.23361814333E+02 -0.78386813728E+02  0.16319006840E+03  0.12509154342E+03 0.  0.
          5    1    3    3  502    0 -0.44335182662E+01  0.26464509509E+02  0.25886382720E+02  0.37518043100E+02  0.41800000000E+01 0. -1.
         -5    1    3    3    0  502  0.69953265305E+02 -0.31026951760E+01 -0.10427319645E+03  0.12567202530E+03  0.41800000000E+01 0. -1.
        -11    1    1    2    0    0 -0.18047113172E+02 -0.52749526498E+02 -0.84452343813E+02  0.10119490706E+03  0.00000000000E+00 0. -1.
         11    1    1    2    0    0 -0.47472633867E+02  0.29387712165E+02 -0.42393168285E+02  0.70103276028E+02  0.00000000000E+00 0.  1.
</event>
<event>
 7    1  0.2733606E-009  0.1249752E+03  0.7561462E-02  0.1235108E+00
          1   -1    0    0  501    0  0.00000000000E+00  0.00000000000E+00  0.81872163901E+03  0.81872163901E+03  0.00000000000E+00 0. -1.
         -1   -1    0    0    0  501 -0.00000000000E+00 -0.00000000000E+00 -0.25943782565E+02  0.25943782565E+02  0.00000000000E+00 0.  1.
         25    2    1    2    0    0  0.46527152935E+00 -0.96729625401E+02  0.40021062760E+03  0.43031736530E+03  0.12509057328E+03 0.  0.
          5    1    3    3  502    0 -0.48071574610E+02 -0.69527027717E+02  0.13525379146E+03  0.15954919108E+03  0.41800000000E+01 0.  1.
         -5    1    3    3    0  502  0.48536846140E+02 -0.27202597684E+02  0.26495683614E+03  0.27076817422E+03  0.41800000000E+01 0.  1.
        -11    1    1    2    0    0  0.23723983606E+02  0.28213909146E+02  0.40098116780E+02  0.54467522771E+02  0.00000000000E+00 0.  1.
         11    1    1    2    0    0 -0.24189255136E+02  0.68515716256E+02  0.35246911206E+03  0.35988053351E+03  0.00000000000E+00 0. -1.
</event>
<event>
 7    1  0.2733606E-009  0.1177918E+03  0.7561462E-02  0.1246785E+00
          4   -1    0    0  501    0  0.00000000000E+00  0.00000000000E+00  0.70720268456E+02  0.70720268456E+02  0.00000000000E+00 0. -1.
         -4   -1    0    0    0  501 -0.00000000000E+00 -0.00000000000E+00 -0.21315037221E+03  0.21315037221E+03  0.00000000000E+00 0.  1.
         25    2    1    2    0    0  0.40705993346E+02  0.26203362879E+02 -0.11908380579E+03  0.17936526663E+03  0.12508937585E+03 0.  0.
          5    1    3    3  502    0  0.77435947044E+02  0.47868188153E+02 -0.76996783794E+02  0.11930493052E+03  0.41800000000E+01 0.  1.
         -5    1    3    3    0  502 -0.36729953698E+02 -0.21664825274E+02 -0.42087022001E+02  0.60060336110E+02  0.41800000000E+01 0.  1.
        -11    1    1    2    0    0  0.28471983882E+02 -0.12431876984E+02 -0.37154025957E+01  0.31289129869E+02  0.00000000000E+00 0.  1.
         11    1    1    2    0    0 -0.69177977228E+02 -0.13771485895E+02 -0.19630895361E+02  0.73216244166E+02  0.00000000000E+00 0. -1.
</event>
<event>
 7    1  0.2733606E-009  0.2273381E+03  0.7561462E-02  0.1128527E+00
          1   -1    0    0  501    0  0.00000000000E+00  0.00000000000E+00  0.32401176596E+03  0.32401176596E+03  0.00000000000E+00 0. -1.
         -1   -1    0    0    0  501 -0.00000000000E+00 -0.00000000000E+00 -0.20759889761E+03  0.20759889761E+03  0.00000000000E+00 0.  1.
         25    2    1    2    0    0 -0.40528444238E+02  0.19855698598E+03  0.18110849191E+03  0.29918827018E+03  0.12508358684E+03 0.  0.
          5    1    3    3  502    0 -0.34572852023E+02  0.21281107155E+03  0.14546836341E+03  0.26011987895E+03  0.41800000000E+01 0.  1.
         -5    1    3    3    0  502 -0.59555922150E+01 -0.14254085565E+02  0.35640128502E+02  0.39068391233E+02  0.41800000000E+01 0.  1.
        -11    1    1    2    0    0  0.70990007289E+02 -0.14391904124E+03 -0.51008397432E+02  0.16838684086E+03  0.00000000000E+00 0.  1.
         11    1    1    2    0    0 -0.30461563051E+02 -0.54637944748E+02 -0.13687226131E+02  0.64035552539E+02  0.00000000000E+00 0. -1.
</event>
<event>
 7    1  0.2733606E-009  0.9932843E+02  0.7561462E-02  0.1281715E+00
          2   -1    0    0  501    0  0.00000000000E+00  0.00000000000E+00  0.84595206565E+03  0.84595206565E+03  0.00000000000E+00 0. -1.
         -2   -1    0    0    0  501 -0.00000000000E+00 -0.00000000000E+00 -0.17951016139E+02  0.17951016139E+02  0.00000000000E+00 0.  1.
         25    2    1    2    0    0 -0.18410878233E+02  0.45147520457E+02  0.55483227580E+03  0.57084559097E+03  0.12509426614E+03 0.  0.
          5    1    3    3  502    0 -0.25185116823E+02 -0.18471479025E+02  0.35083858781E+02  0.47157557122E+02  0.41800000000E+01 0. -1.
         -5    1    3    3    0  502  0.67742385892E+01  0.63618999483E+02  0.51974841701E+03  0.52368803385E+03  0.41800000000E+01 0. -1.
        -11    1    1    2    0    0 -0.40885555288E+01  0.27076339438E+02  0.45013580320E+02  0.52688393949E+02  0.00000000000E+00 0.  1.
         11    1    1    2    0    0  0.22499433762E+02 -0.72223859896E+02  0.22815519340E+03  0.24036909688E+03  0.00000000000E+00 0. -1.
</event>
<event>
 7    1  0.2733606E-009  0.1900995E+03  0.7561462E-02  0.1158372E+00
         -1   -1    0    0    0  501 -0.00000000000E+00  0.00000000000E+00  0.69292259237E+03  0.69292259237E+03  0.00000000000E+00 0.  1.
          1   -1    0    0  501    0  0.00000000000E+00 -0.00000000000E+00 -0.55864148702E+02  0.55864148702E+02  0.00000000000E+00 0. -1.
         25    2    1    2    0    0  0.12635839361E+03 -0.10523908054E+03  0.33111960074E+03  0.39029356944E+03  0.12508865912E+03 0.  0.
          5    1    3    3  502    0  0.69995897187E+02  0.14074476284E+02  0.14985192636E+03  0.16604393617E+03  0.41800000000E+01 0. -1.
         -5    1    3    3    0  502  0.56362496427E+02 -0.11931355682E+03  0.18126767439E+03  0.22424963327E+03  0.41800000000E+01 0. -1.
        -11    1    1    2    0    0 -0.93352074445E+02  0.10891489103E+03  0.28546283925E+03  0.31947784881E+03  0.00000000000E+00 0.  1.
         11    1    1    2    0    0 -0.33006319169E+02 -0.36758104941E+01  0.20476003679E+02  0.39015322817E+02  0.00000000000E+00 0. -1.
</event>
<event>
 7    1  0.2733606E-009  0.9216506E+02  0.7561462E-02  0.1297692E+00
         -1   -1    0    0    0  501 -0.00000000000E+00  0.00000000000E+00  0.22833504171E+02  0.22833504171E+02  0.00000000000E+00 0. -1.
          1   -1    0    0  501    0  0.00000000000E+00 -0.00000000000E+00 -0.75966606154E+03  0.75966606154E+03  0.00000000000E+00 0.  1.
         25    2    1    2    0    0  0.30582860499E+02  0.92410461431E+01 -0.61517171383E+03  0.62857385884E+03  0.12509256665E+03 0.  0.
          5    1    3    3  502    0 -0.25689097630E+02  0.31512617983E+02 -0.46233756289E+03  0.46414057061E+03  0.41800000000E+01 0.  1.
         -5    1    3    3    0  502  0.56271958128E+02 -0.22271571840E+02 -0.15283415094E+03  0.16443328823E+03  0.41800000000E+01 0.  1.
        -11    1    1    2    0    0 -0.22596081463E+01 -0.40529141567E+02 -0.23089491629E+02  0.46699483603E+02  0.00000000000E+00 0. -1.
         11    1    1    2    0    0 -0.28323252353E+02  0.31288095424E+02 -0.98571351912E+02  0.10722622327E+03  0.00000000000E+00 0.  1.
</event>
<event>
 7    1  0.2733606E-009  0.1111510E+03  0.7561462E-02  0.1258453E+00
         -2   -1    0    0    0  501 -0.00000000000E+00  0.00000000000E+00  0.62792619491E+02  0.62792619491E+02  0.00000000000E+00 0. -1.
          2   -1    0    0  501    0  0.00000000000E+00 -0.00000000000E+00 -0.39903210734E+03  0.39903210734E+03  0.00000000000E+00 0.  1.
         25    2    1    2    0    0 -0.43093813655E+02 -0.37054437950E+02 -0.28866301392E+03  0.31969667256E+03  0.12509803633E+03 0.  0.
          5    1    3    3  502    0 -0.85213995624E+02 -0.13093371936E+02 -0.21209747020E+03  0.22898836369E+03  0.41800000000E+01 0.  1.
         -5    1    3    3    0  502  0.42120181969E+02 -0.23961066014E+02 -0.76565543724E+02  0.90708308877E+02  0.41800000000E+01 0.  1.
        -11    1    1    2    0    0  0.26998646531E+01  0.45914485373E+02  0.29511927522E+02  0.54647809675E+02  0.00000000000E+00 0. -1.
         11    1    1    2    0    0  0.40393949001E+02 -0.88600474228E+01 -0.77088401451E+02  0.87480244596E+02  0.00000000000E+00 0.  1.
</event>
<event>
 7    1  0.2733606E-009  0.1514672E+03  0.7561462E-02  0.1198682E+00
          2   -1    0    0  501    0  0.00000000000E+00  0.00000000000E+00  0.68851484129E+03  0.68851484129E+03  0.00000000000E+00 0.  1.
         -2   -1    0    0    0  501 -0.00000000000E+00 -0.00000000000E+00 -0.61517914521E+02  0.61517914521E+02  0.00000000000E+00 0. -1.
         25    2    1    2    0    0 -0.68682691183E+01  0.11973272427E+03  0.55904962028E+03  0.58529146631E+03  0.12508606724E+03 0.  0.
          5    1    3    3  502    0  0.50749047708E+02  0.16941008308E+02  0.21503640462E+03  0.22163165685E+03  0.41800000000E+01 0.  1.
         -5    1    3    3    0  502 -0.57617316826E+02  0.10279171596E+03  0.34401321567E+03  0.36365980947E+03  0.41800000000E+01 0.  1.
        -11    1    1    2    0    0 -0.22304052335E+02 -0.72386329528E+02  0.77440335532E+02  0.10832477565E+03  0.00000000000E+00 0.  1.
         11    1    1    2    0    0  0.29172321453E+02 -0.47346394740E+02 -0.94930290478E+01  0.56416513844E+02  0.00000000000E+00 0. -1.
</event>
<event>
 7    1  0.3041027E-009  0.1506299E+03  0.7561462E-02  0.1199701E+00
          2   -1    0    0  501    0  0.00000000000E+00  0.00000000000E+00  0.88216673592E+03  0.88216673592E+03  0.00000000000E+00 0. -1.
         -2   -1    0    0    0  501 -0.00000000000E+00 -0.00000000000E+00 -0.27568153076E+02  0.27568153076E+02  0.00000000000E+00 0.  1.
         25    2    1    2    0    0  0.88620634201E+02 -0.61576335519E+02  0.37316270666E+03  0.40809725575E+03  0.12509077744E+03 0.  0.
          5    1    3    3  502    0 -0.95625583630E+01 -0.65266861742E+02  0.16961296099E+03  0.18203635544E+03  0.41800000000E+01 0. -1.
         -5    1    3    3    0  502  0.98183192564E+02  0.36905262232E+01  0.20354974567E+03  0.22606090031E+03  0.41800000000E+01 0. -1.
        -11    1    1    2    0    0 -0.30477756019E+02  0.71604586779E+02  0.33146908051E+03  0.34048180832E+03  0.00000000000E+00 0.  1.
         11    1    1    2    0    0 -0.58142878182E+02 -0.10028251260E+02  0.14996679566E+03  0.16115582493E+03  0.00000000000E+00 0. -1.
</event>
<event>
 7    1  0.2733606E-009  0.5419513E+02  0.7561462E-02  0.1423944E+00
         -4   -1    0    0    0  501 -0.00000000000E+00  0.00000000000E+00  0.35277976082E+02  0.35277976082E+02  0.00000000000E+00 0. -1.
          4   -1    0    0  501    0  0.00000000000E+00 -0.00000000000E+00 -0.41031119203E+03  0.41031119203E+03  0.00000000000E+00 0.  1.
         25    2    1    2    0    0 -0.15722841393E+01  0.33640708083E+02 -0.28766008137E+03  0.31548574778E+03  0.12509502515E+03 0.  0.
          5    1    3    3  502    0  0.18245743928E+02  0.20890098509E+02 -0.29007762758E+03  0.29143061920E+03  0.41800000000E+01 0.  1.
         -5    1    3    3    0  502 -0.19818028067E+02  0.12750609573E+02  0.24175462088E+01  0.24055128572E+02  0.41800000000E+01 0.  1.
        -11    1    1    2    0    0 -0.13835968724E+02  0.50756839984E+01  0.14107035479E+02  0.20401104103E+02  0.00000000000E+00 0. -1.
         11    1    1    2    0    0  0.15408252864E+02 -0.38716392081E+02 -0.10148017005E+03  0.10970231623E+03  0.00000000000E+00 0.  1.
</event>
<event>
 7    1  0.2733606E-009  0.9500919E+02  0.7561462E-02  0.1291155E+00
         -1   -1    0    0    0  501 -0.00000000000E+00  0.00000000000E+00  0.40429769953E+02  0.40429769953E+02  0.00000000000E+00 0.  1.
          1   -1    0    0  501    0  0.00000000000E+00 -0.00000000000E+00 -0.62669535327E+03  0.62669535327E+03  0.00000000000E+00 0. -1.
         25    2    1    2    0    0  0.60955650483E+02  0.31299334238E+02 -0.11758506307E+03  0.18484891756E+03  0.12509050970E+03 0.  0.
          5    1    3    3  502    0  0.63903277863E+02  0.25985783085E+02 -0.21150286813E+01  0.69143586763E+02  0.41800000000E+01 0. -1.
         -5    1    3    3    0  502 -0.29476273794E+01  0.53135511533E+01 -0.11547003439E+03  0.11570533079E+03  0.41800000000E+01 0. -1.
        -11    1    1    2    0    0 -0.80874292620E+02 -0.41775115151E+02 -0.36471617346E+03  0.37590384227E+03  0.00000000000E+00 0.  1.
         11    1    1    2    0    0  0.19918642137E+02  0.10475780913E+02 -0.10396434679E+03  0.10637236339E+03  0.00000000000E+00 0. -1.
</event>
<event>
 7    1  0.2733606E-009  0.1226234E+03  0.7561462E-02  0.1238831E+00
          2   -1    0    0  501    0  0.00000000000E+00  0.00000000000E+00  0.17783364235E+04  0.17783364235E+04  0.00000000000E+00 0. -1.
         -2   -1    0    0    0  501 -0.00000000000E+00 -0.00000000000E+00 -0.14060143173E+02  0.14060143173E+02  0.00000000000E+00 0.  1.
         25    2    1    2    0    0  0.42589851760E+02  0.97464827514E+02  0.11735615794E+04  0.11849928289E+04  0.12509170949E+03 0.  0.
          5    1    3    3  502    0 -0.36879809330E+01  0.64118409141E+01  0.16794240570E+01  0.86605873030E+01  0.41800000000E+01 0.  1.
         -5    1    3    3    0  502  0.46277832693E+02  0.91052986600E+02  0.11718821553E+04  0.11763322416E+04  0.41800000000E+01 0.  1.
        -11    1    1    2    0    0 -0.58044603390E+02 -0.30047979311E+02  0.38133283594E+03  0.38689376942E+03  0.00000000000E+00 0.  1.
         11    1    1    2    0    0  0.15454751629E+02 -0.67416848202E+02  0.20938186499E+03  0.22050996838E+03  0.00000000000E+00 0. -1.
</event>
<event>
 7    1  0.2733606E-009  0.9454322E+02  0.7561462E-02  0.1292208E+00
          2   -1    0    0  501    0  0.00000000000E+00  0.00000000000E+00  0.56748834131E+03  0.56748834131E+03  0.00000000000E+00 0. -1.
         -2   -1    0    0    0  501 -0.00000000000E+00 -0.00000000000E+00 -0.27009671367E+02  0.27009671367E+02  0.00000000000E+00 0.  1.
         25    2    1    2    0    0  0.28710433698E+02  0.41448199962E+00  0.42632209276E+03  0.44522129348E+03  0.12508801938E+03 0.  0.
          5    1    3    3  502    0  0.53804144668E+02 -0.32241572418E+02  0.37011464428E+03  0.37541540629E+03  0.41800000000E+01 0. -1.
         -5    1    3    3    0  502 -0.25093710970E+02  0.32656054418E+02  0.56207448487E+02  0.69805887186E+02  0.41800000000E+01 0. -1.
        -11    1    1    2    0    0  0.24293758107E+01  0.36472577062E+02  0.16020045274E+02  0.39909805750E+02  0.00000000000E+00 0.  1.
         11    1    1    2    0    0 -0.31139809509E+02 -0.36887059062E+02  0.98136531909E+02  0.10936691345E+03  0.00000000000E+00 0. -1.
</event>
<event>
 7    1  0.2733606E-009  0.8584522E+02  0.7561462E-02  0.1313237E+00
         -2   -1    0    0    0  501 -0.00000000000E+00  0.00000000000E+00  0.23092892972E+02  0.23092892972E+02  0.00000000000E+00 0.  1.
          2   -1    0    0  501    0  0.00000000000E+00 -0.00000000000E+00 -0.79191666756E+03  0.79191666756E+03  0.00000000000E+00 0. -1.
         25    2    1    2    0    0  0.72605396878E+02 -0.22868759112E+02 -0.49480923648E+03  0.51602090273E+03  0.12508744044E+03 0.  0.
          5    1    3    3  502    0  0.73466777479E+02 -0.34729030056E+02 -0.14727650619E+03  0.16825966420E+03  0.41800000000E+01 0.  1.
         -5    1    3    3    0  502 -0.86138060068E+00  0.11860270944E+02 -0.34753273029E+03  0.34776123854E+03  0.41800000000E+01 0.  1.
        -11    1    1    2    0    0 -0.61560902757E+02  0.25043471017E+02 -0.27890619790E+03  0.28671516775E+03  0.00000000000E+00 0. -1.
         11    1    1    2    0    0 -0.11044494122E+02 -0.21747119049E+01  0.48916597985E+01  0.12273490044E+02  0.00000000000E+00 0.  1.
</event>
<event>
 7    1  0.2733606E-009  0.1060652E+03  0.7561462E-02  0.1268035E+00
         -2   -1    0    0    0  501 -0.00000000000E+00  0.00000000000E+00  0.30438339933E+02  0.30438339933E+02  0.00000000000E+00 0.  1.
          2   -1    0    0  501    0  0.00000000000E+00 -0.00000000000E+00 -0.68250773677E+03  0.68250773677E+03  0.00000000000E+00 0. -1.
         25    2    1    2    0    0 -0.47716992895E+02 -0.29789359165E+02 -0.54486149632E+03  0.56185647992E+03  0.12507732221E+03 0.  0.
          5    1    3    3  502    0 -0.88114684700E+02 -0.29913109727E+01 -0.36628971073E+03  0.37677416337E+03  0.41800000000E+01 0.  1.
         -5    1    3    3    0  502  0.40397691805E+02 -0.26798048193E+02 -0.17857178559E+03  0.18508231655E+03  0.41800000000E+01 0.  1.
        -11    1    1    2    0    0  0.15029358715E+02 -0.14016275265E+02 -0.92125083978E+02  0.94389452237E+02  0.00000000000E+00 0. -1.
         11    1    1    2    0    0  0.32687634181E+02  0.43805634430E+02 -0.15082816539E+02  0.56700144541E+02  0.00000000000E+00 0.  1.
</event>
<event>
 7    1  0.2733606E-009  0.1480774E+03  0.7561462E-02  0.1202856E+00
          1   -1    0    0  501    0  0.00000000000E+00  0.00000000000E+00  0.19421813908E+03  0.19421813908E+03  0.00000000000E+00 0. -1.
         -1   -1    0    0    0  501 -0.00000000000E+00 -0.00000000000E+00 -0.14774155744E+03  0.14774155744E+03  0.00000000000E+00 0.  1.
         25    2    1    2    0    0 -0.16960895430E+02  0.11388873324E+03  0.84319255781E+02  0.18978552727E+03  0.12510193418E+03 0.  0.
          5    1    3    3  502    0 -0.26971530744E+00 -0.20387222414E+02  0.43774243238E+02  0.48470283218E+02  0.41800000000E+01 0.  1.
         -5    1    3    3    0  502 -0.16691180123E+02  0.13427595565E+03  0.40545012543E+02  0.14131524406E+03  0.41800000000E+01 0.  1.
        -11    1    1    2    0    0 -0.31490777314E+02 -0.58027037430E+02 -0.41767009645E+02  0.78123551016E+02  0.00000000000E+00 0. -1.
         11    1    1    2    0    0  0.48451672744E+02 -0.55861695810E+02  0.39243355092E+01  0.74050618226E+02  0.00000000000E+00 0.  1.
</event>
<event>
 7    1  0.2733606E-009  0.8008465E+02  0.7561462E-02  0.1328811E+00
          2   -1    0    0  501    0  0.00000000000E+00  0.00000000000E+00  0.94816779742E+02  0.94816779742E+02  0.00000000000E+00 0. -1.
         -2   -1    0    0    0  501 -0.00000000000E+00 -0.00000000000E+00 -0.16781333103E+03  0.16781333103E+03  0.00000000000E+00 0.  1.
         25    2    1    2    0    0 -0.44655121706E+02 -0.24687277606E+00 -0.85843161770E+02  0.15814319192E+03  0.12508429112E+03 0.  0.
          5    1    3    3  502    0 -0.56318140802E+02 -0.10336343667E+02  0.12294895504E+02  0.58712944392E+02  0.41800000000E+01 0. -1.
         -5    1    3    3    0  502  0.11663019096E+02  0.10089470891E+02 -0.98138057274E+02  0.99430247525E+02  0.41800000000E+01 0. -1.
        -11    1    1    2    0    0  0.22840704331E+02  0.37326072218E+02 -0.22134547942E+02  0.49039490762E+02  0.00000000000E+00 0.  1.
         11    1    1    2    0    0  0.21814417375E+02 -0.37079199442E+02  0.34981158428E+02  0.55447428089E+02  0.00000000000E+00 0. -1.
</event>
<event>
 7    1  0.2733606E-009  0.1029915E+03  0.7561462E-02  0.1274128E+00
         -2   -1    0    0    0  501 -0.00000000000E+00  0.00000000000E+00  0.49992766251E+02  0.49992766251E+02  0.00000000000E+00 0. -1.
          2   -1    0    0  501    0  0.00000000000E+00 -0.00000000000E+00 -0.28020550104E+03  0.28020550104E+03  0.00000000000E+00 0.  1.
         25    2    1    2    0    0  0.62385279917E+01  0.20543943055E+02 -0.71705414382E+02  0.14577477422E+03  0.12509054928E+03 0.  0.
          5    1    3    3  502    0  0.44076757944E+02  0.58041241154E+02 -0.35068416701E+02  0.80986495884E+02  0.41800000000E+01 0.  1.
         -5    1    3    3    0  502 -0.37838229953E+02 -0.37497298099E+02 -0.36636997680E+02  0.64788278336E+02  0.41800000000E+01 0.  1.
        -11    1    1    2    0    0  0.58833356585E+01  0.28462879785E+02 -0.11225074082E+03  0.11595248155E+03  0.00000000000E+00 0.  1.
         11    1    1    2    0    0 -0.12121863650E+02 -0.49006822840E+02 -0.46256579591E+02  0.68471011521E+02  0.00000000000E+00 0. -1.
</event>
<event>
 7    1  0.2733606E-009  0.1189017E+03  0.7561462E-02  0.1244920E+00
          1   -1    0    0  501    0  0.00000000000E+00  0.00000000000E+00  0.21602924339E+03  0.21602924339E+03  0.00000000000E+00 0. -1.
         -1   -1    0    0    0  501 -0.00000000000E+00 -0.00000000000E+00 -0.74551024516E+02  0.74551024516E+02  0.00000000000E+00 0.  1.
         25    2    1    2    0    0 -0.33484526471E+02 -0.30893500502E+02  0.12834822028E+03  0.18492235485E+03  0.12508952710E+03 0.  0.
          5    1    3    3  502    0  0.84080141138E+01 -0.72983202761E+02  0.69736878838E+02  0.10138021137E+03  0.41800000000E+01 0.  1.
         -5    1    3    3    0  502 -0.41892540584E+02  0.42089702258E+02  0.58611341438E+02  0.83542143485E+02  0.41800000000E+01 0.  1.
        -11    1    1    2    0    0  0.31136949363E+01  0.61494534611E+02  0.10515556323E+02  0.62464788545E+02  0.00000000000E+00 0. -1.
         11    1    1    2    0    0  0.30370831534E+02 -0.30601034109E+02  0.26144422766E+01  0.43193124511E+02  0.00000000000E+00 0.  1.
</event>
<event>
 7    1  0.2733606E-009  0.1172366E+03  0.7561462E-02  0.1247727E+00
          3   -1    0    0  501    0  0.00000000000E+00  0.00000000000E+00  0.10200022779E+03  0.10200022779E+03  0.00000000000E+00 0.  1.
         -3   -1    0    0    0  501 -0.00000000000E+00 -0.00000000000E+00 -0.23025388670E+03  0.23025388670E+03  0.00000000000E+00 0. -1.
         25    2    1    2    0    0 -0.10031585610E+03  0.33877649559E+02 -0.66616422035E+02  0.17690731289E+03  0.12508990184E+03 0.  0.
          5    1    3    3  502    0 -0.65648901780E+02  0.39068665728E+02 -0.10161461306E+03  0.12719725207E+03  0.41800000000E+01 0. -1.
         -5    1    3    3    0  502 -0.34666954320E+02 -0.51910161689E+01  0.34998191029E+02  0.49710060812E+02  0.41800000000E+01 0. -1.
        -11    1    1    2    0    0  0.66917233613E+02  0.98507915947E+01  0.62893429311E+01  0.67930185367E+02  0.00000000000E+00 0.  1.
         11    1    1    2    0    0  0.33398622487E+02 -0.43728441153E+02 -0.67926579805E+02  0.87416616233E+02  0.00000000000E+00 0. -1.
</event>
<event>
 7    1  0.2733606E-009  0.1555638E+03  0.7561462E-02  0.1193798E+00
          1   -1    0    0  501    0  0.00000000000E+00  0.00000000000E+00  0.10084675454E+04  0.10084675454E+04  0.00000000000E+00 0. -1.
         -1   -1    0    0    0  501 -0.00000000000E+00 -0.00000000000E+00 -0.35153918477E+02  0.35153918477E+02  0.00000000000E+00 0.  1.
         25    2    1    2    0    0 -0.64932995435E+02 -0.11976708198E+03  0.70508301202E+03  0.72893884700E+03  0.12509732612E+03 0.  0.
          5    1    3    3  502    0  0.29076843152E+02 -0.16270781542E+02  0.26603650814E+03  0.26814752880E+03  0.41800000000E+01 0.  1.
         -5    1    3    3    0  502 -0.94009838587E+02 -0.10349630044E+03  0.43904650388E+03  0.46079131820E+03  0.41800000000E+01 0.  1.
        -11    1    1    2    0    0  0.52170008058E+02  0.76807611976E+02  0.24930681448E+03  0.26603572456E+03  0.00000000000E+00 0. -1.
         11    1    1    2    0    0  0.12762987377E+02  0.42959470006E+02  0.18923800433E+02  0.48646892324E+02  0.00000000000E+00 0.  1.
</event>
<event>
 7    1  0.2733606E-009  0.1856330E+03  0.7561462E-02  0.1162460E+00
         -2   -1    0    0    0  501 -0.00000000000E+00  0.00000000000E+00  0.70118362381E+02  0.70118362381E+02  0.00000000000E+00 0.  1.
          2   -1    0    0  501    0  0.00000000000E+00 -0.00000000000E+00 -0.68465666074E+03  0.68465666074E+03  0.00000000000E+00 0. -1.
         25    2    1    2    0    0  0.17136604870E+03  0.26765006043E+02 -0.41044852195E+03  0.46281552328E+03  0.12509009244E+03 0.  0.
          5    1    3    3  502    0  0.56056154481E+01  0.16890817521E+02  0.17912385099E+01  0.18368548567E+02  0.41800000000E+01 0. -1.
         -5    1    3    3    0  502  0.16576043325E+03  0.98741885227E+01 -0.41223976046E+03  0.44444697471E+03  0.41800000000E+01 0. -1.
        -11    1    1    2    0    0 -0.98521608244E+02  0.19705866890E+02 -0.43263325226E+02  0.10939169891E+03  0.00000000000E+00 0.  1.
         11    1    1    2    0    0 -0.72844440452E+02 -0.46470872934E+02 -0.16082645118E+03  0.18256780093E+03  0.00000000000E+00 0. -1.
</event>
<event>
 7    1  0.2733606E-009  0.2547501E+03  0.7561462E-02  0.1110339E+00
         -2   -1    0    0    0  501 -0.00000000000E+00  0.00000000000E+00  0.60110832786E+02  0.60110832786E+02  0.00000000000E+00 0.  1.
          2   -1    0    0  501    0  0.00000000000E+00 -0.00000000000E+00 -0.11824221958E+04  0.11824221958E+04  0.00000000000E+00 0. -1.
         25    2    1    2    0    0 -0.58392922524E+02 -0.23139681484E+03 -0.68254058705E+03  0.73380118908E+03  0.12509321649E+03 0.  0.
          5    1    3    3  502    0 -0.26432278041E+02 -0.22673307193E+03 -0.64439309738E+03  0.68364207564E+03  0.41800000000E+01 0. -1.
         -5    1    3    3    0  502 -0.31960644483E+02 -0.46637429112E+01 -0.38147489663E+02  0.50159113442E+02  0.41800000000E+01 0. -1.
        -11    1    1    2    0    0  0.38881007120E+02  0.38409096581E+02 -0.15345559857E+03  0.16289755108E+03  0.00000000000E+00 0.  1.
         11    1    1    2    0    0  0.19511915404E+02  0.19298771826E+03 -0.28631517740E+03  0.34583428843E+03  0.00000000000E+00 0. -1.
</event>
<event>
 7    1  0.2733606E-009  0.1175267E+03  0.7561462E-02  0.1247234E+00
         -1   -1    0    0    0  501 -0.00000000000E+00  0.00000000000E+00  0.23202109266E+02  0.23202109266E+02  0.00000000000E+00 0.  1.
          1   -1    0    0  501    0  0.00000000000E+00 -0.00000000000E+00 -0.64242477707E+03  0.64242477707E+03  0.00000000000E+00 0. -1.
         25    2    1    2    0    0  0.55729080213E+02  0.67574338475E+01 -0.34537414919E+03  0.37159220916E+03  0.12508426633E+03 0.  0.
          5    1    3    3  502    0  0.91613052164E+02 -0.86378453907E-01 -0.29695909184E+03  0.31079757627E+03  0.41800000000E+01 0. -1.
         -5    1    3    3    0  502 -0.35883971951E+02  0.68438123014E+01 -0.48415057347E+02  0.60794632886E+02  0.41800000000E+01 0. -1.
        -11    1    1    2    0    0  0.22800511926E+02  0.12102239513E+02 -0.54899895493E+02  0.60665691049E+02  0.00000000000E+00 0. -1.
         11    1    1    2    0    0 -0.78529592139E+02 -0.18859673360E+02 -0.21894862312E+03  0.23336898613E+03  0.00000000000E+00 0.  1.
</event>
<event>
 7    1  0.2733606E-009  0.1028685E+03  0.7561462E-02  0.1274377E+00
         -1   -1    0    0    0  501 -0.00000000000E+00  0.00000000000E+00  0.20031917453E+03  0.20031917453E+03  0.00000000000E+00 0.  1.
          1   -1    0    0  501    0  0.00000000000E+00 -0.00000000000E+00 -0.10542593675E+03  0.10542593675E+03  0.00000000000E+00 0. -1.
         25    2    1    2    0    0 -0.72291061338E+02  0.44437442651E+02  0.10230413700E+03  0.18251975922E+03  0.12508653884E+03 0.  0.
          5    1    3    3  502    0 -0.53510865169E+02  0.53559986213E+02 -0.22106032037E+01  0.75858051523E+02  0.41800000000E+01 0.  1.
         -5    1    3    3    0  502 -0.18780196169E+02 -0.91225435626E+01  0.10451474020E+03  0.10666170770E+03  0.41800000000E+01 0.  1.
        -11    1    1    2    0    0  0.47593010631E+02 -0.62110498691E+02  0.21653126733E+02  0.81189079351E+02  0.00000000000E+00 0.  1.
         11    1    1    2    0    0  0.24698050707E+02  0.17673056041E+02 -0.29064025957E+02  0.42036272711E+02  0.00000000000E+00 0. -1.
</event>
<event>
 7    1  0.2733606E-009  0.1184695E+03  0.7561462E-02  0.1245643E+00
          2   -1    0    0  501    0  0.00000000000E+00  0.00000000000E+00  0.47088558003E+03  0.47088558003E+03  0.00000000000E+00 0. -1.
         -2   -1    0    0    0  501 -0.00000000000E+00 -0.00000000000E+00 -0.32404437934E+02  0.32404437934E+02  0.00000000000E+00 0.  1.
         25    2    1    2    0    0 -0.62680224189E+02  0.77425774019E+01  0.23843948589E+03  0.27656928872E+03  0.12509366500E+03 0.  0.
          5    1    3    3  502    0 -0.47480613385E+01 -0.51380065514E+02  0.56433572564E+02  0.76581170865E+02  0.41800000000E+01 0. -1.
         -5    1    3    3    0  502 -0.57932162850E+02  0.59122642916E+02  0.18200591333E+03  0.19998811786E+03  0.41800000000E+01 0. -1.
        -11    1    1    2    0    0  0.80877683700E+02 -0.15771485085E+02  0.13004821484E+03  0.15395608999E+03  0.00000000000E+00 0.  1.
         11    1    1    2    0    0 -0.18197459511E+02  0.80289076835E+01  0.69993441358E+02  0.72764639245E+02  0.00000000000E+00 0. -1.
</event>
<event>
 7    1  0.2733606E-009  0.1452237E+03  0.7561462E-02  0.1206468E+00
          2   -1    0    0  501    0  0.00000000000E+00  0.00000000000E+00  0.63142185222E+03  0.63142185222E+03  0.00000000000E+00 0. -1.
         -2   -1    0    0    0  501 -0.00000000000E+00 -0.00000000000E+00 -0.42105987784E+02  0.42105987784E+02  0.00000000000E+00 0.  1.
         25    2    1    2    0    0  0.58902203285E+02 -0.10655354091E+03  0.28956294111E+03  0.33810786051E+03  0.12508837615E+03 0.  0.
          5    1    3    3  502    0  0.58964591740E+01 -0.80544381873E+02  0.59091918982E+02  0.10015734107E+03  0.41800000000E+01 0.  1.
         -5    1    3    3    0  502  0.53005744111E+02 -0.26009159037E+02  0.23047102212E+03  0.23795051944E+03  0.41800000000E+01 0.  1.
        -11    1    1    2    0    0 -0.53338603273E+02  0.10734410597E+02  0.11511929894E+03  0.12732905072E+03  0.00000000000E+00 0.  1.
         11    1    1    2    0    0 -0.55636000118E+01  0.95819130313E+02  0.18463362439E+03  0.20809092877E+03  0.00000000000E+00 0. -1.
</event>
<event>
 7    1  0.2733606E-009  0.1342362E+03  0.7561462E-02  0.1221302E+00
         -2   -1    0    0    0  501 -0.00000000000E+00  0.00000000000E+00  0.19503616784E+03  0.19503616784E+03  0.00000000000E+00 0. -1.
          2   -1    0    0  501    0  0.00000000000E+00 -0.00000000000E+00 -0.15543770031E+03  0.15543770031E+03  0.00000000000E+00 0.  1.
         25    2    1    2    0    0  0.11484443483E+03 -0.61486571750E+02 -0.16247110095E+02  0.18133599024E+03  0.12509568359E+03 0.  0.
          5    1    3    3  502    0 -0.25000609594E+01  0.13140165414E+01 -0.44856282527E+02  0.45139067629E+02  0.41800000000E+01 0. -1.
         -5    1    3    3    0  502  0.11734449579E+03 -0.62800588292E+02  0.28609172432E+02  0.13619692261E+03  0.41800000000E+01 0. -1.
        -11    1    1    2    0    0 -0.19550459248E+02  0.10250202497E+02  0.56800198411E+02  0.60938900938E+02  0.00000000000E+00 0. -1.
         11    1    1    2    0    0 -0.95293975578E+02  0.51236369254E+02 -0.95462078396E+00  0.10819897697E+03  0.00000000000E+00 0.  1.
</event>
<event>
 7    1  0.2733606E-009  0.1436099E+03  0.7561462E-02  0.1208552E+00
          2   -1    0    0  501    0  0.00000000000E+00  0.00000000000E+00  0.28920587868E+03  0.28920587868E+03  0.00000000000E+00 0. -1.
         -2   -1    0    0    0  501 -0.00000000000E+00 -0.00000000000E+00 -0.20967909219E+03  0.20967909219E+03  0.00000000000E+00 0.  1.
         25    2    1    2    0    0 -0.63376078702E+02 -0.10779554506E+03  0.22473238213E+03  0.28598453845E+03  0.12508439458E+03 0.  0.
          5    1    3    3  502    0 -0.30289013844E+02 -0.87228630948E+02  0.46449843957E+02  0.10344717889E+03  0.41800000000E+01 0. -1.
         -5    1    3    3    0  502 -0.33087064859E+02 -0.20566914108E+02  0.17828253817E+03  0.18253735956E+03  0.41800000000E+01 0. -1.
        -11    1    1    2    0    0  0.71679174551E+02  0.30554719882E+02 -0.69041409592E+02  0.10410672990E+03  0.00000000000E+00 0. -1.
         11    1    1    2    0    0 -0.83030958483E+01  0.77240825174E+02 -0.76164186047E+02  0.10879370253E+03  0.00000000000E+00 0.  1.
</event>
<event>
 7    1  0.2733606E-009  0.1000745E+03  0.7561462E-02  0.1280139E+00
          2   -1    0    0  501    0  0.00000000000E+00  0.00000000000E+00  0.35947400015E+02  0.35947400015E+02  0.00000000000E+00 0. -1.
         -2   -1    0    0    0  501 -0.00000000000E+00 -0.00000000000E+00 -0.40977416799E+03  0.40977416799E+03  0.00000000000E+00 0.  1.
         25    2    1    2    0    0 -0.38440301574E+02  0.26808509044E+02 -0.28844127144E+03  0.31787163714E+03  0.12509059789E+03 0.  0.
          5    1    3    3  502    0 -0.29960580661E+02 -0.37450713184E+02 -0.44944135145E+02  0.65860762184E+02  0.41800000000E+01 0. -1.
         -5    1    3    3    0  502 -0.84797209135E+01  0.64259222228E+02 -0.24349713630E+03  0.25201087495E+03  0.41800000000E+01 0. -1.
        -11    1    1    2    0    0 -0.12343059331E+02 -0.33623343155E+02 -0.10893486972E+02  0.37437259207E+02  0.00000000000E+00 0. -1.
         11    1    1    2    0    0  0.50783360905E+02  0.68148341103E+01 -0.74492009556E+02  0.90412671658E+02  0.00000000000E+00 0.  1.
</event>
<event>
 7    1  0.2733606E-009  0.1395600E+03  0.7561462E-02  0.1213922E+00
         -1   -1    0    0    0  501 -0.00000000000E+00  0.00000000000E+00  0.16137772156E+04  0.16137772156E+04  0.00000000000E+00 0.  1.
          1   -1    0    0  501    0  0.00000000000E+00 -0.00000000000E+00 -0.15068781713E+02  0.15068781713E+02  0.00000000000E+00 0. -1.
         25    2    1    2    0    0  0.99068264428E+02 -0.41473215551E+02  0.10234463432E+04  0.10366408100E+04  0.12508878008E+03 0.  0.
          5    1    3    3  502    0  0.22411191862E+02  0.29771804764E+02  0.92354034382E+02  0.99676285777E+02  0.41800000000E+01 0. -1.
         -5    1    3    3    0  502  0.76657072565E+02 -0.71245020315E+02  0.93109230886E+03  0.93696452426E+03  0.41800000000E+01 0. -1.
        -11    1    1    2    0    0 -0.65480639178E+02  0.67764292202E+02  0.32704942849E+03  0.34035428906E+03  0.00000000000E+00 0. -1.
         11    1    1    2    0    0 -0.33587625249E+02 -0.26291076650E+02  0.24821266214E+03  0.25185089821E+03  0.00000000000E+00 0.  1.
</event>
<event>
 7    1  0.2733606E-009  0.1516761E+03  0.7561462E-02  0.1198428E+00
          1   -1    0    0  501    0  0.00000000000E+00  0.00000000000E+00  0.50759000459E+02  0.50759000459E+02  0.00000000000E+00 0. -1.
         -1   -1    0    0    0  501 -0.00000000000E+00 -0.00000000000E+00 -0.59606867633E+03  0.59606867633E+03  0.00000000000E+00 0.  1.
         25    2    1    2    0    0 -0.68811249056E+02  0.11528061676E+03 -0.25230874428E+03  0.31198036014E+03  0.12508970411E+03 0.  0.
          5    1    3    3  502    0 -0.75838257080E+02  0.11071870720E+03 -0.26448889835E+03  0.29661746933E+03  0.41800000000E+01 0. -1.
         -5    1    3    3    0  502  0.70270080238E+01  0.45619095549E+01  0.12180154075E+02  0.15362890804E+02  0.41800000000E+01 0. -1.
        -11    1    1    2    0    0  0.89485187826E+02 -0.88126914978E+02 -0.20442484290E+03  0.23992388038E+03  0.00000000000E+00 0. -1.
         11    1    1    2    0    0 -0.20673938770E+02 -0.27153701781E+02 -0.88576088699E+02  0.94923436273E+02  0.00000000000E+00 0.  1.
</event>
<event>
 7    1  0.2733606E-009  0.1250578E+03  0.7561462E-02  0.1234979E+00
          1   -1    0    0  501    0  0.00000000000E+00  0.00000000000E+00  0.38333372550E+03  0.38333372550E+03  0.00000000000E+00 0. -1.
         -1   -1    0    0    0  501 -0.00000000000E+00 -0.00000000000E+00 -0.45874056747E+02  0.45874056747E+02  0.00000000000E+00 0.  1.
         25    2    1    2    0    0 -0.48859753933E+02 -0.59755513700E+02  0.16773035675E+03  0.22302164572E+03  0.12508870817E+03 0.  0.
          5    1    3    3  502    0 -0.28625930655E+02 -0.98342368587E+02  0.12723653453E+03  0.16339300317E+03  0.41800000000E+01 0. -1.
         -5    1    3    3    0  502 -0.20233823278E+02  0.38586854887E+02  0.40493822227E+02  0.59628642556E+02  0.41800000000E+01 0. -1.
        -11    1    1    2    0    0  0.60495483099E+02  0.66889031675E+02  0.98055225442E+02  0.13322414672E+03  0.00000000000E+00 0.  1.
         11    1    1    2    0    0 -0.11635729166E+02 -0.71335179755E+01  0.71674086554E+02  0.72961989798E+02  0.00000000000E+00 0. -1.
</event>
<event>
 7    1  0.2733606E-009  0.9741406E+02  0.7561462E-02  0.1285830E+00
          1   -1    0    0  501    0  0.00000000000E+00  0.00000000000E+00  0.39095978123E+02  0.39095978123E+02  0.00000000000E+00 0. -1.
         -1   -1    0    0    0  501 -0.00000000000E+00 -0.00000000000E+00 -0.47582957180E+03  0.47582957180E+03  0.00000000000E+00 0.  1.
         25    2    1    2    0    0  0.64996863295E+02 -0.33251433752E+02 -0.31785384535E+03  0.34929719106E+03  0.12508881082E+03 0.  0.
          5    1    3    3  502    0  0.35284577439E+02  0.15912767125E+02 -0.16156583044E+02  0.42151217518E+02  0.41800000000E+01 0.  1.
         -5    1    3    3    0  502  0.29712285856E+02 -0.49164200877E+02 -0.30169726230E+03  0.30714597354E+03  0.41800000000E+01 0.  1.
        -11    1    1    2    0    0 -0.63706072715E+02  0.50319797487E+02 -0.51571708606E+02  0.96177891682E+02  0.00000000000E+00 0. -1.
         11    1    1    2    0    0 -0.12907905802E+01 -0.17068363734E+02 -0.67308039726E+02  0.69450467188E+02  0.00000000000E+00 0.  1.
</event>
<event>
 7    1  0.2733606E-009  0.1364997E+03  0.7561462E-02  0.1218118E+00
         -4   -1    0    0    0  501 -0.00000000000E+00  0.00000000000E+00  0.66700686252E+02  0.66700686252E+02  0.00000000000E+00 0.  1.
          4   -1    0    0  501    0  0.00000000000E+00 -0.00000000000E+00 -0.45090900934E+03  0.45090900934E+03  0.00000000000E+00 0. -1.
         25    2    1    2    0    0  0.60526873557E+02 -0.97063023886E+02 -0.30985764876E+03  0.35319194604E+03  0.12509218688E+03 0.  0.
          5    1    3    3  502    0  0.48864203921E+02 -0.12122934240E+03 -0.19240163396E+03  0.23263732511E+03  0.41800000000E+01 0.  1.
         -5    1    3    3    0  502  0.11662669636E+02  0.24166318512E+02 -0.11745601481E+03  0.12055462093E+03  0.41800000000E+01 0.  1.
        -11    1    1    2    0    0 -0.39092261817E+02  0.73257505167E+02 -0.95101549161E+02  0.12625043228E+03  0.00000000000E+00 0. -1.
         11    1    1    2    0    0 -0.21434611740E+02  0.23805518719E+02  0.20750874835E+02  0.38167317280E+02  0.00000000000E+00 0.  1.
</event>
<event>
 7    1  0.2733606E-009  0.1450861E+03  0.7561462E-02  0.1206645E+00
         -4   -1    0    0    0  501 -0.00000000000E+00  0.00000000000E+00  0.12249231133E+03  0.12249231133E+03  0.00000000000E+00 0.  1.
          4   -1    0    0  501    0  0.00000000000E+00 -0.00000000000E+00 -0.19607089821E+03  0.19607089821E+03  0.00000000000E+00 0. -1.
         25    2    1    2    0    0 -0.63206405197E+02 -0.82975342917E+02 -0.76626207041E+02  0.18000072180E+03  0.12509487221E+03 0.  0.
          5    1    3    3  502    0  0.35494854400E+02 -0.45108924118E+01 -0.24112054210E+02  0.43348545506E+02  0.41800000000E+01 0.  1.
         -5    1    3    3    0  502 -0.98701259598E+02 -0.78464450505E+02 -0.52514152831E+02  0.13665217630E+03  0.41800000000E+01 0.  1.
        -11    1    1    2    0    0 -0.17114445270E+02  0.15414639920E+02 -0.20683152833E+02  0.30956552971E+02  0.00000000000E+00 0. -1.
         11    1    1    2    0    0  0.80320850468E+02  0.67560702997E+02  0.23730772998E+02  0.10760593476E+03  0.00000000000E+00 0.  1.
</event>
<event>
 7    1  0.2733606E-009  0.8936402E+02  0.7561462E-02  0.1304399E+00
          3   -1    0    0  501    0  0.00000000000E+00  0.00000000000E+00  0.30701513897E+03  0.30701513897E+03  0.00000000000E+00 0. -1.
         -3   -1    0    0    0  501 -0.00000000000E+00 -0.00000000000E+00 -0.77405196832E+02  0.77405196832E+02  0.00000000000E+00 0.  1.
         25    2    1    2    0    0 -0.22260032468E+02  0.18225708237E+02 -0.76051842325E+01  0.12858351422E+03  0.12509274886E+03 0.  0.
          5    1    3    3  502    0  0.34907770443E+02  0.38581609102E+02  0.26825856422E+02  0.58687238571E+02  0.41800000000E+01 0.  1.
         -5    1    3    3    0  502 -0.57167802911E+02 -0.20355900866E+02 -0.34431040655E+02  0.69896275654E+02  0.41800000000E+01 0.  1.
        -11    1    1    2    0    0 -0.88760237224E+01  0.16700810527E+02  0.58635133820E+01  0.19801051956E+02  0.00000000000E+00 0.  1.
         11    1    1    2    0    0  0.31136056190E+02 -0.34926518764E+02  0.23135161299E+03  0.23603576962E+03  0.00000000000E+00 0. -1.
</event>
<event>
 7    1  0.2733606E-009  0.9712647E+02  0.7561462E-02  0.1286457E+00
          1   -1    0    0  501    0  0.00000000000E+00  0.00000000000E+00  0.12618896159E+02  0.12618896159E+02  0.00000000000E+00 0. -1.
         -1   -1    0    0    0  501 -0.00000000000E+00 -0.00000000000E+00 -0.10023386346E+04  0.10023386346E+04  0.00000000000E+00 0.  1.
         25    2    1    2    0    0 -0.33859245185E+01  0.58349971870E+01 -0.69752393685E+03  0.70868374214E+03  0.12508993651E+03 0.  0.
          5    1    3    3  502    0  0.29818609592E+01  0.53802120988E+02 -0.56431075264E+03  0.56689298607E+03  0.41800000000E+01 0. -1.
         -5    1    3    3    0  502 -0.63677854777E+01 -0.47967123801E+02 -0.13321318421E+03  0.14179075606E+03  0.41800000000E+01 0. -1.
        -11    1    1    2    0    0  0.20362594301E+02 -0.44758949937E+02 -0.16551224868E+03  0.17266239692E+03  0.00000000000E+00 0.  1.
         11    1    1    2    0    0 -0.16976669783E+02  0.38923952750E+02 -0.12668355292E+03  0.13361139171E+03  0.00000000000E+00 0. -1.
</event>
<event>
 7    1  0.2733606E-009  0.2464413E+03  0.7561462E-02  0.1115575E+00
         -2   -1    0    0    0  501 -0.00000000000E+00  0.00000000000E+00  0.40412497802E+02  0.40412497802E+02  0.00000000000E+00 0.  1.
          2   -1    0    0  501    0  0.00000000000E+00 -0.00000000000E+00 -0.16358040399E+04  0.16358040399E+04  0.00000000000E+00 0. -1.
         25    2    1    2    0    0  0.55834731413E+02 -0.22473121837E+03 -0.87229657015E+03  0.91113719347E+03  0.12509213119E+03 0.  0.
          5    1    3    3  502    0 -0.36224357190E+02 -0.97281803646E+02 -0.29314403416E+03  0.31100940586E+03  0.41800000000E+01 0. -1.
         -5    1    3    3    0  502  0.92059088603E+02 -0.12744941472E+03 -0.57915253599E+03  0.60012778760E+03  0.41800000000E+01 0. -1.
        -11    1    1    2    0    0 -0.44931070611E+01  0.29766725374E+02 -0.27214312210E+02  0.40581581285E+02  0.00000000000E+00 0.  1.
         11    1    1    2    0    0 -0.51341624352E+02  0.19496449299E+03 -0.69588065976E+03  0.72449776297E+03  0.00000000000E+00 0. -1.
</event>
<event>
 7    1  0.2733606E-009  0.1081275E+03  0.7561462E-02  0.1264077E+00
         -2   -1    0    0    0  501 -0.00000000000E+00  0.00000000000E+00  0.57135999065E+03  0.57135999065E+03  0.00000000000E+00 0. -1.
          2   -1    0    0  501    0  0.00000000000E+00 -0.00000000000E+00 -0.22741558062E+02  0.22741558062E+02  0.00000000000E+00 0.  1.
         25    2    1    2    0    0 -0.20168440453E+02  0.21031635217E+02  0.25760962230E+03  0.28785427744E+03  0.12509305284E+03 0.  0.
          5    1    3    3  502    0 -0.11143085076E+02  0.73714235381E+02  0.15697766214E+03  0.17383157266E+03  0.41800000000E+01 0. -1.
         -5    1    3    3    0  502 -0.90253553771E+01 -0.52682600164E+02  0.10063196016E+03  0.11402270478E+03  0.41800000000E+01 0. -1.
        -11    1    1    2    0    0 -0.29682905802E+02 -0.23797922416E+02  0.70017057384E+02  0.79685659518E+02  0.00000000000E+00 0. -1.
         11    1    1    2    0    0  0.49851346254E+02  0.27662871994E+01  0.22099175291E+03  0.22656161176E+03  0.00000000000E+00 0.  1.
</event>
<event>
 7    1  0.2733606E-009  0.1690576E+03  0.7561462E-02  0.1178834E+00
          1   -1    0    0  501    0  0.00000000000E+00  0.00000000000E+00  0.12795916577E+04  0.12795916577E+04  0.00000000000E+00 0. -1.
         -1   -1    0    0    0  501 -0.00000000000E+00 -0.00000000000E+00 -0.24228563055E+02  0.24228563055E+02  0.00000000000E+00 0.  1.
         25    2    1    2    0    0 -0.13651805115E+03  0.17805225516E+02  0.62355999039E+03  0.65071496276E+03  0.12509475127E+03 0.  0.
          5    1    3    3  502    0  0.56431130248E+01 -0.27434544662E+02  0.44623815623E+02  0.52851265701E+02  0.41800000000E+01 0. -1.
         -5    1    3    3    0  502 -0.14216116418E+03  0.45239770178E+02  0.57893617477E+03  0.59786369706E+03  0.41800000000E+01 0. -1.
        -11    1    1    2    0    0  0.72144659869E+02 -0.50780297784E+02  0.26690659925E+03  0.28110962864E+03  0.00000000000E+00 0.  1.
         11    1    1    2    0    0  0.64373391283E+02  0.32975072267E+02  0.36489650500E+03  0.37199562935E+03  0.00000000000E+00 0. -1.
</event>
<event>
 7    1  0.2733606E-009  0.1479645E+03  0.7561462E-02  0.1202997E+00
          2   -1    0    0  501    0  0.00000000000E+00  0.00000000000E+00  0.31986899202E+03  0.31986899202E+03  0.00000000000E+00 0. -1.
         -2   -1    0    0    0  501 -0.00000000000E+00 -0.00000000000E+00 -0.74481430907E+02  0.74481430907E+02  0.00000000000E+00 0.  1.
         25    2    1    2    0    0  0.16626220447E+02 -0.61878680012E+02  0.73468124434E+02  0.15858578659E+03  0.12508590710E+03 0.  0.
          5    1    3    3  502    0 -0.51366562951E+02 -0.46547543033E+02  0.25996223172E+02  0.74151692975E+02  0.41800000000E+01 0. -1.
         -5    1    3    3    0  502  0.67992783398E+02 -0.15331136979E+02  0.47471901262E+02  0.84434093616E+02  0.41800000000E+01 0. -1.
        -11    1    1    2    0    0 -0.63865681753E+02 -0.15756581784E+02  0.10080586399E+03  0.12036991896E+03  0.00000000000E+00 0. -1.
         11    1    1    2    0    0  0.47239461307E+02  0.77635261796E+02  0.71113572694E+02  0.11539471738E+03  0.00000000000E+00 0.  1.
</event>
<event>
 7    1  0.2733606E-009  0.1920662E+03  0.7561462E-02  0.1156611E+00
          1   -1    0    0  501    0  0.00000000000E+00  0.00000000000E+00  0.59126242296E+03  0.59126242296E+03  0.00000000000E+00 0. -1.
         -1   -1    0    0    0  501 -0.00000000000E+00 -0.00000000000E+00 -0.68154849517E+02  0.68154849517E+02  0.00000000000E+00 0.  1.
         25    2    1    2    0    0  0.59701264198E+02 -0.15651250634E+03  0.25587216740E+03  0.33042171223E+03  0.12509011264E+03 0.  0.
          5    1    3    3  502    0  0.22212182209E+02  0.18642441028E+02  0.27797028555E+02  0.40386493317E+02  0.41800000000E+01 0. -1.
         -5    1    3    3    0  502  0.37489081989E+02 -0.17515494736E+03  0.22807513884E+03  0.29003521892E+03  0.41800000000E+01 0. -1.
        -11    1    1    2    0    0 -0.48057170231E+02  0.53181125391E+02  0.17829031021E+03  0.19215920073E+03  0.00000000000E+00 0. -1.
         11    1    1    2    0    0 -0.11644093967E+02  0.10333138095E+03  0.88945095830E+02  0.13683635951E+03  0.00000000000E+00 0.  1.
</event>
<event>
 7    1  0.2733606E-009  0.8330674E+02  0.7561462E-02  0.1319921E+00
         -1   -1    0    0    0  501 -0.00000000000E+00  0.00000000000E+00  0.45619563728E+02  0.45619563728E+02  0.00000000000E+00 0.  1.
          1   -1    0    0  501    0  0.00000000000E+00 -0.00000000000E+00 -0.44633518384E+03  0.44633518384E+03  0.00000000000E+00 0. -1.
         25    2    1    2    0    0 -0.69171542936E+02  0.14240066546E+02 -0.11330090202E+03  0.18295712709E+03  0.12509490040E+03 0.  0.
          5    1    3    3  502    0 -0.35994401879E+02  0.19899316537E+02  0.19632532043E+02  0.45765581824E+02  0.41800000000E+01 0.  1.
         -5    1    3    3    0  502 -0.33177141057E+02 -0.56592499909E+01 -0.13293343407E+03  0.13719154526E+03  0.41800000000E+01 0.  1.
        -11    1    1    2    0    0  0.41542517637E+02 -0.36946765688E+02 -0.73733097378E+02  0.92343997723E+02  0.00000000000E+00 0.  1.
         11    1    1    2    0    0  0.27629025299E+02  0.22706699142E+02 -0.21368162071E+03  0.21665362276E+03  0.00000000000E+00 0. -1.
</event>
<event>
 7    1  0.2733606E-009  0.9660354E+02  0.7561462E-02  0.1287605E+00
          2   -1    0    0  501    0  0.00000000000E+00  0.00000000000E+00  0.31676166751E+03  0.31676166751E+03  0.00000000000E+00 0. -1.
         -2   -1    0    0    0  501 -0.00000000000E+00 -0.00000000000E+00 -0.40783670788E+02  0.40783670788E+02  0.00000000000E+00 0.  1.
         25    2    1    2    0    0 -0.23400029584E+02  0.26123031474E+02  0.16074799343E+03  0.20668440730E+03  0.12509417520E+03 0.  0.
          5    1    3    3  502    0  0.13984169979E+02  0.51753436238E+02  0.15078752451E+03  0.16008849153E+03  0.41800000000E+01 0. -1.
         -5    1    3    3    0  502 -0.37384199563E+02 -0.25630404764E+02  0.99604689253E+01  0.46595915771E+02  0.41800000000E+01 0. -1.
        -11    1    1    2    0    0  0.45636332244E+02 -0.45484159471E+02  0.96147888365E+02  0.11574065846E+03  0.00000000000E+00 0.  1.
         11    1    1    2    0    0 -0.22236302659E+02  0.19361127997E+02  0.19082114924E+02  0.35120272540E+02  0.00000000000E+00 0. -1.
</event>
<event>
 7    1  0.2733606E-009  0.1797871E+03  0.7561462E-02  0.1168009E+00
          1   -1    0    0  501    0  0.00000000000E+00  0.00000000000E+00  0.42944552686E+03  0.42944552686E+03  0.00000000000E+00 0. -1.
         -1   -1    0    0    0  501 -0.00000000000E+00 -0.00000000000E+00 -0.85253221232E+02  0.85253221232E+02  0.00000000000E+00 0.  1.
         25    2    1    2    0    0 -0.41907551751E+02  0.15253727271E+03  0.21918787057E+03  0.29785260221E+03  0.12509591351E+03 0.  0.
          5    1    3    3  502    0  0.54035903121E+01  0.15074245741E+03  0.18772090430E+03  0.24085077863E+03  0.41800000000E+01 0. -1.
         -5    1    3    3    0  502 -0.47311142063E+02  0.17948153002E+01  0.31466966277E+02  0.57001823584E+02  0.41800000000E+01 0. -1.
        -11    1    1    2    0    0  0.31467757634E+02 -0.57574346881E+02  0.84702168560E+01  0.66157159573E+02  0.00000000000E+00 0.  1.
         11    1    1    2    0    0  0.10439794117E+02 -0.94962925831E+02  0.11653421820E+03  0.15068898631E+03  0.00000000000E+00 0. -1.
</event>
<event>
 7    1  0.2733606E-009  0.1329415E+03  0.7561462E-02  0.1223155E+00
          2   -1    0    0  501    0  0.00000000000E+00  0.00000000000E+00  0.22325361072E+04  0.22325361072E+04  0.00000000000E+00 0. -1.
         -2   -1    0    0    0  501 -0.00000000000E+00 -0.00000000000E+00 -0.11067788411E+02  0.11067788411E+02  0.00000000000E+00 0.  1.
         25    2    1    2    0    0 -0.78790927224E+02  0.10715260146E+02  0.17797696807E+04  0.17859317579E+04  0.12509716353E+03 0.  0.
          5    1    3    3  502    0 -0.45673843083E+02  0.66836762225E+02  0.11239782286E+04  0.11268974148E+04  0.41800000000E+01 0.  1.
         -5    1    3    3    0  502 -0.33117084140E+02 -0.56121502079E+02  0.65579145215E+03  0.65903434309E+03  0.41800000000E+01 0.  1.
        -11    1    1    2    0    0  0.12080893169E+02  0.36073262685E+02  0.15693492434E+03  0.16148002582E+03  0.00000000000E+00 0. -1.
         11    1    1    2    0    0  0.66710034055E+02 -0.46788522831E+02  0.28476371372E+03  0.29619211192E+03  0.00000000000E+00 0.  1.
</event>
<event>
 7    1  0.2733606E-009  0.5865213E+02  0.7561462E-02  0.1403577E+00
          2   -1    0    0  501    0  0.00000000000E+00  0.00000000000E+00  0.53159277067E+02  0.53159277067E+02  0.00000000000E+00 0.  1.
         -2   -1    0    0    0  501 -0.00000000000E+00 -0.00000000000E+00 -0.25797033109E+03  0.25797033109E+03  0.00000000000E+00 0. -1.
         25    2    1    2    0    0 -0.55448617294E+01  0.43639284556E+02 -0.93063382625E+02  0.16199754180E+03  0.12508907912E+03 0.  0.
          5    1    3    3  502    0  0.20620180606E+00  0.10884655110E+02 -0.11902914572E+03  0.11959903079E+03  0.41800000000E+01 0. -1.
         -5    1    3    3    0  502 -0.57510635355E+01  0.32754629446E+02  0.25965763096E+02  0.42398511001E+02  0.41800000000E+01 0. -1.
        -11    1    1    2    0    0 -0.21776574256E+02 -0.14017638815E+01  0.46659179218E+01  0.22314903504E+02  0.00000000000E+00 0.  1.
         11    1    1    2    0    0  0.27321435986E+02 -0.42237520675E+02 -0.11641358932E+03  0.12681716286E+03  0.00000000000E+00 0. -1.
</event>
<event>
 7    1  0.2733606E-009  0.7911583E+02  0.7561462E-02  0.1331579E+00
         -3   -1    0    0    0  501 -0.00000000000E+00  0.00000000000E+00  0.43114983600E+03  0.43114983600E+03  0.00000000000E+00 0.  1.
          3   -1    0    0  501    0  0.00000000000E+00 -0.00000000000E+00 -0.37826955814E+02  0.37826955814E+02  0.00000000000E+00 0. -1.
         25    2    1    2    0    0 -0.45314321707E+02 -0.38994498366E+02  0.27108743721E+03  0.30448306303E+03  0.12509028101E+03 0.  0.
          5    1    3    3  502    0 -0.28441886620E+02 -0.39611098488E+02  0.20126366974E+02  0.52919968684E+02  0.41800000000E+01 0.  1.
         -5    1    3    3    0  502 -0.16872435087E+02  0.61660012190E+00  0.25096107023E+03  0.25156309434E+03  0.41800000000E+01 0.  1.
        -11    1    1    2    0    0  0.10515679351E+02 -0.20460606758E+02 -0.13072283953E+01  0.23041805207E+02  0.00000000000E+00 0. -1.
         11    1    1    2    0    0  0.34798642356E+02  0.59455105124E+02  0.12354267138E+03  0.14145192359E+03  0.00000000000E+00 0.  1.
</event>
<event>
 7    1  0.2733606E-009  0.2479491E+03  0.7561462E-02  0.1114608E+00
         -2   -1    0    0    0  501 -0.00000000000E+00  0.00000000000E+00  0.61801587946E+03  0.61801587946E+03  0.00000000000E+00 0.  1.
          2   -1    0    0  501    0  0.00000000000E+00 -0.00000000000E+00 -0.14083308933E+03  0.14083308933E+03  0.00000000000E+00 0. -1.
         25    2    1    2    0    0  0.54083347426E+02 -0.22576459372E+03  0.42821882581E+03  0.50290462931E+03  0.12508814154E+03 0.  0.
          5    1    3    3  502    0 -0.31339957867E+02 -0.11228395352E+03  0.24213279890E+03  0.26876689506E+03  0.41800000000E+01 0.  1.
         -5    1    3    3    0  502  0.85423305293E+02 -0.11348064021E+03  0.18608602691E+03  0.23413773425E+03  0.41800000000E+01 0.  1.
        -11    1    1    2    0    0 -0.52974551525E+02  0.11764113868E+03  0.68483392392E+02  0.14606750376E+03  0.00000000000E+00 0.  1.
         11    1    1    2    0    0 -0.11087959009E+01  0.10812345504E+03 -0.19519428073E+02  0.10987683573E+03  0.00000000000E+00 0. -1.
</event>
<event>
 7    1  0.2733606E-009  0.1110577E+03  0.7561462E-02  0.1258624E+00
          3   -1    0    0  501    0  0.00000000000E+00  0.00000000000E+00  0.28682463058E+03  0.28682463058E+03  0.00000000000E+00 0. -1.
         -3   -1    0    0    0  501 -0.00000000000E+00 -0.00000000000E+00 -0.46346016679E+02  0.46346016679E+02  0.00000000000E+00 0.  1.
         25    2    1    2    0    0 -0.19261065703E+02  0.32007006167E+01  0.15248690406E+03  0.19819479638E+03  0.12509072015E+03 0.  0.
          5    1    3    3  502    0 -0.50558229393E+02 -0.41162610891E+02  0.11441503083E+03  0.13175267274E+03  0.41800000000E+01 0.  1.
         -5    1    3    3    0  502  0.31297163690E+02  0.44363311508E+02  0.38071873230E+02  0.66442123643E+02  0.41800000000E+01 0.  1.
        -11    1    1    2    0    0  0.15744788083E+02  0.48254345876E+02  0.42346926571E+02  0.66103271006E+02  0.00000000000E+00 0.  1.
         11    1    1    2    0    0  0.35162776195E+01 -0.51455046493E+02  0.45644783273E+02  0.68872579870E+02  0.00000000000E+00 0. -1.
</event>
<event>
 7    1  0.2733606E-009  0.2537933E+03  0.7561462E-02  0.1110931E+00
          1   -1    0    0  501    0  0.00000000000E+00  0.00000000000E+00  0.33808457666E+03  0.33808457666E+03  0.00000000000E+00 0. -1.
         -1   -1    0    0    0  501 -0.00000000000E+00 -0.00000000000E+00 -0.25522753230E+03  0.25522753230E+03  0.00000000000E+00 0.  1.
         25    2    1    2    0    0  0.63437752715E+02 -0.23554401865E+03 -0.80515268790E+02  0.28571910739E+03  0.12508943451E+03 0.  0.
          5    1    3    3  502    0 -0.13456013818E+01 -0.17443383404E+03 -0.15104506662E+02  0.17514163304E+03  0.41800000000E+01 0. -1.
         -5    1    3    3    0  502  0.64783354096E+02 -0.61110184604E+02 -0.65410762128E+02  0.11057747434E+03  0.41800000000E+01 0. -1.
        -11    1    1    2    0    0 -0.26544161110E+02  0.95866430873E+02  0.12180847437E+03  0.15726496585E+03  0.00000000000E+00 0. -1.
         11    1    1    2    0    0 -0.36893591605E+02  0.13967758778E+03  0.41563838779E+02  0.15032803572E+03  0.00000000000E+00 0.  1.
</event>
<event>
 7    1  0.2733606E-009  0.1139933E+03  0.7561462E-02  0.1253349E+00
          1   -1    0    0  501    0  0.00000000000E+00  0.00000000000E+00  0.80296356869E+03  0.80296356869E+03  0.00000000000E+00 0. -1.
         -1   -1    0    0    0  501 -0.00000000000E+00 -0.00000000000E+00 -0.19564143158E+02  0.19564143158E+02  0.00000000000E+00 0.  1.
         25    2    1    2    0    0 -0.63344428042E+02 -0.14084622292E+01  0.44862166034E+03  0.47002578015E+03  0.12509332336E+03 0.  0.
          5    1    3    3  502    0 -0.93155545191E+01 -0.46314351190E+02  0.67713020764E+02  0.82669971956E+02  0.41800000000E+01 0. -1.
         -5    1    3    3    0  502 -0.54028873523E+02  0.44905888961E+02  0.38090863958E+03  0.38735580819E+03  0.41800000000E+01 0. -1.
        -11    1    1    2    0    0 -0.21239626496E+02  0.12854434726E+02  0.84347786574E+02  0.87925578337E+02  0.00000000000E+00 0.  1.
         11    1    1    2    0    0  0.84584054539E+02 -0.11445972497E+02  0.25042997861E+03  0.26457635336E+03  0.00000000000E+00 0. -1.
</event>
<event>
 7    1  0.2733606E-009  0.9598785E+02  0.7561462E-02  0.1288967E+00
         -2   -1    0    0    0  501 -0.00000000000E+00  0.00000000000E+00  0.29191018727E+02  0.29191018727E+02  0.00000000000E+00 0.  1.
          2   -1    0    0  501    0  0.00000000000E+00 -0.00000000000E+00 -0.40667609916E+03  0.40667609916E+03  0.00000000000E+00 0. -1.
         25    2    1    2    0    0  0.10843393901E+02  0.79671773502E+01 -0.20378633088E+03  0.23949656770E+03  0.12509469285E+03 0.  0.
          5    1    3    3  502    0 -0.23668778969E+02  0.49077917398E+02 -0.16310449565E+03  0.17201570270E+03  0.41800000000E+01 0. -1.
         -5    1    3    3    0  502  0.34512172871E+02 -0.41110740048E+02 -0.40681835230E+02  0.67480865001E+02  0.41800000000E+01 0. -1.
        -11    1    1    2    0    0  0.30202046761E+02  0.17770130935E+02 -0.35310568191E+02  0.49747134671E+02  0.00000000000E+00 0.  1.
         11    1    1    2    0    0 -0.41045440662E+02 -0.25737308285E+02 -0.13838818136E+03  0.14662341551E+03  0.00000000000E+00 0. -1.
</event>
<event>
 7    1  0.2733606E-009  0.8539482E+02  0.7561462E-02  0.1314403E+00
          1   -1    0    0  501    0  0.00000000000E+00  0.00000000000E+00  0.29221599189E+02  0.29221599189E+02  0.00000000000E+00 0. -1.
         -1   -1    0    0    0  501 -0.00000000000E+00 -0.00000000000E+00 -0.43356935992E+03  0.43356935992E+03  0.00000000000E+00 0.  1.
         25    2    1    2    0    0  0.89353586363E+01  0.22825475537E+02 -0.18747331293E+03  0.22670326463E+03  0.12508910490E+03 0.  0.
          5    1    3    3  502    0  0.34001675977E+01 -0.29616968856E+02 -0.16746103759E+03  0.17014522472E+03  0.41800000000E+01 0.  1.
         -5    1    3    3    0  502  0.55351910387E+01  0.52442444393E+02 -0.20012275338E+02  0.56558039905E+02  0.41800000000E+01 0.  1.
        -11    1    1    2    0    0 -0.23751764474E+02 -0.50829613123E+02 -0.17369779595E+03  0.18253416174E+03  0.00000000000E+00 0.  1.
         11    1    1    2    0    0  0.14816405838E+02  0.28004137586E+02 -0.43176651860E+02  0.53553532747E+02  0.00000000000E+00 0. -1.
</event>
<event>
 7    1  0.2733606E-009  0.1337284E+03  0.7561462E-02  0.1222026E+00
         -3   -1    0    0    0  501 -0.00000000000E+00  0.00000000000E+00  0.39488249912E+02  0.39488249912E+02  0.00000000000E+00 0.  1.
          3   -1    0    0  501    0  0.00000000000E+00 -0.00000000000E+00 -0.62419974330E+03  0.62419974330E+03  0.00000000000E+00 0. -1.
         25    2    1    2    0    0  0.91468084774E+02  0.54624092844E+02 -0.23035397249E+03  0.28294969268E+03  0.12508946356E+03 0.  0.
          5    1    3    3  502    0  0.68112784972E+02 -0.25444055068E+02 -0.64619645858E+02  0.97364893292E+02  0.41800000000E+01 0.  1.
         -5    1    3    3    0  502  0.23355299802E+02  0.80068147912E+02 -0.16573432664E+03  0.18558479939E+03  0.41800000000E+01 0.  1.
        -11    1    1    2    0    0 -0.74283634571E+02 -0.57181784697E+02 -0.35066168746E+03  0.36297580349E+03  0.00000000000E+00 0. -1.
         11    1    1    2    0    0 -0.17184450203E+02  0.25576918535E+01 -0.36958334357E+01  0.17762497042E+02  0.00000000000E+00 0.  1.
</event>
<event>
 7    1  0.2733606E-009  0.5950236E+02  0.7561462E-02  0.1399932E+00
         -1   -1    0    0    0  501 -0.00000000000E+00  0.00000000000E+00  0.29182454529E+02  0.29182454529E+02  0.00000000000E+00 0.  1.
          1   -1    0    0  501    0  0.00000000000E+00 -0.00000000000E+00 -0.10640015429E+04  0.10640015429E+04  0.00000000000E+00 0. -1.
         25    2    1    2    0    0 -0.15593966770E+02 -0.42389784599E+02 -0.95416798084E+03  0.96339207920E+03  0.12509075493E+03 0.  0.
          5    1    3    3  502    0 -0.18058005002E+02 -0.35543611374E+01 -0.16980297047E+02  0.25387554344E+02  0.41800000000E+01 0. -1.
         -5    1    3    3    0  502  0.24640382321E+01 -0.38835423461E+02 -0.93718768380E+03  0.93800452486E+03  0.41800000000E+01 0. -1.
        -11    1    1    2    0    0  0.13965043654E+02 -0.40385355023E+01 -0.82036300559E+02  0.83314385448E+02  0.00000000000E+00 0. -1.
         11    1    1    2    0    0  0.16289231161E+01  0.46428320101E+02  0.13851929822E+01  0.46477532825E+02  0.00000000000E+00 0.  1.
</event>
<event>
 7    1  0.2733606E-009  0.2107315E+03  0.7561462E-02  0.1140988E+00
         -2   -1    0    0    0  501 -0.00000000000E+00  0.00000000000E+00  0.14929461928E+03  0.14929461928E+03  0.00000000000E+00 0.  1.
          2   -1    0    0  501    0  0.00000000000E+00 -0.00000000000E+00 -0.31788470510E+03  0.31788470510E+03  0.00000000000E+00 0. -1.
         25    2    1    2    0    0  0.48366043893E+02  0.17673428368E+03 -0.36897945931E+02  0.22491231688E+03  0.12509920320E+03 0.  0.
          5    1    3    3  502    0 -0.36032549362E+02  0.17619233805E+02 -0.16604135437E+02  0.43611371533E+02  0.41800000000E+01 0. -1.
         -5    1    3    3    0  502  0.84398593255E+02  0.15911504987E+03 -0.20293810494E+02  0.18130094535E+03  0.41800000000E+01 0. -1.
        -11    1    1    2    0    0  0.84745265336E+01 -0.12124076019E+03 -0.61264280127E+02  0.13610456109E+03  0.00000000000E+00 0.  1.
         11    1    1    2    0    0 -0.56840570427E+02 -0.55493523493E+02 -0.70427859766E+02  0.10616244641E+03  0.00000000000E+00 0. -1.
</event>
<event>
 7    1  0.2733606E-009  0.9822094E+02  0.7561462E-02  0.1284082E+00
         -2   -1    0    0    0  501 -0.00000000000E+00  0.00000000000E+00  0.58783419184E+02  0.58783419184E+02  0.00000000000E+00 0.  1.
          2   -1    0    0  501    0  0.00000000000E+00 -0.00000000000E+00 -0.23115256954E+03  0.23115256954E+03  0.00000000000E+00 0. -1.
         25    2    1    2    0    0  0.34995924225E+02  0.22318759040E+01 -0.12283681015E+03  0.17879131952E+03  0.12509099898E+03 0.  0.
          5    1    3    3  502    0  0.14747731319E+02 -0.47441826303E+02 -0.11378777605E+03  0.12423104620E+03  0.41800000000E+01 0.  1.
         -5    1    3    3    0  502  0.20248192906E+02  0.49673702207E+02 -0.90490341059E+01  0.54560273324E+02  0.41800000000E+01 0.  1.
        -11    1    1    2    0    0  0.21146889746E+02  0.22986329769E+02 -0.36848062661E+02  0.48304679112E+02  0.00000000000E+00 0. -1.
         11    1    1    2    0    0 -0.56142813971E+02 -0.25218205673E+02 -0.12684277545E+02  0.62839990092E+02  0.00000000000E+00 0.  1.
</event>
<event>
 7    1  0.2733606E-009  0.2409006E+03  0.7561462E-02  0.1119194E+00
         -3   -1    0    0    0  501 -0.00000000000E+00  0.00000000000E+00  0.54506187145E+03  0.54506187145E+03  0.00000000000E+00 0.  1.
          3   -1    0    0  501    0  0.00000000000E+00 -0.00000000000E+00 -0.18464207635E+03  0.18464207635E+03  0.00000000000E+00 0. -1.
         25    2    1    2    0    0 -0.47260230197E+02  0.22557532570E+03 -0.33465801849E+02  0.26435836218E+03  0.12509047461E+03 0.  0.
          5    1    3    3  502    0  0.11908538839E+02  0.40634733940E+02 -0.54343435826E+02  0.69019390877E+02  0.41800000000E+01 0.  1.
         -5    1    3    3    0  502 -0.59168769036E+02  0.18494059176E+03  0.20877633977E+02  0.19533897130E+03  0.41800000000E+01 0.  1.
        -11    1    1    2    0    0 -0.62924890541E+01 -0.16107236104E+03  0.29064196325E+03  0.33235019439E+03  0.00000000000E+00 0. -1.
         11    1    1    2    0    0  0.53552719251E+02 -0.64502964663E+02  0.10324363370E+03  0.13299539123E+03  0.00000000000E+00 0.  1.
</event>
<event>
 7    1  0.2733606E-009  0.1800737E+03  0.7561462E-02  0.1167732E+00
         -1   -1    0    0    0  501 -0.00000000000E+00  0.00000000000E+00  0.14239643951E+03  0.14239643951E+03  0.00000000000E+00 0.  1.
          1   -1    0    0  501    0  0.00000000000E+00 -0.00000000000E+00 -0.23437432524E+03  0.23437432524E+03  0.00000000000E+00 0. -1.
         25    2    1    2    0    0 -0.14334675910E+03  0.30202852029E+02 -0.39659182340E+02  0.19667394683E+03  0.12508910825E+03 0.  0.
          5    1    3    3  502    0 -0.10001191197E+03 -0.38936126497E+02 -0.38696171652E+01  0.10747488460E+03  0.41800000000E+01 0.  1.
         -5    1    3    3    0  502 -0.43334847131E+02  0.69138978526E+02 -0.35789565175E+02  0.89199062231E+02  0.41800000000E+01 0.  1.
        -11    1    1    2    0    0 -0.80612580326E-01 -0.27586652216E+02 -0.55627738345E+00  0.27592377995E+02  0.00000000000E+00 0.  1.
         11    1    1    2    0    0  0.14342737168E+03 -0.26161998132E+01 -0.51762426008E+02  0.15250443992E+03  0.00000000000E+00 0. -1.
</event>
<event>
 7    1  0.2733606E-009  0.2275570E+03  0.7561462E-02  0.1128371E+00
          2   -1    0    0  501    0  0.00000000000E+00  0.00000000000E+00  0.58062026777E+02  0.58062026777E+02  0.00000000000E+00 0. -1.
         -2   -1    0    0    0  501 -0.00000000000E+00 -0.00000000000E+00 -0.10274353969E+04  0.10274353969E+04  0.00000000000E+00 0.  1.
         25    2    1    2    0    0 -0.21612981026E+03 -0.28524609982E+02 -0.51606922588E+03  0.57402116291E+03  0.12508837400E+03 0.  0.
          5    1    3    3  502    0 -0.17493255136E+03 -0.25128896674E+02 -0.49849082944E+03  0.52890777874E+03  0.41800000000E+01 0. -1.
         -5    1    3    3    0  502 -0.41197258904E+02 -0.33957133083E+01 -0.17578396437E+02  0.45113384171E+02  0.41800000000E+01 0. -1.
        -11    1    1    2    0    0  0.17579314904E+02  0.33876353278E+02 -0.67350493035E+02  0.77412715596E+02  0.00000000000E+00 0.  1.
         11    1    1    2    0    0  0.19855049536E+03 -0.53517432956E+01 -0.38595365121E+03  0.43406354517E+03  0.00000000000E+00 0. -1.
</event>
<event>
 7    1  0.2733606E-009  0.1214642E+03  0.7561462E-02  0.1240701E+00
          1   -1    0    0  501    0  0.00000000000E+00  0.00000000000E+00  0.31437147878E+03  0.31437147878E+03  0.00000000000E+00 0. -1.
         -1   -1    0    0    0  501 -0.00000000000E+00 -0.00000000000E+00 -0.53739917624E+02  0.53739917624E+02  0.00000000000E+00 0.  1.
         25    2    1    2    0    0  0.68478008133E+02  0.61405489180E+01  0.16558582051E+03  0.21861548507E+03  0.12508845838E+03 0.  0.
          5    1    3    3  502    0  0.10074641156E+03  0.24383772484E+02  0.10600565628E+03  0.14832086625E+03  0.41800000000E+01 0. -1.
         -5    1    3    3    0  502 -0.32268403423E+02 -0.18243223566E+02  0.59580164228E+02  0.70294618820E+02  0.41800000000E+01 0. -1.
        -11    1    1    2    0    0  0.47573901065E+01 -0.25656999016E+02 -0.22188552954E+01  0.26188502782E+02  0.00000000000E+00 0.  1.
         11    1    1    2    0    0 -0.73235398240E+02  0.19516450098E+02  0.97264595942E+02  0.12330740855E+03  0.00000000000E+00 0. -1.
</event>
<event>
 7    1  0.2733606E-009  0.9053310E+02  0.7561462E-02  0.1301566E+00
         -1   -1    0    0    0  501 -0.00000000000E+00  0.00000000000E+00  0.90269082336E+02  0.90269082336E+02  0.00000000000E+00 0.  1.
          1   -1    0    0  501    0  0.00000000000E+00 -0.00000000000E+00 -0.13728366095E+03  0.13728366095E+03  0.00000000000E+00 0. -1.
         25    2    1    2    0    0 -0.22595479419E+02 -0.12066189944E+01 -0.33068772485E+02  0.13135281908E+03  0.12509199713E+03 0.  0.
          5    1    3    3  502    0  0.10468645502E+02  0.45879098675E+02  0.21536066419E+02  0.51920697132E+02  0.41800000000E+01 0. -1.
         -5    1    3    3    0  502 -0.33064124922E+02 -0.47085717669E+02 -0.54604838905E+02  0.79432121948E+02  0.41800000000E+01 0. -1.
        -11    1    1    2    0    0  0.12579768741E+02 -0.35722369462E+02  0.21917266313E+02  0.43757340233E+02  0.00000000000E+00 0.  1.
         11    1    1    2    0    0  0.10015710678E+02  0.36928988457E+02 -0.35863072442E+02  0.52442583974E+02  0.00000000000E+00 0. -1.
</event>
<event>
 7    1  0.2733606E-009  0.1302162E+03  0.7561462E-02  0.1227135E+00
          2   -1    0    0  501    0  0.00000000000E+00  0.00000000000E+00  0.68240061425E+03  0.68240061425E+03  0.00000000000E+00 0.  1.
         -2   -1    0    0    0  501 -0.00000000000E+00 -0.00000000000E+00 -0.40449097898E+02  0.40449097898E+02  0.00000000000E+00 0. -1.
         25    2    1    2    0    0  0.41588823821E+02 -0.11768289002E+03  0.35344898673E+03  0.39516077079E+03  0.12508779189E+03 0.  0.
          5    1    3    3  502    0  0.30118015526E+02 -0.50757311077E+02  0.33364963740E+02  0.67927113088E+02  0.41800000000E+01 0. -1.
         -5    1    3    3    0  502  0.11470808295E+02 -0.66925578941E+02  0.32008402299E+03  0.32723365770E+03  0.41800000000E+01 0. -1.
        -11    1    1    2    0    0 -0.51317873244E+02  0.86588268079E+02  0.12263520065E+03  0.15865196098E+03  0.00000000000E+00 0. -1.
         11    1    1    2    0    0  0.97290494230E+01  0.31094621939E+02  0.16586732898E+03  0.16903698038E+03  0.00000000000E+00 0.  1.
</event>
<event>
 7    1  0.2733606E-009  0.1414920E+03  0.7561462E-02  0.1211335E+00
         -1   -1    0    0    0  501 -0.00000000000E+00  0.00000000000E+00  0.61219378428E+02  0.61219378428E+02  0.00000000000E+00 0.  1.
          1   -1    0    0  501    0  0.00000000000E+00 -0.00000000000E+00 -0.37837275856E+03  0.37837275856E+03  0.00000000000E+00 0. -1.
         25    2    1    2    0    0  0.98107466699E+02  0.23005871236E+02 -0.23078690634E+03  0.28118779480E+03  0.12509849988E+03 0.  0.
          5    1    3    3  502    0  0.78137472831E+02 -0.38215254983E+02 -0.84687903852E+02  0.12147174088E+03  0.41800000000E+01 0.  1.
         -5    1    3    3    0  502  0.19969993868E+02  0.61221126219E+02 -0.14609900249E+03  0.15971605392E+03  0.41800000000E+01 0.  1.
        -11    1    1    2    0    0 -0.58095804411E+02  0.29660057581E+02 -0.54434477887E+02  0.84958542176E+02  0.00000000000E+00 0.  1.
         11    1    1    2    0    0 -0.40011662289E+02 -0.52665928816E+02 -0.31931995903E+02  0.73445800013E+02  0.00000000000E+00 0. -1.
</event>
<event>
 7    1  0.2733606E-009  0.2465856E+03  0.7561462E-02  0.1115482E+00
          2   -1    0    0  501    0  0.00000000000E+00  0.00000000000E+00  0.68043594990E+03  0.68043594990E+03  0.00000000000E+00 0. -1.
         -2   -1    0    0    0  501 -0.00000000000E+00 -0.00000000000E+00 -0.11650052666E+03  0.11650052666E+03  0.00000000000E+00 0.  1.
         25    2    1    2    0    0 -0.10919812153E+03  0.20681037671E+03  0.12905601726E+03  0.29496097259E+03  0.12510698663E+03 0.  0.
          5    1    3    3  502    0 -0.76252557748E+02  0.34518644697E+02  0.13556169083E+02  0.84895415159E+02  0.41800000000E+01 0. -1.
         -5    1    3    3    0  502 -0.32945563777E+02  0.17229173201E+03  0.11549984817E+03  0.21006555744E+03  0.41800000000E+01 0. -1.
        -11    1    1    2    0    0  0.71741908281E+02 -0.13981718368E+03  0.19689008015E+03  0.25191556109E+03  0.00000000000E+00 0.  1.
         11    1    1    2    0    0  0.37456213245E+02 -0.66993193026E+02  0.23798932583E+03  0.25005994288E+03  0.00000000000E+00 0. -1.
</event>
<event>
 7    1  0.2733606E-009  0.1526692E+03  0.7561462E-02  0.1197231E+00
         -2   -1    0    0    0  501 -0.00000000000E+00  0.00000000000E+00  0.50195314267E+02  0.50195314267E+02  0.00000000000E+00 0.  1.
          2   -1    0    0  501    0  0.00000000000E+00 -0.00000000000E+00 -0.29639966728E+04  0.29639966728E+04  0.00000000000E+00 0. -1.
         25    2    1    2    0    0  0.96959529201E+02  0.63972495510E+02 -0.28458617668E+04  0.28509772417E+04  0.12509359246E+03 0.  0.
          5    1    3    3  502    0  0.10558897321E+03 -0.29935825787E+00 -0.17267973205E+04  0.17300276239E+04  0.41800000000E+01 0. -1.
         -5    1    3    3    0  502 -0.86294440129E+01  0.64271853768E+02 -0.11190644462E+04  0.11209496178E+04  0.41800000000E+01 0. -1.
        -11    1    1    2    0    0 -0.40019255147E+02  0.10080958224E+02  0.89475036918E+01  0.42228240829E+02  0.00000000000E+00 0.  1.
         11    1    1    2    0    0 -0.56940274054E+02 -0.74053453735E+02 -0.76887095414E+02  0.12098650446E+03  0.00000000000E+00 0. -1.
</event>
<event>
 7    1  0.2733606E-009  0.1729583E+03  0.7561462E-02  0.1174797E+00
         -1   -1    0    0    0  501 -0.00000000000E+00  0.00000000000E+00  0.42980956098E+03  0.42980956098E+03  0.00000000000E+00 0.  1.
          1   -1    0    0  501    0  0.00000000000E+00 -0.00000000000E+00 -0.81449998489E+02  0.81449998489E+02  0.00000000000E+00 0. -1.
         25    2    1    2    0    0 -0.10731112701E+03  0.87171073358E+02  0.27111390928E+03  0.32903567602E+03  0.12508896947E+03 0.  0.
          5    1    3    3  502    0  0.22853779123E+02  0.33082555039E+02  0.96252621522E+02  0.10439727112E+03  0.41800000000E+01 0.  1.
         -5    1    3    3    0  502 -0.13016490613E+03  0.54088518319E+02  0.17486128775E+03  0.22463840490E+03  0.41800000000E+01 0.  1.
        -11    1    1    2    0    0  0.10594842839E+03 -0.10348547834E+03  0.73893370928E+02  0.16551297222E+03  0.00000000000E+00 0.  1.
         11    1    1    2    0    0  0.13626986165E+01  0.16314404982E+02  0.33522822855E+01  0.16710911225E+02  0.00000000000E+00 0. -1.
</event>
<event>
 7    1  0.2733606E-009  0.1557841E+03  0.7561462E-02  0.1193540E+00
          2   -1    0    0  501    0  0.00000000000E+00  0.00000000000E+00  0.68902944060E+02  0.68902944060E+02  0.00000000000E+00 0. -1.
         -2   -1    0    0    0  501 -0.00000000000E+00 -0.00000000000E+00 -0.58185830926E+03  0.58185830926E+03  0.00000000000E+00 0.  1.
         25    2    1    2    0    0 -0.22643256808E+02  0.10950832558E+03 -0.64463704042E+02  0.17974604150E+03  0.12509308472E+03 0.  0.
          5    1    3    3  502    0  0.35474903188E+02 -0.80170835959E+01 -0.14493720689E+02  0.39373629817E+02  0.41800000000E+01 0. -1.
         -5    1    3    3    0  502 -0.58118159996E+02  0.11752540918E+03 -0.49969983354E+02  0.14037241168E+03  0.41800000000E+01 0. -1.
        -11    1    1    2    0    0  0.55566708322E+02 -0.89222122491E+02 -0.31881833676E+03  0.33569834386E+03  0.00000000000E+00 0. -1.
         11    1    1    2    0    0 -0.32923451514E+02 -0.20286203093E+02 -0.12967332440E+03  0.13531686796E+03  0.00000000000E+00 0.  1.
</event>
<event>
 7    1  0.2733606E-009  0.2909958E+03  0.7561462E-02  0.1089830E+00
          2   -1    0    0  501    0  0.00000000000E+00  0.00000000000E+00  0.26156089104E+03  0.26156089104E+03  0.00000000000E+00 0. -1.
         -2   -1    0    0    0  501 -0.00000000000E+00 -0.00000000000E+00 -0.43918636064E+03  0.43918636064E+03  0.00000000000E+00 0.  1.
         25    2    1    2    0    0  0.27893427810E+03  0.45088402217E+02 -0.25030434029E+03  0.39766517931E+03  0.12509211227E+03 0.  0.
          5    1    3    3  502    0  0.13217695329E+03  0.64913976555E+02 -0.18304506991E+03  0.23496285101E+03  0.41800000000E+01 0. -1.
         -5    1    3    3    0  502  0.14675732481E+03 -0.19825574338E+02 -0.67259270375E+02  0.16270232830E+03  0.41800000000E+01 0. -1.
        -11    1    1    2    0    0 -0.16931730569E+03 -0.50760380989E+02  0.77961260942E+02  0.19319141930E+03  0.00000000000E+00 0.  1.
         11    1    1    2    0    0 -0.10961697242E+03  0.56719787711E+01 -0.52823902567E+01  0.10989065307E+03  0.00000000000E+00 0. -1.
</event>
<event>
 7    1  0.2733606E-009  0.1035763E+03  0.7561462E-02  0.1272950E+00
         -4   -1    0    0    0  501 -0.00000000000E+00  0.00000000000E+00  0.13592719736E+03  0.13592719736E+03  0.00000000000E+00 0.  1.
          4   -1    0    0  501    0  0.00000000000E+00 -0.00000000000E+00 -0.97004779157E+02  0.97004779157E+02  0.00000000000E+00 0. -1.
         25    2    1    2    0    0  0.20707498475E+02 -0.25731137687E+02  0.11287968479E+02  0.12986876747E+03  0.12509031374E+03 0.  0.
          5    1    3    3  502    0 -0.83462365606E+01 -0.65478474101E+02  0.35257288586E+02  0.74950910827E+02  0.41800000000E+01 0.  1.
         -5    1    3    3    0  502  0.29053735036E+02  0.39747336414E+02 -0.23969320106E+02  0.54917856640E+02  0.41800000000E+01 0.  1.
        -11    1    1    2    0    0 -0.17914458379E+02  0.57235325192E+02  0.36511560746E+02  0.70213277498E+02  0.00000000000E+00 0.  1.
         11    1    1    2    0    0 -0.27930400958E+01 -0.31504187505E+02 -0.88771110168E+01  0.32849931557E+02  0.00000000000E+00 0. -1.
</event>
<event>
 7    1  0.2733606E-009  0.8340337E+02  0.7561462E-02  0.1319661E+00
          1   -1    0    0  501    0  0.00000000000E+00  0.00000000000E+00  0.14664974346E+03  0.14664974346E+03  0.00000000000E+00 0. -1.
         -1   -1    0    0    0  501 -0.00000000000E+00 -0.00000000000E+00 -0.82680864046E+02  0.82680864046E+02  0.00000000000E+00 0.  1.
         25    2    1    2    0    0  0.10943949588E+02 -0.10921218305E+02  0.23653124134E+02  0.12824218793E+03  0.12509014926E+03 0.  0.
          5    1    3    3  502    0 -0.44090014131E+02  0.23497491391E+02  0.36405556181E+02  0.61958844152E+02  0.41800000000E+01 0.  1.
         -5    1    3    3    0  502  0.55033963719E+02 -0.34418709696E+02 -0.12752432047E+02  0.66283343782E+02  0.41800000000E+01 0.  1.
        -11    1    1    2    0    0 -0.21956830491E+02  0.25310153589E+02 -0.19376912256E+02  0.38706214081E+02  0.00000000000E+00 0.  1.
         11    1    1    2    0    0  0.11012880903E+02 -0.14388935283E+02  0.59692667534E+02  0.62382205490E+02  0.00000000000E+00 0. -1.
</event>
<event>
 7    1  0.2733606E-009  0.1080478E+03  0.7561462E-02  0.1264228E+00
         -2   -1    0    0    0  501 -0.00000000000E+00  0.00000000000E+00  0.28861382664E+03  0.28861382664E+03  0.00000000000E+00 0. -1.
          2   -1    0    0  501    0  0.00000000000E+00 -0.00000000000E+00 -0.68457544283E+02  0.68457544283E+02  0.00000000000E+00 0.  1.
         25    2    1    2    0    0  0.34042846704E+02  0.74643554549E+02  0.16410863051E+03  0.22205725453E+03  0.12508879261E+03 0.  0.
          5    1    3    3  502    0  0.52000443167E+02  0.82722624089E+02  0.17402080175E+03  0.19961911348E+03  0.41800000000E+01 0. -1.
         -5    1    3    3    0  502 -0.17957596463E+02 -0.80790695402E+01 -0.99121712377E+01  0.22438141055E+02  0.41800000000E+01 0. -1.
        -11    1    1    2    0    0 -0.48900357209E+02 -0.57397916901E+02  0.96157918724E+00  0.75410148085E+02  0.00000000000E+00 0.  1.
         11    1    1    2    0    0  0.14857510505E+02 -0.17245637649E+02  0.55086072666E+02  0.59603968308E+02  0.00000000000E+00 0. -1.
</event>
<event>
 7    1  0.2733606E-009  0.9315099E+02  0.7561462E-02  0.1295396E+00
         -2   -1    0    0    0  501 -0.00000000000E+00  0.00000000000E+00  0.36123465785E+02  0.36123465785E+02  0.00000000000E+00 0. -1.
          2   -1    0    0  501    0  0.00000000000E+00 -0.00000000000E+00 -0.65521839652E+03  0.65521839652E+03  0.00000000000E+00 0.  1.
         25    2    1    2    0    0  0.86409194893E+01  0.46734572627E+02 -0.13217817590E+03  0.18808735456E+03  0.12508795702E+03 0.  0.
          5    1    3    3  502    0 -0.11281589891E+02  0.39387594665E+02  0.11522961266E+02  0.42765733015E+02  0.41800000000E+01 0.  1.
         -5    1    3    3    0  502  0.19922509381E+02  0.73469779617E+01 -0.14370113716E+03  0.14532162154E+03  0.41800000000E+01 0.  1.
        -11    1    1    2    0    0  0.14680371446E+01  0.38056494870E+02 -0.99523598193E+02  0.10656171232E+03  0.00000000000E+00 0. -1.
         11    1    1    2    0    0 -0.10108956634E+02 -0.84791067497E+02 -0.38739315664E+03  0.39669279543E+03  0.00000000000E+00 0.  1.
</event>
<event>
 7    1  0.2733606E-009  0.8867097E+02  0.7561462E-02  0.1306102E+00
         -2   -1    0    0    0  501 -0.00000000000E+00  0.00000000000E+00  0.31156465957E+03  0.31156465957E+03  0.00000000000E+00 0.  1.
          2   -1    0    0  501    0  0.00000000000E+00 -0.00000000000E+00 -0.43972652337E+02  0.43972652337E+02  0.00000000000E+00 0. -1.
         25    2    1    2    0    0  0.40537459859E+02 -0.19896992086E+02  0.11520478987E+03  0.17595427556E+03  0.12509431455E+03 0.  0.
          5    1    3    3  502    0 -0.32111492421E+02  0.29773038197E+02  0.28978596595E+02  0.52676495798E+02  0.41800000000E+01 0. -1.
         -5    1    3    3    0  502  0.72648952280E+02 -0.49670030282E+02  0.86226193275E+02  0.12327777976E+03  0.41800000000E+01 0. -1.
        -11    1    1    2    0    0 -0.11922977046E+02  0.44192903736E+01 -0.85940519493E+01  0.15347483114E+02  0.00000000000E+00 0. -1.
         11    1    1    2    0    0 -0.28614482813E+02  0.15477701712E+02  0.16098126931E+03  0.16423555323E+03  0.00000000000E+00 0.  1.
</event>
<event>
 7    1  0.2733606E-009  0.8074012E+02  0.7561462E-02  0.1326964E+00
          3   -1    0    0  501    0  0.00000000000E+00  0.00000000000E+00  0.19995995005E+03  0.19995995005E+03  0.00000000000E+00 0. -1.
         -3   -1    0    0    0  501 -0.00000000000E+00 -0.00000000000E+00 -0.82311532167E+02  0.82311532167E+02  0.00000000000E+00 0.  1.
         25    2    1    2    0    0 -0.52695570457E+01 -0.31908641226E+01 -0.10496556413E+02  0.12568726187E+03  0.12509660369E+03 0.  0.
          5    1    3    3  502    0  0.40128769495E+02  0.99066103968E+01  0.39106126443E+02  0.57054540539E+02  0.41800000000E+01 0. -1.
         -5    1    3    3    0  502 -0.45398326541E+02 -0.13097474519E+02 -0.49602682856E+02  0.68632721336E+02  0.41800000000E+01 0. -1.
        -11    1    1    2    0    0 -0.11125812696E+02  0.34994475463E+02  0.18239452613E+02  0.41000910389E+02  0.00000000000E+00 0.  1.
         11    1    1    2    0    0  0.16395369742E+02 -0.31803611341E+02  0.10990552169E+03  0.11558330996E+03  0.00000000000E+00 0. -1.
</event>
<event>
 7    1  0.2733606E-009  0.1067795E+03  0.7561462E-02  0.1266653E+00
          1   -1    0    0  501    0  0.00000000000E+00  0.00000000000E+00  0.37915309250E+02  0.37915309250E+02  0.00000000000E+00 0. -1.
         -1   -1    0    0    0  501 -0.00000000000E+00 -0.00000000000E+00 -0.49165889732E+03  0.49165889732E+03  0.00000000000E+00 0.  1.
         25    2    1    2    0    0 -0.10896694585E+02 -0.82226197120E+02 -0.23620538645E+03  0.27986195764E+03  0.12509934172E+03 0.  0.
          5    1    3    3  502    0 -0.41094829155E+02 -0.40955409838E+01 -0.16407033106E+03  0.16923978366E+03  0.41800000000E+01 0. -1.
         -5    1    3    3    0  502  0.30198134570E+02 -0.78130656136E+02 -0.72135055390E+02  0.11062217398E+03  0.41800000000E+01 0. -1.
        -11    1    1    2    0    0 -0.10230324033E+02  0.19958273774E+02  0.27213401911E-01  0.22427504596E+02  0.00000000000E+00 0. -1.
         11    1    1    2    0    0  0.21127018618E+02  0.62267923346E+02 -0.21756541502E+03  0.22728474433E+03  0.00000000000E+00 0.  1.
</event>
<event>
 7    1  0.2733606E-009  0.9069186E+02  0.7561462E-02  0.1301185E+00
          2   -1    0    0  501    0  0.00000000000E+00  0.00000000000E+00  0.46916271078E+02  0.46916271078E+02  0.00000000000E+00 0. -1.
         -2   -1    0    0    0  501 -0.00000000000E+00 -0.00000000000E+00 -0.38167613361E+03  0.38167613361E+03  0.00000000000E+00 0.  1.
         25    2    1    2    0    0  0.48781184877E+02 -0.49217442087E+02 -0.12925327268E+03  0.19275913867E+03  0.12509083275E+03 0.  0.
          5    1    3    3  502    0  0.95337462846E+01 -0.18965648216E+02 -0.14018321395E+03  0.14184284968E+03  0.41800000000E+01 0.  1.
         -5    1    3    3    0  502  0.39247438593E+02 -0.30251793872E+02  0.10929941273E+02  0.50916288993E+02  0.41800000000E+01 0.  1.
        -11    1    1    2    0    0 -0.33931821199E+01 -0.23802449505E+02 -0.81242763805E+02  0.84725775051E+02  0.00000000000E+00 0. -1.
         11    1    1    2    0    0 -0.45388002757E+02  0.73019891592E+02 -0.12426382605E+03  0.15110749097E+03  0.00000000000E+00 0.  1.
</event>
<event>
 7    1  0.2733606E-009  0.1105158E+03  0.7561462E-02  0.1259618E+00
          2   -1    0    0  501    0  0.00000000000E+00  0.00000000000E+00  0.49441636506E+03  0.49441636506E+03  0.00000000000E+00 0.  1.
         -2   -1    0    0    0  501 -0.00000000000E+00 -0.00000000000E+00 -0.42269985499E+02  0.42269985499E+02  0.00000000000E+00 0. -1.
         25    2    1    2    0    0  0.76905370467E+02 -0.53468712959E+02  0.28062485845E+03  0.32120229230E+03  0.12508901681E+03 0.  0.
          5    1    3    3  502    0  0.56499336026E+01  0.18289432778E+02 -0.32163398711E+01  0.19855536840E+02  0.41800000000E+01 0.  1.
         -5    1    3    3    0  502  0.71255436865E+02 -0.71758145737E+02  0.28384119832E+03  0.30134675546E+03  0.41800000000E+01 0.  1.
        -11    1    1    2    0    0 -0.27650057851E+02  0.16750375144E+00 -0.16702380952E+01  0.27700964820E+02  0.00000000000E+00 0. -1.
         11    1    1    2    0    0 -0.49255312616E+02  0.53301209207E+02  0.17319175921E+03  0.18778309344E+03  0.00000000000E+00 0.  1.
</event>
<event>
 7    1  0.2733606E-009  0.9666339E+02  0.7561462E-02  0.1287473E+00
         -2   -1    0    0    0  501 -0.00000000000E+00  0.00000000000E+00  0.59298812471E+02  0.59298812471E+02  0.00000000000E+00 0.  1.
          2   -1    0    0  501    0  0.00000000000E+00 -0.00000000000E+00 -0.27627528895E+03  0.27627528895E+03  0.00000000000E+00 0. -1.
         25    2    1    2    0    0 -0.38818859226E+02  0.39226086743E+02 -0.16139141682E+03  0.21151628655E+03  0.12508541217E+03 0.  0.
          5    1    3    3  502    0 -0.15185299130E+02 -0.42427947058E+02 -0.88748418958E+02  0.99621675697E+02  0.41800000000E+01 0. -1.
         -5    1    3    3    0  502 -0.23633560096E+02  0.81654033801E+02 -0.72642997861E+02  0.11189461085E+03  0.41800000000E+01 0. -1.
        -11    1    1    2    0    0  0.23145262690E+00 -0.19725167258E+02  0.25456210294E+02  0.32204882180E+02  0.00000000000E+00 0.  1.
         11    1    1    2    0    0  0.38587406600E+02 -0.19500919485E+02 -0.81041269951E+02  0.91852932692E+02  0.00000000000E+00 0. -1.
</event>
<event>
 7    1  0.2733606E-009  0.1283538E+03  0.7561462E-02  0.1229919E+00
         -1   -1    0    0    0  501 -0.00000000000E+00  0.00000000000E+00  0.12853438678E+02  0.12853438678E+02  0.00000000000E+00 0.  1.
          1   -1    0    0  501    0  0.00000000000E+00 -0.00000000000E+00 -0.13488521274E+04  0.13488521274E+04  0.00000000000E+00 0. -1.
         25    2    1    2    0    0 -0.48630055347E+02  0.51539326303E+02 -0.76562030402E+03  0.77900113610E+03  0.12508851138E+03 0.  0.
          5    1    3    3  502    0 -0.86130337737E+02  0.50300579819E+02 -0.43908636288E+03  0.45029200512E+03  0.41800000000E+01 0. -1.
         -5    1    3    3    0  502  0.37500282391E+02  0.12387464841E+01 -0.32653394114E+03  0.32870913098E+03  0.41800000000E+01 0. -1.
        -11    1    1    2    0    0 -0.24636551802E+02 -0.36964757863E+02 -0.20165489893E+03  0.20648983333E+03  0.00000000000E+00 0.  1.
         11    1    1    2    0    0  0.73266607149E+02 -0.14574568440E+02 -0.36872348582E+03  0.37621459669E+03  0.00000000000E+00 0. -1.
</event>
<event>
 7    1  0.2733606E-009  0.8040573E+02  0.7561462E-02  0.1327904E+00
          1   -1    0    0  501    0  0.00000000000E+00  0.00000000000E+00  0.13175028908E+03  0.13175028908E+03  0.00000000000E+00 0. -1.
         -1   -1    0    0    0  501 -0.00000000000E+00 -0.00000000000E+00 -0.13545948349E+03  0.13545948349E+03  0.00000000000E+00 0.  1.
         25    2    1    2    0    0 -0.31439930957E+02 -0.59859545327E+02 -0.44308188266E+02  0.14893980171E+03  0.12509282377E+03 0.  0.
          5    1    3    3  502    0  0.58876117692E-01 -0.59676239865E+02  0.30873152962E+02  0.67319247208E+02  0.41800000000E+01 0. -1.
         -5    1    3    3    0  502 -0.31498807075E+02 -0.18330546181E+00 -0.75181341228E+02  0.81620554500E+02  0.41800000000E+01 0.  1.
        -11    1    1    2    0    0  0.64544560424E+01  0.27951268646E+02  0.64940947673E+02  0.70994789291E+02  0.00000000000E+00 0. -1.
         11    1    1    2    0    0  0.24985474915E+02  0.31908276681E+02 -0.24341953817E+02  0.47275181577E+02  0.00000000000E+00 0.  1.
</event>
<event>
 7    1  0.2733606E-009  0.1160120E+03  0.7561462E-02  0.1249825E+00
          1   -1    0    0  501    0  0.00000000000E+00  0.00000000000E+00  0.27861447732E+02  0.27861447732E+02  0.00000000000E+00 0. -1.
         -1   -1    0    0    0  501 -0.00000000000E+00 -0.00000000000E+00 -0.69412139113E+03  0.69412139113E+03  0.00000000000E+00 0.  1.
         25    2    1    2    0    0  0.65378185414E+02  0.32861110011E+02 -0.49303602836E+03  0.51389350463E+03  0.12509136325E+03 0.  0.
          5    1    3    3  502    0 -0.73270734012E+01 -0.23333048800E+02 -0.19640477844E+02  0.31643924233E+02  0.41800000000E+01 0.  1.
         -5    1    3    3    0  502  0.72705258816E+02  0.56194158811E+02 -0.47339555052E+03  0.48224958040E+03  0.41800000000E+01 0.  1.
        -11    1    1    2    0    0  0.22524221637E+02 -0.74893081219E+01 -0.32715046473E+02  0.40419111348E+02  0.00000000000E+00 0. -1.
         11    1    1    2    0    0 -0.87902407051E+02 -0.25371801889E+02 -0.14050886857E+03  0.16767022289E+03  0.00000000000E+00 0.  1.
</event>
<event>
 7    1  0.2733606E-009  0.2219592E+03  0.7561462E-02  0.1132431E+00
          1   -1    0    0  501    0  0.00000000000E+00  0.00000000000E+00  0.31582629447E+03  0.31582629447E+03  0.00000000000E+00 0. -1.
         -1   -1    0    0    0  501 -0.00000000000E+00 -0.00000000000E+00 -0.16586329203E+03  0.16586329203E+03  0.00000000000E+00 0.  1.
         25    2    1    2    0    0 -0.17875506832E+03  0.91660154846E+02  0.88022033821E+02  0.25249668122E+03  0.12510690290E+03 0.  0.
          5    1    3    3  502    0 -0.16934069548E+03  0.11926889523E+03  0.75942238090E+02  0.22064912517E+03  0.41800000000E+01 0.  1.
         -5    1    3    3    0  502 -0.94143728391E+01 -0.27608740380E+02  0.12079795730E+02  0.31847556047E+02  0.41800000000E+01 0.  1.
        -11    1    1    2    0    0  0.14365154737E+03 -0.48432087404E+02  0.79009126020E+02  0.17094992292E+03  0.00000000000E+00 0.  1.
         11    1    1    2    0    0  0.35103520942E+02 -0.43228067442E+02 -0.17068157395E+02  0.58242982360E+02  0.00000000000E+00 0. -1.
</event>
<event>
 7    1  0.2733606E-009  0.1768777E+03  0.7561462E-02  0.1170859E+00
         -1   -1    0    0    0  501 -0.00000000000E+00  0.00000000000E+00  0.48624298307E+02  0.48624298307E+02  0.00000000000E+00 0.  1.
          1   -1    0    0  501    0  0.00000000000E+00 -0.00000000000E+00 -0.72105263894E+03  0.72105263894E+03  0.00000000000E+00 0. -1.
         25    2    1    2    0    0  0.15210055892E+03  0.57329867201E+01 -0.36477560887E+03  0.41457768923E+03  0.12508384557E+03 0.  0.
          5    1    3    3  502    0  0.11960888756E+03  0.56122565684E+02 -0.28950434541E+03  0.31825503417E+03  0.41800000000E+01 0.  1.
         -5    1    3    3    0  502  0.32491671364E+02 -0.50389578964E+02 -0.75271263459E+02  0.96322655066E+02  0.41800000000E+01 0.  1.
        -11    1    1    2    0    0 -0.59065483487E+02 -0.28653657095E+02 -0.20232725090E+03  0.21271125936E+03  0.00000000000E+00 0. -1.
         11    1    1    2    0    0 -0.93035075437E+02  0.22920670375E+02 -0.10532548087E+03  0.14238798865E+03  0.00000000000E+00 0.  1.
</event>
<event>
 7    1  0.2733606E-009  0.1619663E+03  0.7561462E-02  0.1186494E+00
         -1   -1    0    0    0  501 -0.00000000000E+00  0.00000000000E+00  0.86769030291E+02  0.86769030291E+02  0.00000000000E+00 0.  1.
          1   -1    0    0  501    0  0.00000000000E+00 -0.00000000000E+00 -0.39767164164E+03  0.39767164164E+03  0.00000000000E+00 0. -1.
         25    2    1    2    0    0 -0.12999039108E+03 -0.19026332883E+02 -0.25828493003E+03  0.31562287509E+03  0.12508873284E+03 0.  0.
          5    1    3    3  502    0 -0.99720889959E+02 -0.62725903827E+02 -0.12377159905E+03  0.17092593728E+03  0.41800000000E+01 0.  1.
         -5    1    3    3    0  502 -0.30269501121E+02  0.43699570944E+02 -0.13451333098E+03  0.14469693781E+03  0.41800000000E+01 0.  1.
        -11    1    1    2    0    0  0.88997816276E+02 -0.25128379015E+02 -0.60601947650E+01  0.92675631610E+02  0.00000000000E+00 0.  1.
         11    1    1    2    0    0  0.40992574804E+02  0.44154711897E+02 -0.46557486553E+02  0.76142165231E+02  0.00000000000E+00 0. -1.
</event>
<event>
 7    1  0.2733606E-009  0.2685194E+03  0.7561462E-02  0.1102130E+00
          2   -1    0    0  501    0  0.00000000000E+00  0.00000000000E+00  0.17316173969E+04  0.17316173969E+04  0.00000000000E+00 0. -1.
         -2   -1    0    0    0  501 -0.00000000000E+00 -0.00000000000E+00 -0.54574699235E+02  0.54574699235E+02  0.00000000000E+00 0.  1.
         25    2    1    2    0    0  0.10381754064E+03  0.23629834238E+03  0.48257333517E+03  0.56137041821E+03  0.12507891216E+03 0.  0.
          5    1    3    3  502    0 -0.38764876085E+01  0.10133261704E+03  0.26370159690E+03  0.28255854445E+03  0.41800000000E+01 0. -1.
         -5    1    3    3    0  502  0.10769402825E+03  0.13496572534E+03  0.21887173827E+03  0.27881187376E+03  0.41800000000E+01 0. -1.
        -11    1    1    2    0    0 -0.98510189706E+02 -0.17123423445E+03  0.10101038888E+04  0.10292401501E+04  0.00000000000E+00 0.  1.
         11    1    1    2    0    0 -0.53073509328E+01 -0.65064107932E+02  0.18436547376E+03  0.19558152783E+03  0.00000000000E+00 0. -1.
</event>
<event>
 7    1  0.2733606E-009  0.6436304E+02  0.7561462E-02  0.1380384E+00
         -2   -1    0    0    0  501 -0.00000000000E+00  0.00000000000E+00  0.78936190964E+02  0.78936190964E+02  0.00000000000E+00 0.  1.
          2   -1    0    0  501    0  0.00000000000E+00 -0.00000000000E+00 -0.17829749892E+03  0.17829749892E+03  0.00000000000E+00 0. -1.
         25    2    1    2    0    0 -0.34738623564E+01  0.23434938596E+02 -0.12378278062E+02  0.12791201379E+03  0.12508795880E+03 0.  0.
          5    1    3    3  502    0  0.14392192363E+02  0.26429041322E+02 -0.65190584239E+02  0.71922973379E+02  0.41800000000E+01 0. -1.
         -5    1    3    3    0  502 -0.17866054720E+02 -0.29941027268E+01  0.52812306177E+02  0.55989040410E+02  0.41800000000E+01 0. -1.
        -11    1    1    2    0    0  0.26692988396E+02  0.18042002069E+02 -0.24132371241E+01  0.32308716805E+02  0.00000000000E+00 0.  1.
         11    1    1    2    0    0 -0.23219126040E+02 -0.41476940664E+02 -0.84569792767E+02  0.97012959286E+02  0.00000000000E+00 0. -1.
</event>
<event>
 7    1  0.2733606E-009  0.8982820E+02  0.7561462E-02  0.1303268E+00
          1   -1    0    0  501    0  0.00000000000E+00  0.00000000000E+00  0.18038458699E+03  0.18038458699E+03  0.00000000000E+00 0. -1.
         -1   -1    0    0    0  501 -0.00000000000E+00 -0.00000000000E+00 -0.72713304895E+02  0.72713304895E+02  0.00000000000E+00 0.  1.
         25    2    1    2    0    0 -0.12274533223E+02 -0.30305480022E+02  0.50780825451E+02  0.13891983959E+03  0.12510373021E+03 0.  0.
          5    1    3    3  502    0  0.12306029402E+02  0.20383438084E+02  0.73997112063E+02  0.77845795657E+02  0.41800000000E+01 0.  1.
         -5    1    3    3    0  502 -0.24580562625E+02 -0.50688918106E+02 -0.23216286612E+02  0.61074043928E+02  0.41800000000E+01 0.  1.
        -11    1    1    2    0    0  0.53077307319E+02  0.12834590772E+02  0.30966097018E+02  0.62776002079E+02  0.00000000000E+00 0. -1.
         11    1    1    2    0    0 -0.40802774096E+02  0.17470889249E+02  0.25924359629E+02  0.51402050224E+02  0.00000000000E+00 0.  1.
</event>
<event>
 7    1  0.2733606E-009  0.1105521E+03  0.7561462E-02  0.1259551E+00
         -1   -1    0    0    0  501 -0.00000000000E+00  0.00000000000E+00  0.37261481297E+02  0.37261481297E+02  0.00000000000E+00 0.  1.
          1   -1    0    0  501    0  0.00000000000E+00 -0.00000000000E+00 -0.43556823963E+03  0.43556823963E+03  0.00000000000E+00 0. -1.
         25    2    1    2    0    0 -0.25759575604E+02 -0.59586674466E+02 -0.19106919517E+03  0.23742297495E+03  0.12509238260E+03 0.  0.
          5    1    3    3  502    0 -0.17970010099E+02  0.36517007503E+02 -0.82983035640E+02  0.92520644744E+02  0.41800000000E+01 0. -1.
         -5    1    3    3    0  502 -0.77895655052E+01 -0.96103681969E+02 -0.10808615953E+03  0.14490233021E+03  0.41800000000E+01 0. -1.
        -11    1    1    2    0    0  0.11711124627E+02 -0.83016387245E+01  0.24440600262E+01  0.14561630230E+02  0.00000000000E+00 0.  1.
         11    1    1    2    0    0  0.14048450977E+02  0.67888313191E+02 -0.20968162320E+03  0.22084511575E+03  0.00000000000E+00 0. -1.
</event>
<event>
 7    1  0.2733606E-009  0.1033689E+03  0.7561462E-02  0.1273367E+00
         -2   -1    0    0    0  501 -0.00000000000E+00  0.00000000000E+00  0.51636748295E+03  0.51636748295E+03  0.00000000000E+00 0.  1.
          2   -1    0    0  501    0  0.00000000000E+00 -0.00000000000E+00 -0.40717937625E+02  0.40717937625E+02  0.00000000000E+00 0. -1.
         25    2    1    2    0    0  0.31838664471E+01 -0.90358765533E+02  0.33220427974E+03  0.36630950226E+03  0.12509246362E+03 0.  0.
          5    1    3    3  502    0  0.86713690530E+01  0.10952835617E+02  0.19536366114E+03  0.19590709467E+03  0.41800000000E+01 0.  1.
         -5    1    3    3    0  502 -0.54875026059E+01 -0.10131160115E+03  0.13684061860E+03  0.17040240759E+03  0.41800000000E+01 0.  1.
        -11    1    1    2    0    0 -0.47460586698E+01  0.51081341533E+02  0.14250311234E+03  0.15145615059E+03  0.00000000000E+00 0. -1.
         11    1    1    2    0    0  0.15621922227E+01  0.39277424000E+02  0.94215323986E+00  0.39319767718E+02  0.00000000000E+00 0.  1.
</event>
<event>
 7    1  0.2733606E-009  0.1778376E+03  0.7561462E-02  0.1169912E+00
          2   -1    0    0  501    0  0.00000000000E+00  0.00000000000E+00  0.82333901520E+03  0.82333901520E+03  0.00000000000E+00 0. -1.
         -2   -1    0    0    0  501 -0.00000000000E+00 -0.00000000000E+00 -0.46303472594E+02  0.46303472594E+02  0.00000000000E+00 0.  1.
         25    2    1    2    0    0 -0.55438506870E+02 -0.13651371221E+03  0.56081464289E+03  0.59318581883E+03  0.12508769051E+03 0.  0.
          5    1    3    3  502    0 -0.45582649537E+02  0.79305387556E+01  0.17559800349E+03  0.18163921001E+03  0.41800000000E+01 0. -1.
         -5    1    3    3    0  502 -0.98558573331E+01 -0.14444425097E+03  0.38521663940E+03  0.41154660882E+03  0.41800000000E+01 0. -1.
        -11    1    1    2    0    0  0.96784802204E+01  0.11209351171E+03  0.18313272640E+03  0.21493306825E+03  0.00000000000E+00 0. -1.
         11    1    1    2    0    0  0.45760026650E+02  0.24420200503E+02  0.33088173312E+02  0.61523600713E+02  0.00000000000E+00 0.  1.
</event>
<event>
 7    1  0.2733606E-009  0.1053200E+03  0.7561462E-02  0.1269490E+00
         -4   -1    0    0    0  501 -0.00000000000E+00  0.00000000000E+00  0.12222494406E+02  0.12222494406E+02  0.00000000000E+00 0.  1.
          4   -1    0    0  501    0  0.00000000000E+00 -0.00000000000E+00 -0.12466578692E+04  0.12466578692E+04  0.00000000000E+00 0. -1.
         25    2    1    2    0    0 -0.26105869871E+02 -0.41609714671E+02 -0.82845459606E+03  0.83928327672E+03  0.12508603463E+03 0.  0.
          5    1    3    3  502    0  0.37776934440E+02 -0.28416110862E+02 -0.14191992604E+03  0.14964394388E+03  0.41800000000E+01 0.  1.
         -5    1    3    3    0  502 -0.63882804312E+02 -0.13193603809E+02 -0.68653467002E+03  0.68963933285E+03  0.41800000000E+01 0.  1.
        -11    1    1    2    0    0 -0.91264500296E+01 -0.22713895295E+02 -0.44860069646E+02  0.51104197266E+02  0.00000000000E+00 0.  1.
         11    1    1    2    0    0  0.35232319901E+02  0.64323609965E+02 -0.36112070908E+03  0.36849288960E+03  0.00000000000E+00 0. -1.
</event>
<event>
 7    1  0.3381435E-009  0.9269275E+02  0.7561462E-02  0.1296459E+00
         -3   -1    0    0    0  501 -0.00000000000E+00  0.00000000000E+00  0.10299545662E+03  0.10299545662E+03  0.00000000000E+00 0.  1.
          3   -1    0    0  501    0  0.00000000000E+00 -0.00000000000E+00 -0.15145693346E+03  0.15145693346E+03  0.00000000000E+00 0. -1.
         25    2    1    2    0    0 -0.61506409894E+02 -0.36012342157E+01 -0.36584311833E+02  0.14416931306E+03  0.12510144528E+03 0.  0.
          5    1    3    3  502    0  0.12793382149E+02  0.10946999705E+02  0.35522088172E+02  0.39532247311E+02  0.41800000000E+01 0.  1.
         -5    1    3    3    0  502 -0.74299792042E+02 -0.14548233921E+02 -0.72106400004E+02  0.10463706575E+03  0.41800000000E+01 0.  1.
        -11    1    1    2    0    0  0.56325080176E+01 -0.27631662809E+02  0.23888476911E+02  0.36957993253E+02  0.00000000000E+00 0.  1.
         11    1    1    2    0    0  0.55873901876E+02  0.31232897025E+02 -0.35765641918E+02  0.73325083766E+02  0.00000000000E+00 0. -1.
</event>
<event>
 7    1  0.2733606E-009  0.1442776E+03  0.7561462E-02  0.1207686E+00
          3   -1    0    0  501    0  0.00000000000E+00  0.00000000000E+00  0.17056779215E+03  0.17056779215E+03  0.00000000000E+00 0. -1.
         -3   -1    0    0    0  501 -0.00000000000E+00 -0.00000000000E+00 -0.20442820409E+03  0.20442820409E+03  0.00000000000E+00 0.  1.
         25    2    1    2    0    0 -0.92312118863E+02  0.86201722671E+02 -0.10344130504E+03  0.20566912818E+03  0.12508965751E+03 0.  0.
          5    1    3    3  502    0 -0.94447823506E+02  0.70301079419E+02 -0.18660521593E+02  0.11928252428E+03  0.41800000000E+01 0.  1.
         -5    1    3    3    0  502  0.21357046433E+01  0.15900643252E+02 -0.84780783452E+02  0.86386603897E+02  0.41800000000E+01 0.  1.
        -11    1    1    2    0    0  0.26353350884E+02 -0.84140998134E+02  0.35439239630E+02  0.95027082325E+02  0.00000000000E+00 0.  1.
         11    1    1    2    0    0  0.65958767979E+02 -0.20607245376E+01  0.34141653474E+02  0.74299785739E+02  0.00000000000E+00 0. -1.
</event>
<event>
 7    1  0.2733606E-009  0.1238247E+03  0.7561462E-02  0.1236918E+00
         -2   -1    0    0    0  501 -0.00000000000E+00  0.00000000000E+00  0.33644122110E+02  0.33644122110E+02  0.00000000000E+00 0.  1.
          2   -1    0    0  501    0  0.00000000000E+00 -0.00000000000E+00 -0.57647497932E+03  0.57647497932E+03  0.00000000000E+00 0. -1.
         25    2    1    2    0    0 -0.33414238568E+02  0.35963584790E+02 -0.16298311632E+03  0.21123397489E+03  0.12508559137E+03 0.  0.
          5    1    3    3  502    0 -0.45606143756E+02  0.74923179253E+02 -0.80590219024E+02  0.11918749490E+03  0.41800000000E+01 0.  1.
         -5    1    3    3    0  502  0.12191905188E+02 -0.38959594463E+02 -0.82392897298E+02  0.92046479987E+02  0.41800000000E+01 0.  1.
        -11    1    1    2    0    0  0.18336400522E+02  0.38597326741E+02 -0.18119761021E+03  0.18616807235E+03  0.00000000000E+00 0. -1.
         11    1    1    2    0    0  0.15077838046E+02 -0.74560911531E+02 -0.19865013068E+03  0.21271705420E+03  0.00000000000E+00 0.  1.
</event>
<event>
 7    1  0.2733606E-009  0.1058155E+03  0.7561462E-02  0.1268521E+00
         -2   -1    0    0    0  501 -0.00000000000E+00  0.00000000000E+00  0.95211936287E+02  0.95211936287E+02  0.00000000000E+00 0.  1.
          2   -1    0    0  501    0  0.00000000000E+00 -0.00000000000E+00 -0.17257574542E+03  0.17257574542E+03  0.00000000000E+00 0. -1.
         25    2    1    2    0    0 -0.27362141428E+02  0.49603883255E+02  0.13924931593E+01  0.13732935198E+03  0.12509268508E+03 0.  0.
          5    1    3    3  502    0  0.27253873222E+02  0.72337204611E+02 -0.55813079779E+01  0.77614870839E+02  0.41800000000E+01 0.  1.
         -5    1    3    3    0  502 -0.54616014650E+02 -0.22733321356E+02  0.69738011372E+01  0.59714481145E+02  0.41800000000E+01 0.  1.
        -11    1    1    2    0    0  0.12546921989E+02 -0.56991380672E+02 -0.93444608753E+01  0.59099591127E+02  0.00000000000E+00 0.  1.
         11    1    1    2    0    0  0.14815219439E+02  0.73874974174E+01 -0.69411841416E+02  0.71358738595E+02  0.00000000000E+00 0. -1.
</event>
<event>
 7    1  0.2733606E-009  0.6607428E+02  0.7561462E-02  0.1373975E+00
         -2   -1    0    0    0  501 -0.00000000000E+00  0.00000000000E+00  0.19033791931E+02  0.19033791931E+02  0.00000000000E+00 0. -1.
          2   -1    0    0  501    0  0.00000000000E+00 -0.00000000000E+00 -0.69390476060E+03  0.69390476060E+03  0.00000000000E+00 0.  1.
         25    2    1    2    0    0  0.96343019511E+01  0.34921699732E+02 -0.45615419002E+03  0.47437983923E+03  0.12508893600E+03 0.  0.
          5    1    3    3  502    0 -0.76927614106E+01  0.91077365266E+01 -0.43790674256E+03  0.43808893734E+03  0.41800000000E+01 0.  1.
         -5    1    3    3    0  502  0.17327063362E+02  0.25813963205E+02 -0.18247447461E+02  0.36290901889E+02  0.41800000000E+01 0.  1.
        -11    1    1    2    0    0  0.34215858477E+02 -0.39125777229E+01 -0.13316596774E+03  0.13754711265E+03  0.00000000000E+00 0.  1.
         11    1    1    2    0    0 -0.43850160428E+02 -0.31009122009E+02 -0.85550810906E+02  0.10101160064E+03  0.00000000000E+00 0. -1.
</event>
<event>
 7    1  0.2733606E-009  0.1179282E+03  0.7561462E-02  0.1246554E+00
          2   -1    0    0  501    0  0.00000000000E+00  0.00000000000E+00  0.25602621328E+03  0.25602621328E+03  0.00000000000E+00 0. -1.
         -2   -1    0    0    0  501 -0.00000000000E+00 -0.00000000000E+00 -0.67808659012E+02  0.67808659012E+02  0.00000000000E+00 0.  1.
         25    2    1    2    0    0 -0.27774123027E+02 -0.34835766802E+02  0.13806394872E+03  0.19155619674E+03  0.12508872856E+03 0.  0.
          5    1    3    3  502    0 -0.34325679696E+02  0.38328030601E+02  0.89747807433E+02  0.10353468769E+03  0.41800000000E+01 0. -1.
         -5    1    3    3    0  502  0.65515566686E+01 -0.73163797403E+02  0.48316141290E+02  0.88021509044E+02  0.41800000000E+01 0. -1.
        -11    1    1    2    0    0 -0.38292587298E+02  0.68050984280E+01  0.46216453156E+02  0.60403577285E+02  0.00000000000E+00 0.  1.
         11    1    1    2    0    0  0.66066710325E+02  0.28030668374E+02  0.39371523900E+01  0.71875098272E+02  0.00000000000E+00 0. -1.
</event>
<event>
 7    1  0.2733606E-009  0.1008268E+03  0.7561462E-02  0.1278567E+00
          3   -1    0    0  501    0  0.00000000000E+00  0.00000000000E+00  0.14058515231E+03  0.14058515231E+03  0.00000000000E+00 0. -1.
         -3   -1    0    0    0  501 -0.00000000000E+00 -0.00000000000E+00 -0.96477564063E+02  0.96477564063E+02  0.00000000000E+00 0.  1.
         25    2    1    2    0    0 -0.14451627617E+02  0.37465153849E+01 -0.15023086800E+02  0.12687074899E+03  0.12509039888E+03 0.  0.
          5    1    3    3  502    0 -0.59426276269E+02 -0.12429295976E+02 -0.39956778419E+02  0.72801004467E+02  0.41800000000E+01 0. -1.
         -5    1    3    3    0  502  0.44974648653E+02  0.16175811361E+02  0.24933691620E+02  0.54069744519E+02  0.41800000000E+01 0. -1.
        -11    1    1    2    0    0  0.45004804064E+02  0.24473302523E+02  0.29382942651E+02  0.59057025357E+02  0.00000000000E+00 0.  1.
         11    1    1    2    0    0 -0.30553176447E+02 -0.28219817908E+02  0.29747732396E+02  0.51134942031E+02  0.00000000000E+00 0. -1.
</event>
<event>
 7    1  0.2733606E-009  0.1803314E+03  0.7561462E-02  0.1167483E+00
         -2   -1    0    0    0  501 -0.00000000000E+00  0.00000000000E+00  0.22297016922E+02  0.22297016922E+02  0.00000000000E+00 0.  1.
          2   -1    0    0  501    0  0.00000000000E+00 -0.00000000000E+00 -0.15792091517E+04  0.15792091517E+04  0.00000000000E+00 0. -1.
         25    2    1    2    0    0 -0.99203842108E+02  0.10873488275E+03 -0.64498821423E+03  0.67329179159E+03  0.12508942042E+03 0.  0.
          5    1    3    3  502    0 -0.61093312682E+02  0.13335545931E+03 -0.46369545267E+03  0.48636099413E+03  0.41800000000E+01 0.  1.
         -5    1    3    3    0  502 -0.38110529426E+02 -0.24620576558E+02 -0.18129276156E+03  0.18693079745E+03  0.41800000000E+01 0.  1.
        -11    1    1    2    0    0 -0.14660463505E+02 -0.11848049917E+02 -0.50303427537E+02  0.53719086915E+02  0.00000000000E+00 0.  1.
         11    1    1    2    0    0  0.11386430561E+03 -0.96886832837E+02 -0.86162049298E+03  0.87449529009E+03  0.00000000000E+00 0. -1.
</event>
<event>
 7    1  0.2733606E-009  0.1031323E+03  0.7561462E-02  0.1273844E+00
         -2   -1    0    0    0  501 -0.00000000000E+00  0.00000000000E+00  0.34000436669E+02  0.34000436669E+02  0.00000000000E+00 0.  1.
          2   -1    0    0  501    0  0.00000000000E+00 -0.00000000000E+00 -0.40206314718E+03  0.40206314718E+03  0.00000000000E+00 0. -1.
         25    2    1    2    0    0  0.39209391704E+02  0.14303222607E+02 -0.21249270400E+03  0.25007809963E+03  0.12507576938E+03 0.  0.
          5    1    3    3  502    0  0.27075255287E+02 -0.41203754625E+02 -0.27707448867E+02  0.56709734321E+02  0.41800000000E+01 0. -1.
         -5    1    3    3    0  502  0.12134136418E+02  0.55506977232E+02 -0.18478525513E+03  0.19336836531E+03  0.41800000000E+01 0. -1.
        -11    1    1    2    0    0 -0.63885682510E+02  0.10594925562E+02 -0.81971823673E+02  0.10446536629E+03  0.00000000000E+00 0.  1.
         11    1    1    2    0    0  0.24676290806E+02 -0.24898148169E+02 -0.73598182844E+02  0.81520117935E+02  0.00000000000E+00 0. -1.
</event>
<event>
 7    1  0.2733606E-009  0.8145657E+02  0.7561462E-02  0.1324968E+00
         -2   -1    0    0    0  501 -0.00000000000E+00  0.00000000000E+00  0.35549844900E+02  0.35549844900E+02  0.00000000000E+00 0.  1.
          2   -1    0    0  501    0  0.00000000000E+00 -0.00000000000E+00 -0.42590213971E+03  0.42590213971E+03  0.00000000000E+00 0. -1.
         25    2    1    2    0    0  0.41716983112E+02 -0.36808028855E+02 -0.22629671067E+03  0.26448570399E+03  0.12508936279E+03 0.  0.
          5    1    3    3  502    0  0.45108394468E+02 -0.33993632665E+01 -0.11261319343E+02  0.46803980979E+02  0.41800000000E+01 0.  1.
         -5    1    3    3    0  502 -0.33914113562E+01 -0.33408665588E+02 -0.21503539133E+03  0.21768172301E+03  0.41800000000E+01 0.  1.
        -11    1    1    2    0    0 -0.13046600629E+02 -0.17739995347E+02 -0.11799144455E+03  0.12002875576E+03  0.00000000000E+00 0. -1.
         11    1    1    2    0    0 -0.28670382483E+02  0.54548024201E+02 -0.46064139590E+02  0.76937524864E+02  0.00000000000E+00 0.  1.
</event>
<event>
 7    1  0.2733606E-009  0.8851588E+02  0.7561462E-02  0.1306486E+00
         -2   -1    0    0    0  501 -0.00000000000E+00  0.00000000000E+00  0.39745232988E+02  0.39745232988E+02  0.00000000000E+00 0.  1.
          2   -1    0    0  501    0  0.00000000000E+00 -0.00000000000E+00 -0.37616602590E+03  0.37616602590E+03  0.00000000000E+00 0. -1.
         25    2    1    2    0    0  0.26682919563E+02  0.52669644246E+02 -0.21503615640E+03  0.25568249578E+03  0.12508765115E+03 0.  0.
          5    1    3    3  502    0 -0.25899208694E+02  0.41506186574E+02 -0.18999020489E+03  0.19623272635E+03  0.41800000000E+01 0. -1.
         -5    1    3    3    0  502  0.52582128257E+02  0.11163457672E+02 -0.25045951512E+02  0.59449769439E+02  0.41800000000E+01 0. -1.
        -11    1    1    2    0    0 -0.22629095641E+02 -0.14949693773E+01  0.55147103118E+01  0.23339300178E+02  0.00000000000E+00 0.  1.
         11    1    1    2    0    0 -0.40538239220E+01 -0.51174674869E+02 -0.12689934682E+03  0.13688946293E+03  0.00000000000E+00 0. -1.
</event>
<event>
 7    1  0.2733606E-009  0.1340232E+03  0.7561462E-02  0.1221605E+00
         -1   -1    0    0    0  501 -0.00000000000E+00  0.00000000000E+00  0.67788288970E+03  0.67788288970E+03  0.00000000000E+00 0.  1.
          1   -1    0    0  501    0  0.00000000000E+00 -0.00000000000E+00 -0.31463595372E+02  0.31463595372E+02  0.00000000000E+00 0. -1.
         25    2    1    2    0    0 -0.92882743988E+02 -0.38466884666E+02  0.34868435946E+03  0.38384226107E+03  0.12508874251E+03 0.  0.
          5    1    3    3  502    0 -0.10393836876E+03  0.12313119371E+02  0.26837921791E+03  0.28809664076E+03  0.41800000000E+01 0. -1.
         -5    1    3    3    0  502  0.11055624775E+02 -0.50780004037E+02  0.80305141554E+02  0.95745620313E+02  0.41800000000E+01 0. -1.
        -11    1    1    2    0    0  0.63796753222E+02  0.10980360718E+01  0.25095725377E+03  0.25894164328E+03  0.00000000000E+00 0.  1.
         11    1    1    2    0    0  0.29085990766E+02  0.37368848594E+02  0.46777681103E+02  0.66562580730E+02  0.00000000000E+00 0. -1.
</event>
<event>
 7    1  0.3443520E-009  0.1709345E+03  0.7561462E-02  0.1176877E+00
         -1   -1    0    0    0  501 -0.00000000000E+00  0.00000000000E+00  0.82311801248E+02  0.82311801248E+02  0.00000000000E+00 0.  1.
          1   -1    0    0  501    0  0.00000000000E+00 -0.00000000000E+00 -0.42086200826E+03  0.42086200826E+03  0.00000000000E+00 0. -1.
         25    2    1    2    0    0 -0.10112849224E+03 -0.10807539383E+03 -0.14059272591E+03  0.23941742571E+03  0.12508847453E+03 0.  0.
          5    1    3    3  502    0 -0.11332691259E+03 -0.12580745764E+03 -0.13550707277E+03  0.21691045315E+03  0.41800000000E+01 0.  1.
         -5    1    3    3    0  502  0.12198420350E+02  0.17732063811E+02 -0.50856531393E+01  0.22506972561E+02  0.41800000000E+01 0.  1.
        -11    1    1    2    0    0  0.54069968278E+02  0.37723285525E+02 -0.23750676282E+02  0.70076403762E+02  0.00000000000E+00 0.  1.
         11    1    1    2    0    0  0.47058523959E+02  0.70352108307E+02 -0.17420680482E+03  0.19367998003E+03  0.00000000000E+00 0. -1.
</event>
<event>
 7    1  0.2733606E-009  0.7890909E+02  0.7561462E-02  0.1332176E+00
          2   -1    0    0  501    0  0.00000000000E+00  0.00000000000E+00  0.42734459420E+03  0.42734459420E+03  0.00000000000E+00 0. -1.
         -2   -1    0    0    0  501 -0.00000000000E+00 -0.00000000000E+00 -0.30612427726E+02  0.30612427726E+02  0.00000000000E+00 0.  1.
         25    2    1    2    0    0 -0.34698569830E+02 -0.52704388682E+01  0.26519303116E+03  0.29530946816E+03  0.12509424421E+03 0.  0.
          5    1    3    3  502    0 -0.24638169536E+02 -0.35414465029E+02  0.19489380306E+02  0.47524015783E+02  0.41800000000E+01 0.  1.
         -5    1    3    3    0  502 -0.10060400294E+02  0.30144026161E+02  0.24570365085E+03  0.24778545238E+03  0.41800000000E+01 0.  1.
        -11    1    1    2    0    0  0.24628635007E+01 -0.32598134559E+02  0.15053885467E+02  0.35990603510E+02  0.00000000000E+00 0.  1.
         11    1    1    2    0    0  0.32235706329E+02  0.37868573427E+02  0.11648524985E+03  0.12665695025E+03  0.00000000000E+00 0. -1.
</event>
<event>
 7    1  0.2733606E-009  0.1099939E+03  0.7561462E-02  0.1260581E+00
         -2   -1    0    0    0  501 -0.00000000000E+00  0.00000000000E+00  0.61993410138E+02  0.61993410138E+02  0.00000000000E+00 0.  1.
          2   -1    0    0  501    0  0.00000000000E+00 -0.00000000000E+00 -0.26895628203E+03  0.26895628203E+03  0.00000000000E+00 0. -1.
         25    2    1    2    0    0 -0.47800209427E+02  0.50890875074E+02 -0.11046952470E+03  0.18090203717E+03  0.12508912814E+03 0.  0.
          5    1    3    3  502    0 -0.38438291643E+02 -0.16028738389E+02  0.97085198746E+01  0.42966853235E+02  0.41800000000E+01 0.  1.
         -5    1    3    3    0  502 -0.93619177845E+01  0.66919613463E+02 -0.12017804457E+03  0.13793518394E+03  0.41800000000E+01 0.  1.
        -11    1    1    2    0    0  0.56191375440E+02  0.26340155990E+01 -0.28355984183E+02  0.62995797884E+02  0.00000000000E+00 0. -1.
         11    1    1    2    0    0 -0.83911660125E+01 -0.53524890673E+02 -0.68137363009E+02  0.87051857110E+02  0.00000000000E+00 0.  1.
</event>
<event>
 7    1  0.2733606E-009  0.1160901E+03  0.7561462E-02  0.1249690E+00
          1   -1    0    0  501    0  0.00000000000E+00  0.00000000000E+00  0.11896742527E+04  0.11896742527E+04  0.00000000000E+00 0. -1.
         -1   -1    0    0    0  501 -0.00000000000E+00 -0.00000000000E+00 -0.28406789625E+02  0.28406789625E+02  0.00000000000E+00 0.  1.
         25    2    1    2    0    0 -0.39797188185E+02 -0.38853665626E+02  0.10668391959E+04  0.10755871888E+04  0.12509399391E+03 0.  0.
          5    1    3    3  502    0 -0.52040205398E+02  0.33766715751E+02  0.55198570918E+03  0.55547643479E+03  0.41800000000E+01 0.  1.
         -5    1    3    3    0  502  0.12243017213E+02 -0.72620381377E+02  0.51485348670E+03  0.52011075400E+03  0.41800000000E+01 0.  1.
        -11    1    1    2    0    0 -0.23268082128E+02  0.19249971513E+02  0.39195329020E+01  0.30452057194E+02  0.00000000000E+00 0.  1.
         11    1    1    2    0    0  0.63065270313E+02  0.19603694113E+02  0.90508734285E+02  0.11204179633E+03  0.00000000000E+00 0. -1.
</event>
<event>
 7    1  0.2733606E-009  0.9153976E+02  0.7561462E-02  0.1299165E+00
          3   -1    0    0  501    0  0.00000000000E+00  0.00000000000E+00  0.54201274323E+03  0.54201274323E+03  0.00000000000E+00 0. -1.
         -3   -1    0    0    0  501 -0.00000000000E+00 -0.00000000000E+00 -0.39077828827E+02  0.39077828827E+02  0.00000000000E+00 0.  1.
         25    2    1    2    0    0 -0.42188595280E+02  0.52876285044E+02  0.13522625374E+03  0.19624153948E+03  0.12509525581E+03 0.  0.
          5    1    3    3  502    0 -0.21001057335E+01  0.22976674367E+01  0.13134776140E+03  0.13145111846E+03  0.41800000000E+01 0.  1.
         -5    1    3    3    0  502 -0.40088489546E+02  0.50578617607E+02  0.38784923397E+01  0.64790421021E+02  0.41800000000E+01 0.  1.
        -11    1    1    2    0    0  0.18677156173E+02 -0.77162705584E+02  0.24298660577E+03  0.25562748264E+03  0.00000000000E+00 0.  1.
         11    1    1    2    0    0  0.23511439107E+02  0.24286420540E+02  0.12472205488E+03  0.12922154993E+03  0.00000000000E+00 0. -1.
</event>
<event>
 7    1  0.2804311E-009  0.1006992E+03  0.7561462E-02  0.1278832E+00
         -4   -1    0    0    0  501 -0.00000000000E+00  0.00000000000E+00  0.68118193397E+03  0.68118193397E+03  0.00000000000E+00 0. -1.
          4   -1    0    0  501    0  0.00000000000E+00 -0.00000000000E+00 -0.28732835577E+02  0.28732835577E+02  0.00000000000E+00 0.  1.
         25    2    1    2    0    0  0.55803856440E+02  0.29788840020E+02  0.51364196579E+03  0.53242574908E+03  0.12509062266E+03 0.  0.
          5    1    3    3  502    0 -0.28445634946E+02  0.43996304351E+02  0.15291575759E+03  0.16169579544E+03  0.41800000000E+01 0. -1.
         -5    1    3    3    0  502  0.84249491386E+02 -0.14207464331E+02  0.36072620820E+03  0.37072995364E+03  0.41800000000E+01 0. -1.
        -11    1    1    2    0    0 -0.27786875283E+02 -0.13517045249E+02  0.14163490115E+03  0.14496643120E+03  0.00000000000E+00 0. -1.
         11    1    1    2    0    0 -0.28016981157E+02 -0.16271794771E+02 -0.28277685432E+01  0.32522589275E+02  0.00000000000E+00 0.  1.
</event>
<event>
 7    1  0.2733606E-009  0.1086379E+03  0.7561462E-02  0.1263113E+00
          1   -1    0    0  501    0  0.00000000000E+00  0.00000000000E+00  0.73249064823E+03  0.73249064823E+03  0.00000000000E+00 0. -1.
         -1   -1    0    0    0  501 -0.00000000000E+00 -0.00000000000E+00 -0.25020551420E+02  0.25020551420E+02  0.00000000000E+00 0.  1.
         25    2    1    2    0    0 -0.47761143893E+02 -0.37608123111E+02  0.54462578667E+03  0.56210364248E+03  0.12509100525E+03 0.  0.
          5    1    3    3  502    0 -0.54104515053E+02 -0.63283776390E+02  0.20328621238E+03  0.21971547840E+03  0.41800000000E+01 0.  1.
         -5    1    3    3    0  502  0.63433711602E+01  0.25675653278E+02  0.34133957428E+03  0.34238816408E+03  0.41800000000E+01 0.  1.
        -11    1    1    2    0    0  0.71618481176E+02  0.12866167670E+02  0.12171905789E+03  0.14181069836E+03  0.00000000000E+00 0.  1.
         11    1    1    2    0    0 -0.23857337283E+02  0.24741955441E+02  0.41125252259E+02  0.53596858813E+02  0.00000000000E+00 0. -1.
</event>
<event>
 7    1  0.2733606E-009  0.1121131E+03  0.7561462E-02  0.1256706E+00
          1   -1    0    0  501    0  0.00000000000E+00  0.00000000000E+00  0.62476149884E+03  0.62476149884E+03  0.00000000000E+00 0. -1.
         -1   -1    0    0    0  501 -0.00000000000E+00 -0.00000000000E+00 -0.24984635977E+02  0.24984635977E+02  0.00000000000E+00 0.  1.
         25    2    1    2    0    0  0.58652140292E+02 -0.16476388176E+02  0.34985774061E+03  0.37651018629E+03  0.12509171351E+03 0.  0.
          5    1    3    3  502    0 -0.15630961824E+02  0.27895660757E+02  0.26470234702E+02  0.41720984909E+02  0.41800000000E+01 0.  1.
         -5    1    3    3    0  502  0.74283102116E+02 -0.44372048933E+02  0.32338750591E+03  0.33478920138E+03  0.41800000000E+01 0.  1.
        -11    1    1    2    0    0 -0.29372398929E+02  0.51751819062E+02  0.98999539569E+02  0.11550713151E+03  0.00000000000E+00 0. -1.
         11    1    1    2    0    0 -0.29279741363E+02 -0.35275430885E+02  0.15091958268E+03  0.15772881701E+03  0.00000000000E+00 0.  1.
</event>
<event>
 7    1  0.2733606E-009  0.9905378E+02  0.7561462E-02  0.1282298E+00
         -4   -1    0    0    0  501 -0.00000000000E+00  0.00000000000E+00  0.47582168875E+02  0.47582168875E+02  0.00000000000E+00 0.  1.
          4   -1    0    0  501    0  0.00000000000E+00 -0.00000000000E+00 -0.33182323120E+03  0.33182323120E+03  0.00000000000E+00 0. -1.
         25    2    1    2    0    0 -0.51405821047E+02 -0.38055902092E+02 -0.14519203052E+03  0.20203817667E+03  0.12509152243E+03 0.  0.
          5    1    3    3  502    0  0.47668206122E+01 -0.57772836071E+02 -0.12696893861E+03  0.13963884466E+03  0.41800000000E+01 0.  1.
         -5    1    3    3    0  502 -0.56172641659E+02  0.19716933978E+02 -0.18223091908E+02  0.62399332009E+02  0.41800000000E+01 0.  1.
        -11    1    1    2    0    0  0.35294555416E+02 -0.37621395075E+01 -0.47775593718E+01  0.35814583751E+02  0.00000000000E+00 0.  1.
         11    1    1    2    0    0  0.16111265631E+02  0.41818041600E+02 -0.13427147243E+03  0.14155263965E+03  0.00000000000E+00 0. -1.
</event>
<event>
 7    1  0.2733606E-009  0.2291923E+03  0.7561462E-02  0.1127210E+00
          2   -1    0    0  501    0  0.00000000000E+00  0.00000000000E+00  0.72045149943E+03  0.72045149943E+03  0.00000000000E+00 0. -1.
         -2   -1    0    0    0  501 -0.00000000000E+00 -0.00000000000E+00 -0.10583781116E+03  0.10583781116E+03  0.00000000000E+00 0.  1.
         25    2    1    2    0    0 -0.22617162730E+03  0.34675008658E+02  0.47760620562E+03  0.54416086959E+03  0.12508958043E+03 0.  0.
          5    1    3    3  502    0 -0.81048887766E+02  0.12854228599E+02  0.60693081624E+02  0.10215319847E+03  0.41800000000E+01 0. -1.
         -5    1    3    3    0  502 -0.14512273953E+03  0.21820780059E+02  0.41691312399E+03  0.44200767112E+03  0.41800000000E+01 0. -1.
        -11    1    1    2    0    0  0.13962032685E+02 -0.62529508417E+01  0.47790401144E+02  0.50179280510E+02  0.00000000000E+00 0. -1.
         11    1    1    2    0    0  0.21220959461E+03 -0.28422057816E+02  0.89217081502E+02  0.23194916048E+03  0.00000000000E+00 0.  1.
</event>
<event>
 7    1  0.2733606E-009  0.1470129E+03  0.7561462E-02  0.1204192E+00
          3   -1    0    0  501    0  0.00000000000E+00  0.00000000000E+00  0.39473309902E+02  0.39473309902E+02  0.00000000000E+00 0. -1.
         -3   -1    0    0    0  501 -0.00000000000E+00 -0.00000000000E+00 -0.56598156416E+03  0.56598156416E+03  0.00000000000E+00 0.  1.
         25    2    1    2    0    0  0.45121071040E+02  0.89794850084E+02 -0.24564375464E+03  0.29341054404E+03  0.12509942849E+03 0.  0.
          5    1    3    3  502    0  0.86653869497E+02  0.73254141268E+02 -0.19567154416E+03  0.22622972375E+03  0.41800000000E+01 0. -1.
         -5    1    3    3    0  502 -0.41532798456E+02  0.16540708816E+02 -0.49972210479E+02  0.67180820298E+02  0.41800000000E+01 0. -1.
        -11    1    1    2    0    0  0.19662747865E+02 -0.62075445737E+02 -0.14666229303E+03  0.16046748211E+03  0.00000000000E+00 0.  1.
         11    1    1    2    0    0 -0.64783818905E+02 -0.27719404347E+02 -0.13420220659E+03  0.15157684791E+03  0.00000000000E+00 0. -1.
</event>
<event>
 7    1  0.2733606E-009  0.1109507E+03  0.7561462E-02  0.1258819E+00
         -1   -1    0    0    0  501 -0.00000000000E+00  0.00000000000E+00  0.55177068910E+02  0.55177068910E+02  0.00000000000E+00 0.  1.
          1   -1    0    0  501    0  0.00000000000E+00 -0.00000000000E+00 -0.30399648635E+03  0.30399648635E+03  0.00000000000E+00 0. -1.
         25    2    1    2    0    0 -0.34857034558E+01 -0.45095194354E+02 -0.21805208880E+03  0.25541963871E+03  0.12508697664E+03 0.  0.
          5    1    3    3  502    0  0.47135128223E+02  0.17233603735E+02 -0.62038874931E+02  0.79906268922E+02  0.41800000000E+01 0. -1.
         -5    1    3    3    0  502 -0.50620831679E+02 -0.62328798089E+02 -0.15601321387E+03  0.17551336979E+03  0.41800000000E+01 0. -1.
        -11    1    1    2    0    0  0.35355769728E+02 -0.67697861290E+00 -0.32392385133E+02  0.47955764698E+02  0.00000000000E+00 0. -1.
         11    1    1    2    0    0 -0.31870066272E+02  0.45772172967E+02  0.16250564909E+01  0.55798151859E+02  0.00000000000E+00 0.  1.
</event>
<event>
 7    1  0.2733606E-009  0.1389837E+03  0.7561462E-02  0.1214703E+00
          2   -1    0    0  501    0  0.00000000000E+00  0.00000000000E+00  0.21110157632E+04  0.21110157632E+04  0.00000000000E+00 0. -1.
         -2   -1    0    0    0  501 -0.00000000000E+00 -0.00000000000E+00 -0.12896596217E+02  0.12896596217E+02  0.00000000000E+00 0.  1.
         25    2    1    2    0    0  0.90871223835E+00 -0.11281424463E+03  0.14302896792E+04  0.14401747446E+04  0.12508736447E+03 0.  0.
          5    1    3    3  502    0 -0.36537242719E+02 -0.71885947148E+02  0.38353179328E+03  0.39193962336E+03  0.41800000000E+01 0. -1.
         -5    1    3    3    0  502  0.37445954957E+02 -0.40928297480E+02  0.10467578860E+04  0.10482351212E+04  0.41800000000E+01 0. -1.
        -11    1    1    2    0    0  0.30069777367E+02  0.63803605592E+01  0.83314092183E+02  0.88803932728E+02  0.00000000000E+00 0.  1.
         11    1    1    2    0    0 -0.30978489605E+02  0.10643388407E+03  0.58451539559E+03  0.59493368217E+03  0.00000000000E+00 0. -1.
</event>
<event>
 7    1  0.2733606E-009  0.1390796E+03  0.7561462E-02  0.1214573E+00
          1   -1    0    0  501    0  0.00000000000E+00  0.00000000000E+00  0.21606365421E+03  0.21606365421E+03  0.00000000000E+00 0. -1.
         -1   -1    0    0    0  501 -0.00000000000E+00 -0.00000000000E+00 -0.13605855928E+03  0.13605855928E+03  0.00000000000E+00 0.  1.
         25    2    1    2    0    0 -0.86235312695E+02 -0.47660019134E+02 -0.48165914687E+02  0.16637123688E+03  0.12510566152E+03 0.  0.
          5    1    3    3  502    0  0.53104801242E+01 -0.53809030836E+02 -0.51049000495E+02  0.74478761068E+02  0.41800000000E+01 0. -1.
         -5    1    3    3    0  502 -0.91545792819E+02  0.61490117020E+01  0.28830858081E+01  0.91892475816E+02  0.41800000000E+01 0. -1.
        -11    1    1    2    0    0 -0.18455375897E+02  0.82835046735E+01  0.84870181011E+01  0.21937338613E+02  0.00000000000E+00 0.  1.
         11    1    1    2    0    0  0.10469068859E+03  0.39376514460E+02  0.11968399151E+03  0.16381363799E+03  0.00000000000E+00 0. -1.
</event>
<event>
 7    1  0.2733606E-009  0.9461788E+02  0.7561462E-02  0.1292039E+00
         -1   -1    0    0    0  501 -0.00000000000E+00  0.00000000000E+00  0.82514429123E+02  0.82514429123E+02  0.00000000000E+00 0.  1.
          1   -1    0    0  501    0  0.00000000000E+00 -0.00000000000E+00 -0.62443027816E+03  0.62443027816E+03  0.00000000000E+00 0. -1.
         25    2    1    2    0    0 -0.19039309958E+02 -0.61553010389E+02 -0.57261957501E+03  0.58965451247E+03  0.12509195809E+03 0.  0.
          5    1    3    3  502    0  0.44224444789E+02 -0.19199603201E+02 -0.10199180378E+03  0.11289033049E+03  0.41800000000E+01 0.  1.
         -5    1    3    3    0  502 -0.63263754746E+02 -0.42353407189E+02 -0.47062777123E+03  0.47676418198E+03  0.41800000000E+01 0.  1.
        -11    1    1    2    0    0  0.59177973112E+01  0.26860779074E+02  0.62596726577E+02  0.68373035296E+02  0.00000000000E+00 0.  1.
         11    1    1    2    0    0  0.13121512646E+02  0.34692231316E+02 -0.31893000606E+02  0.48917159519E+02  0.00000000000E+00 0. -1.
</event>
<event>
 7    1  0.2733606E-009  0.1178337E+03  0.7561462E-02  0.1246714E+00
          2   -1    0    0  501    0  0.00000000000E+00  0.00000000000E+00  0.63310560927E+03  0.63310560927E+03  0.00000000000E+00 0. -1.
         -2   -1    0    0    0  501 -0.00000000000E+00 -0.00000000000E+00 -0.26430305118E+02  0.26430305118E+02  0.00000000000E+00 0.  1.
         25    2    1    2    0    0  0.63943079797E+02  0.68445754892E+01  0.26277028515E+03  0.29804392828E+03  0.12508554975E+03 0.  0.
          5    1    3    3  502    0  0.34235754112E+02  0.64882751523E+02  0.16284960536E+03  0.17865980149E+03  0.41800000000E+01 0.  1.
         -5    1    3    3    0  502  0.29707325685E+02 -0.58038176034E+02  0.99920679796E+02  0.11938412678E+03  0.41800000000E+01 0.  1.
        -11    1    1    2    0    0  0.16329850777E+02 -0.65635252420E+00  0.12856263555E+02  0.20793709088E+02  0.00000000000E+00 0.  1.
         11    1    1    2    0    0 -0.80272930574E+02 -0.61882229650E+01  0.33104875544E+03  0.34069827702E+03  0.00000000000E+00 0. -1.
</event>
<event>
 7    1  0.3774532E-009  0.9349017E+02  0.7561462E-02  0.1294613E+00
         -2   -1    0    0    0  501 -0.00000000000E+00  0.00000000000E+00  0.26627210177E+02  0.26627210177E+02  0.00000000000E+00 0.  1.
          2   -1    0    0  501    0  0.00000000000E+00 -0.00000000000E+00 -0.68299520764E+03  0.68299520764E+03  0.00000000000E+00 0. -1.
         25    2    1    2    0    0 -0.99609335971E+00 -0.74096414098E+02 -0.27874905286E+03  0.31438712330E+03  0.12508780134E+03 0.  0.
          5    1    3    3  502    0 -0.29637624946E+01 -0.69268735028E+02 -0.50101930103E+02  0.85642380516E+02  0.41800000000E+01 0. -1.
         -5    1    3    3    0  502  0.19676691349E+01 -0.48276790707E+01 -0.22864712276E+03  0.22874474279E+03  0.41800000000E+01 0. -1.
        -11    1    1    2    0    0  0.37401693523E+02  0.12769424923E+02 -0.19934558513E+03  0.20322550825E+03  0.00000000000E+00 0. -1.
         11    1    1    2    0    0 -0.36405600163E+02  0.61326989176E+02 -0.17827335947E+03  0.19200978626E+03  0.00000000000E+00 0.  1.
</event>
<event>
 7    1  0.2733606E-009  0.9436217E+02  0.7561462E-02  0.1292619E+00
          1   -1    0    0  501    0  0.00000000000E+00  0.00000000000E+00  0.18073067512E+03  0.18073067512E+03  0.00000000000E+00 0. -1.
         -1   -1    0    0    0  501 -0.00000000000E+00 -0.00000000000E+00 -0.74290079271E+02  0.74290079271E+02  0.00000000000E+00 0.  1.
         25    2    1    2    0    0 -0.19673005884E+02  0.58741214883E+01  0.10089832760E+03  0.16201558802E+03  0.12508815206E+03 0.  0.
          5    1    3    3  502    0 -0.43608119944E+02 -0.34939660047E+02  0.65900394608E+01  0.56421175009E+02  0.41800000000E+01 0.  1.
         -5    1    3    3    0  502  0.23935114060E+02  0.40813781536E+02  0.94308288137E+02  0.10559441301E+03  0.41800000000E+01 0.  1.
        -11    1    1    2    0    0 -0.32653748254E+02 -0.17110647959E+01 -0.15830140769E+02  0.36328891733E+02  0.00000000000E+00 0.  1.
         11    1    1    2    0    0  0.52326754138E+02 -0.41630566925E+01  0.21372409026E+02  0.56676274641E+02  0.00000000000E+00 0. -1.
</event>
<event>
 7    1  0.2733606E-009  0.9064534E+02  0.7561462E-02  0.1301296E+00
          1   -1    0    0  501    0  0.00000000000E+00  0.00000000000E+00  0.45309984381E+02  0.45309984381E+02  0.00000000000E+00 0. -1.
         -1   -1    0    0    0  501 -0.00000000000E+00 -0.00000000000E+00 -0.34220600589E+03  0.34220600589E+03  0.00000000000E+00 0.  1.
         25    2    1    2    0    0 -0.80498062084E+01  0.57792225013E+02 -0.14113853919E+03  0.19741422610E+03  0.12509016257E+03 0.  0.
          5    1    3    3  502    0 -0.50418135629E+02 -0.39707249071E+00 -0.10546206368E+03  0.11696950604E+03  0.41800000000E+01 0. -1.
         -5    1    3    3    0  502  0.42368329420E+02  0.58189297504E+02 -0.35676475507E+02  0.80444720066E+02  0.41800000000E+01 0. -1.
        -11    1    1    2    0    0  0.49853299003E+01 -0.17722158444E+02  0.90154410979E+01  0.20498941249E+02  0.00000000000E+00 0. -1.
         11    1    1    2    0    0  0.30644763081E+01 -0.40070066569E+02 -0.16477292342E+03  0.16960282292E+03  0.00000000000E+00 0.  1.
</event>
<event>
 7    1  0.2733606E-009  0.1185272E+03  0.7561462E-02  0.1245547E+00
          1   -1    0    0  501    0  0.00000000000E+00  0.00000000000E+00  0.45486963004E+03  0.45486963004E+03  0.00000000000E+00 0. -1.
         -1   -1    0    0    0  501 -0.00000000000E+00 -0.00000000000E+00 -0.32261110312E+02  0.32261110312E+02  0.00000000000E+00 0.  1.
         25    2    1    2    0    0  0.34614108689E+02 -0.40105932356E+02  0.23588720674E+03  0.27220797530E+03  0.12509110754E+03 0.  0.
          5    1    3    3  502    0  0.66341601132E+02 -0.62797991962E+02  0.19588847724E+03  0.21618178404E+03  0.41800000000E+01 0. -1.
         -5    1    3    3    0  502 -0.31727492443E+02  0.22692059606E+02  0.39998729500E+02  0.56026191263E+02  0.41800000000E+01 0. -1.
        -11    1    1    2    0    0  0.31921279232E+02  0.11112260734E+02  0.56298657261E+02  0.65665738524E+02  0.00000000000E+00 0.  1.
         11    1    1    2    0    0 -0.66535387921E+02  0.28993671622E+02  0.13042265573E+03  0.14925702652E+03  0.00000000000E+00 0. -1.
</event>
<event>
 7    1  0.2733606E-009  0.1152220E+03  0.7561462E-02  0.1251194E+00
         -2   -1    0    0    0  501 -0.00000000000E+00  0.00000000000E+00  0.88660178039E+02  0.88660178039E+02  0.00000000000E+00 0.  1.
          2   -1    0    0  501    0  0.00000000000E+00 -0.00000000000E+00 -0.19651361728E+03  0.19651361728E+03  0.00000000000E+00 0. -1.
         25    2    1    2    0    0 -0.42123447055E+02 -0.44724886966E+02 -0.93655486721E+02  0.16790643889E+03  0.12508605726E+03 0.  0.
          5    1    3    3  502    0 -0.73394639945E+02  0.16767809523E+01 -0.82830062371E+02  0.11076044601E+03  0.41800000000E+01 0.  1.
         -5    1    3    3    0  502  0.31271192890E+02 -0.46401667919E+02 -0.10825424351E+02  0.57145992885E+02  0.41800000000E+01 0.  1.
        -11    1    1    2    0    0 -0.56924108189E+01 -0.19736135214E+02  0.21226499418E+02  0.29537820699E+02  0.00000000000E+00 0.  1.
         11    1    1    2    0    0  0.47815857874E+02  0.64461022180E+02 -0.35424451942E+02  0.87729535734E+02  0.00000000000E+00 0. -1.
</event>
<event>
 7    1  0.2733606E-009  0.1328895E+03  0.7561462E-02  0.1223230E+00
         -2   -1    0    0    0  501 -0.00000000000E+00  0.00000000000E+00  0.26988341787E+03  0.26988341787E+03  0.00000000000E+00 0. -1.
          2   -1    0    0  501    0  0.00000000000E+00 -0.00000000000E+00 -0.12607561425E+03  0.12607561425E+03  0.00000000000E+00 0.  1.
         25    2    1    2    0    0  0.75343867290E+02 -0.98796312658E+02 -0.12615791499E+02  0.17675958471E+03  0.12508949939E+03 0.  0.
          5    1    3    3  502    0 -0.96846735547E+01 -0.99685138932E+00 -0.42414768081E+02  0.43718091975E+02  0.41800000000E+01 0. -1.
         -5    1    3    3    0  502  0.85028540845E+02 -0.97799461269E+02  0.29798976582E+02  0.13304149273E+03  0.41800000000E+01 0. -1.
        -11    1    1    2    0    0 -0.23230303511E+02  0.18045644320E+02  0.10731365975E+03  0.11127225103E+03  0.00000000000E+00 0. -1.
         11    1    1    2    0    0 -0.52113563779E+02  0.80750668338E+02  0.49109935372E+02  0.10792719638E+03  0.00000000000E+00 0.  1.
</event>
<event>
 7    1  0.2733606E-009  0.8896385E+02  0.7561462E-02  0.1305380E+00
         -2   -1    0    0    0  501 -0.00000000000E+00  0.00000000000E+00  0.62627884088E+02  0.62627884088E+02  0.00000000000E+00 0.  1.
          2   -1    0    0  501    0  0.00000000000E+00 -0.00000000000E+00 -0.39096502913E+03  0.39096502913E+03  0.00000000000E+00 0. -1.
         25    2    1    2    0    0  0.88353571296E+00  0.23141354756E+02 -0.33529833164E+03  0.35862371175E+03  0.12509873098E+03 0.  0.
          5    1    3    3  502    0  0.12662921367E+01 -0.30994939872E+02 -0.27772861879E+03  0.27948693688E+03  0.41800000000E+01 0.  1.
         -5    1    3    3    0  502 -0.38275642377E+00  0.54136294628E+02 -0.57569712848E+02  0.79136774864E+02  0.41800000000E+01 0.  1.
        -11    1    1    2    0    0  0.40797044442E+02 -0.29253740980E+02  0.14322372722E+02  0.52204507056E+02  0.00000000000E+00 0.  1.
         11    1    1    2    0    0 -0.41680580155E+02  0.61123862245E+01 -0.73611861300E+01  0.42764694418E+02  0.00000000000E+00 0. -1.
</event>
<event>
 7    1  0.2733606E-009  0.7855494E+02  0.7561462E-02  0.1333203E+00
          3   -1    0    0  501    0  0.00000000000E+00  0.00000000000E+00  0.68232499567E+02  0.68232499567E+02  0.00000000000E+00 0. -1.
         -3   -1    0    0    0  501 -0.00000000000E+00 -0.00000000000E+00 -0.20253649482E+03  0.20253649482E+03  0.00000000000E+00 0.  1.
         25    2    1    2    0    0 -0.27695712495E+02 -0.25852548797E+02 -0.10485330245E+03  0.16755056776E+03  0.12507426175E+03 0.  0.
          5    1    3    3  502    0  0.10119599324E+02 -0.35780390697E+02  0.15825971107E+02  0.40627286525E+02  0.41800000000E+01 0. -1.
         -5    1    3    3    0  502 -0.37815311819E+02  0.99278418999E+01 -0.12067927356E+03  0.12692328123E+03  0.41800000000E+01 0. -1.
        -11    1    1    2    0    0  0.50821517344E+02  0.86561581700E+01  0.11810966973E+02  0.52889078649E+02  0.00000000000E+00 0. -1.
         11    1    1    2    0    0 -0.23125804850E+02  0.17196390627E+02 -0.41261659774E+02  0.50329347978E+02  0.00000000000E+00 0.  1.
</event>
<event>
 7    1  0.2733606E-009  0.1226465E+03  0.7561462E-02  0.1238794E+00
          1   -1    0    0  501    0  0.00000000000E+00  0.00000000000E+00  0.17258238374E+03  0.17258238374E+03  0.00000000000E+00 0. -1.
         -1   -1    0    0    0  501 -0.00000000000E+00 -0.00000000000E+00 -0.11438822656E+03  0.11438822656E+03  0.00000000000E+00 0.  1.
         25    2    1    2    0    0 -0.61892152168E+02 -0.51631550547E+02  0.68727571555E+02  0.16391321381E+03  0.12509039555E+03 0.  0.
          5    1    3    3  502    0 -0.74120113564E+02 -0.79461614851E+02  0.26872756365E+02  0.11201587791E+03  0.41800000000E+01 0. -1.
         -5    1    3    3    0  502  0.12227961396E+02  0.27830064304E+02  0.41854815190E+02  0.51897335901E+02  0.41800000000E+01 0. -1.
        -11    1    1    2    0    0  0.71547756019E+02  0.22235925901E+02 -0.35869209006E+02  0.83066948582E+02  0.00000000000E+00 0.  1.
         11    1    1    2    0    0 -0.96556038503E+01  0.29395624646E+02  0.25335794629E+02  0.39990447903E+02  0.00000000000E+00 0. -1.
</event>
<event>
 7    1  0.2733606E-009  0.9533164E+02  0.7561462E-02  0.1290431E+00
          1   -1    0    0  501    0  0.00000000000E+00  0.00000000000E+00  0.82222343900E+03  0.82222343900E+03  0.00000000000E+00 0. -1.
         -1   -1    0    0    0  501 -0.00000000000E+00 -0.00000000000E+00 -0.18516671586E+02  0.18516671586E+02  0.00000000000E+00 0.  1.
         25    2    1    2    0    0  0.88790441188E+01  0.15480425235E+02  0.63391726632E+03  0.64638752922E+03  0.12508899394E+03 0.  0.
          5    1    3    3  502    0  0.65855946869E+02  0.19585367959E+02  0.36591042487E+03  0.37232848911E+03  0.41800000000E+01 0.  1.
         -5    1    3    3    0  502 -0.56976902750E+02 -0.41049427237E+01  0.26800684145E+03  0.27405904011E+03  0.41800000000E+01 0.  1.
        -11    1    1    2    0    0 -0.35582353742E+02 -0.12357279591E+02  0.20943502576E+02  0.43097987851E+02  0.00000000000E+00 0.  1.
         11    1    1    2    0    0  0.26703309623E+02 -0.31231456446E+01  0.14884599851E+03  0.15125459351E+03  0.00000000000E+00 0. -1.
</event>
<event>
 7    1  0.2733606E-009  0.1846988E+03  0.7561462E-02  0.1163331E+00
          2   -1    0    0  501    0  0.00000000000E+00  0.00000000000E+00  0.12170357227E+04  0.12170357227E+04  0.00000000000E+00 0.  1.
         -2   -1    0    0    0  501 -0.00000000000E+00 -0.00000000000E+00 -0.33104741746E+02  0.33104741746E+02  0.00000000000E+00 0. -1.
         25    2    1    2    0    0 -0.10791979123E+03  0.11932442982E+03  0.46206877419E+03  0.50501430852E+03  0.12508756465E+03 0.  0.
          5    1    3    3  502    0  0.18835681403E+02  0.19428934720E+01  0.12226594011E+03  0.12379414461E+03  0.41800000000E+01 0.  1.
         -5    1    3    3    0  502 -0.12675547263E+03  0.11738153635E+03  0.33980283409E+03  0.38122016391E+03  0.41800000000E+01 0.  1.
        -11    1    1    2    0    0 -0.10367831304E+02 -0.20845882709E+02  0.41628705912E+02  0.47696875241E+02  0.00000000000E+00 0. -1.
         11    1    1    2    0    0  0.11828762253E+03 -0.98478547115E+02  0.68023350085E+03  0.69742928069E+03  0.00000000000E+00 0.  1.
</event>
<event>
 7    1  0.2733606E-009  0.5257044E+02  0.7561462E-02  0.1431951E+00
         -1   -1    0    0    0  501 -0.00000000000E+00  0.00000000000E+00  0.50768186176E+02  0.50768186176E+02  0.00000000000E+00 0.  1.
          1   -1    0    0  501    0  0.00000000000E+00 -0.00000000000E+00 -0.24389636438E+03  0.24389636438E+03  0.00000000000E+00 0. -1.
         25    2    1    2    0    0  0.54146628335E+01 -0.27753075424E+02 -0.11815011918E+03  0.17437833637E+03  0.12509517083E+03 0.  0.
          5    1    3    3  502    0 -0.10618355564E+02  0.11550817230E+02 -0.12928073958E+03  0.13029640394E+03  0.41800000000E+01 0.  1.
         -5    1    3    3    0  502  0.16033018397E+02 -0.39303892654E+02  0.11130620397E+02  0.44081932434E+02  0.41800000000E+01 0.  1.
        -11    1    1    2    0    0  0.13196400970E+02  0.23815394763E+02 -0.91267255278E+02  0.95241954580E+02  0.00000000000E+00 0. -1.
         11    1    1    2    0    0 -0.18611063803E+02  0.39376806603E+01  0.16289196250E+02  0.25044259609E+02  0.00000000000E+00 0.  1.
</event>
<event>
 7    1  0.2733606E-009  0.7584296E+02  0.7561462E-02  0.1341280E+00
         -2   -1    0    0    0  501 -0.00000000000E+00  0.00000000000E+00  0.12432020481E+03  0.12432020481E+03  0.00000000000E+00 0.  1.
          2   -1    0    0  501    0  0.00000000000E+00 -0.00000000000E+00 -0.13095277930E+03  0.13095277930E+03  0.00000000000E+00 0. -1.
         25    2    1    2    0    0  0.32066759487E+02  0.55411833317E+02 -0.22026974245E+02  0.14223387188E+03  0.12508612385E+03 0.  0.
          5    1    3    3  502    0 -0.12057498772E+02  0.32069426742E+02 -0.66708737991E+02  0.75108984367E+02  0.41800000000E+01 0.  1.
         -5    1    3    3    0  502  0.44124258259E+02  0.23342406575E+02  0.44681763746E+02  0.67124887509E+02  0.41800000000E+01 0.  1.
        -11    1    1    2    0    0 -0.20128243110E+02 -0.15459667902E+02  0.51800993470E+02  0.57684403671E+02  0.00000000000E+00 0.  1.
         11    1    1    2    0    0 -0.11938516377E+02 -0.39952165415E+02 -0.36406593710E+02  0.55354708564E+02  0.00000000000E+00 0. -1.
</event>
<event>
 7    1  0.2733606E-009  0.1319994E+03  0.7561462E-02  0.1224519E+00
          1   -1    0    0  501    0  0.00000000000E+00  0.00000000000E+00  0.95378536289E+02  0.95378536289E+02  0.00000000000E+00 0. -1.
         -1   -1    0    0    0  501 -0.00000000000E+00 -0.00000000000E+00 -0.26883012797E+03  0.26883012797E+03  0.00000000000E+00 0.  1.
         25    2    1    2    0    0  0.76881313464E+02 -0.83881813487E+02 -0.12493431973E+03  0.21024633277E+03  0.12509213086E+03 0.  0.
          5    1    3    3  502    0 -0.78060800671E+01 -0.83322620109E+01 -0.90872855041E+02  0.91682657354E+02  0.41800000000E+01 0. -1.
         -5    1    3    3    0  502  0.84687393531E+02 -0.75549551476E+02 -0.34061464692E+02  0.11856367542E+03  0.41800000000E+01 0. -1.
        -11    1    1    2    0    0 -0.79221110124E+02  0.30575336819E+02 -0.49214511668E+01  0.85059133504E+02  0.00000000000E+00 0. -1.
         11    1    1    2    0    0  0.23397966599E+01  0.53306476667E+02 -0.43595820782E+02  0.68903197986E+02  0.00000000000E+00 0.  1.
</event>
<event>
 7    1  0.2733606E-009  0.1545686E+03  0.7561462E-02  0.1194969E+00
         -3   -1    0    0    0  501 -0.00000000000E+00  0.00000000000E+00  0.60795544079E+02  0.60795544079E+02  0.00000000000E+00 0.  1.
          3   -1    0    0  501    0  0.00000000000E+00 -0.00000000000E+00 -0.49797548058E+03  0.49797548058E+03  0.00000000000E+00 0. -1.
         25    2    1    2    0    0 -0.94652350621E+02  0.76927595203E+02 -0.13983544565E+03  0.22378079172E+03  0.12508784314E+03 0.  0.
          5    1    3    3  502    0  0.10894687542E+02  0.62630763355E+02 -0.28973790266E+02  0.69987567878E+02  0.41800000000E+01 0.  1.
         -5    1    3    3    0  502 -0.10554703816E+03  0.14296831848E+02 -0.11086165539E+03  0.15379322385E+03  0.41800000000E+01 0.  1.
        -11    1    1    2    0    0  0.91115985436E+02 -0.36341625548E+02 -0.26623110470E+03  0.28372845761E+03  0.00000000000E+00 0. -1.
         11    1    1    2    0    0  0.35363651850E+01 -0.40585969655E+02 -0.31113386148E+02  0.51261775322E+02  0.00000000000E+00 0.  1.
</event>
<event>
 7    1  0.2733606E-009  0.1607755E+03  0.7561462E-02  0.1187824E+00
         -1   -1    0    0    0  501 -0.00000000000E+00  0.00000000000E+00  0.97131979101E+02  0.97131979101E+02  0.00000000000E+00 0.  1.
          1   -1    0    0  501    0  0.00000000000E+00 -0.00000000000E+00 -0.31705102284E+03  0.31705102284E+03  0.00000000000E+00 0. -1.
         25    2    1    2    0    0 -0.70273170925E+02  0.11752597576E+03 -0.10127178547E+03  0.21131454626E+03  0.12508872610E+03 0.  0.
          5    1    3    3  502    0 -0.75599539365E+02  0.14590001341E+02 -0.19124895549E+02  0.79444273054E+02  0.41800000000E+01 0.  1.
         -5    1    3    3    0  502  0.53263684407E+01  0.10293597442E+03 -0.82146889921E+02  0.13187027320E+03  0.41800000000E+01 0.  1.
        -11    1    1    2    0    0  0.60786214087E+02 -0.69506029377E+02 -0.12291570565E+03  0.15373458505E+03  0.00000000000E+00 0. -1.
         11    1    1    2    0    0  0.94869568376E+01 -0.48019946387E+02  0.42684473819E+01  0.49133870640E+02  0.00000000000E+00 0.  1.
</event>
<event>
 7    1  0.2733606E-009  0.9403288E+02  0.7561462E-02  0.1293369E+00
          1   -1    0    0  501    0  0.00000000000E+00  0.00000000000E+00  0.51663158210E+03  0.51663158210E+03  0.00000000000E+00 0. -1.
         -1   -1    0    0    0  501 -0.00000000000E+00 -0.00000000000E+00 -0.29047213836E+02  0.29047213836E+02  0.00000000000E+00 0.  1.
         25    2    1    2    0    0 -0.44656021211E+02 -0.28454311228E+02  0.32153584494E+03  0.34905083819E+03  0.12508948796E+03 0.  0.
          5    1    3    3  502    0  0.29660508036E+02  0.94353957033E+01  0.22666196313E+02  0.38729850043E+02  0.41800000000E+01 0. -1.
         -5    1    3    3    0  502 -0.74316529247E+02 -0.37889706931E+02  0.29886964863E+03  0.31032098815E+03  0.41800000000E+01 0. -1.
        -11    1    1    2    0    0 -0.37148966384E+01  0.24307953356E+02  0.10251637366E+01  0.24611542294E+02  0.00000000000E+00 0.  1.
         11    1    1    2    0    0  0.48370917850E+02  0.41463578717E+01  0.16502335958E+03  0.17201641545E+03  0.00000000000E+00 0. -1.
</event>
<event>
 7    1  0.2733606E-009  0.2423586E+03  0.7561462E-02  0.1118232E+00
         -1   -1    0    0    0  501 -0.00000000000E+00  0.00000000000E+00  0.38822275930E+03  0.38822275930E+03  0.00000000000E+00 0.  1.
          1   -1    0    0  501    0  0.00000000000E+00 -0.00000000000E+00 -0.15707352824E+03  0.15707352824E+03  0.00000000000E+00 0. -1.
         25    2    1    2    0    0 -0.21342247679E+03 -0.40180681471E+02  0.71008495661E+02  0.26048665755E+03  0.12508977393E+03 0.  0.
          5    1    3    3  502    0 -0.79777599393E+02  0.45261157251E+02  0.30009470761E+02  0.96597507504E+02  0.41800000000E+01 0.  1.
         -5    1    3    3    0  502 -0.13364487740E+03 -0.85441838722E+02  0.40999024901E+02  0.16388915004E+03  0.41800000000E+01 0.  1.
        -11    1    1    2    0    0  0.32433291362E+02  0.42196499450E+02  0.49433260591E+02  0.72636837810E+02  0.00000000000E+00 0.  1.
         11    1    1    2    0    0  0.18098918543E+03 -0.20158179786E+01  0.11070747481E+03  0.21217279218E+03  0.00000000000E+00 0. -1.
</event>
<event>
 7    1  0.2733606E-009  0.9305563E+02  0.7561462E-02  0.1295616E+00
         -2   -1    0    0    0  501 -0.00000000000E+00  0.00000000000E+00  0.26435482481E+02  0.26435482481E+02  0.00000000000E+00 0.  1.
          2   -1    0    0  501    0  0.00000000000E+00 -0.00000000000E+00 -0.46855081750E+03  0.46855081750E+03  0.00000000000E+00 0. -1.
         25    2    1    2    0    0 -0.11971974098E+02  0.21730499393E+02 -0.26915697726E+03  0.29784080926E+03  0.12509247172E+03 0.  0.
          5    1    3    3  502    0 -0.41260675802E+01  0.57130188566E+02 -0.25021109139E+03  0.25671763776E+03  0.41800000000E+01 0. -1.
         -5    1    3    3    0  502 -0.78459065183E+01 -0.35399689174E+02 -0.18945885871E+02  0.41123171499E+02  0.41800000000E+01 0. -1.
        -11    1    1    2    0    0 -0.33807607397E+02  0.11392230621E+02 -0.46265641067E+02  0.58422998723E+02  0.00000000000E+00 0.  1.
         11    1    1    2    0    0  0.45779581496E+02 -0.33122730014E+02 -0.12669271669E+03  0.13872249200E+03  0.00000000000E+00 0. -1.
</event>
<event>
 7    1  0.2733606E-009  0.3877090E+03  0.7561462E-02  0.1048121E+00
         -1   -1    0    0    0  501 -0.00000000000E+00  0.00000000000E+00  0.36238301533E+03  0.36238301533E+03  0.00000000000E+00 0.  1.
          1   -1    0    0  501    0  0.00000000000E+00 -0.00000000000E+00 -0.44500690454E+03  0.44500690454E+03  0.00000000000E+00 0. -1.
         25    2    1    2    0    0  0.17814699138E+03 -0.34065445821E+03 -0.81596615607E+02  0.41241660279E+03  0.12509051178E+03 0.  0.
          5    1    3    3  502    0  0.70593675984E+02 -0.16593705347E+03 -0.10024309285E+03  0.20636066212E+03  0.41800000000E+01 0. -1.
         -5    1    3    3    0  502  0.10755331540E+03 -0.17471740474E+03  0.18646477247E+02  0.20605594067E+03  0.41800000000E+01 0. -1.
        -11    1    1    2    0    0 -0.15066867876E+03  0.32494924230E+03 -0.18802885065E+02  0.35867340202E+03  0.00000000000E+00 0.  1.
         11    1    1    2    0    0 -0.27478312618E+02  0.15705215912E+02  0.17775611458E+02  0.36299915067E+02  0.00000000000E+00 0. -1.
</event>
<event>
 7    1  0.2733606E-009  0.1043013E+03  0.7561462E-02  0.1271502E+00
         -2   -1    0    0    0  501 -0.00000000000E+00  0.00000000000E+00  0.41194248098E+03  0.41194248098E+03  0.00000000000E+00 0.  1.
          2   -1    0    0  501    0  0.00000000000E+00 -0.00000000000E+00 -0.43046850886E+02  0.43046850886E+02  0.00000000000E+00 0. -1.
         25    2    1    2    0    0  0.62903442400E+02 -0.40638985662E+02  0.17148010876E+03  0.22507791149E+03  0.12508504434E+03 0.  0.
          5    1    3    3  502    0  0.91057240054E+02 -0.18997636527E+02  0.67173877541E+02  0.11481347214E+03  0.41800000000E+01 0. -1.
         -5    1    3    3    0  502 -0.28153797654E+02 -0.21641349135E+02  0.10430623122E+03  0.11026443936E+03  0.41800000000E+01 0. -1.
        -11    1    1    2    0    0 -0.30156850346E+02  0.35513355827E+02  0.19041892051E+03  0.19603570938E+03  0.00000000000E+00 0.  1.
         11    1    1    2    0    0 -0.32746592054E+02  0.51256298350E+01  0.69966008255E+01  0.33875710996E+02  0.00000000000E+00 0. -1.
</event>
<event>
 7    1  0.2733606E-009  0.1031276E+03  0.7561462E-02  0.1273853E+00
          1   -1    0    0  501    0  0.00000000000E+00  0.00000000000E+00  0.37975979206E+03  0.37975979206E+03  0.00000000000E+00 0. -1.
         -1   -1    0    0    0  501 -0.00000000000E+00 -0.00000000000E+00 -0.50595182119E+02  0.50595182119E+02  0.00000000000E+00 0.  1.
         25    2    1    2    0    0  0.84010432951E+01  0.50958097365E+02  0.72136493742E+02  0.15335797132E+03  0.12509072077E+03 0.  0.
          5    1    3    3  502    0 -0.42164659331E+02 -0.14620341042E+01 -0.99392540487E+01  0.43546035540E+02  0.41800000000E+01 0.  1.
         -5    1    3    3    0  502  0.50565702626E+02  0.52420131469E+02  0.82075747791E+02  0.10981193578E+03  0.41800000000E+01 0.  1.
        -11    1    1    2    0    0  0.72219772226E+01 -0.67654614118E+02  0.11891587654E+03  0.13700470598E+03  0.00000000000E+00 0. -1.
         11    1    1    2    0    0 -0.15623020518E+02  0.16696516754E+02  0.13811223966E+03  0.13999229688E+03  0.00000000000E+00 0.  1.
</event>
<event>
 7    1  0.2733606E-009  0.1054253E+03  0.7561462E-02  0.1269284E+00
          2   -1    0    0  501    0  0.00000000000E+00  0.00000000000E+00  0.29186743887E+03  0.29186743887E+03  0.00000000000E+00 0. -1.
         -2   -1    0    0    0  501 -0.00000000000E+00 -0.00000000000E+00 -0.80216956626E+02  0.80216956626E+02  0.00000000000E+00 0.  1.
         25    2    1    2    0    0  0.42016541412E+02  0.67775704100E+02  0.26464099455E+02  0.15067693592E+03  0.12507699485E+03 0.  0.
          5    1    3    3  502    0 -0.13687187627E+02 -0.21321230627E+02 -0.22991940332E+02  0.34467893768E+02  0.41800000000E+01 0.  1.
         -5    1    3    3    0  502  0.55703729039E+02  0.89096934727E+02  0.49456039787E+02  0.11620904215E+03  0.41800000000E+01 0.  1.
        -11    1    1    2    0    0 -0.17331989660E+02 -0.22027378214E+02  0.16213989031E+03  0.16454466654E+03  0.00000000000E+00 0. -1.
         11    1    1    2    0    0 -0.24684551752E+02 -0.45748325885E+02  0.23046492481E+02  0.56862793039E+02  0.00000000000E+00 0.  1.
</event>
<event>
 7    1  0.2733606E-009  0.1305076E+03  0.7561462E-02  0.1226705E+00
          1   -1    0    0  501    0  0.00000000000E+00  0.00000000000E+00  0.94587959204E+02  0.94587959204E+02  0.00000000000E+00 0. -1.
         -1   -1    0    0    0  501 -0.00000000000E+00 -0.00000000000E+00 -0.24919472308E+03  0.24919472308E+03  0.00000000000E+00 0.  1.
         25    2    1    2    0    0 -0.91145262533E+02 -0.47775674080E+02 -0.12236267339E+03  0.20301469697E+03  0.12510942983E+03 0.  0.
          5    1    3    3  502    0 -0.84926311967E+02 -0.83426722301E+02 -0.11554223770E+03  0.16595173259E+03  0.41800000000E+01 0. -1.
         -5    1    3    3    0  502 -0.62189505658E+01  0.35651048222E+02 -0.68204356862E+01  0.37062964377E+02  0.41800000000E+01 0. -1.
        -11    1    1    2    0    0  0.68352128186E+02  0.23786805699E+02  0.23371155325E+02  0.76052853031E+02  0.00000000000E+00 0. -1.
         11    1    1    2    0    0  0.22793134347E+02  0.23988868380E+02 -0.55615245818E+02  0.64715132287E+02  0.00000000000E+00 0.  1.
</event>
<event>
 7    1  0.2733606E-009  0.1070536E+03  0.7561462E-02  0.1266125E+00
          2   -1    0    0  501    0  0.00000000000E+00  0.00000000000E+00  0.15307094328E+03  0.15307094328E+03  0.00000000000E+00 0. -1.
         -2   -1    0    0    0  501 -0.00000000000E+00 -0.00000000000E+00 -0.11088036305E+03  0.11088036305E+03  0.00000000000E+00 0.  1.
         25    2    1    2    0    0 -0.66829114776E+02 -0.24078037215E+02  0.11845899446E+02  0.14433842305E+03  0.12508945830E+03 0.  0.
          5    1    3    3  502    0 -0.49987063156E+02 -0.52815196548E+02  0.53838173836E+02  0.90576889057E+02  0.41800000000E+01 0. -1.
         -5    1    3    3    0  502 -0.16842051620E+02  0.28737159332E+02 -0.41992274390E+02  0.53761533997E+02  0.41800000000E+01 0. -1.
        -11    1    1    2    0    0 -0.15570667697E+02 -0.10025489225E+02  0.23853758298E+02  0.30198640891E+02  0.00000000000E+00 0.  1.
         11    1    1    2    0    0  0.82399782473E+02  0.34103526440E+02  0.64909224835E+01  0.89414242388E+02  0.00000000000E+00 0. -1.
</event>
<event>
 7    1  0.2733606E-009  0.1006250E+03  0.7561462E-02  0.1278987E+00
          1   -1    0    0  501    0  0.00000000000E+00  0.00000000000E+00  0.11997100743E+02  0.11997100743E+02  0.00000000000E+00 0. -1.
         -1   -1    0    0    0  501 -0.00000000000E+00 -0.00000000000E+00 -0.96166407490E+03  0.96166407490E+03  0.00000000000E+00 0.  1.
         25    2    1    2    0    0  0.15909908441E+01 -0.12285028878E+01 -0.55797293592E+03  0.57182637810E+03  0.12509024342E+03 0.  0.
          5    1    3    3  502    0 -0.54895457951E+02 -0.47538478045E+01 -0.14866327350E+03  0.15860123473E+03  0.41800000000E+01 0. -1.
         -5    1    3    3    0  502  0.56486448796E+02  0.35253449168E+01 -0.40930966242E+03  0.41322514336E+03  0.41800000000E+01 0. -1.
        -11    1    1    2    0    0  0.21636031003E+02 -0.37955725387E+02 -0.17138490297E+03  0.17686588109E+03  0.00000000000E+00 0. -1.
         11    1    1    2    0    0 -0.23227021848E+02  0.39184228275E+02 -0.22030913527E+03  0.22496891646E+03  0.00000000000E+00 0.  1.
</event>
<event>
 7    1  0.2733606E-009  0.3576172E+03  0.7561462E-02  0.1059531E+00
         -1   -1    0    0    0  501 -0.00000000000E+00  0.00000000000E+00  0.31398339826E+03  0.31398339826E+03  0.00000000000E+00 0.  1.
          1   -1    0    0  501    0  0.00000000000E+00 -0.00000000000E+00 -0.42781654926E+03  0.42781654926E+03  0.00000000000E+00 0. -1.
         25    2    1    2    0    0  0.34373412619E+03 -0.15225350618E+02  0.65908010251E+01  0.36616528090E+03  0.12509441821E+03 0.  0.
          5    1    3    3  502    0  0.25266667730E+03  0.42823101897E+02 -0.11613848958E+02  0.25656699274E+03  0.41800000000E+01 0. -1.
         -5    1    3    3    0  502  0.91067448883E+02 -0.58048452515E+02  0.18204649983E+02  0.10959828815E+03  0.41800000000E+01 0. -1.
        -11    1    1    2    0    0 -0.32972636557E+03 -0.59120417285E+00 -0.96162606986E+02  0.34346334981E+03  0.00000000000E+00 0.  1.
         11    1    1    2    0    0 -0.14007760614E+02  0.15816554791E+02 -0.24261345034E+02  0.32171316817E+02  0.00000000000E+00 0. -1.
</event>
<event>
 7    1  0.3215298E-009  0.1344965E+03  0.7561462E-02  0.1220932E+00
         -2   -1    0    0    0  501 -0.00000000000E+00  0.00000000000E+00  0.59133153935E+02  0.59133153935E+02  0.00000000000E+00 0. -1.
          2   -1    0    0  501    0  0.00000000000E+00 -0.00000000000E+00 -0.39796494453E+03  0.39796494453E+03  0.00000000000E+00 0.  1.
         25    2    1    2    0    0 -0.40157184318E+02 -0.81032780507E+02 -0.27021934123E+03  0.31120152231E+03  0.12509589980E+03 0.  0.
          5    1    3    3  502    0 -0.35188572233E+02 -0.11457677570E+03 -0.20247370591E+03  0.23532774408E+03  0.41800000000E+01 0. -1.
         -5    1    3    3    0  502 -0.49686120843E+01  0.33543995195E+02 -0.67745635315E+02  0.75873778237E+02  0.41800000000E+01 0. -1.
        -11    1    1    2    0    0 -0.17485304902E+02  0.41402555663E+02 -0.60658810585E+02  0.75494362734E+02  0.00000000000E+00 0.  1.
         11    1    1    2    0    0  0.57642489220E+02  0.39630224844E+02 -0.79536387840E+01  0.70402213421E+02  0.00000000000E+00 0. -1.
</event>
<event>
 7    1  0.2733606E-009  0.8140415E+02  0.7561462E-02  0.1325113E+00
          1   -1    0    0  501    0  0.00000000000E+00  0.00000000000E+00  0.60060379157E+03  0.60060379157E+03  0.00000000000E+00 0. -1.
         -1   -1    0    0    0  501 -0.00000000000E+00 -0.00000000000E+00 -0.38784164977E+02  0.38784164977E+02  0.00000000000E+00 0.  1.
         25    2    1    2    0    0 -0.15607605783E+02  0.74896662472E+01  0.52676420860E+03  0.54169095847E+03  0.12509544585E+03 0.  0.
          5    1    3    3  502    0 -0.22808381984E+02  0.38985544771E+02  0.49185405203E+03  0.49394126766E+03  0.41800000000E+01 0.  1.
         -5    1    3    3    0  502  0.72007762007E+01 -0.31495878523E+02  0.34910156564E+02  0.47749690818E+02  0.41800000000E+01 0.  1.
        -11    1    1    2    0    0  0.25881916526E+02 -0.41739313800E+02  0.37594071451E+02  0.61849479608E+02  0.00000000000E+00 0. -1.
         11    1    1    2    0    0 -0.10274310743E+02  0.34249647553E+02 -0.25386534584E+01  0.35847518465E+02  0.00000000000E+00 0.  1.
</event>
<event>
 7    1  0.2733606E-009  0.9360833E+02  0.7561462E-02  0.1294342E+00
          2   -1    0    0  501    0  0.00000000000E+00  0.00000000000E+00  0.29054046700E+03  0.29054046700E+03  0.00000000000E+00 0. -1.
         -2   -1    0    0    0  501 -0.00000000000E+00 -0.00000000000E+00 -0.52653896177E+02  0.52653896177E+02  0.00000000000E+00 0.  1.
         25    2    1    2    0    0 -0.21278023930E+02  0.46733606013E+02  0.13551717828E+03  0.19143962182E+03  0.12508972365E+03 0.  0.
          5    1    3    3  502    0  0.33502375002E+02 -0.25122521461E+02  0.61719855113E+02  0.74701828161E+02  0.41800000000E+01 0. -1.
         -5    1    3    3    0  502 -0.54780398932E+02  0.71856127474E+02  0.73797323163E+02  0.11673779366E+03  0.41800000000E+01 0. -1.
        -11    1    1    2    0    0 -0.32383239986E+01 -0.10048808024E+02 -0.19483088799E+02  0.22159784164E+02  0.00000000000E+00 0.  1.
         11    1    1    2    0    0  0.24516347929E+02 -0.36684797989E+02  0.12185248134E+03  0.12959495719E+03  0.00000000000E+00 0. -1.
</event>
<event>
 7    1  0.2733606E-009  0.1153146E+03  0.7561462E-02  0.1251033E+00
          2   -1    0    0  501    0  0.00000000000E+00  0.00000000000E+00  0.64144979338E+02  0.64144979338E+02  0.00000000000E+00 0. -1.
         -2   -1    0    0    0  501 -0.00000000000E+00 -0.00000000000E+00 -0.28222115094E+03  0.28222115094E+03  0.00000000000E+00 0.  1.
         25    2    1    2    0    0 -0.29112647467E+02 -0.45209912976E+02 -0.19702748581E+03  0.23949359937E+03  0.12508345815E+03 0.  0.
          5    1    3    3  502    0  0.40685372683E+02 -0.42497060937E+02 -0.12926597110E+03  0.14208611271E+03  0.41800000000E+01 0.  1.
         -5    1    3    3    0  502 -0.69798020150E+02 -0.27128520387E+01 -0.67761514700E+02  0.97407486661E+02  0.41800000000E+01 0.  1.
        -11    1    1    2    0    0 -0.11465526008E+01 -0.25100793059E+02 -0.16766612659E+02  0.30207345052E+02  0.00000000000E+00 0.  1.
         11    1    1    2    0    0  0.30259200068E+02  0.70310706035E+02 -0.42820731373E+01  0.76665185856E+02  0.00000000000E+00 0. -1.
</event>
<event>
 7    1  0.2733606E-009  0.1411139E+03  0.7561462E-02  0.1211838E+00
         -1   -1    0    0    0  501 -0.00000000000E+00  0.00000000000E+00  0.16556828763E+03  0.16556828763E+03  0.00000000000E+00 0.  1.
          1   -1    0    0  501    0  0.00000000000E+00 -0.00000000000E+00 -0.12898689289E+03  0.12898689289E+03  0.00000000000E+00 0. -1.
         25    2    1    2    0    0 -0.74073992161E+02  0.61429430886E+02  0.35279201318E+02  0.16172149668E+03  0.12509472071E+03 0.  0.
          5    1    3    3  502    0 -0.34102627516E+02 -0.33690042764E+02  0.33159785458E+02  0.58438445877E+02  0.41800000000E+01 0. -1.
         -5    1    3    3    0  502 -0.39971364646E+02  0.95119473650E+02  0.21194158598E+01  0.10328305080E+03  0.41800000000E+01 0. -1.
        -11    1    1    2    0    0 -0.13458559348E+02 -0.37883192455E+02  0.10977337266E+02  0.41674584866E+02  0.00000000000E+00 0.  1.
         11    1    1    2    0    0  0.87532551510E+02 -0.23546238431E+02 -0.96751438455E+01  0.91159098978E+02  0.00000000000E+00 0. -1.
</event>
<event>
 7    1  0.2733606E-009  0.1189967E+03  0.7561462E-02  0.1244761E+00
         -2   -1    0    0    0  501 -0.00000000000E+00  0.00000000000E+00  0.10190803570E+03  0.10190803570E+03  0.00000000000E+00 0. -1.
          2   -1    0    0  501    0  0.00000000000E+00 -0.00000000000E+00 -0.17604936189E+03  0.17604936189E+03  0.00000000000E+00 0.  1.
         25    2    1    2    0    0  0.57345678009E+02 -0.38258861185E+02 -0.33794538735E+00  0.14282393892E+03  0.12508515529E+03 0.  0.
          5    1    3    3  502    0  0.18410568646E+02 -0.81793281012E+02 -0.49368413420E+01  0.84088849790E+02  0.41800000000E+01 0.  1.
         -5    1    3    3    0  502  0.38935109364E+02  0.43534419827E+02  0.45988959546E+01  0.58735089127E+02  0.41800000000E+01 0.  1.
        -11    1    1    2    0    0  0.11028604435E+02  0.22899020586E+02  0.87189494300E+01  0.26870343108E+02  0.00000000000E+00 0.  1.
         11    1    1    2    0    0 -0.68374282444E+02  0.15359840599E+02 -0.82522330234E+02  0.10826311556E+03  0.00000000000E+00 0. -1.
</event>
<event>
 7    1  0.2733606E-009  0.1705931E+03  0.7561462E-02  0.1177231E+00
          1   -1    0    0  501    0  0.00000000000E+00  0.00000000000E+00  0.29075575874E+03  0.29075575874E+03  0.00000000000E+00 0. -1.
         -1   -1    0    0    0  501 -0.00000000000E+00 -0.00000000000E+00 -0.12695928705E+03  0.12695928705E+03  0.00000000000E+00 0.  1.
         25    2    1    2    0    0  0.13932156582E+03  0.67622431767E+02  0.12109255931E+03  0.23301099916E+03  0.12508967115E+03 0.  0.
          5    1    3    3  502    0  0.46654080328E+02  0.68757001293E+02  0.11239366914E+03  0.13983539503E+03  0.41800000000E+01 0. -1.
         -5    1    3    3    0  502  0.92667485490E+02 -0.11345695260E+01  0.86988901615E+01  0.93175604130E+02  0.41800000000E+01 0. -1.
        -11    1    1    2    0    0 -0.11829171687E+03 -0.78077764556E+02  0.61616826308E+02  0.15454999477E+03  0.00000000000E+00 0. -1.
         11    1    1    2    0    0 -0.21029848948E+02  0.10455332788E+02 -0.18912913927E+02  0.30154051862E+02  0.00000000000E+00 0.  1.
</event>
<event>
 7    1  0.2733606E-009  0.1842630E+03  0.7561462E-02  0.1163740E+00
         -1   -1    0    0    0  501 -0.00000000000E+00  0.00000000000E+00  0.28201152314E+02  0.28201152314E+02  0.00000000000E+00 0.  1.
          1   -1    0    0  501    0  0.00000000000E+00 -0.00000000000E+00 -0.14147848013E+04  0.14147848013E+04  0.00000000000E+00 0. -1.
         25    2    1    2    0    0 -0.69498284052E+02 -0.14827221433E+03 -0.60157270186E+03  0.63588270709E+03  0.12506974265E+03 0.  0.
          5    1    3    3  502    0 -0.74393218108E+02 -0.66124994114E+02 -0.47148296546E+03  0.48189264869E+03  0.41800000000E+01 0.  1.
         -5    1    3    3    0  502  0.48949340558E+01 -0.82147220215E+02 -0.13008973640E+03  0.15399005840E+03  0.41800000000E+01 0.  1.
        -11    1    1    2    0    0  0.37321583573E+02  0.26989778012E+01 -0.12600132020E+03  0.13144016804E+03  0.00000000000E+00 0.  1.
         11    1    1    2    0    0  0.32176700479E+02  0.14557323653E+03 -0.65900962690E+03  0.67566307846E+03  0.00000000000E+00 0. -1.
</event>
<event>
 7    1  0.2733606E-009  0.9942590E+02  0.7561462E-02  0.1281508E+00
         -1   -1    0    0    0  501 -0.00000000000E+00  0.00000000000E+00  0.12639383959E+02  0.12639383959E+02  0.00000000000E+00 0.  1.
          1   -1    0    0  501    0  0.00000000000E+00 -0.00000000000E+00 -0.13795917299E+04  0.13795917299E+04  0.00000000000E+00 0. -1.
         25    2    1    2    0    0  0.36989054261E+02  0.35387097614E+02 -0.10577622129E+04  0.10663623205E+04  0.12508901901E+03 0.  0.
          5    1    3    3  502    0  0.48482841960E+02  0.71548402715E+02 -0.51144380469E+03  0.51871186380E+03  0.41800000000E+01 0.  1.
         -5    1    3    3    0  502 -0.11493787699E+02 -0.36161305101E+02 -0.54631840823E+03  0.54765045669E+03  0.41800000000E+01 0.  1.
        -11    1    1    2    0    0 -0.33651020458E+02 -0.49384419978E+02 -0.30511624840E+03  0.31091339173E+03  0.00000000000E+00 0. -1.
         11    1    1    2    0    0 -0.33380338026E+01  0.13997322365E+02 -0.40738846529E+01  0.14955401673E+02  0.00000000000E+00 0.  1.
</event>
<event>
 7    1  0.2733606E-009  0.1406009E+03  0.7561462E-02  0.1212523E+00
          1   -1    0    0  501    0  0.00000000000E+00  0.00000000000E+00  0.53658849063E+02  0.53658849063E+02  0.00000000000E+00 0. -1.
         -1   -1    0    0    0  501 -0.00000000000E+00 -0.00000000000E+00 -0.45654974330E+03  0.45654974330E+03  0.00000000000E+00 0.  1.
         25    2    1    2    0    0  0.16414023444E+02  0.10237646677E+03 -0.27603725176E+03  0.32030478311E+03  0.12509287994E+03 0.  0.
          5    1    3    3  502    0  0.60573450465E+02  0.59659773656E+02 -0.22418200108E+03  0.23979881881E+03  0.41800000000E+01 0. -1.
         -5    1    3    3    0  502 -0.44159427021E+02  0.42716693112E+02 -0.51855250678E+02  0.80505964301E+02  0.41800000000E+01 0. -1.
        -11    1    1    2    0    0 -0.46945520410E+02 -0.90087789044E+02 -0.67285668463E+02  0.12184848297E+03  0.00000000000E+00 0. -1.
         11    1    1    2    0    0  0.30531496966E+02 -0.12288677723E+02 -0.59567974015E+02  0.68055326282E+02  0.00000000000E+00 0.  1.
</event>
<event>
 7    1  0.2733606E-009  0.1510001E+03  0.7561462E-02  0.1199250E+00
         -1   -1    0    0    0  501 -0.00000000000E+00  0.00000000000E+00  0.17066073845E+02  0.17066073845E+02  0.00000000000E+00 0.  1.
          1   -1    0    0  501    0  0.00000000000E+00 -0.00000000000E+00 -0.14450135085E+04  0.14450135085E+04  0.00000000000E+00 0. -1.
         25    2    1    2    0    0 -0.57294253435E+02  0.97225652964E+02 -0.84596633398E+03  0.86257782954E+03  0.12508403059E+03 0.  0.
          5    1    3    3  502    0 -0.14049550364E+01  0.10294949410E+03 -0.39967118481E+03  0.41274096065E+03  0.41800000000E+01 0.  1.
         -5    1    3    3    0  502 -0.55889298399E+02 -0.57238411341E+01 -0.44629514918E+03  0.44983686889E+03  0.41800000000E+01 0.  1.
        -11    1    1    2    0    0 -0.23347863577E+02 -0.26907329457E+02 -0.18223351409E+03  0.18568301153E+03  0.00000000000E+00 0. -1.
         11    1    1    2    0    0  0.80642117012E+02 -0.70318323507E+02 -0.39974758662E+03  0.41381874132E+03  0.00000000000E+00 0.  1.
</event>
<event>
 7    1  0.2733606E-009  0.9844681E+02  0.7561462E-02  0.1283596E+00
          3   -1    0    0  501    0  0.00000000000E+00  0.00000000000E+00  0.12303656672E+03  0.12303656672E+03  0.00000000000E+00 0. -1.
         -3   -1    0    0    0  501 -0.00000000000E+00 -0.00000000000E+00 -0.12667392564E+03  0.12667392564E+03  0.00000000000E+00 0.  1.
         25    2    1    2    0    0  0.16521791680E+02 -0.74783667684E+01  0.54624320984E+02  0.13770560933E+03  0.12510045095E+03 0.  0.
          5    1    3    3  502    0  0.57784209014E+02 -0.21935290482E+02 -0.66622839816E+01  0.62305940389E+02  0.41800000000E+01 0.  1.
         -5    1    3    3    0  502 -0.41262417334E+02  0.14456923713E+02  0.61286604966E+02  0.75399668937E+02  0.41800000000E+01 0.  1.
        -11    1    1    2    0    0 -0.49443945416E+02  0.23111111178E+02 -0.17476063821E+02  0.57308289146E+02  0.00000000000E+00 0. -1.
         11    1    1    2    0    0  0.32922153736E+02 -0.15632744409E+02 -0.40785616080E+02  0.54696593892E+02  0.00000000000E+00 0.  1.
</event>
<event>
 7    1  0.2733606E-009  0.8427143E+02  0.7561462E-02  0.1317349E+00
         -2   -1    0    0    0  501 -0.00000000000E+00  0.00000000000E+00  0.56790856770E+02  0.56790856770E+02  0.00000000000E+00 0.  1.
          2   -1    0    0  501    0  0.00000000000E+00 -0.00000000000E+00 -0.25926415544E+03  0.25926415544E+03  0.00000000000E+00 0. -1.
         25    2    1    2    0    0 -0.92904042744E+01  0.42716751947E+02 -0.74278086093E+02  0.15190669768E+03  0.12508948085E+03 0.  0.
          5    1    3    3  502    0  0.20993686817E+02  0.11365125059E+02  0.30141682452E+02  0.38676793751E+02  0.41800000000E+01 0.  1.
         -5    1    3    3    0  502 -0.30284091091E+02  0.31351626888E+02 -0.10441976855E+03  0.11322990393E+03  0.41800000000E+01 0.  1.
        -11    1    1    2    0    0 -0.13319505471E+02 -0.66430398480E+02 -0.10072342201E+03  0.12139034068E+03  0.00000000000E+00 0. -1.
         11    1    1    2    0    0  0.22609909745E+02  0.23713646533E+02 -0.27471790564E+02  0.42757973845E+02  0.00000000000E+00 0.  1.
</event>
<event>
 7    1  0.2733606E-009  0.1069007E+03  0.7561462E-02  0.1266419E+00
          1   -1    0    0  501    0  0.00000000000E+00  0.00000000000E+00  0.91169187379E+02  0.91169187379E+02  0.00000000000E+00 0. -1.
         -1   -1    0    0    0  501 -0.00000000000E+00 -0.00000000000E+00 -0.13760835502E+03  0.13760835502E+03  0.00000000000E+00 0.  1.
         25    2    1    2    0    0  0.29319152140E+01 -0.29593069839E+02 -0.20306189358E+02  0.13017882565E+03  0.12509931819E+03 0.  0.
          5    1    3    3  502    0  0.56275473851E+02 -0.42865293643E+02 -0.24275582883E+02  0.74907534204E+02  0.41800000000E+01 0. -1.
         -5    1    3    3    0  502 -0.53343558637E+02  0.13272223804E+02  0.39693935249E+01  0.55271291442E+02  0.41800000000E+01 0. -1.
        -11    1    1    2    0    0 -0.18133675579E+02 -0.25143075013E+02 -0.27981334395E+02  0.41760740961E+02  0.00000000000E+00 0.  1.
         11    1    1    2    0    0  0.15201760365E+02  0.54736144852E+02  0.18483561151E+01  0.56837975789E+02  0.00000000000E+00 0. -1.
</event>
<event>
 7    1  0.2733606E-009  0.1003579E+03  0.7561462E-02  0.1279545E+00
          1   -1    0    0  501    0  0.00000000000E+00  0.00000000000E+00  0.11321323807E+03  0.11321323807E+03  0.00000000000E+00 0. -1.
         -1   -1    0    0    0  501 -0.00000000000E+00 -0.00000000000E+00 -0.11193065892E+03  0.11193065892E+03  0.00000000000E+00 0.  1.
         25    2    1    2    0    0 -0.25104130747E+02  0.14746642800E+02  0.15728124999E+02  0.12939298749E+03  0.12508992942E+03 0.  0.
          5    1    3    3  502    0 -0.42205481596E+02  0.51072334249E+02  0.44412439745E+02  0.79872543509E+02  0.41800000000E+01 0.  1.
         -5    1    3    3    0  502  0.17101350849E+02 -0.36325691449E+02 -0.28684314747E+02  0.49520443986E+02  0.41800000000E+01 0.  1.
        -11    1    1    2    0    0 -0.33847007198E+02 -0.54237143651E+01 -0.10866383363E+02  0.35959906301E+02  0.00000000000E+00 0.  1.
         11    1    1    2    0    0  0.58951137944E+02 -0.93229284351E+01 -0.35791624809E+01  0.59791003199E+02  0.00000000000E+00 0. -1.
</event>
<event>
 7    1  0.2733606E-009  0.8921878E+02  0.7561462E-02  0.1304755E+00
         -2   -1    0    0    0  501 -0.00000000000E+00  0.00000000000E+00  0.27165581908E+03  0.27165581908E+03  0.00000000000E+00 0.  1.
          2   -1    0    0  501    0  0.00000000000E+00 -0.00000000000E+00 -0.63476236005E+02  0.63476236005E+02  0.00000000000E+00 0. -1.
         25    2    1    2    0    0 -0.26069145606E+02 -0.52678475520E+02  0.17370700205E+03  0.22198356923E+03  0.12509180753E+03 0.  0.
          5    1    3    3  502    0 -0.98145497189E+00  0.18835895984E+02 -0.11040816362E+02  0.22251432703E+02  0.41800000000E+01 0. -1.
         -5    1    3    3    0  502 -0.25087690634E+02 -0.71514371504E+02  0.18474781841E+03  0.19973213653E+03  0.41800000000E+01 0. -1.
        -11    1    1    2    0    0 -0.10127439129E+02  0.45115030440E+02  0.54195124059E+02  0.71239332301E+02  0.00000000000E+00 0.  1.
         11    1    1    2    0    0  0.36196584734E+02  0.75634450800E+01 -0.19722543036E+02  0.41909153555E+02  0.00000000000E+00 0. -1.
</event>
<event>
 7    1  0.2733606E-009  0.2976792E+03  0.7561462E-02  0.1086407E+00
          1   -1    0    0  501    0  0.00000000000E+00  0.00000000000E+00  0.16083115919E+04  0.16083115919E+04  0.00000000000E+00 0. -1.
         -1   -1    0    0    0  501 -0.00000000000E+00 -0.00000000000E+00 -0.55453373767E+02  0.55453373767E+02  0.00000000000E+00 0.  1.
         25    2    1    2    0    0 -0.21911417565E+03  0.17029033950E+03  0.76465641206E+03  0.82301677016E+03  0.12508938313E+03 0.  0.
          5    1    3    3  502    0 -0.21322972149E+03  0.10557344650E+03  0.56714248119E+03  0.61504530979E+03  0.41800000000E+01 0.  1.
         -5    1    3    3    0  502 -0.58844541626E+01  0.64716893003E+02  0.19751393087E+03  0.20797146037E+03  0.41800000000E+01 0.  1.
        -11    1    1    2    0    0  0.10982744696E+03 -0.28899918841E+02  0.28796735263E+03  0.30955204667E+03  0.00000000000E+00 0.  1.
         11    1    1    2    0    0  0.10928672869E+03 -0.14139042066E+03  0.50023445344E+03  0.53119614883E+03  0.00000000000E+00 0. -1.
</event>
<event>
 7    1  0.2733606E-009  0.9276611E+02  0.7561462E-02  0.1296288E+00
          2   -1    0    0  501    0  0.00000000000E+00  0.00000000000E+00  0.10182871425E+03  0.10182871425E+03  0.00000000000E+00 0. -1.
         -2   -1    0    0    0  501 -0.00000000000E+00 -0.00000000000E+00 -0.14716274568E+03  0.14716274568E+03  0.00000000000E+00 0.  1.
         25    2    1    2    0    0  0.35712675825E+02  0.32895575411E+02 -0.54630263517E+02  0.14487964060E+03  0.12509248767E+03 0.  0.
          5    1    3    3  502    0  0.54378666162E+02  0.70376789448E+01 -0.84609955992E+02  0.10091028348E+03  0.41800000000E+01 0.  1.
         -5    1    3    3    0  502 -0.18665990336E+02  0.25857896466E+02  0.29979692475E+02  0.43969357123E+02  0.41800000000E+01 0.  1.
        -11    1    1    2    0    0 -0.48214631462E+02  0.13708129141E+02 -0.11727524987E+02  0.51479105799E+02  0.00000000000E+00 0.  1.
         11    1    1    2    0    0  0.12501955637E+02 -0.46603704552E+02  0.21023757071E+02  0.52632713535E+02  0.00000000000E+00 0. -1.
</event>
<event>
 7    1  0.2733606E-009  0.8962961E+02  0.7561462E-02  0.1303751E+00
          1   -1    0    0  501    0  0.00000000000E+00  0.00000000000E+00  0.67184877633E+02  0.67184877633E+02  0.00000000000E+00 0. -1.
         -1   -1    0    0    0  501 -0.00000000000E+00 -0.00000000000E+00 -0.21598803709E+03  0.21598803709E+03  0.00000000000E+00 0.  1.
         25    2    1    2    0    0 -0.33001861389E+02 -0.30878551096E+02 -0.56637247897E+02  0.14456490377E+03  0.12509446743E+03 0.  0.
          5    1    3    3  502    0  0.28438430040E+02 -0.32223330512E+02 -0.69326469724E+02  0.81674470533E+02  0.41800000000E+01 0. -1.
         -5    1    3    3    0  502 -0.61440291429E+02  0.13447794158E+01  0.12689221827E+02  0.62890433240E+02  0.41800000000E+01 0. -1.
        -11    1    1    2    0    0  0.40384129840E+02 -0.23408195433E+01 -0.97612479921E-01  0.40452032177E+02  0.00000000000E+00 0. -1.
         11    1    1    2    0    0 -0.73822684513E+01  0.33219370639E+02 -0.92068299075E+02  0.98155978767E+02  0.00000000000E+00 0.  1.
</event>
<event>
 7    1  0.2733606E-009  0.1171740E+03  0.7561462E-02  0.1247833E+00
         -2   -1    0    0    0  501 -0.00000000000E+00  0.00000000000E+00  0.19420090297E+02  0.19420090297E+02  0.00000000000E+00 0.  1.
          2   -1    0    0  501    0  0.00000000000E+00 -0.00000000000E+00 -0.10446008298E+04  0.10446008298E+04  0.00000000000E+00 0. -1.
         25    2    1    2    0    0  0.10157419053E+02 -0.90810888545E+02 -0.51850247692E+03  0.54114879030E+03  0.12508958403E+03 0.  0.
          5    1    3    3  502    0  0.80008726383E+01  0.63117861567E+01 -0.31921235553E+03  0.31940233708E+03  0.41800000000E+01 0. -1.
         -5    1    3    3    0  502  0.21565464146E+01 -0.97122674702E+02 -0.19929012139E+03  0.22174645322E+03  0.41800000000E+01 0. -1.
        -11    1    1    2    0    0 -0.23764319086E+02  0.10427843122E+03 -0.46282907467E+03  0.47502577450E+03  0.00000000000E+00 0.  1.
         11    1    1    2    0    0  0.13606900033E+02 -0.13467542678E+02 -0.43849187891E+02  0.47846355274E+02  0.00000000000E+00 0. -1.
</event>
<event>
 7    1  0.2733606E-009  0.1142689E+03  0.7561462E-02  0.1252863E+00
         -1   -1    0    0    0  501 -0.00000000000E+00  0.00000000000E+00  0.22709752389E+03  0.22709752389E+03  0.00000000000E+00 0.  1.
          1   -1    0    0  501    0  0.00000000000E+00 -0.00000000000E+00 -0.84070168087E+02  0.84070168087E+02  0.00000000000E+00 0. -1.
         25    2    1    2    0    0  0.23759867020E+02  0.39730560148E+02 -0.34863678960E+01  0.13342855792E+03  0.12509187271E+03 0.  0.
          5    1    3    3  502    0 -0.49573719164E+02  0.19968568266E+00  0.23893691599E+01  0.49807378882E+02  0.41800000000E+01 0.  1.
         -5    1    3    3    0  502  0.73333586184E+02  0.39530874465E+02 -0.58757370559E+01  0.83621179043E+02  0.41800000000E+01 0.  1.
        -11    1    1    2    0    0 -0.21218063589E+02  0.23746697961E+02  0.78282326811E+02  0.84511742246E+02  0.00000000000E+00 0. -1.
         11    1    1    2    0    0 -0.25418034313E+01 -0.63477258109E+02  0.68231396892E+02  0.93227391810E+02  0.00000000000E+00 0.  1.
</event>
<event>
 7    1  0.2733606E-009  0.1384083E+03  0.7561462E-02  0.1215487E+00
          1   -1    0    0  501    0  0.00000000000E+00  0.00000000000E+00  0.67612467452E+02  0.67612467452E+02  0.00000000000E+00 0. -1.
         -1   -1    0    0    0  501 -0.00000000000E+00 -0.00000000000E+00 -0.28424504788E+03  0.28424504788E+03  0.00000000000E+00 0.  1.
         25    2    1    2    0    0 -0.84409969942E+02  0.23722205035E+02 -0.12053726122E+03  0.19458301367E+03  0.12508210035E+03 0.  0.
          5    1    3    3  502    0  0.17005107031E+02  0.45647909189E+02 -0.37171235948E+02  0.61417248884E+02  0.41800000000E+01 0. -1.
         -5    1    3    3    0  502 -0.10141507697E+03 -0.21925704154E+02 -0.83366025274E+02  0.13316576478E+03  0.41800000000E+01 0. -1.
        -11    1    1    2    0    0  0.87618215430E+02  0.11805975638E+02 -0.74177874155E+02  0.11540662784E+03  0.00000000000E+00 0.  1.
         11    1    1    2    0    0 -0.32082454884E+01 -0.35528180673E+02 -0.21917445052E+02  0.41867873826E+02  0.00000000000E+00 0. -1.
</event>
<event>
 7    1  0.2733606E-009  0.9981849E+02  0.7561462E-02  0.1280678E+00
         -1   -1    0    0    0  501 -0.00000000000E+00  0.00000000000E+00  0.87934816587E+02  0.87934816587E+02  0.00000000000E+00 0.  1.
          1   -1    0    0  501    0  0.00000000000E+00 -0.00000000000E+00 -0.17727241649E+03  0.17727241649E+03  0.00000000000E+00 0. -1.
         25    2    1    2    0    0  0.59891737353E+02 -0.15878410485E+02 -0.53524900573E+02  0.14950455150E+03  0.12509017473E+03 0.  0.
          5    1    3    3  502    0  0.94215724633E+02 -0.97750468521E+00 -0.59308170456E+02  0.11141135385E+03  0.41800000000E+01 0.  1.
         -5    1    3    3    0  502 -0.34323987280E+02 -0.14900905799E+02  0.57832698826E+01  0.38093197647E+02  0.41800000000E+01 0.  1.
        -11    1    1    2    0    0 -0.53716335468E+02  0.34899860767E+01  0.20584844671E+02  0.57631246117E+02  0.00000000000E+00 0.  1.
         11    1    1    2    0    0 -0.61754018854E+01  0.12388424408E+02 -0.56397543999E+02  0.58071435464E+02  0.00000000000E+00 0. -1.
</event>
<event>
 7    1  0.2733606E-009  0.1542915E+03  0.7561462E-02  0.1195297E+00
         -1   -1    0    0    0  501 -0.00000000000E+00  0.00000000000E+00  0.28352072777E+02  0.28352072777E+02  0.00000000000E+00 0.  1.
          1   -1    0    0  501    0  0.00000000000E+00 -0.00000000000E+00 -0.85603913825E+03  0.85603913825E+03  0.00000000000E+00 0. -1.
         25    2    1    2    0    0  0.10077538254E+03 -0.43946344174E+02 -0.49511647024E+03  0.52237413213E+03  0.12508979143E+03 0.  0.
          5    1    3    3  502    0  0.10353461437E+03  0.16631581944E+02 -0.33764281433E+03  0.35357625537E+03  0.41800000000E+01 0. -1.
         -5    1    3    3    0  502 -0.27592318280E+01 -0.60577926118E+02 -0.15747365591E+03  0.16879787676E+03  0.41800000000E+01 0. -1.
        -11    1    1    2    0    0  0.91720845294E+01  0.30783213644E+02 -0.82165299761E+02  0.88220575047E+02  0.00000000000E+00 0. -1.
         11    1    1    2    0    0 -0.10994746707E+03  0.13163130530E+02 -0.25040529547E+03  0.27379650385E+03  0.00000000000E+00 0.  1.
</event>
<event>
 7    1  0.2733606E-009  0.1606218E+03  0.7561462E-02  0.1187996E+00
         -1   -1    0    0    0  501 -0.00000000000E+00  0.00000000000E+00  0.98671703554E+02  0.98671703554E+02  0.00000000000E+00 0.  1.
          1   -1    0    0  501    0  0.00000000000E+00 -0.00000000000E+00 -0.31385369722E+03  0.31385369722E+03  0.00000000000E+00 0. -1.
         25    2    1    2    0    0  0.44542686970E+02 -0.12831624271E+03 -0.14454630839E+03  0.23450184380E+03  0.12509344656E+03 0.  0.
          5    1    3    3  502    0  0.52249572786E+02 -0.13725147432E+03 -0.15825326709E+03  0.21593877374E+03  0.41800000000E+01 0.  1.
         -5    1    3    3    0  502 -0.77068858158E+01  0.89352316153E+01  0.13706958704E+02  0.18563070056E+02  0.41800000000E+01 0.  1.
        -11    1    1    2    0    0 -0.59107127301E+02  0.37879121488E+02 -0.18400652668E+02  0.72574543478E+02  0.00000000000E+00 0.  1.
         11    1    1    2    0    0  0.14564440330E+02  0.90437121218E+02 -0.52235032610E+02  0.10544901350E+03  0.00000000000E+00 0. -1.
</event>
<event>
 7    1  0.2733606E-009  0.7777005E+02  0.7561462E-02  0.1335502E+00
         -2   -1    0    0    0  501 -0.00000000000E+00  0.00000000000E+00  0.53541682792E+03  0.53541682792E+03  0.00000000000E+00 0. -1.
          2   -1    0    0  501    0  0.00000000000E+00 -0.00000000000E+00 -0.28050146506E+02  0.28050146506E+02  0.00000000000E+00 0.  1.
         25    2    1    2    0    0  0.53982828600E+01  0.33738354022E+02  0.38487717340E+03  0.40613484222E+03  0.12509058105E+03 0.  0.
          5    1    3    3  502    0  0.50671546338E+01 -0.35102218317E+02  0.36756061740E+02  0.51247656156E+02  0.41800000000E+01 0. -1.
         -5    1    3    3    0  502  0.33112822625E+00  0.68840572339E+02  0.34812111166E+03  0.35488718606E+03  0.41800000000E+01 0. -1.
        -11    1    1    2    0    0 -0.18625271614E+02 -0.50935405724E+01 -0.95736991910E+01  0.21552276317E+02  0.00000000000E+00 0.  1.
         11    1    1    2    0    0  0.13226988754E+02 -0.28644813450E+02  0.13206320720E+03  0.13577985589E+03  0.00000000000E+00 0. -1.
</event>
<event>
 7    1  0.2733606E-009  0.9516079E+02  0.7561462E-02  0.1290814E+00
         -1   -1    0    0    0  501 -0.00000000000E+00  0.00000000000E+00  0.38186119211E+03  0.38186119211E+03  0.00000000000E+00 0.  1.
          1   -1    0    0  501    0  0.00000000000E+00 -0.00000000000E+00 -0.33485603902E+02  0.33485603902E+02  0.00000000000E+00 0. -1.
         25    2    1    2    0    0  0.38004361949E+02  0.24080989603E+02  0.18816283188E+03  0.23038360352E+03  0.12508848022E+03 0.  0.
          5    1    3    3  502    0  0.58785243251E+02  0.45918040468E+02  0.18532626178E+03  0.19981858515E+03  0.41800000000E+01 0. -1.
         -5    1    3    3    0  502 -0.20780881303E+02 -0.21837050865E+02  0.28365700974E+01  0.30565018372E+02  0.41800000000E+01 0. -1.
        -11    1    1    2    0    0 -0.23412390741E+01 -0.44179462129E+02  0.46860665947E+02  0.64445545132E+02  0.00000000000E+00 0. -1.
         11    1    1    2    0    0 -0.35663122874E+02  0.20098472526E+02  0.11335209038E+03  0.12051764736E+03  0.00000000000E+00 0.  1.
</event>
<event>
 7    1  0.2733606E-009  0.8429269E+02  0.7561462E-02  0.1317293E+00
         -1   -1    0    0    0  501 -0.00000000000E+00  0.00000000000E+00  0.40454240172E+02  0.40454240172E+02  0.00000000000E+00 0.  1.
          1   -1    0    0  501    0  0.00000000000E+00 -0.00000000000E+00 -0.36983726943E+03  0.36983726943E+03  0.00000000000E+00 0. -1.
         25    2    1    2    0    0  0.14485405809E+02 -0.59418071723E+02 -0.23629015374E+03  0.27426497042E+03  0.12509157853E+03 0.  0.
          5    1    3    3  502    0  0.20118896602E+02 -0.14981874244E+02 -0.22688515768E+03  0.22830587757E+03  0.41800000000E+01 0.  1.
         -5    1    3    3    0  502 -0.56334907933E+01 -0.44436197479E+02 -0.94049960559E+01  0.45959092852E+02  0.41800000000E+01 0.  1.
        -11    1    1    2    0    0  0.26151520263E+02 -0.38628277612E-01 -0.33836832189E+02  0.42764877140E+02  0.00000000000E+00 0. -1.
         11    1    1    2    0    0 -0.40636926072E+02  0.59456700001E+02 -0.59256043333E+02  0.93261662043E+02  0.00000000000E+00 0.  1.
</event>
<event>
 7    1  0.2733606E-009  0.1710754E+03  0.7561462E-02  0.1176731E+00
         -2   -1    0    0    0  501 -0.00000000000E+00  0.00000000000E+00  0.38855753286E+02  0.38855753286E+02  0.00000000000E+00 0.  1.
          2   -1    0    0  501    0  0.00000000000E+00 -0.00000000000E+00 -0.10654132392E+04  0.10654132392E+04  0.00000000000E+00 0. -1.
         25    2    1    2    0    0  0.38684866134E+02 -0.15498739881E+03 -0.71464743309E+03  0.74289009629E+03  0.12508848426E+03 0.  0.
          5    1    3    3  502    0  0.33189269505E+02 -0.76923372472E+02 -0.14215293812E+03  0.16505654503E+03  0.41800000000E+01 0. -1.
         -5    1    3    3    0  502  0.54955966293E+01 -0.78064026333E+02 -0.57249449497E+03  0.57783355126E+03  0.41800000000E+01 0. -1.
        -11    1    1    2    0    0  0.25133746987E+02  0.64036910560E+02 -0.14988385322E+03  0.16491695064E+03  0.00000000000E+00 0.  1.
         11    1    1    2    0    0 -0.63818613121E+02  0.90950488245E+02 -0.16202619961E+03  0.19646194556E+03  0.00000000000E+00 0. -1.
</event>
<event>
 7    1  0.2733606E-009  0.1037337E+03  0.7561462E-02  0.1272635E+00
         -2   -1    0    0    0  501 -0.00000000000E+00  0.00000000000E+00  0.22810099061E+02  0.22810099061E+02  0.00000000000E+00 0.  1.
          2   -1    0    0  501    0  0.00000000000E+00 -0.00000000000E+00 -0.55732894119E+03  0.55732894119E+03  0.00000000000E+00 0. -1.
         25    2    1    2    0    0 -0.25306837691E+02 -0.92539600076E+01 -0.28091055701E+03  0.30868060192E+03  0.12508757392E+03 0.  0.
          5    1    3    3  502    0 -0.42628158637E+02  0.49439962895E+02 -0.16600012862E+03  0.17842361095E+03  0.41800000000E+01 0.  1.
         -5    1    3    3    0  502  0.17321320946E+02 -0.58693922902E+02 -0.11491042839E+03  0.13025699097E+03  0.41800000000E+01 0.  1.
        -11    1    1    2    0    0 -0.17991129323E+02  0.28202225061E+02 -0.18590270350E+03  0.18888848933E+03  0.00000000000E+00 0. -1.
         11    1    1    2    0    0  0.43297967014E+02 -0.18948265053E+02 -0.67705581615E+02  0.82569949000E+02  0.00000000000E+00 0.  1.
</event>
<event>
 7    1  0.2733606E-009  0.1703988E+03  0.7561462E-02  0.1177433E+00
          2   -1    0    0  501    0  0.00000000000E+00  0.00000000000E+00  0.44829851516E+03  0.44829851516E+03  0.00000000000E+00 0. -1.
         -2   -1    0    0    0  501 -0.00000000000E+00 -0.00000000000E+00 -0.83627509439E+02  0.83627509439E+02  0.00000000000E+00 0.  1.
         25    2    1    2    0    0 -0.16109125025E+02  0.15727456709E+03  0.15652521303E+03  0.25523019756E+03  0.12509003984E+03 0.  0.
          5    1    3    3  502    0 -0.47487188623E+02  0.46915019050E+02  0.11520141231E+03  0.13320994668E+03  0.41800000000E+01 0. -1.
         -5    1    3    3    0  502  0.31378063598E+02  0.11035954804E+03  0.41323800724E+02  0.12202025088E+03  0.41800000000E+01 0. -1.
        -11    1    1    2    0    0  0.13834629577E+02 -0.52139846286E+02  0.14338105947E+03  0.15319297883E+03  0.00000000000E+00 0. -1.
         11    1    1    2    0    0  0.22744954486E+01 -0.10513472081E+03  0.64764733218E+02  0.12350284821E+03  0.00000000000E+00 0.  1.
</event>
<event>
 7    1  0.2733606E-009  0.6770990E+02  0.7561462E-02  0.1368058E+00
         -1   -1    0    0    0  501 -0.00000000000E+00  0.00000000000E+00  0.15293974857E+03  0.15293974857E+03  0.00000000000E+00 0.  1.
          1   -1    0    0  501    0  0.00000000000E+00 -0.00000000000E+00 -0.60839417183E+02  0.60839417183E+02  0.00000000000E+00 0. -1.
         25    2    1    2    0    0 -0.41829987262E+02 -0.42124560006E+01  0.81471303984E+02  0.15508900825E+03  0.12509010547E+03 0.  0.
          5    1    3    3  502    0  0.36007862614E+01  0.30650083854E+02  0.91631420159E+02  0.96779041441E+02  0.41800000000E+01 0. -1.
         -5    1    3    3    0  502 -0.45430773524E+02 -0.34862539855E+02 -0.10160116175E+02  0.58309966805E+02  0.41800000000E+01 0. -1.
        -11    1    1    2    0    0  0.17744877193E+02  0.12143049775E+02  0.22122061690E+02  0.30849958474E+02  0.00000000000E+00 0.  1.
         11    1    1    2    0    0  0.24085110070E+02 -0.79305937749E+01 -0.11493034292E+02  0.27840199028E+02  0.00000000000E+00 0. -1.
</event>
<event>
 7    1  0.2733606E-009  0.1104716E+03  0.7561462E-02  0.1259699E+00
          1   -1    0    0  501    0  0.00000000000E+00  0.00000000000E+00  0.93187968272E+02  0.93187968272E+02  0.00000000000E+00 0. -1.
         -1   -1    0    0    0  501 -0.00000000000E+00 -0.00000000000E+00 -0.17282128888E+03  0.17282128888E+03  0.00000000000E+00 0.  1.
         25    2    1    2    0    0  0.39833432520E+02 -0.41554373196E+02 -0.46767533982E+02  0.14542500370E+03  0.12509101162E+03 0.  0.
          5    1    3    3  502    0  0.62373471133E+02  0.58921143044E+00  0.17785399308E+02  0.64996845307E+02  0.41800000000E+01 0.  1.
         -5    1    3    3    0  502 -0.22540038613E+02 -0.42143584627E+02 -0.64552933290E+02  0.80428158391E+02  0.41800000000E+01 0.  1.
        -11    1    1    2    0    0 -0.71060197991E+02  0.30451018646E+02 -0.39451481339E+02  0.86794214409E+02  0.00000000000E+00 0.  1.
         11    1    1    2    0    0  0.31226765470E+02  0.11103354550E+02  0.65856947111E+01  0.33790039048E+02  0.00000000000E+00 0. -1.
</event>
<event>
 7    1  0.2733606E-009  0.1070375E+03  0.7561462E-02  0.1266156E+00
         -2   -1    0    0    0  501 -0.00000000000E+00  0.00000000000E+00  0.37794906366E+03  0.37794906366E+03  0.00000000000E+00 0.  1.
          2   -1    0    0  501    0  0.00000000000E+00 -0.00000000000E+00 -0.47684766371E+02  0.47684766371E+02  0.00000000000E+00 0. -1.
         25    2    1    2    0    0  0.36258659518E+01 -0.73290059284E+02  0.17246367376E+03  0.22533650485E+03  0.12509293329E+03 0.  0.
          5    1    3    3  502    0  0.64168919325E+01 -0.90136827906E+02  0.53535375483E+02  0.10511580792E+03  0.41800000000E+01 0. -1.
         -5    1    3    3    0  502 -0.27910259807E+01  0.16846768622E+02  0.11892829827E+03  0.12022069693E+03  0.41800000000E+01 0. -1.
        -11    1    1    2    0    0 -0.39697020996E+02  0.30458073665E+02  0.24498360360E+02  0.55711016753E+02  0.00000000000E+00 0. -1.
         11    1    1    2    0    0  0.36071155044E+02  0.42831985619E+02  0.13330226317E+03  0.14458630842E+03  0.00000000000E+00 0.  1.
</event>
<event>
 7    1  0.2733606E-009  0.1054878E+03  0.7561462E-02  0.1269162E+00
         -1   -1    0    0    0  501 -0.00000000000E+00  0.00000000000E+00  0.29011988812E+02  0.29011988812E+02  0.00000000000E+00 0.  1.
          1   -1    0    0  501    0  0.00000000000E+00 -0.00000000000E+00 -0.47945299390E+03  0.47945299390E+03  0.00000000000E+00 0. -1.
         25    2    1    2    0    0 -0.28749308567E+02  0.23190916801E+02 -0.30447937616E+03  0.33123398584E+03  0.12507566310E+03 0.  0.
          5    1    3    3  502    0  0.27888029947E+01  0.68224242281E+02 -0.11414993330E+03  0.13307894022E+03  0.41800000000E+01 0.  1.
         -5    1    3    3    0  502 -0.31538111562E+02 -0.45033325480E+02 -0.19032944286E+03  0.19815504562E+03  0.41800000000E+01 0.  1.
        -11    1    1    2    0    0 -0.74057012272E+01 -0.44733746378E+02 -0.31319580787E+02  0.55107790887E+02  0.00000000000E+00 0.  1.
         11    1    1    2    0    0  0.36155009794E+02  0.21542829578E+02 -0.11464204814E+03  0.12212320599E+03  0.00000000000E+00 0. -1.
</event>
<event>
 7    1  0.2733606E-009  0.1013106E+03  0.7561462E-02  0.1277564E+00
          1   -1    0    0  501    0  0.00000000000E+00  0.00000000000E+00  0.68891215729E+03  0.68891215729E+03  0.00000000000E+00 0. -1.
         -1   -1    0    0    0  501 -0.00000000000E+00 -0.00000000000E+00 -0.18863675769E+02  0.18863675769E+02  0.00000000000E+00 0.  1.
         25    2    1    2    0    0  0.18676639413E+02 -0.15513158089E+02  0.46766607431E+03  0.48471474019E+03  0.12508935753E+03 0.  0.
          5    1    3    3  502    0  0.29352400902E+02 -0.66037724481E+02  0.21715650113E+03  0.22890382888E+03  0.41800000000E+01 0.  1.
         -5    1    3    3    0  502 -0.10675761489E+02  0.50524566392E+02  0.25050957318E+03  0.25581091131E+03  0.41800000000E+01 0.  1.
        -11    1    1    2    0    0  0.12450367104E+02  0.38023925922E+02  0.16380238302E+03  0.16861806329E+03  0.00000000000E+00 0. -1.
         11    1    1    2    0    0 -0.31127006517E+02 -0.22510767833E+02  0.38580024195E+02  0.54443029582E+02  0.00000000000E+00 0.  1.
</event>
<event>
 7    1  0.2733606E-009  0.2180326E+03  0.7561462E-02  0.1135358E+00
         -1   -1    0    0    0  501 -0.00000000000E+00  0.00000000000E+00  0.46892523824E+02  0.46892523824E+02  0.00000000000E+00 0.  1.
          1   -1    0    0  501    0  0.00000000000E+00 -0.00000000000E+00 -0.11958265818E+04  0.11958265818E+04  0.00000000000E+00 0. -1.
         25    2    1    2    0    0 -0.13265079458E+03  0.15755433107E+03 -0.70933688664E+03  0.74915052271E+03  0.12509231151E+03 0.  0.
          5    1    3    3  502    0 -0.47512722601E+02  0.47021738485E+01 -0.60826571116E+02  0.77439740455E+02  0.41800000000E+01 0. -1.
         -5    1    3    3    0  502 -0.85138071976E+02  0.15285215722E+03 -0.64851031552E+03  0.67171078226E+03  0.41800000000E+01 0. -1.
        -11    1    1    2    0    0  0.11924397774E+03 -0.15994779513E+03 -0.43600840300E+03  0.47948488076E+03  0.00000000000E+00 0. -1.
         11    1    1    2    0    0  0.13406816834E+02  0.23934640627E+01 -0.35887683336E+01  0.14083702141E+02  0.00000000000E+00 0.  1.
</event>
<event>
 7    1  0.2733606E-009  0.1305211E+03  0.7561462E-02  0.1226685E+00
         -1   -1    0    0    0  501 -0.00000000000E+00  0.00000000000E+00  0.85078633366E+02  0.85078633366E+02  0.00000000000E+00 0.  1.
          1   -1    0    0  501    0  0.00000000000E+00 -0.00000000000E+00 -0.22278668506E+03  0.22278668506E+03  0.00000000000E+00 0. -1.
         25    2    1    2    0    0 -0.21982668216E+02  0.81649593125E+02 -0.77777338367E+02  0.16984429621E+03  0.12509147386E+03 0.  0.
          5    1    3    3  502    0 -0.72267464053E+02  0.43831547135E+02 -0.26825086519E+02  0.88774143486E+02  0.41800000000E+01 0.  1.
         -5    1    3    3    0  502  0.50284795837E+02  0.37818045991E+02 -0.50952251847E+02  0.81070152727E+02  0.41800000000E+01 0.  1.
        -11    1    1    2    0    0 -0.23372776059E+02 -0.57296959976E+02 -0.40070735131E+01  0.62010361403E+02  0.00000000000E+00 0. -1.
         11    1    1    2    0    0  0.45355444275E+02 -0.24352633149E+02 -0.55923639813E+02  0.76010660809E+02  0.00000000000E+00 0.  1.
</event>
<event>
 7    1  0.2733606E-009  0.1247268E+03  0.7561462E-02  0.1235497E+00
         -2   -1    0    0    0  501 -0.00000000000E+00  0.00000000000E+00  0.36192626907E+02  0.36192626907E+02  0.00000000000E+00 0.  1.
          2   -1    0    0  501    0  0.00000000000E+00 -0.00000000000E+00 -0.45889887236E+03  0.45889887236E+03  0.00000000000E+00 0. -1.
         25    2    1    2    0    0 -0.66523635111E+02  0.25692506284E+01 -0.20748231224E+03  0.25125402265E+03  0.12509068281E+03 0.  0.
          5    1    3    3  502    0 -0.18692485672E+02 -0.56841593957E+02 -0.58269476309E+02  0.83625235985E+02  0.41800000000E+01 0. -1.
         -5    1    3    3    0  502 -0.47831149439E+02  0.59410844585E+02 -0.14921283594E+03  0.16762878667E+03  0.41800000000E+01 0. -1.
        -11    1    1    2    0    0  0.51202807409E+02  0.41829618554E+02 -0.14489532850E+03  0.15926738742E+03  0.00000000000E+00 0.  1.
         11    1    1    2    0    0  0.15320827702E+02 -0.44398869183E+02 -0.70328604706E+02  0.84570089193E+02  0.00000000000E+00 0. -1.
</event>
<event>
 7    1  0.2733606E-009  0.1183142E+03  0.7561462E-02  0.1245904E+00
          1   -1    0    0  501    0  0.00000000000E+00  0.00000000000E+00  0.12783095605E+03  0.12783095605E+03  0.00000000000E+00 0. -1.
         -1   -1    0    0    0  501 -0.00000000000E+00 -0.00000000000E+00 -0.19865952023E+03  0.19865952023E+03  0.00000000000E+00 0.  1.
         25    2    1    2    0    0  0.18282688881E+02  0.76063017689E+02  0.50122212415E+02  0.15581630301E+03  0.12508654897E+03 0.  0.
          5    1    3    3  502    0  0.38303009164E+02  0.44062762175E+00  0.65488985721E+02  0.75984171473E+02  0.41800000000E+01 0. -1.
         -5    1    3    3    0  502 -0.20020320282E+02  0.75622390067E+02 -0.15366773307E+02  0.79832131536E+02  0.41800000000E+01 0. -1.
        -11    1    1    2    0    0  0.79058334941E+01 -0.89824783325E+02 -0.83012680549E+02  0.12256467286E+03  0.00000000000E+00 0.  1.
         11    1    1    2    0    0 -0.26188522375E+02  0.13761765636E+02 -0.37938096049E+02  0.48109500408E+02  0.00000000000E+00 0. -1.
</event>
<event>
 7    1  0.2733606E-009  0.9121575E+02  0.7561462E-02  0.1299934E+00
          2   -1    0    0  501    0  0.00000000000E+00  0.00000000000E+00  0.36599783015E+03  0.36599783015E+03  0.00000000000E+00 0. -1.
         -2   -1    0    0    0  501 -0.00000000000E+00 -0.00000000000E+00 -0.40732388216E+02  0.40732388216E+02  0.00000000000E+00 0.  1.
         25    2    1    2    0    0 -0.24172493006E+02 -0.26297868573E+02  0.25396627062E+03  0.28534460759E+03  0.12508713426E+03 0.  0.
          5    1    3    3  502    0 -0.47531964041E+02 -0.47262630417E+02  0.64047024461E+02  0.92803758447E+02  0.41800000000E+01 0. -1.
         -5    1    3    3    0  502  0.23359471035E+02  0.20964761845E+02  0.18991924616E+03  0.19254084914E+03  0.41800000000E+01 0. -1.
        -11    1    1    2    0    0  0.32559916101E+02  0.49323175068E+02  0.16506600696E+02  0.61362786783E+02  0.00000000000E+00 0.  1.
         11    1    1    2    0    0 -0.83874230950E+01 -0.23025306495E+02  0.54792570617E+02  0.60022823994E+02  0.00000000000E+00 0. -1.
</event>
<event>
 7    1  0.2733606E-009  0.1614504E+03  0.7561462E-02  0.1187069E+00
         -2   -1    0    0    0  501 -0.00000000000E+00  0.00000000000E+00  0.41561963956E+02  0.41561963956E+02  0.00000000000E+00 0.  1.
          2   -1    0    0  501    0  0.00000000000E+00 -0.00000000000E+00 -0.66498692399E+03  0.66498692399E+03  0.00000000000E+00 0. -1.
         25    2    1    2    0    0 -0.11555562530E+03  0.46706978660E+02 -0.36456551822E+03  0.40508069368E+03  0.12509079474E+03 0.  0.
          5    1    3    3  502    0  0.84892648299E+00 -0.29748972302E+02 -0.29107677826E+02  0.41838395495E+02  0.41800000000E+01 0.  1.
         -5    1    3    3    0  502 -0.11640455178E+03  0.76455950962E+02 -0.33545784039E+03  0.36324229819E+03  0.41800000000E+01 0.  1.
        -11    1    1    2    0    0  0.88160528772E+02 -0.73811062696E+02 -0.17818512264E+03  0.21206199504E+03  0.00000000000E+00 0.  1.
         11    1    1    2    0    0  0.27395096526E+02  0.27104084036E+02 -0.80674319170E+02  0.89406199219E+02  0.00000000000E+00 0. -1.
</event>
<event>
 7    1  0.2733606E-009  0.1050773E+03  0.7561462E-02  0.1269967E+00
          1   -1    0    0  501    0  0.00000000000E+00  0.00000000000E+00  0.23264091849E+02  0.23264091849E+02  0.00000000000E+00 0.  1.
         -1   -1    0    0    0  501 -0.00000000000E+00 -0.00000000000E+00 -0.61280619812E+03  0.61280619812E+03  0.00000000000E+00 0. -1.
         25    2    1    2    0    0  0.23093793842E+02  0.80302211693E+00 -0.44837352221E+03  0.46606935968E+03  0.12509142442E+03 0.  0.
          5    1    3    3  502    0  0.23958822581E+02 -0.55944266994E+02 -0.14346434160E+03  0.15589507978E+03  0.41800000000E+01 0.  1.
         -5    1    3    3    0  502 -0.86502873836E+00  0.56747289111E+02 -0.30490918060E+03  0.31017427990E+03  0.41800000000E+01 0.  1.
        -11    1    1    2    0    0 -0.92278916999E+01 -0.44993483143E+02 -0.51003124845E+02  0.68635896253E+02  0.00000000000E+00 0.  1.
         11    1    1    2    0    0 -0.13865902142E+02  0.44190461026E+02 -0.90165459216E+02  0.10136503403E+03  0.00000000000E+00 0. -1.
</event>
<event>
 7    1  0.2733606E-009  0.1934542E+03  0.7561462E-02  0.1155382E+00
         -2   -1    0    0    0  501 -0.00000000000E+00  0.00000000000E+00  0.34516260909E+02  0.34516260909E+02  0.00000000000E+00 0.  1.
          2   -1    0    0  501    0  0.00000000000E+00 -0.00000000000E+00 -0.12510234467E+04  0.12510234467E+04  0.00000000000E+00 0. -1.
         25    2    1    2    0    0 -0.17380501372E+03  0.49561599443E+00 -0.74237079674E+03  0.77263826819E+03  0.12508822966E+03 0.  0.
          5    1    3    3  502    0 -0.32999901832E+02 -0.47826224672E+02 -0.13063918682E+03  0.14303989241E+03  0.41800000000E+01 0.  1.
         -5    1    3    3    0  502 -0.14080511188E+03  0.48321840667E+02 -0.61173160992E+03  0.62959837579E+03  0.41800000000E+01 0.  1.
        -11    1    1    2    0    0  0.71498263939E+02 -0.22745540361E+02 -0.10398148488E+03  0.12822445379E+03  0.00000000000E+00 0. -1.
         11    1    1    2    0    0  0.10230674978E+03  0.22249924367E+02 -0.37015490419E+03  0.38467698564E+03  0.00000000000E+00 0.  1.
</event>
<event>
 7    1  0.2733606E-009  0.1763203E+03  0.7561462E-02  0.1171413E+00
          3   -1    0    0  501    0  0.00000000000E+00  0.00000000000E+00  0.10415855844E+04  0.10415855844E+04  0.00000000000E+00 0. -1.
         -3   -1    0    0    0  501 -0.00000000000E+00 -0.00000000000E+00 -0.32793416972E+02  0.32793416972E+02  0.00000000000E+00 0.  1.
         25    2    1    2    0    0 -0.10312867138E+03  0.10713672094E+03  0.57257324327E+03  0.60465021748E+03  0.12509183328E+03 0.  0.
          5    1    3    3  502    0 -0.39124657426E+01 -0.26118721025E+02  0.10752632125E+03  0.11080107011E+03  0.41800000000E+01 0. -1.
         -5    1    3    3    0  502 -0.99216205638E+02  0.13325544197E+03  0.46504692202E+03  0.49384914737E+03  0.41800000000E+01 0. -1.
        -11    1    1    2    0    0  0.20336933171E+02 -0.62353974384E+02  0.27796304872E+03  0.28559598286E+03  0.00000000000E+00 0. -1.
         11    1    1    2    0    0  0.82791738210E+02 -0.44782746558E+02  0.15825587542E+03  0.18413280102E+03  0.00000000000E+00 0.  1.
</event>
<event>
 7    1  0.2733606E-009  0.1879051E+03  0.7561462E-02  0.1160364E+00
          2   -1    0    0  501    0  0.00000000000E+00  0.00000000000E+00  0.24280151152E+03  0.24280151152E+03  0.00000000000E+00 0. -1.
         -2   -1    0    0    0  501 -0.00000000000E+00 -0.00000000000E+00 -0.16701881549E+03  0.16701881549E+03  0.00000000000E+00 0.  1.
         25    2    1    2    0    0  0.21195287564E+02  0.16434907763E+03  0.80599105920E+01  0.20777306889E+03  0.12507928071E+03 0.  0.
          5    1    3    3  502    0  0.95052465319E+01  0.18041777815E+03  0.23535105869E+02  0.18224241546E+03  0.41800000000E+01 0.  1.
         -5    1    3    3    0  502  0.11690041032E+02 -0.16068700516E+02 -0.15475195277E+02  0.25530653428E+02  0.41800000000E+01 0.  1.
        -11    1    1    2    0    0 -0.34001876045E+02 -0.54791844910E+02  0.65218744212E+02  0.91715639014E+02  0.00000000000E+00 0.  1.
         11    1    1    2    0    0  0.12806588482E+02 -0.10955723272E+03  0.25040412262E+01  0.11033161910E+03  0.00000000000E+00 0. -1.
</event>
<event>
 7    1  0.2733606E-009  0.1257379E+03  0.7561462E-02  0.1233921E+00
         -2   -1    0    0    0  501 -0.00000000000E+00  0.00000000000E+00  0.57676830594E+02  0.57676830594E+02  0.00000000000E+00 0.  1.
          2   -1    0    0  501    0  0.00000000000E+00 -0.00000000000E+00 -0.59511528879E+03  0.59511528879E+03  0.00000000000E+00 0. -1.
         25    2    1    2    0    0 -0.93659345491E+02  0.16750152479E+02 -0.48734472288E+03  0.51205939429E+03  0.12508918320E+03 0.  0.
          5    1    3    3  502    0  0.28519281594E+02  0.15897977431E+02 -0.14034426498E+03  0.14415297507E+03  0.41800000000E+01 0.  1.
         -5    1    3    3    0  502 -0.12217862709E+03  0.85217504855E+00 -0.34700045790E+03  0.36790641922E+03  0.41800000000E+01 0.  1.
        -11    1    1    2    0    0  0.50011138465E+02 -0.16478921737E+02  0.21504790486E+02  0.56878157899E+02  0.00000000000E+00 0.  1.
         11    1    1    2    0    0  0.43648207026E+02 -0.27123074266E+00 -0.71598525802E+02  0.83854567196E+02  0.00000000000E+00 0. -1.
</event>
<event>
 7    1  0.2733606E-009  0.1629278E+03  0.7561462E-02  0.1185430E+00
          1   -1    0    0  501    0  0.00000000000E+00  0.00000000000E+00  0.86736247843E+03  0.86736247843E+03  0.00000000000E+00 0. -1.
         -1   -1    0    0    0  501 -0.00000000000E+00 -0.00000000000E+00 -0.37537388759E+02  0.37537388759E+02  0.00000000000E+00 0.  1.
         25    2    1    2    0    0 -0.11609713237E+03  0.75236769940E+02  0.53735661470E+03  0.56880292121E+03  0.12508203754E+03 0.  0.
          5    1    3    3  502    0  0.22990150225E+02 -0.70613479843E+01  0.84478650215E+02  0.87934773468E+02  0.41800000000E+01 0. -1.
         -5    1    3    3    0  502 -0.13908728260E+03  0.82298117925E+02  0.45287796448E+03  0.48086814774E+03  0.41800000000E+01 0. -1.
        -11    1    1    2    0    0  0.32862514307E+02 -0.32481254662E+02  0.24581924624E+02  0.52337823505E+02  0.00000000000E+00 0.  1.
         11    1    1    2    0    0  0.83234618066E+02 -0.42755515278E+02  0.26788655035E+03  0.28375912248E+03  0.00000000000E+00 0. -1.
</event>
<event>
 7    1  0.2733606E-009  0.1016210E+03  0.7561462E-02  0.1276924E+00
          2   -1    0    0  501    0  0.00000000000E+00  0.00000000000E+00  0.10294910565E+04  0.10294910565E+04  0.00000000000E+00 0. -1.
         -2   -1    0    0    0  501 -0.00000000000E+00 -0.00000000000E+00 -0.21128777819E+02  0.21128777819E+02  0.00000000000E+00 0.  1.
         25    2    1    2    0    0  0.73102084453E+02  0.42782869501E+02  0.74276457693E+03  0.75797067795E+03  0.12508414452E+03 0.  0.
          5    1    3    3  502    0  0.33803875910E+02 -0.53018327770E+01  0.61385033020E+03  0.61481746214E+03  0.41800000000E+01 0.  1.
         -5    1    3    3    0  502  0.39298208543E+02  0.48084702278E+02  0.12891424673E+03  0.14315321581E+03  0.41800000000E+01 0.  1.
        -11    1    1    2    0    0 -0.18858304550E+02 -0.48449515337E+02  0.20334009292E+03  0.20988135833E+03  0.00000000000E+00 0. -1.
         11    1    1    2    0    0 -0.54243779903E+02  0.56666458359E+01  0.62257608787E+02  0.82767797996E+02  0.00000000000E+00 0.  1.
</event>
<event>
 7    1  0.2733606E-009  0.1370286E+03  0.7561462E-02  0.1217384E+00
         -1   -1    0    0    0  501 -0.00000000000E+00  0.00000000000E+00  0.56367556911E+02  0.56367556911E+02  0.00000000000E+00 0.  1.
          1   -1    0    0  501    0  0.00000000000E+00 -0.00000000000E+00 -0.45663438630E+03  0.45663438630E+03  0.00000000000E+00 0. -1.
         25    2    1    2    0    0 -0.68145527618E+02 -0.53816995042E+02 -0.84018460474E+02  0.17392688972E+03  0.12510547301E+03 0.  0.
          5    1    3    3  502    0  0.36423426814E+02 -0.21158614081E+02 -0.18369980284E+02  0.46144138808E+02  0.41800000000E+01 0. -1.
         -5    1    3    3    0  502 -0.10456895443E+03 -0.32658380960E+02 -0.65648480190E+02  0.12778275091E+03  0.41800000000E+01 0. -1.
        -11    1    1    2    0    0  0.37372058100E+02 -0.19810088475E+02 -0.11915482737E+03  0.12643964259E+03  0.00000000000E+00 0.  1.
         11    1    1    2    0    0  0.30773469518E+02  0.73627083517E+02 -0.19709354155E+03  0.21263541091E+03  0.00000000000E+00 0. -1.
</event>
<event>
 7    1  0.2733606E-009  0.1004651E+03  0.7561462E-02  0.1279321E+00
          1   -1    0    0  501    0  0.00000000000E+00  0.00000000000E+00  0.19125128753E+03  0.19125128753E+03  0.00000000000E+00 0. -1.
         -1   -1    0    0    0  501 -0.00000000000E+00 -0.00000000000E+00 -0.95401777052E+02  0.95401777052E+02  0.00000000000E+00 0.  1.
         25    2    1    2    0    0 -0.66879254405E+01  0.23796657022E+02  0.13362774733E+03  0.18470138556E+03  0.12508883938E+03 0.  0.
          5    1    3    3  502    0 -0.38727128077E+02  0.50895693993E+02  0.12666984337E+03  0.14196085283E+03  0.41800000000E+01 0.  1.
         -5    1    3    3    0  502  0.32039202637E+02 -0.27099036971E+02  0.69579039631E+01  0.42740532729E+02  0.41800000000E+01 0.  1.
        -11    1    1    2    0    0  0.45926376680E+02 -0.30122875990E+02 -0.20758460118E+02  0.58715699768E+02  0.00000000000E+00 0.  1.
         11    1    1    2    0    0 -0.39238451239E+02  0.63262189681E+01 -0.17019776737E+02  0.43235979257E+02  0.00000000000E+00 0. -1.
</event>
<event>
 7    1  0.3635160E-009  0.6795655E+02  0.7561462E-02  0.1367183E+00
         -2   -1    0    0    0  501 -0.00000000000E+00  0.00000000000E+00  0.82646934910E+02  0.82646934910E+02  0.00000000000E+00 0.  1.
          2   -1    0    0  501    0  0.00000000000E+00 -0.00000000000E+00 -0.20998631914E+03  0.20998631914E+03  0.00000000000E+00 0. -1.
         25    2    1    2    0    0 -0.36935693010E+02  0.47100771422E+02 -0.12054363684E+03  0.18374171368E+03  0.12509005107E+03 0.  0.
          5    1    3    3  502    0 -0.13100421991E+02 -0.63406260297E+01  0.23643553650E+02  0.28076941144E+02  0.41800000000E+01 0.  1.
         -5    1    3    3    0  502 -0.23835271019E+02  0.53441397452E+02 -0.14418719049E+03  0.15566477254E+03  0.41800000000E+01 0.  1.
        -11    1    1    2    0    0  0.29342288838E+02 -0.24378640819E+02  0.40645967764E+02  0.55743903146E+02  0.00000000000E+00 0.  1.
         11    1    1    2    0    0  0.75934041729E+01 -0.22722130603E+02 -0.47441715153E+02  0.53147637227E+02  0.00000000000E+00 0. -1.
</event>
<event>
 7    1  0.2733606E-009  0.1211881E+03  0.7561462E-02  0.1241150E+00
         -1   -1    0    0    0  501 -0.00000000000E+00  0.00000000000E+00  0.34736350571E+03  0.34736350571E+03  0.00000000000E+00 0.  1.
          1   -1    0    0  501    0  0.00000000000E+00 -0.00000000000E+00 -0.54187682861E+02  0.54187682861E+02  0.00000000000E+00 0. -1.
         25    2    1    2    0    0  0.37238730970E+02 -0.48109033548E+02  0.24773986233E+03  0.28412575848E+03  0.12510477630E+03 0.  0.
          5    1    3    3  502    0  0.83511990503E+02 -0.35704800309E+02  0.15677179876E+03  0.18122901150E+03  0.41800000000E+01 0. -1.
         -5    1    3    3    0  502 -0.46273259533E+02 -0.12404233239E+02  0.90968063570E+02  0.10289674698E+03  0.41800000000E+01 0. -1.
        -11    1    1    2    0    0 -0.24780459902E+02  0.72151300299E+02  0.48148138664E+02  0.90211554607E+02  0.00000000000E+00 0.  1.
         11    1    1    2    0    0 -0.12458271068E+02 -0.24042266751E+02 -0.27121781413E+01  0.27213875483E+02  0.00000000000E+00 0. -1.
</event>
<event>
 7    1  0.2733606E-009  0.1216655E+03  0.7561462E-02  0.1240375E+00
          2   -1    0    0  501    0  0.00000000000E+00  0.00000000000E+00  0.39879488578E+03  0.39879488578E+03  0.00000000000E+00 0. -1.
         -2   -1    0    0    0  501 -0.00000000000E+00 -0.00000000000E+00 -0.56717904277E+02  0.56717904277E+02  0.00000000000E+00 0.  1.
         25    2    1    2    0    0 -0.58258447510E+01  0.96021733823E+02  0.23521963196E+03  0.28324864902E+03  0.12508960020E+03 0.  0.
          5    1    3    3  502    0 -0.38216642730E+02  0.22711491658E+02  0.18092150812E+03  0.18635017610E+03  0.41800000000E+01 0.  1.
         -5    1    3    3    0  502  0.32390797979E+02  0.73310242165E+02  0.54298123845E+02  0.96898472914E+02  0.41800000000E+01 0.  1.
        -11    1    1    2    0    0  0.76187828000E+01  0.98965853770E+01 -0.89114025748E+01  0.15342794704E+02  0.00000000000E+00 0.  1.
         11    1    1    2    0    0 -0.17929380490E+01 -0.10591831920E+03  0.11576875212E+03  0.15692134634E+03  0.00000000000E+00 0. -1.
</event>
<event>
 7    1  0.2733606E-009  0.1205090E+03  0.7561462E-02  0.1242260E+00
          2   -1    0    0  501    0  0.00000000000E+00  0.00000000000E+00  0.19986915366E+03  0.19986915366E+03  0.00000000000E+00 0. -1.
         -2   -1    0    0    0  501 -0.00000000000E+00 -0.00000000000E+00 -0.10456489572E+03  0.10456489572E+03  0.00000000000E+00 0.  1.
         25    2    1    2    0    0  0.65014817043E+02 -0.33766452098E+01 -0.21328259827E+02  0.14261773131E+03  0.12508634797E+03 0.  0.
          5    1    3    3  502    0  0.95181413974E+02  0.21167218525E+02  0.95661817633E+00  0.97600923277E+02  0.41800000000E+01 0. -1.
         -5    1    3    3    0  502 -0.30166596931E+02 -0.24543863735E+02 -0.22284878003E+02  0.45016808028E+02  0.41800000000E+01 0. -1.
        -11    1    1    2    0    0 -0.28494870606E+02  0.42256313435E+02  0.27422768173E+02  0.57875399698E+02  0.00000000000E+00 0.  1.
         11    1    1    2    0    0 -0.36519946437E+02 -0.38879668225E+02  0.89209749593E+02  0.10394091837E+03  0.00000000000E+00 0. -1.
</event>
<event>
 7    1  0.2733606E-009  0.1204944E+03  0.7561462E-02  0.1242284E+00
         -2   -1    0    0    0  501 -0.00000000000E+00  0.00000000000E+00  0.72419956576E+02  0.72419956576E+02  0.00000000000E+00 0.  1.
          2   -1    0    0  501    0  0.00000000000E+00 -0.00000000000E+00 -0.23360181009E+03  0.23360181009E+03  0.00000000000E+00 0. -1.
         25    2    1    2    0    0  0.58055167909E+02 -0.17509826826E+02 -0.13439821785E+03  0.19335745176E+03  0.12508887495E+03 0.  0.
          5    1    3    3  502    0  0.36997258453E+02 -0.70709228252E+02 -0.92968821087E+02  0.12259390763E+03  0.41800000000E+01 0.  1.
         -5    1    3    3    0  502  0.21057909456E+02  0.53199401426E+02 -0.41429396758E+02  0.70763544135E+02  0.41800000000E+01 0.  1.
        -11    1    1    2    0    0 -0.10595185136E+02  0.46768696176E+02 -0.30425075422E+02  0.56791320680E+02  0.00000000000E+00 0. -1.
         11    1    1    2    0    0 -0.47459982773E+02 -0.29258869350E+02  0.36414397512E+01  0.55872994227E+02  0.00000000000E+00 0.  1.
</event>
<event>
 7    1  0.2733606E-009  0.8400939E+02  0.7561462E-02  0.1318044E+00
          1   -1    0    0  501    0  0.00000000000E+00  0.00000000000E+00  0.46750272581E+02  0.46750272581E+02  0.00000000000E+00 0. -1.
         -1   -1    0    0    0  501 -0.00000000000E+00 -0.00000000000E+00 -0.34504212152E+03  0.34504212152E+03  0.00000000000E+00 0.  1.
         25    2    1    2    0    0  0.64204919784E+02  0.17682306193E+02 -0.15104392038E+03  0.20711446385E+03  0.12508876679E+03 0.  0.
          5    1    3    3  502    0  0.41819795370E+02  0.17799573264E+02 -0.17090699448E+03  0.17689656089E+03  0.41800000000E+01 0.  1.
         -5    1    3    3    0  502  0.22385124414E+02 -0.11726707088E+00  0.19863074101E+02  0.30217902960E+02  0.41800000000E+01 0.  1.
        -11    1    1    2    0    0 -0.23906148015E+02 -0.44974609240E+02 -0.11639664994E+03  0.12705274301E+03  0.00000000000E+00 0. -1.
         11    1    1    2    0    0 -0.40298771770E+02  0.27292303047E+02 -0.30851278618E+02  0.57625187237E+02  0.00000000000E+00 0.  1.
</event>
<event>
 7    1  0.2733606E-009  0.1962911E+03  0.7561462E-02  0.1152907E+00
         -1   -1    0    0    0  501 -0.00000000000E+00  0.00000000000E+00  0.11185489845E+03  0.11185489845E+03  0.00000000000E+00 0.  1.
          1   -1    0    0  501    0  0.00000000000E+00 -0.00000000000E+00 -0.37652472267E+03  0.37652472267E+03  0.00000000000E+00 0. -1.
         25    2    1    2    0    0  0.31242053659E+02  0.17232499193E+03 -0.13570058128E+03  0.25443019094E+03  0.12509238803E+03 0.  0.
          5    1    3    3  502    0  0.57740578907E+02  0.15692317805E+03 -0.69054687542E+02  0.18095546561E+03  0.41800000000E+01 0.  1.
         -5    1    3    3    0  502 -0.26498525248E+02  0.15401813884E+02 -0.66645893738E+02  0.73474725337E+02  0.41800000000E+01 0.  1.
        -11    1    1    2    0    0  0.18834194933E+02 -0.12181284119E+03 -0.71424447396E+02  0.14245893045E+03  0.00000000000E+00 0.  1.
         11    1    1    2    0    0 -0.50076248592E+02 -0.50512150737E+02 -0.57544795546E+02  0.91490499723E+02  0.00000000000E+00 0. -1.
</event>
<event>
 7    1  0.2733606E-009  0.1400760E+03  0.7561462E-02  0.1213227E+00
         -1   -1    0    0    0  501 -0.00000000000E+00  0.00000000000E+00  0.12316173788E+03  0.12316173788E+03  0.00000000000E+00 0.  1.
          1   -1    0    0  501    0  0.00000000000E+00 -0.00000000000E+00 -0.34639637154E+03  0.34639637154E+03  0.00000000000E+00 0. -1.
         25    2    1    2    0    0  0.11760792871E+03  0.49397511054E+02  0.18805653623E+02  0.17964736891E+03  0.12509110900E+03 0.  0.
          5    1    3    3  502    0  0.11905382344E+02  0.44664474292E+02  0.51012652573E+02  0.68966778343E+02  0.41800000000E+01 0.  1.
         -5    1    3    3    0  502  0.10570254637E+03  0.47330367623E+01 -0.32206998950E+02  0.11068059056E+03  0.41800000000E+01 0.  1.
        -11    1    1    2    0    0 -0.53655174560E+02 -0.17918355843E+02 -0.19845778123E+03  0.20636239038E+03  0.00000000000E+00 0. -1.
         11    1    1    2    0    0 -0.63952754152E+02 -0.31479155212E+02 -0.43582506046E+02  0.83548350132E+02  0.00000000000E+00 0.  1.
</event>
<event>
 7    1  0.2733606E-009  0.6541601E+02  0.7561462E-02  0.1376413E+00
          2   -1    0    0  501    0  0.00000000000E+00  0.00000000000E+00  0.37385594154E+02  0.37385594154E+02  0.00000000000E+00 0. -1.
         -2   -1    0    0    0  501 -0.00000000000E+00 -0.00000000000E+00 -0.33763896646E+03  0.33763896646E+03  0.00000000000E+00 0.  1.
         25    2    1    2    0    0 -0.17425927480E+02  0.20071039649E+02 -0.14219627927E+03  0.19124168792E+03  0.12508833590E+03 0.  0.
          5    1    3    3  502    0 -0.23194957871E+02  0.12497963790E+02 -0.16449176763E+03  0.16664098892E+03  0.41800000000E+01 0. -1.
         -5    1    3    3    0  502  0.57690303904E+01  0.75730758585E+01  0.22295488367E+02  0.24600698997E+02  0.41800000000E+01 0. -1.
        -11    1    1    2    0    0 -0.34965837280E+02 -0.22033266451E+02 -0.71537381416E+02  0.82617622497E+02  0.00000000000E+00 0. -1.
         11    1    1    2    0    0  0.52391764760E+02  0.19622268024E+01 -0.86519711626E+02  0.10116525020E+03  0.00000000000E+00 0.  1.
</event>
<event>
 7    1  0.2733606E-009  0.1624859E+03  0.7561462E-02  0.1185918E+00
          1   -1    0    0  501    0  0.00000000000E+00  0.00000000000E+00  0.10195656117E+04  0.10195656117E+04  0.00000000000E+00 0. -1.
         -1   -1    0    0    0  501 -0.00000000000E+00 -0.00000000000E+00 -0.28607016664E+02  0.28607016664E+02  0.00000000000E+00 0.  1.
         25    2    1    2    0    0  0.10662287979E+03 -0.66796055157E+02  0.41877530917E+03  0.45480722512E+03  0.12508677375E+03 0.  0.
          5    1    3    3  502    0 -0.27071777899E+02 -0.23884531923E+02  0.10202781633E+03  0.10830743155E+03  0.41800000000E+01 0.  1.
         -5    1    3    3    0  502  0.13369465769E+03 -0.42911523234E+02  0.31674749284E+03  0.34649979356E+03  0.41800000000E+01 0.  1.
        -11    1    1    2    0    0 -0.30602552522E+02  0.65304146022E+02  0.37816007533E+03  0.38497557102E+03  0.00000000000E+00 0. -1.
         11    1    1    2    0    0 -0.76020327265E+02  0.14919091352E+01  0.19402321052E+03  0.20838983222E+03  0.00000000000E+00 0.  1.
</event>
<event>
 7    1  0.2733606E-009  0.1037079E+03  0.7561462E-02  0.1272687E+00
         -2   -1    0    0    0  501 -0.00000000000E+00  0.00000000000E+00  0.22021118868E+02  0.22021118868E+02  0.00000000000E+00 0.  1.
          2   -1    0    0  501    0  0.00000000000E+00 -0.00000000000E+00 -0.69143654819E+03  0.69143654819E+03  0.00000000000E+00 0. -1.
         25    2    1    2    0    0 -0.20175826698E+01 -0.75776017687E+01 -0.51946014795E+03  0.53436729915E+03  0.12509226359E+03 0.  0.
          5    1    3    3  502    0  0.11429595636E+02  0.49989627220E+02 -0.12042451330E+03  0.13095470319E+03  0.41800000000E+01 0. -1.
         -5    1    3    3    0  502 -0.13447178306E+02 -0.57567228988E+02 -0.39903563465E+03  0.40341259596E+03  0.41800000000E+01 0. -1.
        -11    1    1    2    0    0 -0.15858527662E+01  0.52054628652E+02 -0.66620167839E+02  0.84560310170E+02  0.00000000000E+00 0.  1.
         11    1    1    2    0    0  0.36034354359E+01 -0.44477026883E+02 -0.83335113533E+02  0.94530057733E+02  0.00000000000E+00 0. -1.
</event>
<event>
 7    1  0.2885239E-009  0.1607633E+03  0.7561462E-02  0.1187838E+00
         -2   -1    0    0    0  501 -0.00000000000E+00  0.00000000000E+00  0.73627815281E+02  0.73627815281E+02  0.00000000000E+00 0.  1.
          2   -1    0    0  501    0  0.00000000000E+00 -0.00000000000E+00 -0.38087499334E+03  0.38087499334E+03  0.00000000000E+00 0. -1.
         25    2    1    2    0    0  0.10865863609E+03 -0.63499896343E+02 -0.19166090176E+03  0.26119028043E+03  0.12509006875E+03 0.  0.
          5    1    3    3  502    0  0.35811683121E+02  0.37980204452E+02 -0.52910928555E+02  0.74444686437E+02  0.41800000000E+01 0. -1.
         -5    1    3    3    0  502  0.72846952966E+02 -0.10148010079E+03 -0.13874997320E+03  0.18674559400E+03  0.41800000000E+01 0. -1.
        -11    1    1    2    0    0 -0.24028505813E+02  0.53878101968E+02 -0.83621966972E+02  0.10233695483E+03  0.00000000000E+00 0.  1.
         11    1    1    2    0    0 -0.84630130274E+02  0.96217943752E+01 -0.31964309334E+02  0.90975573361E+02  0.00000000000E+00 0. -1.
</event>
<event>
 7    1  0.2733606E-009  0.1090514E+03  0.7561462E-02  0.1262337E+00
         -2   -1    0    0    0  501 -0.00000000000E+00  0.00000000000E+00  0.41262641923E+02  0.41262641923E+02  0.00000000000E+00 0. -1.
          2   -1    0    0  501    0  0.00000000000E+00 -0.00000000000E+00 -0.31154441028E+03  0.31154441028E+03  0.00000000000E+00 0.  1.
         25    2    1    2    0    0 -0.25841833894E+02  0.25877209221E+02 -0.17258924832E+03  0.21627090601E+03  0.12509446756E+03 0.  0.
          5    1    3    3  502    0  0.41747194616E+02 -0.19926560096E+02 -0.44561649877E+02  0.64366987620E+02  0.41800000000E+01 0. -1.
         -5    1    3    3    0  502 -0.67589028510E+02  0.45803769317E+02 -0.12802759844E+03  0.15190391839E+03  0.41800000000E+01 0. -1.
        -11    1    1    2    0    0  0.25000085060E+02  0.27127131600E+02 -0.63551098300E+02  0.73482158494E+02  0.00000000000E+00 0.  1.
         11    1    1    2    0    0  0.84174883411E+00 -0.53004340821E+02 -0.34141421744E+02  0.63053987706E+02  0.00000000000E+00 0. -1.
</event>
<event>
 7    1  0.2733606E-009  0.8320366E+02  0.7561462E-02  0.1320198E+00
          1   -1    0    0  501    0  0.00000000000E+00  0.00000000000E+00  0.78341600671E+03  0.78341600671E+03  0.00000000000E+00 0. -1.
         -1   -1    0    0    0  501 -0.00000000000E+00 -0.00000000000E+00 -0.19323894404E+02  0.19323894404E+02  0.00000000000E+00 0.  1.
         25    2    1    2    0    0 -0.51099715167E+02 -0.20056827483E+01  0.43796139685E+03  0.45833664190E+03  0.12508832290E+03 0.  0.
          5    1    3    3  502    0 -0.22457439696E+02  0.24917063345E+02  0.40626163456E+03  0.40766553050E+03  0.41800000000E+01 0. -1.
         -5    1    3    3    0  502 -0.28642275471E+02 -0.26922746094E+02  0.31699762288E+02  0.50671111400E+02  0.41800000000E+01 0. -1.
        -11    1    1    2    0    0  0.34407582451E+02  0.39287901808E+02  0.84441349977E+02  0.99286265639E+02  0.00000000000E+00 0.  1.
         11    1    1    2    0    0  0.16692132716E+02 -0.37282219059E+02  0.24168936549E+03  0.24511699358E+03  0.00000000000E+00 0. -1.
</event>
<event>
 7    1  0.2733606E-009  0.1268399E+03  0.7561462E-02  0.1232222E+00
          2   -1    0    0  501    0  0.00000000000E+00  0.00000000000E+00  0.19716951730E+03  0.19716951730E+03  0.00000000000E+00 0. -1.
         -2   -1    0    0    0  501 -0.00000000000E+00 -0.00000000000E+00 -0.92895732083E+02  0.92895732083E+02  0.00000000000E+00 0.  1.
         25    2    1    2    0    0  0.70524188713E+02 -0.11520930444E+02  0.97948036679E+02  0.17420280030E+03  0.12508558954E+03 0.  0.
          5    1    3    3  502    0  0.94457689657E+02 -0.38922094081E+02  0.49857327200E+02  0.11375592300E+03  0.41800000000E+01 0.  1.
         -5    1    3    3    0  502 -0.23933500944E+02  0.27401163637E+02  0.48090709480E+02  0.60446877292E+02  0.41800000000E+01 0.  1.
        -11    1    1    2    0    0 -0.10088080936E+02  0.44728629402E+02 -0.44480657132E+01  0.46067395778E+02  0.00000000000E+00 0.  1.
         11    1    1    2    0    0 -0.60436107777E+02 -0.33207698958E+02  0.10773814253E+02  0.69795053312E+02  0.00000000000E+00 0. -1.
</event>
<event>
 7    1  0.2733606E-009  0.9568158E+02  0.7561462E-02  0.1289648E+00
         -1   -1    0    0    0  501 -0.00000000000E+00  0.00000000000E+00  0.12616608928E+03  0.12616608928E+03  0.00000000000E+00 0.  1.
          1   -1    0    0  501    0  0.00000000000E+00 -0.00000000000E+00 -0.91388927497E+02  0.91388927497E+02  0.00000000000E+00 0. -1.
         25    2    1    2    0    0 -0.20844546384E+02 -0.31880485546E+02  0.47997091737E+02  0.13929044462E+03  0.12508895504E+03 0.  0.
          5    1    3    3  502    0 -0.71340267016E+02 -0.32375444185E+01  0.35062171106E+02  0.79666452378E+02  0.41800000000E+01 0.  1.
         -5    1    3    3    0  502  0.50495720633E+02 -0.28642941128E+02  0.12934920631E+02  0.59623992238E+02  0.41800000000E+01 0.  1.
        -11    1    1    2    0    0  0.33744654353E+02  0.34717379785E+02  0.11924789313E+02  0.49861796565E+02  0.00000000000E+00 0.  1.
         11    1    1    2    0    0 -0.12900107970E+02 -0.28368942384E+01 -0.25144719267E+02  0.28402775597E+02  0.00000000000E+00 0. -1.
</event>
<event>
 7    1  0.2733606E-009  0.1380578E+03  0.7561462E-02  0.1215967E+00
          1   -1    0    0  501    0  0.00000000000E+00  0.00000000000E+00  0.27839064575E+03  0.27839064575E+03  0.00000000000E+00 0. -1.
         -1   -1    0    0    0  501 -0.00000000000E+00 -0.00000000000E+00 -0.83183933090E+02  0.83183933090E+02  0.00000000000E+00 0.  1.
         25    2    1    2    0    0 -0.95603545308E+02  0.39454838575E+02  0.91764438534E+02  0.18645622267E+03  0.12509391924E+03 0.  0.
          5    1    3    3  502    0 -0.17481942002E+02  0.57688365676E+02  0.87079072347E+02  0.10598963662E+03  0.41800000000E+01 0. -1.
         -5    1    3    3    0  502 -0.78121603307E+02 -0.18233527101E+02  0.46853661872E+01  0.80466586047E+02  0.41800000000E+01 0. -1.
        -11    1    1    2    0    0  0.57243324194E+02  0.23306121419E+02  0.72634163644E+02  0.95371354131E+02  0.00000000000E+00 0. -1.
         11    1    1    2    0    0  0.38360221114E+02 -0.62760959994E+02  0.30808110486E+02  0.79747002044E+02  0.00000000000E+00 0.  1.
</event>
<event>
 7    1  0.2733606E-009  0.1802561E+03  0.7561462E-02  0.1167555E+00
          2   -1    0    0  501    0  0.00000000000E+00  0.00000000000E+00  0.59629515457E+03  0.59629515457E+03  0.00000000000E+00 0. -1.
         -2   -1    0    0    0  501 -0.00000000000E+00 -0.00000000000E+00 -0.68516183186E+02  0.68516183186E+02  0.00000000000E+00 0.  1.
         25    2    1    2    0    0 -0.49857345072E+02 -0.14376465046E+03  0.14953985430E+03  0.24731413515E+03  0.12509230128E+03 0.  0.
          5    1    3    3  502    0 -0.71854449983E+02 -0.15409206353E+03  0.14191149463E+03  0.22150343278E+03  0.41800000000E+01 0.  1.
         -5    1    3    3    0  502  0.21997104912E+02  0.10327413074E+02  0.76283596657E+01  0.25810702363E+02  0.41800000000E+01 0.  1.
        -11    1    1    2    0    0 -0.30029736925E+01  0.91148558120E+02  0.13373541355E+03  0.16187105465E+03  0.00000000000E+00 0.  1.
         11    1    1    2    0    0  0.52860318764E+02  0.52616092341E+02  0.24450370355E+03  0.25562614796E+03  0.00000000000E+00 0. -1.
</event>
<event>
 7    1  0.2733606E-009  0.9374820E+02  0.7561462E-02  0.1294021E+00
          2   -1    0    0  501    0  0.00000000000E+00  0.00000000000E+00  0.41934008094E+03  0.41934008094E+03  0.00000000000E+00 0. -1.
         -2   -1    0    0    0  501 -0.00000000000E+00 -0.00000000000E+00 -0.24598750880E+02  0.24598750880E+02  0.00000000000E+00 0.  1.
         25    2    1    2    0    0  0.85076656148E+01 -0.29025372112E+02  0.22528797600E+03  0.25945623833E+03  0.12509202563E+03 0.  0.
          5    1    3    3  502    0  0.55601116532E+02  0.92500144490E+01  0.16243598952E+03  0.17198828454E+03  0.41800000000E+01 0.  1.
         -5    1    3    3    0  502 -0.47093450917E+02 -0.38275386561E+02  0.62851986480E+02  0.87467953790E+02  0.41800000000E+01 0.  1.
        -11    1    1    2    0    0  0.15167340346E+02  0.40927859393E+02  0.12843753390E+03  0.13565153151E+03  0.00000000000E+00 0. -1.
         11    1    1    2    0    0 -0.23675005961E+02 -0.11902487282E+02  0.41015820162E+02  0.48831061982E+02  0.00000000000E+00 0.  1.
</event>
<event>
 7    1  0.2733606E-009  0.2313472E+03  0.7561462E-02  0.1125695E+00
         -1   -1    0    0    0  501 -0.00000000000E+00  0.00000000000E+00  0.26477889317E+03  0.26477889317E+03  0.00000000000E+00 0.  1.
          1   -1    0    0  501    0  0.00000000000E+00 -0.00000000000E+00 -0.26880426116E+03  0.26880426116E+03  0.00000000000E+00 0. -1.
         25    2    1    2    0    0 -0.20103740723E+03  0.45551107435E+02 -0.13159261399E+03  0.27469115886E+03  0.12509066394E+03 0.  0.
          5    1    3    3  502    0 -0.20137532517E+03  0.69623907436E+02 -0.10185511148E+03  0.23620212998E+03  0.41800000000E+01 0.  1.
         -5    1    3    3    0  502  0.33791794002E+00 -0.24072800000E+02 -0.29737502508E+02  0.38489028876E+02  0.41800000000E+01 0.  1.
        -11    1    1    2    0    0  0.13189777352E+03  0.15634313351E+02  0.70835461612E+02  0.15052945570E+03  0.00000000000E+00 0.  1.
         11    1    1    2    0    0  0.69139633709E+02 -0.61185420786E+02  0.56731784385E+02  0.10836253977E+03  0.00000000000E+00 0. -1.
</event>
<event>
 7    1  0.2733606E-009  0.1358168E+03  0.7561462E-02  0.1219071E+00
         -2   -1    0    0    0  501 -0.00000000000E+00  0.00000000000E+00  0.62498819718E+02  0.62498819718E+02  0.00000000000E+00 0.  1.
          2   -1    0    0  501    0  0.00000000000E+00 -0.00000000000E+00 -0.40803909190E+03  0.40803909190E+03  0.00000000000E+00 0. -1.
         25    2    1    2    0    0  0.91093868949E+02  0.52173999130E+02 -0.26177404277E+03  0.30853362715E+03  0.12508849055E+03 0.  0.
          5    1    3    3  502    0  0.56479207677E+02 -0.17772878665E+02 -0.20085198882E+03  0.20943917955E+03  0.41800000000E+01 0.  1.
         -5    1    3    3    0  502  0.34614661272E+02  0.69946877795E+02 -0.60922053948E+02  0.99094447602E+02  0.41800000000E+01 0.  1.
        -11    1    1    2    0    0 -0.38071096364E+02 -0.68733640679E+02 -0.68894069205E+02  0.10449935173E+03  0.00000000000E+00 0. -1.
         11    1    1    2    0    0 -0.53022772584E+02  0.16559641548E+02 -0.14872160210E+02  0.57504932745E+02  0.00000000000E+00 0.  1.
</event>
<event>
 7    1  0.2733606E-009  0.9745555E+02  0.7561462E-02  0.1285739E+00
          2   -1    0    0  501    0  0.00000000000E+00  0.00000000000E+00  0.55246982625E+02  0.55246982625E+02  0.00000000000E+00 0. -1.
         -2   -1    0    0    0  501 -0.00000000000E+00 -0.00000000000E+00 -0.32180935335E+03  0.32180935335E+03  0.00000000000E+00 0.  1.
         25    2    1    2    0    0  0.44989281130E+02  0.60177253321E+02 -0.17207225522E+03  0.22561450328E+03  0.12509079038E+03 0.  0.
          5    1    3    3  502    0 -0.25620723071E+02  0.33325314913E+02 -0.13481757322E+03  0.14128074361E+03  0.41800000000E+01 0.  1.
         -5    1    3    3    0  502  0.70610004201E+02  0.26851938408E+02 -0.37254682003E+02  0.84333759673E+02  0.41800000000E+01 0.  1.
        -11    1    1    2    0    0 -0.26935185718E+02 -0.48591068961E+02 -0.10460393072E+01  0.55566990297E+02  0.00000000000E+00 0. -1.
         11    1    1    2    0    0 -0.18054095412E+02 -0.11586184360E+02 -0.93444076189E+02  0.95874842394E+02  0.00000000000E+00 0.  1.
</event>
<event>
 7    1  0.2733606E-009  0.2235880E+03  0.7561462E-02  0.1131236E+00
         -2   -1    0    0    0  501 -0.00000000000E+00  0.00000000000E+00  0.27113033947E+03  0.27113033947E+03  0.00000000000E+00 0.  1.
          2   -1    0    0  501    0  0.00000000000E+00 -0.00000000000E+00 -0.21125412591E+03  0.21125412591E+03  0.00000000000E+00 0. -1.
         25    2    1    2    0    0  0.18315751122E+03  0.86079481811E+02 -0.36545719887E+02  0.24070500832E+03  0.12508781029E+03 0.  0.
          5    1    3    3  502    0  0.33449731816E+02  0.80091552440E+02 -0.21492881749E+01  0.86923145194E+02  0.41800000000E+01 0.  1.
         -5    1    3    3    0  502  0.14970777940E+03  0.59879293707E+01 -0.34396431712E+02  0.15378186313E+03  0.41800000000E+01 0.  1.
        -11    1    1    2    0    0 -0.11449533089E+03 -0.83452783201E+02  0.27438511807E+02  0.14431361595E+03  0.00000000000E+00 0. -1.
         11    1    1    2    0    0 -0.68662180333E+02 -0.26266986096E+01  0.68983421635E+02  0.97365841106E+02  0.00000000000E+00 0.  1.
</event>
<event>
 7    1  0.2733606E-009  0.6342283E+02  0.7561462E-02  0.1384004E+00
          1   -1    0    0  501    0  0.00000000000E+00  0.00000000000E+00  0.58302639630E+02  0.58302639630E+02  0.00000000000E+00 0. -1.
         -1   -1    0    0    0  501 -0.00000000000E+00 -0.00000000000E+00 -0.25557000091E+03  0.25557000091E+03  0.00000000000E+00 0.  1.
         25    2    1    2    0    0  0.42571773887E+02  0.85873060164E+01 -0.68572705122E+02  0.14911405356E+03  0.12508671921E+03 0.  0.
          5    1    3    3  502    0  0.29712779745E+02 -0.21110486672E+02  0.28658039844E+02  0.46553813758E+02  0.41800000000E+01 0. -1.
         -5    1    3    3    0  502  0.12858994142E+02  0.29697792689E+02 -0.97230744966E+02  0.10256023980E+03  0.41800000000E+01 0. -1.
        -11    1    1    2    0    0 -0.26046466748E+02 -0.23639245207E+02 -0.13659468531E+03  0.14105084332E+03  0.00000000000E+00 0.  1.
         11    1    1    2    0    0 -0.16525307140E+02  0.15051939191E+02  0.79000291519E+01  0.23707743673E+02  0.00000000000E+00 0. -1.
</event>
<event>
 7    1  0.2733606E-009  0.1106389E+03  0.7561462E-02  0.1259391E+00
         -1   -1    0    0    0  501 -0.00000000000E+00  0.00000000000E+00  0.15981077365E+03  0.15981077365E+03  0.00000000000E+00 0.  1.
          1   -1    0    0  501    0  0.00000000000E+00 -0.00000000000E+00 -0.10817432270E+03  0.10817432270E+03  0.00000000000E+00 0. -1.
         25    2    1    2    0    0 -0.93077844339E+01  0.66651268482E+02  0.59501890005E+02  0.15401879731E+03  0.12510910666E+03 0.  0.
          5    1    3    3  502    0  0.36620274516E+02  0.15425638046E+02 -0.23323154529E+02  0.46264854393E+02  0.41800000000E+01 0. -1.
         -5    1    3    3    0  502 -0.45928058950E+02  0.51225630436E+02  0.82825044534E+02  0.10775394292E+03  0.41800000000E+01 0. -1.
        -11    1    1    2    0    0  0.40991352507E+02 -0.27659636096E+01  0.53826529269E+01  0.41435666853E+02  0.00000000000E+00 0.  1.
         11    1    1    2    0    0 -0.31683568073E+02 -0.63885304872E+02 -0.13248091982E+02  0.72530632188E+02  0.00000000000E+00 0. -1.
</event>
<event>
 7    1  0.5047873E-009  0.1267535E+03  0.7561462E-02  0.1232354E+00
         -1   -1    0    0    0  501 -0.00000000000E+00  0.00000000000E+00  0.27890241784E+02  0.27890241784E+02  0.00000000000E+00 0.  1.
          1   -1    0    0  501    0  0.00000000000E+00 -0.00000000000E+00 -0.82250217737E+03  0.82250217737E+03  0.00000000000E+00 0. -1.
         25    2    1    2    0    0  0.12251934393E+00  0.96252215375E+02 -0.31034788568E+03  0.34817809455E+03  0.12509065274E+03 0.  0.
          5    1    3    3  502    0  0.28156755582E+02  0.10363031821E+03 -0.14626656332E+03  0.18150323877E+03  0.41800000000E+01 0. -1.
         -5    1    3    3    0  502 -0.28034236238E+02 -0.73781028335E+01 -0.16408132236E+03  0.16667485578E+03  0.41800000000E+01 0. -1.
        -11    1    1    2    0    0  0.14266445053E+02  0.45122807348E+01 -0.12214406347E+02  0.19315378699E+02  0.00000000000E+00 0.  1.
         11    1    1    2    0    0 -0.14388964397E+02 -0.10076449611E+03 -0.47204964356E+03  0.48289894590E+03  0.00000000000E+00 0. -1.
</event>
<event>
 7    1  0.2733606E-009  0.9711292E+02  0.7561462E-02  0.1286487E+00
          1   -1    0    0  501    0  0.00000000000E+00  0.00000000000E+00  0.14741230594E+03  0.14741230594E+03  0.00000000000E+00 0. -1.
         -1   -1    0    0    0  501 -0.00000000000E+00 -0.00000000000E+00 -0.11284880590E+03  0.11284880590E+03  0.00000000000E+00 0.  1.
         25    2    1    2    0    0 -0.11267371506E+02 -0.42987096348E+02  0.72697786219E+02  0.15135243207E+03  0.12509095275E+03 0.  0.
          5    1    3    3  502    0  0.40639321159E+02  0.23167173049E+02  0.37499560362E+02  0.60099598657E+02  0.41800000000E+01 0. -1.
         -5    1    3    3    0  502 -0.51906692665E+02 -0.66154269396E+02  0.35198225857E+02  0.91252833415E+02  0.41800000000E+01 0. -1.
        -11    1    1    2    0    0  0.28687027773E+02  0.28063735578E+02  0.21134365596E+02  0.45356148714E+02  0.00000000000E+00 0. -1.
         11    1    1    2    0    0 -0.17419656266E+02  0.14923360770E+02 -0.59268651768E+02  0.63552531055E+02  0.00000000000E+00 0.  1.
</event>
<event>
 7    1  0.2733606E-009  0.9097002E+02  0.7561462E-02  0.1300520E+00
         -2   -1    0    0    0  501 -0.00000000000E+00  0.00000000000E+00  0.55857224013E+02  0.55857224013E+02  0.00000000000E+00 0.  1.
          2   -1    0    0  501    0  0.00000000000E+00 -0.00000000000E+00 -0.22195684816E+03  0.22195684816E+03  0.00000000000E+00 0. -1.
         25    2    1    2    0    0  0.28331800908E+00 -0.12400256717E+02 -0.12271714557E+03  0.17568486331E+03  0.12510726096E+03 0.  0.
          5    1    3    3  502    0  0.45207003213E+02  0.22278112158E+02 -0.10423240340E+03  0.11585272435E+03  0.41800000000E+01 0.  1.
         -5    1    3    3    0  502 -0.44923685204E+02 -0.34678368875E+02 -0.18484742171E+02  0.59832138966E+02  0.41800000000E+01 0.  1.
        -11    1    1    2    0    0  0.35267635363E+02 -0.36526241673E+01  0.92261256309E+01  0.36636991710E+02  0.00000000000E+00 0.  1.
         11    1    1    2    0    0 -0.35550953372E+02  0.16052880884E+02 -0.52608604210E+02  0.65492217151E+02  0.00000000000E+00 0. -1.
</event>
<event>
 7    1  0.2733606E-009  0.1326861E+03  0.7561462E-02  0.1223524E+00
          2   -1    0    0  501    0  0.00000000000E+00  0.00000000000E+00  0.13154360442E+03  0.13154360442E+03  0.00000000000E+00 0. -1.
         -2   -1    0    0    0  501 -0.00000000000E+00 -0.00000000000E+00 -0.13588260308E+03  0.13588260308E+03  0.00000000000E+00 0.  1.
         25    2    1    2    0    0  0.45683381648E+02 -0.59501058248E+02  0.12589997995E+02  0.14640169034E+03  0.12509036571E+03 0.  0.
          5    1    3    3  502    0 -0.43424492882E+02 -0.18986890524E+02  0.85752606778E+01  0.48344555945E+02  0.41800000000E+01 0. -1.
         -5    1    3    3    0  502  0.89107874530E+02 -0.40514167725E+02  0.40147373175E+01  0.98057134393E+02  0.41800000000E+01 0. -1.
        -11    1    1    2    0    0  0.27422501797E+02  0.33262301386E+01 -0.47177061207E+01  0.28023457366E+02  0.00000000000E+00 0.  1.
         11    1    1    2    0    0 -0.73105883445E+02  0.56174828110E+02 -0.12211290529E+02  0.93001059799E+02  0.00000000000E+00 0. -1.
</event>
<event>
 7    1  0.2733606E-009  0.1387958E+03  0.7561462E-02  0.1214959E+00
         -2   -1    0    0    0  501 -0.00000000000E+00  0.00000000000E+00  0.46932386464E+02  0.46932386464E+02  0.00000000000E+00 0.  1.
          2   -1    0    0  501    0  0.00000000000E+00 -0.00000000000E+00 -0.57010366336E+03  0.57010366336E+03  0.00000000000E+00 0. -1.
         25    2    1    2    0    0 -0.71289810432E+02 -0.85975930135E+02 -0.17854948029E+03  0.24495157558E+03  0.12508900764E+03 0.  0.
          5    1    3    3  502    0 -0.57657789981E+02  0.18275784909E+02 -0.83250908803E+02  0.10298840360E+03  0.41800000000E+01 0. -1.
         -5    1    3    3    0  502 -0.13632020451E+02 -0.10425171504E+03 -0.95298571488E+02  0.14196317198E+03  0.41800000000E+01 0. -1.
        -11    1    1    2    0    0  0.32677559959E+02  0.36740839582E+02 -0.47220699164E+02  0.68172623887E+02  0.00000000000E+00 0.  1.
         11    1    1    2    0    0  0.38612250473E+02  0.49235090553E+02 -0.29740109744E+03  0.30391185035E+03  0.00000000000E+00 0. -1.
</event>
<event>
 7    1  0.2733606E-009  0.1217840E+03  0.7561462E-02  0.1240183E+00
          1   -1    0    0  501    0  0.00000000000E+00  0.00000000000E+00  0.15959279149E+03  0.15959279149E+03  0.00000000000E+00 0. -1.
         -1   -1    0    0    0  501 -0.00000000000E+00 -0.00000000000E+00 -0.12287306770E+03  0.12287306770E+03  0.00000000000E+00 0.  1.
         25    2    1    2    0    0 -0.43031601222E+02 -0.66026772749E+02 -0.22027960175E+02  0.14948050567E+03  0.12509171484E+03 0.  0.
          5    1    3    3  502    0 -0.24703735318E+01 -0.91653883031E+02  0.89493940772E+01  0.92217683090E+02  0.41800000000E+01 0.  1.
         -5    1    3    3    0  502 -0.40561227690E+02  0.25627110282E+02 -0.30977354252E+02  0.57262822578E+02  0.41800000000E+01 0.  1.
        -11    1    1    2    0    0  0.24946608432E+02 -0.89458351999E+01 -0.11289810717E+02  0.28806614964E+02  0.00000000000E+00 0.  1.
         11    1    1    2    0    0  0.18084992790E+02  0.74972607949E+02  0.70037494685E+02  0.10417873856E+03  0.00000000000E+00 0. -1.
</event>
<event>
 7    1  0.2733606E-009  0.1321660E+03  0.7561462E-02  0.1224277E+00
          1   -1    0    0  501    0  0.00000000000E+00  0.00000000000E+00  0.18940070973E+02  0.18940070973E+02  0.00000000000E+00 0. -1.
         -1   -1    0    0    0  501 -0.00000000000E+00 -0.00000000000E+00 -0.99153029306E+03  0.99153029306E+03  0.00000000000E+00 0.  1.
         25    2    1    2    0    0  0.28592607284E+02  0.76464269464E+02 -0.57536211847E+03  0.59443668515E+03  0.12509629724E+03 0.  0.
          5    1    3    3  502    0 -0.20923772319E+02  0.89919310958E+02 -0.44032759676E+03  0.44992127266E+03  0.41800000000E+01 0.  1.
         -5    1    3    3    0  502  0.49516379602E+02 -0.13455041494E+02 -0.13503452172E+03  0.14451541248E+03  0.41800000000E+01 0.  1.
        -11    1    1    2    0    0  0.32105840360E+02 -0.22387870239E+02 -0.88253625326E+02  0.96543793701E+02  0.00000000000E+00 0. -1.
         11    1    1    2    0    0 -0.60698447644E+02 -0.54076399225E+02 -0.30897447829E+03  0.31948988518E+03  0.00000000000E+00 0.  1.
</event>
<event>
 7    1  0.2733606E-009  0.1127130E+03  0.7561462E-02  0.1255627E+00
         -1   -1    0    0    0  501 -0.00000000000E+00  0.00000000000E+00  0.40177631138E+02  0.40177631138E+02  0.00000000000E+00 0.  1.
          1   -1    0    0  501    0  0.00000000000E+00 -0.00000000000E+00 -0.32499334789E+03  0.32499334789E+03  0.00000000000E+00 0. -1.
         25    2    1    2    0    0  0.17992262300E+02 -0.28672026509E+02 -0.14160664908E+03  0.19195805703E+03  0.12509854511E+03 0.  0.
          5    1    3    3  502    0 -0.19854907710E+02  0.42683124158E+02 -0.66506803604E+02  0.81588563988E+02  0.41800000000E+01 0. -1.
         -5    1    3    3    0  502  0.37847170010E+02 -0.71355150667E+02 -0.75099845474E+02  0.11036949304E+03  0.41800000000E+01 0. -1.
        -11    1    1    2    0    0 -0.25725361562E+02 -0.29190983906E+02 -0.52610952071E+02  0.65435617569E+02  0.00000000000E+00 0.  1.
         11    1    1    2    0    0  0.77330992615E+01  0.57863010415E+02 -0.90598115599E+02  0.10777730442E+03  0.00000000000E+00 0. -1.
</event>
<event>
 7    1  0.2733606E-009  0.1643914E+03  0.7561462E-02  0.1183826E+00
          1   -1    0    0  501    0  0.00000000000E+00  0.00000000000E+00  0.54036630418E+03  0.54036630418E+03  0.00000000000E+00 0. -1.
         -1   -1    0    0    0  501 -0.00000000000E+00 -0.00000000000E+00 -0.70365733768E+02  0.70365733768E+02  0.00000000000E+00 0.  1.
         25    2    1    2    0    0  0.26106414088E+02  0.14968786397E+03  0.16112077335E+03  0.25435296599E+03  0.12509007245E+03 0.  0.
          5    1    3    3  502    0  0.59842258116E+02  0.97304013449E+02  0.15358182269E+03  0.19145238455E+03  0.41800000000E+01 0.  1.
         -5    1    3    3    0  502 -0.33735844028E+02  0.52383850523E+02  0.75389506590E+01  0.62900581436E+02  0.41800000000E+01 0.  1.
        -11    1    1    2    0    0 -0.24897229705E+02 -0.13410358107E+03  0.31193578471E+03  0.34045201760E+03  0.00000000000E+00 0. -1.
         11    1    1    2    0    0 -0.12091843827E+01 -0.15584282899E+02 -0.30559876414E+01  0.15927054367E+02  0.00000000000E+00 0.  1.
</event>
<event>
 7    1  0.2733606E-009  0.2726427E+03  0.7561462E-02  0.1099777E+00
          2   -1    0    0  501    0  0.00000000000E+00  0.00000000000E+00  0.67937959480E+03  0.67937959480E+03  0.00000000000E+00 0. -1.
         -2   -1    0    0    0  501 -0.00000000000E+00 -0.00000000000E+00 -0.14179421698E+03  0.14179421698E+03  0.00000000000E+00 0.  1.
         25    2    1    2    0    0 -0.23811721484E+03 -0.11458789220E+03  0.11603580134E+03  0.31454809968E+03  0.12508399888E+03 0.  0.
          5    1    3    3  502    0 -0.14577961790E+03 -0.90729133065E+02  0.13345344136E+03  0.21751038134E+03  0.41800000000E+01 0.  1.
         -5    1    3    3    0  502 -0.92337596939E+02 -0.23858759138E+02 -0.17417640018E+02  0.97037718336E+02  0.41800000000E+01 0.  1.
        -11    1    1    2    0    0  0.11111241328E+03  0.10131545962E+03  0.19115745424E+03  0.24321176586E+03  0.00000000000E+00 0. -1.
         11    1    1    2    0    0  0.12700480156E+03  0.13272432588E+02  0.23039212223E+03  0.26341394624E+03  0.00000000000E+00 0.  1.
</event>
<event>
 7    1  0.2733606E-009  0.1800666E+03  0.7561462E-02  0.1167739E+00
         -2   -1    0    0    0  501 -0.00000000000E+00  0.00000000000E+00  0.41523050603E+03  0.41523050603E+03  0.00000000000E+00 0.  1.
          2   -1    0    0  501    0  0.00000000000E+00 -0.00000000000E+00 -0.83612702679E+02  0.83612702679E+02  0.00000000000E+00 0. -1.
         25    2    1    2    0    0  0.14348769891E+03 -0.46427654091E+02  0.18411975323E+03  0.26887155398E+03  0.12509029621E+03 0.  0.
          5    1    3    3  502    0  0.85452129512E+01  0.34037390826E+02  0.16210060360E+02  0.38881912189E+02  0.41800000000E+01 0. -1.
         -5    1    3    3    0  502  0.13494248596E+03 -0.80465044917E+02  0.16790969287E+03  0.22998964179E+03  0.41800000000E+01 0. -1.
        -11    1    1    2    0    0 -0.40584220542E+02 -0.19896147432E+02  0.10810237376E+02  0.46473614791E+02  0.00000000000E+00 0. -1.
         11    1    1    2    0    0 -0.10290347837E+03  0.66323801524E+02  0.13668781275E+03  0.18349803994E+03  0.00000000000E+00 0.  1.
</event>
<event>
 7    1  0.2733606E-009  0.1401580E+03  0.7561462E-02  0.1213116E+00
         -1   -1    0    0    0  501 -0.00000000000E+00  0.00000000000E+00  0.74509813072E+02  0.74509813072E+02  0.00000000000E+00 0.  1.
          1   -1    0    0  501    0  0.00000000000E+00 -0.00000000000E+00 -0.47721205601E+03  0.47721205601E+03  0.00000000000E+00 0. -1.
         25    2    1    2    0    0  0.38995760459E+02 -0.12059114429E+03 -0.33720427510E+03  0.38133610666E+03  0.12509040604E+03 0.  0.
          5    1    3    3  502    0  0.26468903334E+02 -0.11832033940E+03 -0.34508638112E+03  0.36579008789E+03  0.41800000000E+01 0. -1.
         -5    1    3    3    0  502  0.12526857125E+02 -0.22708048880E+01  0.78821060245E+01  0.15546018772E+02  0.41800000000E+01 0. -1.
        -11    1    1    2    0    0 -0.42194330109E+01 -0.97897827197E+01 -0.28556356807E+02  0.30481288928E+02  0.00000000000E+00 0. -1.
         11    1    1    2    0    0 -0.34776327448E+02  0.13038092701E+03 -0.36941611033E+02  0.13990447350E+03  0.00000000000E+00 0.  1.
</event>
<event>
 7    1  0.2733606E-009  0.9372796E+02  0.7561462E-02  0.1294067E+00
         -2   -1    0    0    0  501 -0.00000000000E+00  0.00000000000E+00  0.38495693081E+03  0.38495693081E+03  0.00000000000E+00 0.  1.
          2   -1    0    0  501    0  0.00000000000E+00 -0.00000000000E+00 -0.72230407883E+02  0.72230407883E+02  0.00000000000E+00 0. -1.
         25    2    1    2    0    0 -0.51624164957E+02 -0.53122404993E+02  0.26716621611E+02  0.14781154006E+03  0.12508968457E+03 0.  0.
          5    1    3    3  502    0 -0.58207872504E+02 -0.84536180451E+01 -0.36995002727E+02  0.69611225433E+02  0.41800000000E+01 0.  1.
         -5    1    3    3    0  502  0.65837075464E+01 -0.44668786948E+02  0.63711624338E+02  0.78200314630E+02  0.41800000000E+01 0.  1.
        -11    1    1    2    0    0  0.24719259292E+02  0.50358255736E+02  0.27417169578E+03  0.27985195098E+03  0.00000000000E+00 0.  1.
         11    1    1    2    0    0  0.26904905665E+02  0.27641492570E+01  0.11838205543E+02  0.29523847656E+02  0.00000000000E+00 0. -1.
</event>
<event>
 7    1  0.2733606E-009  0.7015224E+02  0.7561462E-02  0.1359576E+00
         -4   -1    0    0    0  501 -0.00000000000E+00  0.00000000000E+00  0.20353586969E+03  0.20353586969E+03  0.00000000000E+00 0.  1.
          4   -1    0    0  501    0  0.00000000000E+00 -0.00000000000E+00 -0.63192495908E+02  0.63192495908E+02  0.00000000000E+00 0. -1.
         25    2    1    2    0    0  0.16721252790E+02  0.16153542643E+02  0.47158626651E+02  0.13569147915E+03  0.12509078388E+03 0.  0.
          5    1    3    3  502    0 -0.14434784252E+01 -0.36397202428E+02  0.67108631075E+02  0.76471437409E+02  0.41800000000E+01 0.  1.
         -5    1    3    3    0  502  0.18164731215E+02  0.52550745071E+02 -0.19950004424E+02  0.59220041744E+02  0.41800000000E+01 0.  1.
        -11    1    1    2    0    0  0.11008858378E+02 -0.16867071163E+02  0.10037899198E+03  0.10237985682E+03  0.00000000000E+00 0.  1.
         11    1    1    2    0    0 -0.27730111168E+02  0.71352852043E+00 -0.71942448401E+01  0.28657029629E+02  0.00000000000E+00 0. -1.
</event>
<event>
 7    1  0.2733606E-009  0.4030003E+03  0.7561462E-02  0.1042746E+00
          2   -1    0    0  501    0  0.00000000000E+00  0.00000000000E+00  0.47774443293E+03  0.47774443293E+03  0.00000000000E+00 0. -1.
         -2   -1    0    0    0  501 -0.00000000000E+00 -0.00000000000E+00 -0.36284685625E+03  0.36284685625E+03  0.00000000000E+00 0.  1.
         25    2    1    2    0    0  0.12735952512E+02  0.39160824178E+03  0.14609923703E+03  0.43647648372E+03  0.12509002464E+03 0.  0.
          5    1    3    3  502    0  0.50436826508E+02  0.29971787331E+03  0.14567071539E+03  0.33706395057E+03  0.41800000000E+01 0.  1.
         -5    1    3    3    0  502 -0.37700873996E+02  0.91890368465E+02  0.42852164308E+00  0.99412533151E+02  0.41800000000E+01 0.  1.
        -11    1    1    2    0    0  0.29385891096E+02 -0.46829614368E+02 -0.94916108888E+01  0.56094866563E+02  0.00000000000E+00 0. -1.
         11    1    1    2    0    0 -0.42121843608E+02 -0.34477862741E+03 -0.21710049455E+02  0.34801993890E+03  0.00000000000E+00 0.  1.
</event>
<event>
 7    1  0.2733606E-009  0.1167570E+03  0.7561462E-02  0.1248545E+00
         -2   -1    0    0    0  501 -0.00000000000E+00  0.00000000000E+00  0.30921527974E+02  0.30921527974E+02  0.00000000000E+00 0.  1.
          2   -1    0    0  501    0  0.00000000000E+00 -0.00000000000E+00 -0.48633723603E+03  0.48633723603E+03  0.00000000000E+00 0. -1.
         25    2    1    2    0    0  0.11358992279E+02 -0.48262295982E+02 -0.19596821194E+03  0.23771592059E+03  0.12508814050E+03 0.  0.
          5    1    3    3  502    0 -0.54471670095E+02 -0.71199651687E+01 -0.10037598730E+03  0.11450182520E+03  0.41800000000E+01 0.  1.
         -5    1    3    3    0  502  0.65830662374E+02 -0.41142330813E+02 -0.95592224636E+02  0.12321409540E+03  0.41800000000E+01 0.  1.
        -11    1    1    2    0    0 -0.22890346790E+02  0.71316951827E+02 -0.22017239250E+03  0.23256387943E+03  0.00000000000E+00 0. -1.
         11    1    1    2    0    0  0.11531354510E+02 -0.23054655845E+02 -0.39275103616E+02  0.46978963984E+02  0.00000000000E+00 0.  1.
</event>
<event>
 7    1  0.2733606E-009  0.2949811E+03  0.7561462E-02  0.1087777E+00
          2   -1    0    0  501    0  0.00000000000E+00  0.00000000000E+00  0.61774096541E+03  0.61774096541E+03  0.00000000000E+00 0. -1.
         -2   -1    0    0    0  501 -0.00000000000E+00 -0.00000000000E+00 -0.26935472557E+03  0.26935472557E+03  0.00000000000E+00 0.  1.
         25    2    1    2    0    0 -0.69050732062E+02 -0.27158868051E+03 -0.12348873403E+03  0.33079484721E+03  0.12508936218E+03 0.  0.
          5    1    3    3  502    0  0.28798486380E+01 -0.18926631866E+03 -0.40851533461E+02  0.19369138621E+03  0.41800000000E+01 0.  1.
         -5    1    3    3    0  502 -0.71930580700E+02 -0.82322361849E+02 -0.82637200568E+02  0.13710346100E+03  0.41800000000E+01 0.  1.
        -11    1    1    2    0    0  0.26938601769E+02  0.23157535367E+03  0.40838458727E+03  0.47024547187E+03  0.00000000000E+00 0.  1.
         11    1    1    2    0    0  0.42112130293E+02  0.40013326833E+02  0.63490386598E+02  0.86055371898E+02  0.00000000000E+00 0. -1.
</event>
<event>
 7    1  0.2733606E-009  0.1932163E+03  0.7561462E-02  0.1155592E+00
         -1   -1    0    0    0  501 -0.00000000000E+00  0.00000000000E+00  0.25686187534E+03  0.25686187534E+03  0.00000000000E+00 0.  1.
          1   -1    0    0  501    0  0.00000000000E+00 -0.00000000000E+00 -0.17317150545E+03  0.17317150545E+03  0.00000000000E+00 0. -1.
         25    2    1    2    0    0  0.16408386659E+03  0.74576148552E+02  0.46766393443E+02  0.22431930806E+03  0.12508772604E+03 0.  0.
          5    1    3    3  502    0  0.16686616018E+03  0.40571446971E+02  0.72309960453E+01  0.17193055989E+03  0.41800000000E+01 0.  1.
         -5    1    3    3    0  502 -0.27822935887E+01  0.34004701581E+02  0.39535397398E+02  0.52388748168E+02  0.41800000000E+01 0.  1.
        -11    1    1    2    0    0 -0.43810814179E+02 -0.21865663047E+02 -0.30917633434E+02  0.57908502974E+02  0.00000000000E+00 0. -1.
         11    1    1    2    0    0 -0.12027305241E+03 -0.52710485504E+02  0.67841609885E+02  0.14780556975E+03  0.00000000000E+00 0.  1.
</event>
<event>
 7    1  0.2733606E-009  0.1042345E+03  0.7561462E-02  0.1271635E+00
          2   -1    0    0  501    0  0.00000000000E+00  0.00000000000E+00  0.12367354921E+04  0.12367354921E+04  0.00000000000E+00 0. -1.
         -2   -1    0    0    0  501 -0.00000000000E+00 -0.00000000000E+00 -0.13437759602E+02  0.13437759602E+02  0.00000000000E+00 0.  1.
         25    2    1    2    0    0  0.18570684673E+02  0.37452309275E+02  0.93003878642E+03  0.93934402785E+03  0.12509001797E+03 0.  0.
          5    1    3    3  502    0  0.51298614302E+02 -0.61754479878E+01  0.18006368009E+03  0.18737685362E+03  0.41800000000E+01 0.  1.
         -5    1    3    3    0  502 -0.32727929629E+02  0.43627757263E+02  0.74997510634E+03  0.75196717422E+03  0.41800000000E+01 0.  1.
        -11    1    1    2    0    0 -0.17856651119E+02 -0.68544352009E+02  0.18175727532E+03  0.19507151333E+03  0.00000000000E+00 0.  1.
         11    1    1    2    0    0 -0.71403355382E+00  0.31092042733E+02  0.11150167076E+03  0.11575771053E+03  0.00000000000E+00 0. -1.
</event>
<event>
 7    1  0.2733606E-009  0.1068321E+03  0.7561462E-02  0.1266551E+00
          1   -1    0    0  501    0  0.00000000000E+00  0.00000000000E+00  0.36091839488E+03  0.36091839488E+03  0.00000000000E+00 0. -1.
         -1   -1    0    0    0  501 -0.00000000000E+00 -0.00000000000E+00 -0.34500257738E+02  0.34500257738E+02  0.00000000000E+00 0.  1.
         25    2    1    2    0    0 -0.29476045241E+01  0.11700821643E+02  0.15001632320E+03  0.19570001798E+03  0.12509197501E+03 0.  0.
          5    1    3    3  502    0 -0.38257171082E+02 -0.44100159396E+02  0.82628897176E+02  0.10125928227E+03  0.41800000000E+01 0.  1.
         -5    1    3    3    0  502  0.35309566558E+02  0.55800981040E+02  0.67387426022E+02  0.94440735710E+02  0.41800000000E+01 0.  1.
        -11    1    1    2    0    0  0.16005075560E+02  0.36060319240E+02  0.48201113555E+02  0.62288493442E+02  0.00000000000E+00 0.  1.
         11    1    1    2    0    0 -0.13057471036E+02 -0.47761140883E+02  0.12820070038E+03  0.13743014119E+03  0.00000000000E+00 0. -1.
</event>
<event>
 7    1  0.2733606E-009  0.3123501E+03  0.7561462E-02  0.1079225E+00
         -2   -1    0    0    0  501 -0.00000000000E+00  0.00000000000E+00  0.17772692700E+03  0.17772692700E+03  0.00000000000E+00 0.  1.
          2   -1    0    0  501    0  0.00000000000E+00 -0.00000000000E+00 -0.56094499395E+03  0.56094499395E+03  0.00000000000E+00 0. -1.
         25    2    1    2    0    0  0.29581412637E+03  0.39060258679E+02 -0.19433484710E+03  0.37741856035E+03  0.12508811189E+03 0.  0.
          5    1    3    3  502    0  0.14062449649E+03 -0.43838948822E+02 -0.82145920224E+02  0.16870840838E+03  0.41800000000E+01 0.  1.
         -5    1    3    3    0  502  0.15518962988E+03  0.82899207501E+02 -0.11218892687E+03  0.20871015198E+03  0.41800000000E+01 0.  1.
        -11    1    1    2    0    0 -0.71452577408E+02 -0.27909383652E+02 -0.17441806376E+02  0.78667789620E+02  0.00000000000E+00 0.  1.
         11    1    1    2    0    0 -0.22436154896E+03 -0.11150875028E+02 -0.17144141348E+03  0.28258557097E+03  0.00000000000E+00 0. -1.
</event>
<event>
 7    1  0.2869909E-009  0.1336268E+03  0.7561462E-02  0.1222171E+00
          2   -1    0    0  501    0  0.00000000000E+00  0.00000000000E+00  0.14966318336E+04  0.14966318336E+04  0.00000000000E+00 0.  1.
         -2   -1    0    0    0  501 -0.00000000000E+00 -0.00000000000E+00 -0.16154402599E+02  0.16154402599E+02  0.00000000000E+00 0. -1.
         25    2    1    2    0    0 -0.17043608378E+02  0.10746750453E+03  0.90641236771E+03  0.92144950361E+03  0.12508420463E+03 0.  0.
          5    1    3    3  502    0 -0.29883217035E+02  0.10651069025E+02  0.49258064728E+02  0.58739094924E+02  0.41800000000E+01 0.  1.
         -5    1    3    3    0  502  0.12839608657E+02  0.96816435504E+02  0.85715430298E+03  0.86271040868E+03  0.41800000000E+01 0.  1.
        -11    1    1    2    0    0  0.51392778634E+02 -0.66277016745E+02  0.27514420607E+03  0.28764247735E+03  0.00000000000E+00 0. -1.
         11    1    1    2    0    0 -0.34349170256E+02 -0.41190487784E+02  0.29892085724E+03  0.30369425525E+03  0.00000000000E+00 0.  1.
</event>
<event>
 7    1  0.2733606E-009  0.2115442E+03  0.7561462E-02  0.1140349E+00
          1   -1    0    0  501    0  0.00000000000E+00  0.00000000000E+00  0.16395216724E+04  0.16395216724E+04  0.00000000000E+00 0. -1.
         -1   -1    0    0    0  501 -0.00000000000E+00 -0.00000000000E+00 -0.36331156410E+02  0.36331156410E+02  0.00000000000E+00 0.  1.
         25    2    1    2    0    0  0.13273321771E+03  0.15415177376E+03  0.10968686431E+04  0.11225638423E+04  0.12509150074E+03 0.  0.
          5    1    3    3  502    0  0.64594844562E+02  0.17956244545E+02  0.57506953723E+03  0.57897959007E+03  0.41800000000E+01 0.  1.
         -5    1    3    3    0  502  0.68138373148E+02  0.13619552922E+03  0.52179910584E+03  0.54358425228E+03  0.41800000000E+01 0.  1.
        -11    1    1    2    0    0 -0.65604436481E+02 -0.70324962615E+02  0.12852495940E+03  0.16052478824E+03  0.00000000000E+00 0.  1.
         11    1    1    2    0    0 -0.67128781229E+02 -0.83826811146E+02  0.37779691357E+03  0.39276419827E+03  0.00000000000E+00 0. -1.
</event>
<event>
 7    1  0.2733606E-009  0.1718005E+03  0.7561462E-02  0.1175983E+00
         -3   -1    0    0    0  501 -0.00000000000E+00  0.00000000000E+00  0.83466896519E+02  0.83466896519E+02  0.00000000000E+00 0.  1.
          3   -1    0    0  501    0  0.00000000000E+00 -0.00000000000E+00 -0.39106418872E+03  0.39106418872E+03  0.00000000000E+00 0. -1.
         25    2    1    2    0    0 -0.13625334248E+03 -0.46378348897E+02 -0.16347906037E+03  0.25117568473E+03  0.12509155382E+03 0.  0.
          5    1    3    3  502    0 -0.46485424997E+02 -0.80331739939E+02 -0.63563650049E+02  0.11256950380E+03  0.41800000000E+01 0. -1.
         -5    1    3    3    0  502 -0.89767917482E+02  0.33953391042E+02 -0.99915410318E+02  0.13860618093E+03  0.41800000000E+01 0. -1.
        -11    1    1    2    0    0  0.77497703293E+02 -0.34721978210E+01 -0.11948617657E+03  0.14246015782E+03  0.00000000000E+00 0. -1.
         11    1    1    2    0    0  0.58755639185E+02  0.49850546718E+02 -0.24632055266E+02  0.80895242696E+02  0.00000000000E+00 0.  1.
</event>
<event>
 7    1  0.2733606E-009  0.1875624E+03  0.7561462E-02  0.1160678E+00
         -2   -1    0    0    0  501 -0.00000000000E+00  0.00000000000E+00  0.22073604470E+03  0.22073604470E+03  0.00000000000E+00 0.  1.
          2   -1    0    0  501    0  0.00000000000E+00 -0.00000000000E+00 -0.16070784773E+03  0.16070784773E+03  0.00000000000E+00 0. -1.
         25    2    1    2    0    0  0.15039586884E+03  0.27825168894E+02  0.22200081106E+02  0.19883604440E+03  0.12509904701E+03 0.  0.
          5    1    3    3  502    0 -0.10011275575E+02  0.34962934960E+02 -0.55675414873E+00  0.36611676209E+02  0.41800000000E+01 0. -1.
         -5    1    3    3    0  502  0.16040714442E+03 -0.71377660656E+01  0.22756835255E+02  0.16222436819E+03  0.41800000000E+01 0. -1.
        -11    1    1    2    0    0 -0.75944007761E+02  0.31977111105E+02  0.25866526487E+02  0.86366111073E+02  0.00000000000E+00 0. -1.
         11    1    1    2    0    0 -0.74451861080E+02 -0.59802279999E+02  0.11961589375E+02  0.96241736953E+02  0.00000000000E+00 0.  1.
</event>
<event>
 7    1  0.3281292E-009  0.1208211E+03  0.7561462E-02  0.1241749E+00
         -2   -1    0    0    0  501 -0.00000000000E+00  0.00000000000E+00  0.67162958674E+02  0.67162958674E+02  0.00000000000E+00 0.  1.
          2   -1    0    0  501    0  0.00000000000E+00 -0.00000000000E+00 -0.39628945672E+03  0.39628945672E+03  0.00000000000E+00 0. -1.
         25    2    1    2    0    0  0.66258213334E+02  0.56090461610E+02 -0.55340553749E+02  0.16201061122E+03  0.12509424663E+03 0.  0.
          5    1    3    3  502    0  0.38236108760E+02 -0.27169315750E+02  0.14967691458E+02  0.49413317224E+02  0.41800000000E+01 0.  1.
         -5    1    3    3    0  502  0.28022104573E+02  0.83259777360E+02 -0.70308245207E+02  0.11259729399E+03  0.41800000000E+01 0.  1.
        -11    1    1    2    0    0 -0.47358182341E+02  0.57830779698E-01 -0.45792384347E+02  0.65876727630E+02  0.00000000000E+00 0.  1.
         11    1    1    2    0    0 -0.18900030993E+02 -0.56148292389E+02 -0.22799355995E+03  0.23556507655E+03  0.00000000000E+00 0. -1.
</event>
<event>
 7    1  0.2733606E-009  0.8780754E+02  0.7561462E-02  0.1308250E+00
         -2   -1    0    0    0  501 -0.00000000000E+00  0.00000000000E+00  0.38089172128E+03  0.38089172128E+03  0.00000000000E+00 0.  1.
          2   -1    0    0  501    0  0.00000000000E+00 -0.00000000000E+00 -0.65163102309E+02  0.65163102309E+02  0.00000000000E+00 0. -1.
         25    2    1    2    0    0 -0.52665961518E+02 -0.12359467694E+02  0.29844161289E+02  0.13951484349E+03  0.12508899890E+03 0.  0.
          5    1    3    3  502    0 -0.21179563290E+02 -0.27643765555E+02 -0.44841113491E+02  0.56929338081E+02  0.41800000000E+01 0.  1.
         -5    1    3    3    0  502 -0.31486398229E+02  0.15284297862E+02  0.74685274781E+02  0.82585505409E+02  0.41800000000E+01 0.  1.
        -11    1    1    2    0    0 -0.84498682649E+01  0.38063859681E+02  0.15489275256E+03  0.15972483365E+03  0.00000000000E+00 0.  1.
         11    1    1    2    0    0  0.61115829783E+02 -0.25704391988E+02  0.13099170513E+03  0.14681514646E+03  0.00000000000E+00 0. -1.
</event>
<event>
 7    1  0.2733606E-009  0.8875418E+02  0.7561462E-02  0.1305897E+00
          1   -1    0    0  501    0  0.00000000000E+00  0.00000000000E+00  0.40782562470E+02  0.40782562470E+02  0.00000000000E+00 0. -1.
         -1   -1    0    0    0  501 -0.00000000000E+00 -0.00000000000E+00 -0.41251295782E+03  0.41251295782E+03  0.00000000000E+00 0.  1.
         25    2    1    2    0    0  0.40837403783E+02  0.57218888829E+02 -0.22747577369E+03  0.26895202385E+03  0.12509304028E+03 0.  0.
          5    1    3    3  502    0  0.79811021597E+01  0.30746947828E+02 -0.22414271450E+03  0.22642107158E+03  0.41800000000E+01 0.  1.
         -5    1    3    3    0  502  0.32856301624E+02  0.26471941001E+02 -0.33330591910E+01  0.42530952262E+02  0.41800000000E+01 0.  1.
        -11    1    1    2    0    0  0.12492483661E+02  0.10884477905E+02 -0.50652179486E+00  0.16576808246E+02  0.00000000000E+00 0. -1.
         11    1    1    2    0    0 -0.53329887444E+02 -0.68103366735E+02 -0.14374809986E+03  0.16776668820E+03  0.00000000000E+00 0.  1.
</event>
<event>
 7    1  0.2733606E-009  0.1273884E+03  0.7561462E-02  0.1231383E+00
          2   -1    0    0  501    0  0.00000000000E+00  0.00000000000E+00  0.38347100746E+03  0.38347100746E+03  0.00000000000E+00 0. -1.
         -2   -1    0    0    0  501 -0.00000000000E+00 -0.00000000000E+00 -0.47364511854E+02  0.47364511854E+02  0.00000000000E+00 0.  1.
         25    2    1    2    0    0  0.49426796078E+02 -0.47901150775E+02  0.24880245597E+03  0.28684971379E+03  0.12507025140E+03 0.  0.
          5    1    3    3  502    0 -0.27767837337E+02 -0.57804645143E+02  0.99953541863E+02  0.11883018439E+03  0.41800000000E+01 0.  1.
         -5    1    3    3    0  502  0.77194633415E+02  0.99034943679E+01  0.14884891411E+03  0.16801952940E+03  0.41800000000E+01 0.  1.
        -11    1    1    2    0    0  0.17954898730E+02 -0.12664774314E+02  0.28451683218E+02  0.35948201274E+02  0.00000000000E+00 0.  1.
         11    1    1    2    0    0 -0.67381694808E+02  0.60565925089E+02  0.58852356420E+02  0.10803760426E+03  0.00000000000E+00 0. -1.
</event>
<event>
 7    1  0.2733606E-009  0.1234177E+03  0.7561462E-02  0.1237563E+00
         -2   -1    0    0    0  501 -0.00000000000E+00  0.00000000000E+00  0.18324670234E+02  0.18324670234E+02  0.00000000000E+00 0. -1.
          2   -1    0    0  501    0  0.00000000000E+00 -0.00000000000E+00 -0.12729858718E+04  0.12729858718E+04  0.00000000000E+00 0.  1.
         25    2    1    2    0    0  0.16457498104E+02  0.10525252013E+03 -0.70486545686E+03  0.72376213806E+03  0.12508947984E+03 0.  0.
          5    1    3    3  502    0 -0.20570744527E+02  0.49807121200E+02 -0.87883097671E+02  0.10317371811E+03  0.41800000000E+01 0.  1.
         -5    1    3    3    0  502  0.37028242631E+02  0.55445398932E+02 -0.61698235919E+03  0.62058841995E+03  0.41800000000E+01 0.  1.
        -11    1    1    2    0    0  0.17519768048E+02 -0.24258210900E+01 -0.19577705978E+02  0.26383962018E+02  0.00000000000E+00 0. -1.
         11    1    1    2    0    0 -0.33977266152E+02 -0.10282669904E+03 -0.53021803870E+03  0.54116444193E+03  0.00000000000E+00 0.  1.
</event>
<event>
 7    1  0.2733606E-009  0.1362532E+03  0.7561462E-02  0.1218461E+00
         -2   -1    0    0    0  501 -0.00000000000E+00  0.00000000000E+00  0.46245376137E+02  0.46245376137E+02  0.00000000000E+00 0.  1.
          2   -1    0    0  501    0  0.00000000000E+00 -0.00000000000E+00 -0.60370540952E+03  0.60370540952E+03  0.00000000000E+00 0. -1.
         25    2    1    2    0    0  0.12537150869E+03 -0.39404694991E+01 -0.26157717800E+03  0.31591852264E+03  0.12509336676E+03 0.  0.
          5    1    3    3  502    0  0.68838916945E+02 -0.14002278007E+02 -0.24657834080E+03  0.25642388896E+03  0.41800000000E+01 0.  1.
         -5    1    3    3    0  502  0.56532591742E+02  0.10061808507E+02 -0.14998837193E+02  0.59494633680E+02  0.41800000000E+01 0.  1.
        -11    1    1    2    0    0 -0.57699329254E+02  0.37711233610E+02 -0.20222794446E+03  0.21365273520E+03  0.00000000000E+00 0. -1.
         11    1    1    2    0    0 -0.67672179433E+02 -0.33770764111E+02 -0.93654910927E+02  0.12037952782E+03  0.00000000000E+00 0.  1.
</event>
<event>
 7    1  0.2733606E-009  0.1228789E+03  0.7561462E-02  0.1238422E+00
         -1   -1    0    0    0  501 -0.00000000000E+00  0.00000000000E+00  0.10547867070E+03  0.10547867070E+03  0.00000000000E+00 0.  1.
          1   -1    0    0  501    0  0.00000000000E+00 -0.00000000000E+00 -0.15820997561E+03  0.15820997561E+03  0.00000000000E+00 0. -1.
         25    2    1    2    0    0  0.56766811705E+02 -0.38402734655E+02 -0.54763151146E+02  0.15278641943E+03  0.12508975297E+03 0.  0.
          5    1    3    3  502    0  0.96592951604E+02 -0.26943868228E+02 -0.45063434539E+02  0.11001979761E+03  0.41800000000E+01 0.  1.
         -5    1    3    3    0  502 -0.39826139900E+02 -0.11458866426E+02 -0.96997166069E+01  0.42766621814E+02  0.41800000000E+01 0.  1.
        -11    1    1    2    0    0 -0.70867798143E+02  0.48949257545E+02  0.17000315839E+02  0.87791146288E+02  0.00000000000E+00 0.  1.
         11    1    1    2    0    0  0.14100986439E+02 -0.10546522890E+02 -0.14968469608E+02  0.23111080590E+02  0.00000000000E+00 0. -1.
</event>
<event>
 7    1  0.2733606E-009  0.9299487E+02  0.7561462E-02  0.1295757E+00
         -2   -1    0    0    0  501 -0.00000000000E+00  0.00000000000E+00  0.37762250716E+02  0.37762250716E+02  0.00000000000E+00 0.  1.
          2   -1    0    0  501    0  0.00000000000E+00 -0.00000000000E+00 -0.49833006300E+03  0.49833006300E+03  0.00000000000E+00 0. -1.
         25    2    1    2    0    0  0.75275250259E+01 -0.77656542464E+02 -0.19350857494E+03  0.24326609379E+03  0.12508245918E+03 0.  0.
          5    1    3    3  502    0  0.73651360741E+01 -0.56301457535E+02 -0.20895989284E+03  0.21657748859E+03  0.41800000000E+01 0. -1.
         -5    1    3    3    0  502  0.16238895185E+00 -0.21355084929E+02  0.15451317903E+02  0.26688605198E+02  0.41800000000E+01 0. -1.
        -11    1    1    2    0    0  0.30631725599E+02  0.54891657733E+02 -0.86798723285E+02  0.10717002877E+03  0.00000000000E+00 0.  1.
         11    1    1    2    0    0 -0.38159250625E+02  0.22764884731E+02 -0.18026051407E+03  0.18565619116E+03  0.00000000000E+00 0. -1.
</event>
<event>
 7    1  0.2733606E-009  0.1000935E+03  0.7561462E-02  0.1280099E+00
          3   -1    0    0  501    0  0.00000000000E+00  0.00000000000E+00  0.33570013582E+02  0.33570013582E+02  0.00000000000E+00 0. -1.
         -3   -1    0    0    0  501 -0.00000000000E+00 -0.00000000000E+00 -0.48225347917E+03  0.48225347917E+03  0.00000000000E+00 0.  1.
         25    2    1    2    0    0  0.10026614903E+02 -0.22904246238E+02 -0.12770317985E+03  0.18048731069E+03  0.12506969926E+03 0.  0.
          5    1    3    3  502    0 -0.30057032665E+02  0.27655823910E+02 -0.10367709133E+03  0.11151090294E+03  0.41800000000E+01 0.  1.
         -5    1    3    3    0  502  0.40083647568E+02 -0.50560070148E+02 -0.24026088523E+02  0.68976407745E+02  0.41800000000E+01 0.  1.
        -11    1    1    2    0    0  0.32314436836E+02  0.37669476517E+02 -0.12973632003E+03  0.13890545354E+03  0.00000000000E+00 0. -1.
         11    1    1    2    0    0 -0.42341051739E+02 -0.14765230280E+02 -0.19124396571E+03  0.19643072852E+03  0.00000000000E+00 0.  1.
</event>
<event>
 7    1  0.2733606E-009  0.1366081E+03  0.7561462E-02  0.1217967E+00
         -1   -1    0    0    0  501 -0.00000000000E+00  0.00000000000E+00  0.85701816513E+02  0.85701816513E+02  0.00000000000E+00 0.  1.
          1   -1    0    0  501    0  0.00000000000E+00 -0.00000000000E+00 -0.23202094163E+03  0.23202094163E+03  0.00000000000E+00 0. -1.
         25    2    1    2    0    0 -0.30314011099E+02 -0.84074034667E+02 -0.74055644699E+02  0.17064074152E+03  0.12508653637E+03 0.  0.
          5    1    3    3  502    0 -0.10710373561E+02 -0.11435266657E+03 -0.42507470151E+02  0.12253816496E+03  0.41800000000E+01 0.  1.
         -5    1    3    3    0  502 -0.19603637537E+02  0.30278631902E+02 -0.31548174548E+02  0.48102576561E+02  0.41800000000E+01 0.  1.
        -11    1    1    2    0    0  0.44864554975E+02  0.93257217330E+01 -0.61479073357E+01  0.46234123151E+02  0.00000000000E+00 0.  1.
         11    1    1    2    0    0 -0.14550543876E+02  0.74748312934E+02 -0.66115573085E+02  0.10084789347E+03  0.00000000000E+00 0. -1.
</event>
<event>
 7    1  0.2733606E-009  0.7515910E+02  0.7561462E-02  0.1343379E+00
          1   -1    0    0  501    0  0.00000000000E+00  0.00000000000E+00  0.43358838520E+02  0.43358838520E+02  0.00000000000E+00 0. -1.
         -1   -1    0    0    0  501 -0.00000000000E+00 -0.00000000000E+00 -0.36760683131E+03  0.36760683131E+03  0.00000000000E+00 0.  1.
         25    2    1    2    0    0  0.89815855259E+01 -0.28168276662E+02 -0.27586012071E+03  0.30433586727E+03  0.12508954081E+03 0.  0.
          5    1    3    3  502    0 -0.33656653505E+02 -0.94856870385E+01 -0.13294300909E+02  0.37642521441E+02  0.41800000000E+01 0.  1.
         -5    1    3    3    0  502  0.42638239031E+02 -0.18682589623E+02 -0.26256581980E+03  0.26669334583E+03  0.41800000000E+01 0.  1.
        -11    1    1    2    0    0 -0.22571259400E+02 -0.12277740881E+02 -0.57517692119E+02  0.62995948907E+02  0.00000000000E+00 0.  1.
         11    1    1    2    0    0  0.13589673874E+02  0.40446017543E+02  0.91298200343E+01  0.43633853657E+02  0.00000000000E+00 0. -1.
</event>
<event>
 7    1  0.2733606E-009  0.1317373E+03  0.7561462E-02  0.1224900E+00
          1   -1    0    0  501    0  0.00000000000E+00  0.00000000000E+00  0.16511830335E+04  0.16511830335E+04  0.00000000000E+00 0. -1.
         -1   -1    0    0    0  501 -0.00000000000E+00 -0.00000000000E+00 -0.20972479486E+02  0.20972479486E+02  0.00000000000E+00 0.  1.
         25    2    1    2    0    0 -0.77814210717E+02  0.89166035855E+02  0.12677124458E+04  0.12793545206E+04  0.12509001060E+03 0.  0.
          5    1    3    3  502    0  0.15927221826E+02  0.12861310490E+02  0.62575006006E+03  0.62609879394E+03  0.41800000000E+01 0.  1.
         -5    1    3    3    0  502 -0.93741432543E+02  0.76304725365E+02  0.64196238574E+03  0.65325572664E+03  0.41800000000E+01 0.  1.
        -11    1    1    2    0    0  0.35695005271E+02 -0.61925248243E+02  0.86164876182E+02  0.11195202392E+03  0.00000000000E+00 0.  1.
         11    1    1    2    0    0  0.42119205446E+02 -0.27240787612E+02  0.27633323201E+03  0.28084896847E+03  0.00000000000E+00 0. -1.
</event>
<event>
 7    1  0.2733606E-009  0.9353338E+02  0.7561462E-02  0.1294514E+00
          2   -1    0    0  501    0  0.00000000000E+00  0.00000000000E+00  0.95025584319E+03  0.95025584319E+03  0.00000000000E+00 0.  1.
         -2   -1    0    0    0  501 -0.00000000000E+00 -0.00000000000E+00 -0.39202962045E+02  0.39202962045E+02  0.00000000000E+00 0. -1.
         25    2    1    2    0    0 -0.18031560788E+02  0.27367398815E+02  0.86990802746E+03  0.87946698328E+03  0.12509231286E+03 0.  0.
          5    1    3    3  502    0 -0.29783202672E+02 -0.40867754912E+02  0.53802870915E+03  0.54041611451E+03  0.41800000000E+01 0. -1.
         -5    1    3    3    0  502  0.11751641885E+02  0.68235153728E+02  0.33187931832E+03  0.33905086877E+03  0.41800000000E+01 0. -1.
        -11    1    1    2    0    0  0.39405327289E+02 -0.21031356635E+02  0.64012510263E+02  0.78055744509E+02  0.00000000000E+00 0.  1.
         11    1    1    2    0    0 -0.21373766501E+02 -0.63360421805E+01 -0.22867656581E+02  0.31936077444E+02  0.00000000000E+00 0. -1.
</event>
<event>
 7    1  0.2733606E-009  0.9580898E+02  0.7561462E-02  0.1289364E+00
         -2   -1    0    0    0  501 -0.00000000000E+00  0.00000000000E+00  0.51772636900E+02  0.51772636900E+02  0.00000000000E+00 0.  1.
          2   -1    0    0  501    0  0.00000000000E+00 -0.00000000000E+00 -0.28165879312E+03  0.28165879312E+03  0.00000000000E+00 0. -1.
         25    2    1    2    0    0 -0.25893308637E+02  0.32687480309E+02 -0.87142969499E+02  0.15804582571E+03  0.12508257708E+03 0.  0.
          5    1    3    3  502    0  0.12828919218E+01 -0.42867721706E+02 -0.58577982118E+02  0.72719596843E+02  0.41800000000E+01 0.  1.
         -5    1    3    3    0  502 -0.27176200558E+02  0.75555202015E+02 -0.28564987381E+02  0.85326228865E+02  0.41800000000E+01 0.  1.
        -11    1    1    2    0    0  0.14702850023E+01 -0.41971284937E+02 -0.14380685356E+02  0.44390929350E+02  0.00000000000E+00 0.  1.
         11    1    1    2    0    0  0.24423023634E+02  0.92838046283E+01 -0.12836250136E+03  0.13099467496E+03  0.00000000000E+00 0. -1.
</event>
<event>
 7    1  0.2733606E-009  0.1649106E+03  0.7561462E-02  0.1183262E+00
          3   -1    0    0  501    0  0.00000000000E+00  0.00000000000E+00  0.14209718306E+03  0.14209718306E+03  0.00000000000E+00 0. -1.
         -3   -1    0    0    0  501 -0.00000000000E+00 -0.00000000000E+00 -0.19616504050E+03  0.19616504050E+03  0.00000000000E+00 0.  1.
         25    2    1    2    0    0  0.10198459809E+03 -0.71917028097E+02 -0.48482664724E+02  0.18322332521E+03  0.12508917198E+03 0.  0.
          5    1    3    3  502    0 -0.22998111530E+02 -0.40242800192E+02 -0.22238477712E+02  0.51579243812E+02  0.41800000000E+01 0. -1.
         -5    1    3    3    0  502  0.12498270962E+03 -0.31674227906E+02 -0.26244187011E+02  0.13164408140E+03  0.41800000000E+01 0. -1.
        -11    1    1    2    0    0 -0.11196618315E+03  0.82992744994E+02 -0.77711093741E+00  0.13937297368E+03  0.00000000000E+00 0. -1.
         11    1    1    2    0    0  0.99815850626E+01 -0.11075716897E+02 -0.48080817860E+01  0.15665924665E+02  0.00000000000E+00 0.  1.
</event>
<event>
 7    1  0.2733606E-009  0.1286964E+03  0.7561462E-02  0.1229403E+00
         -2   -1    0    0    0  501 -0.00000000000E+00  0.00000000000E+00  0.10717465905E+03  0.10717465905E+03  0.00000000000E+00 0.  1.
          2   -1    0    0  501    0  0.00000000000E+00 -0.00000000000E+00 -0.18665689988E+03  0.18665689988E+03  0.00000000000E+00 0. -1.
         25    2    1    2    0    0 -0.73915572216E+02 -0.26495595084E+02 -0.10322372600E+03  0.18018871912E+03  0.12508920223E+03 0.  0.
          5    1    3    3  502    0 -0.63898924063E+02 -0.74168423270E+02 -0.59777858155E+02  0.11478193339E+03  0.41800000000E+01 0.  1.
         -5    1    3    3    0  502 -0.10016648154E+02  0.47672828186E+02 -0.43445867844E+02  0.65406785735E+02  0.41800000000E+01 0.  1.
        -11    1    1    2    0    0 -0.15495797478E+02  0.12717114928E+02  0.90365992201E+01  0.21988744326E+02  0.00000000000E+00 0.  1.
         11    1    1    2    0    0  0.89411369695E+02  0.13778480156E+02  0.14704885947E+02  0.91654095472E+02  0.00000000000E+00 0. -1.
</event>
<event>
 7    1  0.2733606E-009  0.1126372E+03  0.7561462E-02  0.1255763E+00
         -1   -1    0    0    0  501 -0.00000000000E+00  0.00000000000E+00  0.79950365325E+03  0.79950365325E+03  0.00000000000E+00 0.  1.
          1   -1    0    0  501    0  0.00000000000E+00 -0.00000000000E+00 -0.27793325812E+02  0.27793325812E+02  0.00000000000E+00 0. -1.
         25    2    1    2    0    0 -0.77580933054E+02 -0.14066267836E+02  0.55907923155E+03  0.57830140288E+03  0.12508502852E+03 0.  0.
          5    1    3    3  502    0 -0.41010026689E+02  0.54617423410E+02  0.30287458814E+03  0.31050825073E+03  0.41800000000E+01 0. -1.
         -5    1    3    3    0  502 -0.36570906365E+02 -0.68683691246E+02  0.25620464341E+03  0.26779315215E+03  0.41800000000E+01 0. -1.
        -11    1    1    2    0    0  0.38858382268E+02  0.87988281642E+01  0.20543068335E+03  0.20925859339E+03  0.00000000000E+00 0.  1.
         11    1    1    2    0    0  0.38722550786E+02  0.52674396719E+01  0.72004125411E+01  0.39736982785E+02  0.00000000000E+00 0. -1.
</event>
<event>
 7    1  0.2733606E-009  0.6065801E+02  0.7561462E-02  0.1395091E+00
         -1   -1    0    0    0  501 -0.00000000000E+00  0.00000000000E+00  0.15568153323E+03  0.15568153323E+03  0.00000000000E+00 0.  1.
          1   -1    0    0  501    0  0.00000000000E+00 -0.00000000000E+00 -0.96051418256E+02  0.96051418256E+02  0.00000000000E+00 0. -1.
         25    2    1    2    0    0  0.32673947540E+02 -0.25689583707E+02  0.72305494017E+02  0.15034213473E+03  0.12508849448E+03 0.  0.
          5    1    3    3  502    0 -0.11886651367E+02 -0.90418517797E+01  0.95853158985E+02  0.97099681007E+02  0.41800000000E+01 0.  1.
         -5    1    3    3    0  502  0.44560598907E+02 -0.16647731927E+02 -0.23547664968E+02  0.53242453725E+02  0.41800000000E+01 0.  1.
        -11    1    1    2    0    0 -0.14144788780E+02  0.34684712409E+02  0.33864604142E+02  0.50496690369E+02  0.00000000000E+00 0.  1.
         11    1    1    2    0    0 -0.18529158760E+02 -0.89951287017E+01 -0.46539983190E+02  0.50894126380E+02  0.00000000000E+00 0. -1.
</event>
<event>
 7    1  0.2733606E-009  0.1261368E+03  0.7561462E-02  0.1233303E+00
          2   -1    0    0  501    0  0.00000000000E+00  0.00000000000E+00  0.56066452408E+03  0.56066452408E+03  0.00000000000E+00 0. -1.
         -2   -1    0    0    0  501 -0.00000000000E+00 -0.00000000000E+00 -0.37336092834E+02  0.37336092834E+02  0.00000000000E+00 0.  1.
         25    2    1    2    0    0  0.25165963033E+02  0.63959970649E+02  0.14949421098E+03  0.20670005521E+03  0.12510871340E+03 0.  0.
          5    1    3    3  502    0  0.43801749997E+02  0.95275534753E+02  0.12156352461E+03  0.16059633788E+03  0.41800000000E+01 0. -1.
         -5    1    3    3    0  502 -0.18635786964E+02 -0.31315564105E+02  0.27930686365E+02  0.46103717332E+02  0.41800000000E+01 0. -1.
        -11    1    1    2    0    0 -0.38742746136E+02  0.61569867121E+01  0.19152532539E+03  0.19550155787E+03  0.00000000000E+00 0. -1.
         11    1    1    2    0    0  0.13576783103E+02 -0.70116957361E+02  0.18230889489E+03  0.19579900384E+03  0.00000000000E+00 0.  1.
</event>
<event>
 7    1  0.2733606E-009  0.1034593E+03  0.7561462E-02  0.1273185E+00
         -1   -1    0    0    0  501 -0.00000000000E+00  0.00000000000E+00  0.21891002013E+02  0.21891002013E+02  0.00000000000E+00 0.  1.
          1   -1    0    0  501    0  0.00000000000E+00 -0.00000000000E+00 -0.70740936803E+03  0.70740936803E+03  0.00000000000E+00 0. -1.
         25    2    1    2    0    0  0.39499462855E+02  0.35893361790E+02 -0.42844287816E+03  0.44951082213E+03  0.12509251927E+03 0.  0.
          5    1    3    3  502    0  0.64336889992E+02  0.27883139738E+02 -0.11361835706E+03  0.13357884697E+03  0.41800000000E+01 0. -1.
         -5    1    3    3    0  502 -0.24837427137E+02  0.80102220519E+01 -0.31482452110E+03  0.31593197516E+03  0.41800000000E+01 0. -1.
        -11    1    1    2    0    0 -0.63422070404E+02  0.41958530072E+01 -0.15610590054E+03  0.16854974452E+03  0.00000000000E+00 0. -1.
         11    1    1    2    0    0  0.23922607550E+02 -0.40089214797E+02 -0.10096958731E+03  0.11123980339E+03  0.00000000000E+00 0.  1.
</event>
<event>
 7    1  0.2733606E-009  0.1812353E+03  0.7561462E-02  0.1166613E+00
         -2   -1    0    0    0  501 -0.00000000000E+00  0.00000000000E+00  0.10588886643E+03  0.10588886643E+03  0.00000000000E+00 0.  1.
          2   -1    0    0  501    0  0.00000000000E+00 -0.00000000000E+00 -0.64580465446E+03  0.64580465446E+03  0.00000000000E+00 0. -1.
         25    2    1    2    0    0  0.15065301698E+03  0.77002589751E+02 -0.51540358179E+03  0.55669990259E+03  0.12509276186E+03 0.  0.
          5    1    3    3  502    0  0.11739657691E+03  0.34918943379E+02 -0.18476950571E+03  0.22171723324E+03  0.41800000000E+01 0. -1.
         -5    1    3    3    0  502  0.33256440071E+02  0.42083646372E+02 -0.33063407608E+03  0.33498266935E+03  0.41800000000E+01 0. -1.
        -11    1    1    2    0    0 -0.75560267321E+02  0.39971346460E+01  0.16011396405E+02  0.77341424203E+02  0.00000000000E+00 0.  1.
         11    1    1    2    0    0 -0.75092749661E+02 -0.80999724397E+02 -0.40523602657E+02  0.11765219410E+03  0.00000000000E+00 0. -1.
</event>
<event>
 7    1  0.2733606E-009  0.1244836E+03  0.7561462E-02  0.1235878E+00
          1   -1    0    0  501    0  0.00000000000E+00  0.00000000000E+00  0.10133826027E+03  0.10133826027E+03  0.00000000000E+00 0. -1.
         -1   -1    0    0    0  501 -0.00000000000E+00 -0.00000000000E+00 -0.23508093431E+03  0.23508093431E+03  0.00000000000E+00 0.  1.
         25    2    1    2    0    0 -0.71382640362E+02 -0.75329235720E+02 -0.11160798867E+03  0.19716199622E+03  0.12508610843E+03 0.  0.
          5    1    3    3  502    0 -0.42971269245E+01  0.15394126293E+02  0.18559937659E+02  0.24847295829E+02  0.41800000000E+01 0. -1.
         -5    1    3    3    0  502 -0.67085513437E+02 -0.90723362013E+02 -0.13016792633E+03  0.17231470039E+03  0.41800000000E+01 0. -1.
        -11    1    1    2    0    0  0.54175120237E+02  0.84242107528E+02 -0.44556150365E+02  0.10962174451E+03  0.00000000000E+00 0.  1.
         11    1    1    2    0    0  0.17207520125E+02 -0.89128718076E+01  0.22421464989E+02  0.29635453851E+02  0.00000000000E+00 0. -1.
</event>
<event>
 7    1  0.2733606E-009  0.9564860E+02  0.7561462E-02  0.1289722E+00
          1   -1    0    0  501    0  0.00000000000E+00  0.00000000000E+00  0.27129854322E+02  0.27129854322E+02  0.00000000000E+00 0. -1.
         -1   -1    0    0    0  501 -0.00000000000E+00 -0.00000000000E+00 -0.45173037590E+03  0.45173037590E+03  0.00000000000E+00 0.  1.
         25    2    1    2    0    0 -0.18976003991E+00  0.24719814816E+02 -0.28466800774E+03  0.31191967669E+03  0.12508758862E+03 0.  0.
          5    1    3    3  502    0 -0.63515067388E+01  0.75652035304E+02 -0.16996849886E+03  0.18619971828E+03  0.41800000000E+01 0.  1.
         -5    1    3    3    0  502  0.61617466989E+01 -0.50932220488E+02 -0.11469950888E+03  0.12571995841E+03  0.41800000000E+01 0.  1.
        -11    1    1    2    0    0 -0.11200499181E+02  0.17103087220E+02  0.41785070158E-02  0.20444236151E+02  0.00000000000E+00 0. -1.
         11    1    1    2    0    0  0.11390259221E+02 -0.41822902036E+02 -0.13993669235E+03  0.14649631738E+03  0.00000000000E+00 0.  1.
</event>
<event>
 7    1  0.2733606E-009  0.2738780E+03  0.7561462E-02  0.1099080E+00
          2   -1    0    0  501    0  0.00000000000E+00  0.00000000000E+00  0.11111602166E+03  0.11111602166E+03  0.00000000000E+00 0. -1.
         -2   -1    0    0    0  501 -0.00000000000E+00 -0.00000000000E+00 -0.70939087550E+03  0.70939087550E+03  0.00000000000E+00 0.  1.
         25    2    1    2    0    0  0.67908212170E+02  0.24630606643E+03 -0.24843304284E+03  0.37768603444E+03  0.12509820222E+03 0.  0.
          5    1    3    3  502    0  0.29118569338E+02 -0.47619647546E+01 -0.18969034810E+02  0.35325119536E+02  0.41800000000E+01 0.  1.
         -5    1    3    3    0  502  0.38789642832E+02  0.25106803119E+03 -0.22946400803E+03  0.34236091491E+03  0.41800000000E+01 0.  1.
        -11    1    1    2    0    0 -0.14311731962E+02 -0.17014256710E+03 -0.27339315715E+03  0.32233078846E+03  0.00000000000E+00 0.  1.
         11    1    1    2    0    0 -0.53596480209E+02 -0.76163499334E+02 -0.76448653851E+02  0.12049007427E+03  0.00000000000E+00 0. -1.
</event>
<event>
 7    1  0.2733606E-009  0.1271686E+03  0.7561462E-02  0.1231719E+00
          1   -1    0    0  501    0  0.00000000000E+00  0.00000000000E+00  0.69410095664E+03  0.69410095664E+03  0.00000000000E+00 0. -1.
         -1   -1    0    0    0  501 -0.00000000000E+00 -0.00000000000E+00 -0.32812297512E+02  0.32812297512E+02  0.00000000000E+00 0.  1.
         25    2    1    2    0    0  0.49442383409E+02 -0.89036299035E+02  0.42126257840E+03  0.45108876183E+03  0.12508756640E+03 0.  0.
          5    1    3    3  502    0  0.74653020968E+02 -0.26982867311E+02  0.13151625938E+03  0.15367220812E+03  0.41800000000E+01 0.  1.
         -5    1    3    3    0  502 -0.25210637559E+02 -0.62053431724E+02  0.28974631902E+03  0.29741655371E+03  0.41800000000E+01 0.  1.
        -11    1    1    2    0    0 -0.25508862475E+02  0.14258350002E+02  0.71731457952E+01  0.30090806406E+02  0.00000000000E+00 0.  1.
         11    1    1    2    0    0 -0.23933520934E+02  0.74777949033E+02  0.23285293494E+03  0.24573368592E+03  0.00000000000E+00 0. -1.
</event>
<event>
 7    1  0.2733606E-009  0.1088308E+03  0.7561462E-02  0.1262750E+00
         -3   -1    0    0    0  501 -0.00000000000E+00  0.00000000000E+00  0.50207970077E+03  0.50207970077E+03  0.00000000000E+00 0.  1.
          3   -1    0    0  501    0  0.00000000000E+00 -0.00000000000E+00 -0.51367379789E+02  0.51367379789E+02  0.00000000000E+00 0. -1.
         25    2    1    2    0    0 -0.69336092647E+02  0.50538295407E+01  0.40668236834E+03  0.43112768229E+03  0.12508994678E+03 0.  0.
          5    1    3    3  502    0 -0.75656157507E+02  0.47971492497E+02  0.33872954004E+03  0.35040018830E+03  0.41800000000E+01 0.  1.
         -5    1    3    3    0  502  0.63200648598E+01 -0.42917662956E+02  0.67952828293E+02  0.80727493994E+02  0.41800000000E+01 0.  1.
        -11    1    1    2    0    0  0.67865885081E+02 -0.18921607656E+02 -0.56871935089E+01  0.70683447596E+02  0.00000000000E+00 0. -1.
         11    1    1    2    0    0  0.14702075659E+01  0.13867778115E+02  0.49717146157E+02  0.51635950675E+02  0.00000000000E+00 0.  1.
</event>
<event>
 7    1  0.2733606E-009  0.1173830E+03  0.7561462E-02  0.1247478E+00
         -2   -1    0    0    0  501 -0.00000000000E+00  0.00000000000E+00  0.11303500045E+03  0.11303500045E+03  0.00000000000E+00 0.  1.
          2   -1    0    0  501    0  0.00000000000E+00 -0.00000000000E+00 -0.16081556883E+03  0.16081556883E+03  0.00000000000E+00 0. -1.
         25    2    1    2    0    0  0.45791834354E+02  0.45799754955E+02  0.21895765532E+02  0.14254589614E+03  0.12508156663E+03 0.  0.
          5    1    3    3  502    0  0.83853304381E+02  0.34114936930E+02 -0.10252621041E+02  0.91201941951E+02  0.41800000000E+01 0.  1.
         -5    1    3    3    0  502 -0.38061470028E+02  0.11684818025E+02  0.32148386573E+02  0.51343954193E+02  0.41800000000E+01 0.  1.
        -11    1    1    2    0    0 -0.55563384961E+02 -0.63200297189E+02 -0.72592631180E+02  0.11113621109E+03  0.00000000000E+00 0. -1.
         11    1    1    2    0    0  0.97715506071E+01  0.17400542234E+02  0.29162972682E+01  0.20168462040E+02  0.00000000000E+00 0.  1.
</event>
<event>
 7    1  0.2733606E-009  0.1153454E+03  0.7561462E-02  0.1250979E+00
         -1   -1    0    0    0  501 -0.00000000000E+00  0.00000000000E+00  0.11993995980E+03  0.11993995980E+03  0.00000000000E+00 0.  1.
          1   -1    0    0  501    0  0.00000000000E+00 -0.00000000000E+00 -0.25430255173E+03  0.25430255173E+03  0.00000000000E+00 0. -1.
         25    2    1    2    0    0  0.10243747242E+03  0.43750192334E+01 -0.16723683121E+03  0.23265688665E+03  0.12509393527E+03 0.  0.
          5    1    3    3  502    0  0.71541381091E+02 -0.16591273965E+02 -0.17880506148E+03  0.19334467148E+03  0.41800000000E+01 0.  1.
         -5    1    3    3    0  502  0.30896091331E+02  0.20966293198E+02  0.11568230265E+02  0.39312215168E+02  0.41800000000E+01 0.  1.
        -11    1    1    2    0    0 -0.95249190234E+02  0.17226180053E+02  0.53733308979E+02  0.11070870794E+03  0.00000000000E+00 0.  1.
         11    1    1    2    0    0 -0.71882821872E+01 -0.21601199286E+02 -0.20859069694E+02  0.30876916943E+02  0.00000000000E+00 0. -1.
</event>
<event>
 7    1  0.2733606E-009  0.8114324E+02  0.7561462E-02  0.1325838E+00
         -2   -1    0    0    0  501 -0.00000000000E+00  0.00000000000E+00  0.90582810305E+03  0.90582810305E+03  0.00000000000E+00 0.  1.
          2   -1    0    0  501    0  0.00000000000E+00 -0.00000000000E+00 -0.20352495975E+02  0.20352495975E+02  0.00000000000E+00 0. -1.
         25    2    1    2    0    0  0.67483987654E+02 -0.23206938858E+02  0.49065724146E+03  0.51135345552E+03  0.12508068306E+03 0.  0.
          5    1    3    3  502    0  0.42665169067E+02 -0.22403936993E+02  0.48244968526E+03  0.48486846077E+03  0.41800000000E+01 0. -1.
         -5    1    3    3    0  502  0.24818818587E+02 -0.80300186543E+00  0.82075562000E+01  0.26484994749E+02  0.41800000000E+01 0. -1.
        -11    1    1    2    0    0  0.58836825808E+01  0.13501469599E+02  0.17256537085E+01  0.14828529353E+02  0.00000000000E+00 0. -1.
         11    1    1    2    0    0 -0.73367670235E+02  0.97054692587E+01  0.39309271191E+03  0.39999861415E+03  0.00000000000E+00 0.  1.
</event>
<event>
 7    1  0.2733606E-009  0.1076650E+03  0.7561462E-02  0.1264956E+00
          3   -1    0    0  501    0  0.00000000000E+00  0.00000000000E+00  0.74086761142E+03  0.74086761142E+03  0.00000000000E+00 0. -1.
         -3   -1    0    0    0  501 -0.00000000000E+00 -0.00000000000E+00 -0.33572717021E+02  0.33572717021E+02  0.00000000000E+00 0.  1.
         25    2    1    2    0    0  0.20049837008E+02  0.95605033835E+02  0.52953675073E+03  0.55281159901E+03  0.12509666330E+03 0.  0.
          5    1    3    3  502    0  0.15870204980E+02  0.10425461679E+03  0.53173459900E+03  0.54210704174E+03  0.41800000000E+01 0.  1.
         -5    1    3    3    0  502  0.41796320283E+01 -0.86495829586E+01 -0.21978482747E+01  0.10704557267E+02  0.41800000000E+01 0.  1.
        -11    1    1    2    0    0  0.47663911634E-01 -0.43026426632E+02  0.93065922319E+01  0.44021452947E+02  0.00000000000E+00 0.  1.
         11    1    1    2    0    0 -0.20097500920E+02 -0.52578607203E+02  0.16845155143E+03  0.17760727648E+03  0.00000000000E+00 0. -1.
</event>
<event>
 7    1  0.2733606E-009  0.1260451E+03  0.7561462E-02  0.1233445E+00
         -2   -1    0    0    0  501 -0.00000000000E+00  0.00000000000E+00  0.98146567677E+02  0.98146567677E+02  0.00000000000E+00 0.  1.
          2   -1    0    0  501    0  0.00000000000E+00 -0.00000000000E+00 -0.23270680525E+03  0.23270680525E+03  0.00000000000E+00 0. -1.
         25    2    1    2    0    0  0.10522061835E+03  0.52496634635E+01 -0.73804255066E+02  0.17942630186E+03  0.12509113573E+03 0.  0.
          5    1    3    3  502    0  0.63908880355E+00 -0.15985650638E+02  0.27588228238E+02  0.32164144604E+02  0.41800000000E+01 0. -1.
         -5    1    3    3    0  502  0.10458152955E+03  0.21235314102E+02 -0.10139248330E+03  0.14726215725E+03  0.41800000000E+01 0. -1.
        -11    1    1    2    0    0 -0.44299428132E+02 -0.39079480969E+02 -0.14779882571E+00  0.59073403577E+02  0.00000000000E+00 0.  1.
         11    1    1    2    0    0 -0.60921190220E+02  0.33829817505E+02 -0.60608183678E+02  0.92353667491E+02  0.00000000000E+00 0. -1.
</event>
<event>
 7    1  0.2733606E-009  0.1132944E+03  0.7561462E-02  0.1254588E+00
          1   -1    0    0  501    0  0.00000000000E+00  0.00000000000E+00  0.70773223377E+02  0.70773223377E+02  0.00000000000E+00 0. -1.
         -1   -1    0    0    0  501 -0.00000000000E+00 -0.00000000000E+00 -0.29632084175E+03  0.29632084175E+03  0.00000000000E+00 0.  1.
         25    2    1    2    0    0 -0.54594552196E+01 -0.50440486283E+02 -0.18949800070E+02  0.13631130475E+03  0.12509048155E+03 0.  0.
          5    1    3    3  502    0  0.52225726618E+02  0.59392975087E+01 -0.17405890979E+02  0.55526923347E+02  0.41800000000E+01 0. -1.
         -5    1    3    3    0  502 -0.57685181837E+02 -0.56379783792E+02 -0.15439090913E+01  0.80784381407E+02  0.41800000000E+01 0. -1.
        -11    1    1    2    0    0  0.32721076339E+02  0.56382263131E+02 -0.18291842246E+03  0.19418748082E+03  0.00000000000E+00 0.  1.
         11    1    1    2    0    0 -0.27261621119E+02 -0.59417768477E+01 -0.23679395848E+02  0.36595279557E+02  0.00000000000E+00 0. -1.
</event>
<event>
 7    1  0.2733606E-009  0.1235474E+03  0.7561462E-02  0.1237357E+00
         -2   -1    0    0    0  501 -0.00000000000E+00  0.00000000000E+00  0.33653452427E+03  0.33653452427E+03  0.00000000000E+00 0. -1.
          2   -1    0    0  501    0  0.00000000000E+00 -0.00000000000E+00 -0.73900239382E+02  0.73900239382E+02  0.00000000000E+00 0.  1.
         25    2    1    2    0    0  0.80724685344E+02 -0.28269331741E+02  0.42462210468E+02  0.15737215942E+03  0.12508927733E+03 0.  0.
          5    1    3    3  502    0 -0.30971639875E+02 -0.23084487789E+02  0.40336968229E+01  0.39062503287E+02  0.41800000000E+01 0. -1.
         -5    1    3    3    0  502  0.11169632522E+03 -0.51848439522E+01  0.38428513645E+02  0.11830965614E+03  0.41800000000E+01 0. -1.
        -11    1    1    2    0    0 -0.60409650572E+02  0.40410681206E+02  0.21740829668E+03  0.22923506822E+03  0.00000000000E+00 0. -1.
         11    1    1    2    0    0 -0.20315034772E+02 -0.12141349465E+02  0.27637777383E+01  0.23827536004E+02  0.00000000000E+00 0.  1.
</event>
<event>
 7    1  0.2733606E-009  0.2361474E+03  0.7561462E-02  0.1122386E+00
         -2   -1    0    0    0  501 -0.00000000000E+00  0.00000000000E+00  0.29444644345E+02  0.29444644345E+02  0.00000000000E+00 0.  1.
          2   -1    0    0  501    0  0.00000000000E+00 -0.00000000000E+00 -0.23188795159E+04  0.23188795159E+04  0.00000000000E+00 0. -1.
         25    2    1    2    0    0 -0.11374970939E+03  0.18239460967E+03 -0.16286146463E+04  0.16474954598E+04  0.12509529832E+03 0.  0.
          5    1    3    3  502    0 -0.61363273600E+02  0.17560592882E+03 -0.14251041872E+04  0.14371994678E+04  0.41800000000E+01 0.  1.
         -5    1    3    3    0  502 -0.52386435789E+02  0.67886808508E+01 -0.20351045918E+03  0.21029599197E+03  0.41800000000E+01 0.  1.
        -11    1    1    2    0    0  0.69044783771E+02 -0.17473735657E+03 -0.54244479563E+03  0.57406156660E+03  0.00000000000E+00 0. -1.
         11    1    1    2    0    0  0.44704925619E+02 -0.76572530962E+01 -0.11837542954E+03  0.12676713383E+03  0.00000000000E+00 0.  1.
</event>
<event>
 7    1  0.2733606E-009  0.6472344E+02  0.7561462E-02  0.1379015E+00
         -1   -1    0    0    0  501 -0.00000000000E+00  0.00000000000E+00  0.75732333287E+02  0.75732333287E+02  0.00000000000E+00 0.  1.
          1   -1    0    0  501    0  0.00000000000E+00 -0.00000000000E+00 -0.36763774838E+03  0.36763774838E+03  0.00000000000E+00 0. -1.
         25    2    1    2    0    0  0.24843501408E+02 -0.12599780184E+02 -0.31888049199E+03  0.34366867017E+03  0.12508969847E+03 0.  0.
          5    1    3    3  502    0 -0.61418535102E-01 -0.11350667124E+02 -0.31814393840E+03  0.31837380445E+03  0.41800000000E+01 0.  1.
         -5    1    3    3    0  502  0.24904919943E+02 -0.12491130608E+01 -0.73655358705E+00  0.25294865724E+02  0.41800000000E+01 0.  1.
        -11    1    1    2    0    0 -0.43222432842E+02 -0.25202491350E+02  0.28611164978E+02  0.57636299608E+02  0.00000000000E+00 0.  1.
         11    1    1    2    0    0  0.18378931434E+02  0.37802271535E+02 -0.16360880816E+01  0.42065111887E+02  0.00000000000E+00 0. -1.
</event>
<event>
 7    1  0.2733606E-009  0.1162057E+03  0.7561462E-02  0.1249491E+00
          1   -1    0    0  501    0  0.00000000000E+00  0.00000000000E+00  0.10679958481E+04  0.10679958481E+04  0.00000000000E+00 0. -1.
         -1   -1    0    0    0  501 -0.00000000000E+00 -0.00000000000E+00 -0.13021318666E+02  0.13021318666E+02  0.00000000000E+00 0.  1.
         25    2    1    2    0    0 -0.25753608544E+02  0.38372178773E+02  0.61535818930E+03  0.62964226617E+03  0.12509200518E+03 0.  0.
          5    1    3    3  502    0 -0.52123121003E+02 -0.29486327041E+02  0.30235340936E+03  0.30825528346E+03  0.41800000000E+01 0. -1.
         -5    1    3    3    0  502  0.26369512459E+02  0.67858505814E+02  0.31300477993E+03  0.32138698272E+03  0.41800000000E+01 0. -1.
        -11    1    1    2    0    0  0.56415517788E+02 -0.92467018307E+01  0.19809894444E+03  0.20618293802E+03  0.00000000000E+00 0. -1.
         11    1    1    2    0    0 -0.30661909244E+02 -0.29125476943E+02  0.24151739570E+03  0.24519196258E+03  0.00000000000E+00 0.  1.
</event>
<event>
 7    1  0.2733606E-009  0.1311412E+03  0.7561462E-02  0.1225772E+00
         -2   -1    0    0    0  501 -0.00000000000E+00  0.00000000000E+00  0.11380828266E+03  0.11380828266E+03  0.00000000000E+00 0.  1.
          2   -1    0    0  501    0  0.00000000000E+00 -0.00000000000E+00 -0.19185623431E+03  0.19185623431E+03  0.00000000000E+00 0. -1.
         25    2    1    2    0    0  0.10217775553E+03  0.73713179724E+01 -0.58772774909E+02  0.17203632824E+03  0.12509048369E+03 0.  0.
          5    1    3    3  502    0 -0.18577761936E+02  0.31204947093E+02 -0.25153527309E+02  0.44374027288E+02  0.41800000000E+01 0.  1.
         -5    1    3    3    0  502  0.12075551746E+03 -0.23833629121E+02 -0.33619247600E+02  0.12766230095E+03  0.41800000000E+01 0.  1.
        -11    1    1    2    0    0 -0.15396534188E+02 -0.29492365951E+01 -0.41140111315E+02  0.44025674560E+02  0.00000000000E+00 0. -1.
         11    1    1    2    0    0 -0.86781221339E+02 -0.44220813773E+01  0.21864934573E+02  0.89602514165E+02  0.00000000000E+00 0.  1.
</event>
<event>
 7    1  0.2733606E-009  0.8045585E+02  0.7561462E-02  0.1327763E+00
         -2   -1    0    0    0  501 -0.00000000000E+00  0.00000000000E+00  0.13116868718E+03  0.13116868718E+03  0.00000000000E+00 0.  1.
          2   -1    0    0  501    0  0.00000000000E+00 -0.00000000000E+00 -0.10246039298E+03  0.10246039298E+03  0.00000000000E+00 0. -1.
         25    2    1    2    0    0 -0.47104271810E+00 -0.29439872846E+02  0.12673030962E+02  0.12913796737E+03  0.12509628655E+03 0.  0.
          5    1    3    3  502    0  0.33946665158E+02  0.31068703647E+02 -0.22090163702E+02  0.51216092725E+02  0.41800000000E+01 0.  1.
         -5    1    3    3    0  502 -0.34417707876E+02 -0.60508576493E+02  0.34763194664E+02  0.77921874643E+02  0.41800000000E+01 0.  1.
        -11    1    1    2    0    0  0.17140614739E+02  0.12614924928E+02 -0.39081751589E+02  0.44500790014E+02  0.00000000000E+00 0. -1.
         11    1    1    2    0    0 -0.16669572020E+02  0.16824947917E+02  0.55117014822E+02  0.59990322775E+02  0.00000000000E+00 0.  1.
</event>
<event>
 7    1  0.2733606E-009  0.9701436E+02  0.7561462E-02  0.1286703E+00
         -1   -1    0    0    0  501 -0.00000000000E+00  0.00000000000E+00  0.61236548861E+02  0.61236548861E+02  0.00000000000E+00 0.  1.
          1   -1    0    0  501    0  0.00000000000E+00 -0.00000000000E+00 -0.24338101994E+03  0.24338101994E+03  0.00000000000E+00 0. -1.
         25    2    1    2    0    0  0.67804723594E+00  0.25962818048E+02 -0.16498730642E+03  0.20866710118E+03  0.12508645077E+03 0.  0.
          5    1    3    3  502    0 -0.50478092771E+02  0.49702255791E+02 -0.98134058249E+02  0.12110374837E+03  0.41800000000E+01 0. -1.
         -5    1    3    3    0  502  0.51156140007E+02 -0.23739437743E+02 -0.66853248167E+02  0.87563352810E+02  0.41800000000E+01 0. -1.
        -11    1    1    2    0    0  0.28534432462E+02 -0.17778512245E+01 -0.41858849103E+02  0.50690608984E+02  0.00000000000E+00 0. -1.
         11    1    1    2    0    0 -0.29212479698E+02 -0.24184966823E+02  0.24701684436E+02  0.45259858642E+02  0.00000000000E+00 0.  1.
</event>
<event>
 7    1  0.2733606E-009  0.1328659E+03  0.7561462E-02  0.1223264E+00
         -1   -1    0    0    0  501 -0.00000000000E+00  0.00000000000E+00  0.95509250104E+02  0.95509250104E+02  0.00000000000E+00 0.  1.
          1   -1    0    0  501    0  0.00000000000E+00 -0.00000000000E+00 -0.25216369638E+03  0.25216369638E+03  0.00000000000E+00 0. -1.
         25    2    1    2    0    0 -0.90286550703E+02  0.20814874088E+02 -0.15046150138E+03  0.21650017283E+03  0.12509492882E+03 0.  0.
          5    1    3    3  502    0 -0.61058807475E+02 -0.49867273902E+02 -0.80703305709E+02  0.11289561076E+03  0.41800000000E+01 0.  1.
         -5    1    3    3    0  502 -0.29227743227E+02  0.70682147990E+02 -0.69758195673E+02  0.10360456207E+03  0.41800000000E+01 0.  1.
        -11    1    1    2    0    0  0.91516484051E+02 -0.33489281339E+02  0.22294138119E+02  0.99969132297E+02  0.00000000000E+00 0.  1.
         11    1    1    2    0    0 -0.12299333488E+01  0.12674407252E+02 -0.28487083016E+02  0.31203641357E+02  0.00000000000E+00 0. -1.
</event>
<event>
 7    1  0.2733606E-009  0.1236802E+03  0.7561462E-02  0.1237146E+00
          2   -1    0    0  501    0  0.00000000000E+00  0.00000000000E+00  0.96151009691E+02  0.96151009691E+02  0.00000000000E+00 0. -1.
         -2   -1    0    0    0  501 -0.00000000000E+00 -0.00000000000E+00 -0.17769549415E+03  0.17769549415E+03  0.00000000000E+00 0.  1.
         25    2    1    2    0    0  0.68113723824E+02 -0.27334150594E+02 -0.42256683508E+02  0.15106181794E+03  0.12508960938E+03 0.  0.
          5    1    3    3  502    0 -0.13699563354E+01  0.36420381789E+02  0.16125498373E+02  0.40072747445E+02  0.41800000000E+01 0.  1.
         -5    1    3    3    0  502  0.69483680159E+02 -0.63754532383E+02 -0.58382181881E+02  0.11098907049E+03  0.41800000000E+01 0.  1.
        -11    1    1    2    0    0  0.20068159554E+02 -0.75632796043E+01 -0.86150430675E+01  0.23111754440E+02  0.00000000000E+00 0.  1.
         11    1    1    2    0    0 -0.88181883378E+02  0.34897430198E+02 -0.30672757886E+02  0.99672931465E+02  0.00000000000E+00 0. -1.
</event>
<event>
 7    1  0.2733606E-009  0.3059890E+03  0.7561462E-02  0.1082285E+00
          1   -1    0    0  501    0  0.00000000000E+00  0.00000000000E+00  0.17786913143E+04  0.17786913143E+04  0.00000000000E+00 0. -1.
         -1   -1    0    0    0  501 -0.00000000000E+00 -0.00000000000E+00 -0.59785665078E+02  0.59785665078E+02  0.00000000000E+00 0.  1.
         25    2    1    2    0    0 -0.90928492987E+01  0.30254038736E+03  0.73727012063E+03  0.80673923844E+03  0.12509037602E+03 0.  0.
          5    1    3    3  502    0 -0.10561645701E+02  0.14114581242E+02  0.16387993829E+03  0.16487836831E+03  0.41800000000E+01 0. -1.
         -5    1    3    3    0  502  0.14687964018E+01  0.28842580611E+03  0.57339018234E+03  0.64186087013E+03  0.41800000000E+01 0. -1.
        -11    1    1    2    0    0 -0.15391373300E+02 -0.16332951290E+03  0.66583771207E+03  0.68575016075E+03  0.00000000000E+00 0. -1.
         11    1    1    2    0    0  0.24484222599E+02 -0.13921087446E+03  0.31579781651E+03  0.34598758018E+03  0.00000000000E+00 0.  1.
</event>
<event>
 7    1  0.2733606E-009  0.9664945E+02  0.7561462E-02  0.1287504E+00
         -1   -1    0    0    0  501 -0.00000000000E+00  0.00000000000E+00  0.41338094949E+03  0.41338094949E+03  0.00000000000E+00 0.  1.
          1   -1    0    0  501    0  0.00000000000E+00 -0.00000000000E+00 -0.37496336211E+02  0.37496336211E+02  0.00000000000E+00 0. -1.
         25    2    1    2    0    0  0.42536183728E+02  0.26731068092E+02  0.14893449051E+03  0.20088072715E+03  0.12509079562E+03 0.  0.
          5    1    3    3  502    0  0.42460635060E+02  0.62566453940E+02  0.14626093944E+03  0.16470337427E+03  0.41800000000E+01 0.  1.
         -5    1    3    3    0  502  0.75548668228E-01 -0.35835385848E+02  0.26735510728E+01  0.36177352886E+02  0.41800000000E+01 0.  1.
        -11    1    1    2    0    0 -0.23701278086E+02 -0.47725146467E+02  0.21093638207E+03  0.21756285866E+03  0.00000000000E+00 0.  1.
         11    1    1    2    0    0 -0.18834905641E+02  0.20994078375E+02  0.16013740696E+02  0.32433699888E+02  0.00000000000E+00 0. -1.
</event>
<event>
 7    1  0.2733606E-009  0.8839984E+02  0.7561462E-02  0.1306774E+00
         -1   -1    0    0    0  501 -0.00000000000E+00  0.00000000000E+00  0.51640780802E+02  0.51640780802E+02  0.00000000000E+00 0.  1.
          1   -1    0    0  501    0  0.00000000000E+00 -0.00000000000E+00 -0.23611244251E+03  0.23611244251E+03  0.00000000000E+00 0. -1.
         25    2    1    2    0    0  0.17814307383E+02 -0.87230092735E+01 -0.85135365053E+02  0.15260841916E+03  0.12509140169E+03 0.  0.
          5    1    3    3  502    0  0.37307072958E+01  0.41700143510E+02 -0.90512858048E+02  0.99814177438E+02  0.41800000000E+01 0.  1.
         -5    1    3    3    0  502  0.14083600087E+02 -0.50423152784E+02  0.53774929953E+01  0.52794241722E+02  0.41800000000E+01 0.  1.
        -11    1    1    2    0    0  0.31547500018E+02  0.91286976487E+01 -0.70996889332E+02  0.78224907625E+02  0.00000000000E+00 0.  1.
         11    1    1    2    0    0 -0.49361807401E+02 -0.40568837517E+00 -0.28339407318E+02  0.56919896522E+02  0.00000000000E+00 0. -1.
</event>
<event>
 7    1  0.2733606E-009  0.6899891E+02  0.7561462E-02  0.1363531E+00
          1   -1    0    0  501    0  0.00000000000E+00  0.00000000000E+00  0.27370854473E+03  0.27370854473E+03  0.00000000000E+00 0. -1.
         -1   -1    0    0    0  501 -0.00000000000E+00 -0.00000000000E+00 -0.46732566976E+02  0.46732566976E+02  0.00000000000E+00 0.  1.
         25    2    1    2    0    0 -0.58297922486E+00 -0.35614852670E+02  0.11949082181E+03  0.17661840276E+03  0.12508895276E+03 0.  0.
          5    1    3    3  502    0  0.43512289307E+01  0.28822972678E+02 -0.10601422173E+02  0.31297915255E+02  0.41800000000E+01 0.  1.
         -5    1    3    3    0  502 -0.49342081556E+01 -0.64437825348E+02  0.13009224398E+03  0.14532048751E+03  0.41800000000E+01 0.  1.
        -11    1    1    2    0    0 -0.12359786531E+02  0.14853428699E+02 -0.11407305457E+02  0.22439146262E+02  0.00000000000E+00 0.  1.
         11    1    1    2    0    0  0.12942765756E+02  0.20761423971E+02  0.11889246141E+03  0.12138356269E+03  0.00000000000E+00 0. -1.
</event>
<event>
 7    1  0.2733606E-009  0.1146853E+03  0.7561462E-02  0.1252131E+00
         -1   -1    0    0    0  501 -0.00000000000E+00  0.00000000000E+00  0.56189378611E+02  0.56189378611E+02  0.00000000000E+00 0.  1.
          1   -1    0    0  501    0  0.00000000000E+00 -0.00000000000E+00 -0.68976516203E+03  0.68976516203E+03  0.00000000000E+00 0. -1.
         25    2    1    2    0    0 -0.74464289423E+02  0.31672809069E+02 -0.60200315104E+03  0.62016418680E+03  0.12509087695E+03 0.  0.
          5    1    3    3  502    0  0.20972448234E+02  0.33465745722E+02 -0.78076994808E+02  0.87597312972E+02  0.41800000000E+01 0.  1.
         -5    1    3    3    0  502 -0.95436737658E+02 -0.17929366527E+01 -0.52392615624E+03  0.53256687383E+03  0.41800000000E+01 0.  1.
        -11    1    1    2    0    0  0.71287989958E+02 -0.42385673684E+02  0.92639604994E+01  0.83452644117E+02  0.00000000000E+00 0.  1.
         11    1    1    2    0    0  0.31762994649E+01  0.10712864615E+02 -0.40836592876E+02  0.42337709720E+02  0.00000000000E+00 0. -1.
</event>
<event>
 7    1  0.2733606E-009  0.9909843E+02  0.7561462E-02  0.1282203E+00
          2   -1    0    0  501    0  0.00000000000E+00  0.00000000000E+00  0.42821767871E+02  0.42821767871E+02  0.00000000000E+00 0. -1.
         -2   -1    0    0    0  501 -0.00000000000E+00 -0.00000000000E+00 -0.35067351117E+03  0.35067351117E+03  0.00000000000E+00 0.  1.
         25    2    1    2    0    0 -0.29373625995E+02 -0.25396423053E+02 -0.10594596766E+03  0.16846454888E+03  0.12509183810E+03 0.  0.
          5    1    3    3  502    0 -0.47730477968E+02 -0.68522129321E+02 -0.62142680749E+02  0.10417612924E+03  0.41800000000E+01 0.  1.
         -5    1    3    3    0  502  0.18356851973E+02  0.43125706268E+02 -0.43803286907E+02  0.64288419637E+02  0.41800000000E+01 0.  1.
        -11    1    1    2    0    0  0.21384122747E+01  0.37616894398E+02 -0.18863763456E+03  0.19236361590E+03  0.00000000000E+00 0.  1.
         11    1    1    2    0    0  0.27235213720E+02 -0.12220471345E+02 -0.13268141089E+02  0.32667114262E+02  0.00000000000E+00 0. -1.
</event>
<event>
 7    1  0.2733606E-009  0.1813848E+03  0.7561462E-02  0.1166469E+00
          2   -1    0    0  501    0  0.00000000000E+00  0.00000000000E+00  0.25702864883E+03  0.25702864883E+03  0.00000000000E+00 0.  1.
         -2   -1    0    0    0  501 -0.00000000000E+00 -0.00000000000E+00 -0.20585848374E+03  0.20585848374E+03  0.00000000000E+00 0. -1.
         25    2    1    2    0    0  0.94891639573E+02  0.14098896222E+03  0.13702525627E+03  0.25160735795E+03  0.12509209004E+03 0.  0.
          5    1    3    3  502    0  0.59846459062E+02  0.57052191672E+02 -0.49557154075E+01  0.82937221753E+02  0.41800000000E+01 0.  1.
         -5    1    3    3    0  502  0.35045180511E+02  0.83936770543E+02  0.14198097168E+03  0.16867013620E+03  0.41800000000E+01 0.  1.
        -11    1    1    2    0    0 -0.29292875627E+02  0.42119908006E+01 -0.30777210412E+02  0.42697190888E+02  0.00000000000E+00 0. -1.
         11    1    1    2    0    0 -0.65598763946E+02 -0.14520095302E+03 -0.55077880767E+02  0.16858258373E+03  0.00000000000E+00 0.  1.
</event>
<event>
 7    1  0.2733606E-009  0.9914476E+02  0.7561462E-02  0.1282105E+00
          2   -1    0    0  501    0  0.00000000000E+00  0.00000000000E+00  0.16337754592E+04  0.16337754592E+04  0.00000000000E+00 0. -1.
         -2   -1    0    0    0  501 -0.00000000000E+00 -0.00000000000E+00 -0.11754781901E+02  0.11754781901E+02  0.00000000000E+00 0.  1.
         25    2    1    2    0    0  0.50609409403E+02  0.39358194590E+02  0.12352473632E+04  0.12432197192E+04  0.12509533239E+03 0.  0.
          5    1    3    3  502    0 -0.11774714764E+00 -0.14800575725E+02  0.88683316129E+03  0.88696651530E+03  0.41800000000E+01 0. -1.
         -5    1    3    3    0  502  0.50727156551E+02  0.54158770315E+02  0.34841420187E+03  0.35625320388E+03  0.41800000000E+01 0. -1.
        -11    1    1    2    0    0  0.82571607489E+01  0.22035070365E+02  0.12072239621E+03  0.12299439815E+03  0.00000000000E+00 0. -1.
         11    1    1    2    0    0 -0.58866570152E+02 -0.61393264954E+02  0.26605091796E+03  0.27931612379E+03  0.00000000000E+00 0.  1.
</event>
<event>
 7    1  0.2733606E-009  0.7162802E+02  0.7561462E-02  0.1354643E+00
         -2   -1    0    0    0  501 -0.00000000000E+00  0.00000000000E+00  0.23865589964E+03  0.23865589964E+03  0.00000000000E+00 0.  1.
          2   -1    0    0  501    0  0.00000000000E+00 -0.00000000000E+00 -0.50570102403E+02  0.50570102403E+02  0.00000000000E+00 0. -1.
         25    2    1    2    0    0 -0.18482497881E+01 -0.11661317275E+02  0.13803979045E+03  0.18666168121E+03  0.12509275413E+03 0.  0.
          5    1    3    3  502    0  0.22853054726E+02 -0.20410835920E+02  0.15307116921E+03  0.15616375885E+03  0.41800000000E+01 0. -1.
         -5    1    3    3    0  502 -0.24701304514E+02  0.87495186454E+01 -0.15031378759E+02  0.30497922365E+02  0.41800000000E+01 0. -1.
        -11    1    1    2    0    0  0.19772321392E+02 -0.32552062273E+02  0.37010549255E+02  0.53107082462E+02  0.00000000000E+00 0.  1.
         11    1    1    2    0    0 -0.17924071604E+02  0.44213379548E+02  0.13035457528E+02  0.49457238367E+02  0.00000000000E+00 0. -1.
</event>
<event>
 7    1  0.2733606E-009  0.8120119E+02  0.7561462E-02  0.1325677E+00
         -2   -1    0    0    0  501 -0.00000000000E+00  0.00000000000E+00  0.24943969997E+02  0.24943969997E+02  0.00000000000E+00 0.  1.
          2   -1    0    0  501    0  0.00000000000E+00 -0.00000000000E+00 -0.53830708468E+03  0.53830708468E+03  0.00000000000E+00 0. -1.
         25    2    1    2    0    0  0.19327000751E+02 -0.28256771231E+02 -0.35423770674E+03  0.37723233237E+03  0.12509157300E+03 0.  0.
          5    1    3    3  502    0  0.18035609662E+02  0.17908836059E+02 -0.31622114665E+03  0.31726849137E+03  0.41800000000E+01 0.  1.
         -5    1    3    3    0  502  0.12913910890E+01 -0.46165607290E+02 -0.38016560087E+02  0.59963841006E+02  0.41800000000E+01 0.  1.
        -11    1    1    2    0    0 -0.26137004295E+02 -0.25245187159E+02 -0.33998011638E+02  0.49762709568E+02  0.00000000000E+00 0.  1.
         11    1    1    2    0    0  0.68100035432E+01  0.53501958390E+02 -0.12512739631E+03  0.13625601273E+03  0.00000000000E+00 0. -1.
</event>
<event>
 7    1  0.2733606E-009  0.6992156E+02  0.7561462E-02  0.1360360E+00
          1   -1    0    0  501    0  0.00000000000E+00  0.00000000000E+00  0.10009740876E+04  0.10009740876E+04  0.00000000000E+00 0. -1.
         -1   -1    0    0    0  501 -0.00000000000E+00 -0.00000000000E+00 -0.13211847635E+02  0.13211847635E+02  0.00000000000E+00 0.  1.
         25    2    1    2    0    0  0.10305099980E+02  0.60044630490E+01  0.73562443797E+03  0.74627999102E+03  0.12509301577E+03 0.  0.
          5    1    3    3  502    0  0.16951907031E+02  0.26224440205E+02  0.71699564326E+03  0.71768747604E+03  0.41800000000E+01 0. -1.
         -5    1    3    3    0  502 -0.66468070513E+01 -0.20219977156E+02  0.18628794707E+02  0.28592514972E+02  0.41800000000E+01 0. -1.
        -11    1    1    2    0    0 -0.44010448520E+02  0.15506743499E+02  0.96146167563E+02  0.10687125062E+03  0.00000000000E+00 0.  1.
         11    1    1    2    0    0  0.33705348540E+02 -0.21511206548E+02  0.15599163440E+03  0.16103469356E+03  0.00000000000E+00 0. -1.
</event>
<event>
 7    1  0.2733606E-009  0.1039900E+03  0.7561462E-02  0.1272122E+00
         -2   -1    0    0    0  501 -0.00000000000E+00  0.00000000000E+00  0.14329200070E+02  0.14329200070E+02  0.00000000000E+00 0.  1.
          2   -1    0    0  501    0  0.00000000000E+00 -0.00000000000E+00 -0.90992710927E+03  0.90992710927E+03  0.00000000000E+00 0. -1.
         25    2    1    2    0    0  0.28710492525E+02  0.15122055745E+02 -0.62169591932E+03  0.63498504534E+03  0.12508885942E+03 0.  0.
          5    1    3    3  502    0  0.23988892131E+02  0.69622104352E+02 -0.32565030148E+03  0.33389863075E+03  0.41800000000E+01 0.  1.
         -5    1    3    3    0  502  0.47216003939E+01 -0.54500048606E+02 -0.29604561784E+03  0.30108641459E+03  0.41800000000E+01 0.  1.
        -11    1    1    2    0    0  0.11442235545E+02 -0.33352998942E+02 -0.50709147423E+02  0.61763783280E+02  0.00000000000E+00 0.  1.
         11    1    1    2    0    0 -0.40152728070E+02  0.18230943197E+02 -0.22319284246E+03  0.22750748072E+03  0.00000000000E+00 0. -1.
</event>
<event>
 7    1  0.2733606E-009  0.7580442E+02  0.7561462E-02  0.1341398E+00
         -2   -1    0    0    0  501 -0.00000000000E+00  0.00000000000E+00  0.14047870951E+02  0.14047870951E+02  0.00000000000E+00 0. -1.
          2   -1    0    0  501    0  0.00000000000E+00 -0.00000000000E+00 -0.92949094535E+03  0.92949094535E+03  0.00000000000E+00 0.  1.
         25    2    1    2    0    0  0.15671653843E+02  0.21051995587E+02 -0.41943120029E+03  0.43847303939E+03  0.12508911718E+03 0.  0.
          5    1    3    3  502    0 -0.13970807255E+02  0.22462872254E+02 -0.40377274706E+03  0.40465994088E+03  0.41800000000E+01 0.  1.
         -5    1    3    3    0  502  0.29642461098E+02 -0.14108766666E+01 -0.15658453232E+02  0.33813098506E+02  0.41800000000E+01 0.  1.
        -11    1    1    2    0    0 -0.30266053685E+02  0.29486501622E+02 -0.19980418315E+03  0.20422340558E+03  0.00000000000E+00 0.  1.
         11    1    1    2    0    0  0.14594399841E+02 -0.50538497210E+02 -0.29620769097E+03  0.30084237134E+03  0.00000000000E+00 0. -1.
</event>
<event>
 7    1  0.2733606E-009  0.1087601E+03  0.7561462E-02  0.1262883E+00
         -2   -1    0    0    0  501 -0.00000000000E+00  0.00000000000E+00  0.61123022544E+02  0.61123022544E+02  0.00000000000E+00 0. -1.
          2   -1    0    0  501    0  0.00000000000E+00 -0.00000000000E+00 -0.27574974535E+03  0.27574974535E+03  0.00000000000E+00 0.  1.
         25    2    1    2    0    0  0.41187581170E+02 -0.48309196776E+02 -0.16112924059E+03  0.21363632655E+03  0.12509057723E+03 0.  0.
          5    1    3    3  502    0  0.75689763428E+02 -0.25681165710E+02 -0.15106982784E+03  0.17096206551E+03  0.41800000000E+01 0.  1.
         -5    1    3    3    0  502 -0.34502182258E+02 -0.22628031066E+02 -0.10059412754E+02  0.42674261042E+02  0.41800000000E+01 0.  1.
        -11    1    1    2    0    0  0.17046612090E+02  0.30798816758E+02 -0.51516016886E+02  0.62394343439E+02  0.00000000000E+00 0.  1.
         11    1    1    2    0    0 -0.58234193260E+02  0.17510380018E+02 -0.19814653337E+01  0.60842097908E+02  0.00000000000E+00 0. -1.
</event>
<event>
 7    1  0.2733606E-009  0.1096261E+03  0.7561462E-02  0.1261264E+00
         -1   -1    0    0    0  501 -0.00000000000E+00  0.00000000000E+00  0.16765151120E+03  0.16765151120E+03  0.00000000000E+00 0.  1.
          1   -1    0    0  501    0  0.00000000000E+00 -0.00000000000E+00 -0.10788350418E+03  0.10788350418E+03  0.00000000000E+00 0. -1.
         25    2    1    2    0    0 -0.14635060563E+02  0.15299944023E+02  0.10936973648E+03  0.16750302031E+03  0.12508896542E+03 0.  0.
          5    1    3    3  502    0  0.49377133696E+02 -0.18423761027E+02  0.33535027054E+02  0.62606762749E+02  0.41800000000E+01 0. -1.
         -5    1    3    3    0  502 -0.64012194259E+02  0.33723705050E+02  0.75834709424E+02  0.10489625756E+03  0.41800000000E+01 0. -1.
        -11    1    1    2    0    0  0.28094497298E+02  0.33250145850E+02 -0.34172676312E+02  0.55341167171E+02  0.00000000000E+00 0. -1.
         11    1    1    2    0    0 -0.13459436735E+02 -0.48550089873E+02 -0.15429053148E+02  0.52690827902E+02  0.00000000000E+00 0.  1.
</event>
<event>
 7    1  0.2733606E-009  0.8348565E+02  0.7561462E-02  0.1319441E+00
         -1   -1    0    0    0  501 -0.00000000000E+00  0.00000000000E+00  0.23521481615E+03  0.23521481615E+03  0.00000000000E+00 0.  1.
          1   -1    0    0  501    0  0.00000000000E+00 -0.00000000000E+00 -0.62366951025E+02  0.62366951025E+02  0.00000000000E+00 0. -1.
         25    2    1    2    0    0 -0.63833465725E+01  0.28853636678E+02  0.35651794268E+02  0.13338763105E+03  0.12509168725E+03 0.  0.
          5    1    3    3  502    0  0.32959069715E+02  0.21825727079E+01  0.68019331667E+02  0.75730877326E+02  0.41800000000E+01 0. -1.
         -5    1    3    3    0  502 -0.39342416288E+02  0.26671063970E+02 -0.32367537399E+02  0.57656753723E+02  0.41800000000E+01 0. -1.
        -11    1    1    2    0    0 -0.24674382168E+02  0.17440198657E+02  0.26231469931E+02  0.40013443732E+02  0.00000000000E+00 0. -1.
         11    1    1    2    0    0  0.31057728740E+02 -0.46293835335E+02  0.11096460093E+03  0.12418069239E+03  0.00000000000E+00 0.  1.
</event>
<event>
 7    1  0.2733606E-009  0.1334334E+03  0.7561462E-02  0.1222448E+00
         -2   -1    0    0    0  501 -0.00000000000E+00  0.00000000000E+00  0.99917189081E+02  0.99917189081E+02  0.00000000000E+00 0. -1.
          2   -1    0    0  501    0  0.00000000000E+00 -0.00000000000E+00 -0.31376077106E+03  0.31376077106E+03  0.00000000000E+00 0.  1.
         25    2    1    2    0    0 -0.35372552865E+02 -0.85609968133E+02  0.91140109463E+01  0.15591509353E+03  0.12508463957E+03 0.  0.
          5    1    3    3  502    0 -0.81354651397E+02 -0.49500122975E+02 -0.55825887645E+01  0.95485491965E+02  0.41800000000E+01 0.  1.
         -5    1    3    3    0  502  0.45982098532E+02 -0.36109845157E+02  0.14696599711E+02  0.60429601569E+02  0.41800000000E+01 0.  1.
        -11    1    1    2    0    0  0.53977277340E+02  0.54672320377E+02 -0.82472537542E+02  0.11271347982E+03  0.00000000000E+00 0. -1.
         11    1    1    2    0    0 -0.18604724475E+02  0.30937647756E+02 -0.14048505538E+03  0.14504938679E+03  0.00000000000E+00 0.  1.
</event>
<event>
 7    1  0.2733606E-009  0.1556903E+03  0.7561462E-02  0.1193650E+00
          1   -1    0    0  501    0  0.00000000000E+00  0.00000000000E+00  0.84197120929E+03  0.84197120929E+03  0.00000000000E+00 0. -1.
         -1   -1    0    0    0  501 -0.00000000000E+00 -0.00000000000E+00 -0.39223338776E+02  0.39223338776E+02  0.00000000000E+00 0.  1.
         25    2    1    2    0    0  0.18311854681E+02 -0.12736418448E+03  0.58269388833E+03  0.60970227548E+03  0.12509091781E+03 0.  0.
          5    1    3    3  502    0 -0.16579772532E+02  0.20883407763E+02  0.80282634951E+02  0.84698166756E+02  0.41800000000E+01 0. -1.
         -5    1    3    3    0  502  0.34891627213E+02 -0.14824759224E+03  0.50241125338E+03  0.52500410872E+03  0.41800000000E+01 0. -1.
        -11    1    1    2    0    0  0.24340566967E+01  0.83250552377E+02  0.20370827653E+03  0.22007644361E+03  0.00000000000E+00 0.  1.
         11    1    1    2    0    0 -0.20745911378E+02  0.44113632104E+02  0.16345705652E+02  0.51415828979E+02  0.00000000000E+00 0. -1.
</event>
<event>
 7    1  0.2733606E-009  0.1277818E+03  0.7561462E-02  0.1230785E+00
         -2   -1    0    0    0  501 -0.00000000000E+00  0.00000000000E+00  0.29449897607E+03  0.29449897607E+03  0.00000000000E+00 0.  1.
          2   -1    0    0  501    0  0.00000000000E+00 -0.00000000000E+00 -0.85192345547E+02  0.85192345547E+02  0.00000000000E+00 0. -1.
         25    2    1    2    0    0  0.30225564326E+02  0.67043745507E+02  0.60325230308E+01  0.14522972418E+03  0.12508730112E+03 0.  0.
          5    1    3    3  502    0  0.41560325421E+02 -0.27247028075E+02  0.54334364012E+01  0.50166281696E+02  0.41800000000E+01 0.  1.
         -5    1    3    3    0  502 -0.11334761095E+02  0.94290773582E+02  0.59908662958E+00  0.95063442482E+02  0.41800000000E+01 0.  1.
        -11    1    1    2    0    0 -0.44129387942E+01 -0.81113055250E+02  0.11053362350E+03  0.13717318865E+03  0.00000000000E+00 0. -1.
         11    1    1    2    0    0 -0.25812625532E+02  0.14069309744E+02  0.92740483987E+02  0.97288408784E+02  0.00000000000E+00 0.  1.
</event>
<event>
 7    1  0.3221427E-009  0.1149829E+03  0.7561462E-02  0.1251611E+00
         -1   -1    0    0    0  501 -0.00000000000E+00  0.00000000000E+00  0.67084090814E+02  0.67084090814E+02  0.00000000000E+00 0.  1.
          1   -1    0    0  501    0  0.00000000000E+00 -0.00000000000E+00 -0.36346905405E+03  0.36346905405E+03  0.00000000000E+00 0. -1.
         25    2    1    2    0    0  0.79277411115E+02  0.31661975464E+02 -0.59409833303E+02  0.16267857019E+03  0.12508956912E+03 0.  0.
          5    1    3    3  502    0  0.66351208031E+02  0.55080517127E+02 -0.88016812218E+02  0.12329143444E+03  0.41800000000E+01 0. -1.
         -5    1    3    3    0  502  0.12926203084E+02 -0.23418541663E+02  0.28606978915E+02  0.39387135748E+02  0.41800000000E+01 0. -1.
        -11    1    1    2    0    0 -0.56679586742E+02 -0.58511729498E+02 -0.20422619540E+03  0.21987391144E+03  0.00000000000E+00 0. -1.
         11    1    1    2    0    0 -0.22597824374E+02  0.26849754034E+02 -0.32748934532E+02  0.48000663236E+02  0.00000000000E+00 0.  1.
</event>
<event>
 7    1  0.2733606E-009  0.6605773E+02  0.7561462E-02  0.1374036E+00
         -1   -1    0    0    0  501 -0.00000000000E+00  0.00000000000E+00  0.92726937764E+02  0.92726937764E+02  0.00000000000E+00 0.  1.
          1   -1    0    0  501    0  0.00000000000E+00 -0.00000000000E+00 -0.30435581788E+03  0.30435581788E+03  0.00000000000E+00 0. -1.
         25    2    1    2    0    0 -0.18234984678E+00  0.60950613873E+02 -0.24608544586E+03  0.28270031398E+03  0.12508561179E+03 0.  0.
          5    1    3    3  502    0  0.39696721290E+01  0.41748214790E+02 -0.69388927057E+01  0.42711735705E+02  0.41800000000E+01 0. -1.
         -5    1    3    3    0  502 -0.41520219758E+01  0.19202399083E+02 -0.23914655315E+03  0.23998857827E+03  0.41800000000E+01 0. -1.
        -11    1    1    2    0    0 -0.15095002968E+02 -0.14285717938E+02 -0.28040930171E+02  0.34903217852E+02  0.00000000000E+00 0. -1.
         11    1    1    2    0    0  0.15277352814E+02 -0.46664895936E+02  0.62497495916E+02  0.79479223810E+02  0.00000000000E+00 0.  1.
</event>
<event>
 7    1  0.2733606E-009  0.1200037E+03  0.7561462E-02  0.1243091E+00
         -1   -1    0    0    0  501 -0.00000000000E+00  0.00000000000E+00  0.26744985409E+02  0.26744985409E+02  0.00000000000E+00 0.  1.
          1   -1    0    0  501    0  0.00000000000E+00 -0.00000000000E+00 -0.56113087526E+03  0.56113087526E+03  0.00000000000E+00 0. -1.
         25    2    1    2    0    0 -0.56313481914E+02  0.84123516866E+01 -0.30056883462E+03  0.33050059780E+03  0.12508814849E+03 0.  0.
          5    1    3    3  502    0  0.21508655851E+02  0.43317001671E+02 -0.75315490766E+02  0.89604020332E+02  0.41800000000E+01 0.  1.
         -5    1    3    3    0  502 -0.77822137764E+02 -0.34904649985E+02 -0.22525334386E+03  0.24089657747E+03  0.41800000000E+01 0.  1.
        -11    1    1    2    0    0 -0.20781154943E+02  0.14851001986E+02 -0.39570928345E+02  0.47098482257E+02  0.00000000000E+00 0.  1.
         11    1    1    2    0    0  0.77094636857E+02 -0.23263353673E+02 -0.19424612688E+03  0.21027678061E+03  0.00000000000E+00 0. -1.
</event>
<event>
 7    1  0.2733606E-009  0.1624458E+03  0.7561462E-02  0.1185963E+00
         -1   -1    0    0    0  501 -0.00000000000E+00  0.00000000000E+00  0.31456337724E+02  0.31456337724E+02  0.00000000000E+00 0.  1.
          1   -1    0    0  501    0  0.00000000000E+00 -0.00000000000E+00 -0.87428472656E+03  0.87428472656E+03  0.00000000000E+00 0. -1.
         25    2    1    2    0    0  0.11697216198E+03 -0.35778942804E+02 -0.39442010801E+03  0.43148369430E+03  0.12509331486E+03 0.  0.
          5    1    3    3  502    0  0.12161170311E+03 -0.67006554079E+02 -0.35216255413E+03  0.37856996917E+03  0.41800000000E+01 0. -1.
         -5    1    3    3    0  502 -0.46395411348E+01  0.31227611275E+02 -0.42257553875E+02  0.52913725132E+02  0.41800000000E+01 0. -1.
        -11    1    1    2    0    0 -0.46875171459E+01  0.41441411374E+02 -0.13490230768E+03  0.14120196886E+03  0.00000000000E+00 0.  1.
         11    1    1    2    0    0 -0.11228464483E+03 -0.56624685699E+01 -0.31350597315E+03  0.33305540112E+03  0.00000000000E+00 0. -1.
</event>
<event>
 7    1  0.2733606E-009  0.1920370E+03  0.7561462E-02  0.1156637E+00
          2   -1    0    0  501    0  0.00000000000E+00  0.00000000000E+00  0.98949788605E+02  0.98949788605E+02  0.00000000000E+00 0. -1.
         -2   -1    0    0    0  501 -0.00000000000E+00 -0.00000000000E+00 -0.42356868134E+03  0.42356868134E+03  0.00000000000E+00 0.  1.
         25    2    1    2    0    0  0.34454158903E+02 -0.16639701798E+03 -0.20456483971E+03  0.29388660482E+03  0.12508999236E+03 0.  0.
          5    1    3    3  502    0  0.27124831834E+02 -0.18303225366E+03 -0.15666419402E+03  0.24248237971E+03  0.41800000000E+01 0.  1.
         -5    1    3    3    0  502  0.73293270696E+01  0.16635235683E+02 -0.47900645693E+02  0.51404225112E+02  0.41800000000E+01 0.  1.
        -11    1    1    2    0    0 -0.51972662467E+02  0.12727921201E+03 -0.12458294696E+03  0.18553184667E+03  0.00000000000E+00 0. -1.
         11    1    1    2    0    0  0.17518503564E+02  0.39117805967E+02  0.45288939325E+01  0.43100018458E+02  0.00000000000E+00 0.  1.
</event>
<event>
 7    1  0.2733606E-009  0.1406833E+03  0.7561462E-02  0.1212412E+00
         -2   -1    0    0    0  501 -0.00000000000E+00  0.00000000000E+00  0.12737549681E+04  0.12737549681E+04  0.00000000000E+00 0.  1.
          2   -1    0    0  501    0  0.00000000000E+00 -0.00000000000E+00 -0.20195084507E+02  0.20195084507E+02  0.00000000000E+00 0. -1.
         25    2    1    2    0    0 -0.30792075215E+02 -0.94065896841E+02  0.92938623602E+03  0.94297452161E+03  0.12508248422E+03 0.  0.
          5    1    3    3  502    0 -0.32003609602E+01  0.30633076756E+02  0.21766868692E+03  0.21987668673E+03  0.41800000000E+01 0.  1.
         -5    1    3    3    0  502 -0.27591714255E+02 -0.12469897360E+03  0.71171754911E+03  0.72309783489E+03  0.41800000000E+01 0.  1.
        -11    1    1    2    0    0  0.54368573202E+02  0.58835926530E+02  0.27307007160E+03  0.28457841100E+03  0.00000000000E+00 0.  1.
         11    1    1    2    0    0 -0.23576497987E+02  0.35229970312E+02  0.51103575928E+02  0.66397119953E+02  0.00000000000E+00 0. -1.
</event>
<event>
 7    1  0.2733606E-009  0.8811124E+02  0.7561462E-02  0.1307491E+00
          2   -1    0    0  501    0  0.00000000000E+00  0.00000000000E+00  0.13109480090E+03  0.13109480090E+03  0.00000000000E+00 0.  1.
         -2   -1    0    0    0  501 -0.00000000000E+00 -0.00000000000E+00 -0.10923539831E+03  0.10923539831E+03  0.00000000000E+00 0. -1.
         25    2    1    2    0    0 -0.25991481060E+02  0.32436102775E+02  0.43572307295E+02  0.13883069603E+03  0.12509100026E+03 0.  0.
          5    1    3    3  502    0 -0.31648780998E+02  0.71064648357E+02  0.57866941799E+02  0.97045787842E+02  0.41800000000E+01 0. -1.
         -5    1    3    3    0  502  0.56572999378E+01 -0.38628545581E+02 -0.14294634504E+02  0.41784908184E+02  0.41800000000E+01 0. -1.
        -11    1    1    2    0    0  0.31566268804E+02 -0.61214818786E+01  0.29510060922E+02  0.43643390819E+02  0.00000000000E+00 0.  1.
         11    1    1    2    0    0 -0.55747877439E+01 -0.26314620897E+02 -0.51222965628E+02  0.57856112374E+02  0.00000000000E+00 0. -1.
</event>
<event>
 7    1  0.2733606E-009  0.1037134E+03  0.7561462E-02  0.1272676E+00
         -1   -1    0    0    0  501 -0.00000000000E+00  0.00000000000E+00  0.31103746724E+03  0.31103746724E+03  0.00000000000E+00 0.  1.
          1   -1    0    0  501    0  0.00000000000E+00 -0.00000000000E+00 -0.43176865427E+02  0.43176865427E+02  0.00000000000E+00 0. -1.
         25    2    1    2    0    0  0.71924372399E+01 -0.31798084383E+02  0.18169687784E+03  0.22299129202E+03  0.12509401095E+03 0.  0.
          5    1    3    3  502    0 -0.42978133068E+02  0.12361733146E+02  0.13246956693E+03  0.13987705648E+03  0.41800000000E+01 0. -1.
         -5    1    3    3    0  502  0.50170570308E+02 -0.44159817529E+02  0.49227310916E+02  0.83114235539E+02  0.41800000000E+01 0. -1.
        -11    1    1    2    0    0 -0.44965698380E+02 -0.17836953261E+01  0.57843758018E+02  0.73287078954E+02  0.00000000000E+00 0.  1.
         11    1    1    2    0    0  0.37773261140E+02  0.33581779709E+02  0.28319965952E+02  0.57935961692E+02  0.00000000000E+00 0. -1.
</event>
<event>
 7    1  0.2733606E-009  0.1327216E+03  0.7561462E-02  0.1223472E+00
         -2   -1    0    0    0  501 -0.00000000000E+00  0.00000000000E+00  0.18092381812E+03  0.18092381812E+03  0.00000000000E+00 0.  1.
          2   -1    0    0  501    0  0.00000000000E+00 -0.00000000000E+00 -0.13194315614E+03  0.13194315614E+03  0.00000000000E+00 0. -1.
         25    2    1    2    0    0 -0.73247062964E+02 -0.73097276920E+02 -0.68960316808E+01  0.16249650747E+03  0.12509682474E+03 0.  0.
          5    1    3    3  502    0 -0.87742818037E+02 -0.92991110726E+02  0.15627008618E+02  0.12887134899E+03  0.41800000000E+01 0.  1.
         -5    1    3    3    0  502  0.14495755073E+02  0.19893833806E+02 -0.22523040299E+02  0.33625158482E+02  0.41800000000E+01 0.  1.
        -11    1    1    2    0    0  0.14449982652E+02 -0.45581804585E+01 -0.21270976271E+02  0.26115769934E+02  0.00000000000E+00 0. -1.
         11    1    1    2    0    0  0.58797080312E+02  0.77655457378E+02  0.77147669929E+02  0.12425469685E+03  0.00000000000E+00 0.  1.
</event>
<event>
 7    1  0.2997659E-009  0.1033046E+03  0.7561462E-02  0.1273496E+00
         -1   -1    0    0    0  501 -0.00000000000E+00  0.00000000000E+00  0.65937166875E+02  0.65937166875E+02  0.00000000000E+00 0.  1.
          1   -1    0    0  501    0  0.00000000000E+00 -0.00000000000E+00 -0.27035880656E+03  0.27035880656E+03  0.00000000000E+00 0. -1.
         25    2    1    2    0    0 -0.51577637782E+02 -0.45920329123E+02 -0.68242570455E+02  0.15834646696E+03  0.12509047058E+03 0.  0.
          5    1    3    3  502    0 -0.24983299621E+02  0.38766785237E+02 -0.49006903251E+02  0.67425350305E+02  0.41800000000E+01 0.  1.
         -5    1    3    3    0  502 -0.26594338161E+02 -0.84687114360E+02 -0.19235667204E+02  0.90921116654E+02  0.41800000000E+01 0.  1.
        -11    1    1    2    0    0  0.58470783749E+01  0.15360337160E+02  0.11698903650E+02  0.20174058337E+02  0.00000000000E+00 0.  1.
         11    1    1    2    0    0  0.45730559407E+02  0.30559991964E+02 -0.14787797288E+03  0.15777544814E+03  0.00000000000E+00 0. -1.
</event>
<event>
 7    1  0.2733606E-009  0.1165670E+03  0.7561462E-02  0.1248870E+00
         -3   -1    0    0    0  501 -0.00000000000E+00  0.00000000000E+00  0.14339541658E+02  0.14339541658E+02  0.00000000000E+00 0.  1.
          3   -1    0    0  501    0  0.00000000000E+00 -0.00000000000E+00 -0.99406233036E+03  0.99406233036E+03  0.00000000000E+00 0. -1.
         25    2    1    2    0    0  0.67614699888E+00 -0.48687928061E+02 -0.63349495861E+03  0.64756034566E+03  0.12509023611E+03 0.  0.
          5    1    3    3  502    0  0.61463780806E+02 -0.11715067600E+02 -0.27678930509E+03  0.28380421239E+03  0.41800000000E+01 0. -1.
         -5    1    3    3    0  502 -0.60787633807E+02 -0.36972860460E+02 -0.35670565352E+03  0.36375613327E+03  0.41800000000E+01 0. -1.
        -11    1    1    2    0    0 -0.31817884314E+02  0.58422731920E+02 -0.26689917697E+03  0.27506501783E+03  0.00000000000E+00 0.  1.
         11    1    1    2    0    0  0.31141737315E+02 -0.97348038595E+01 -0.79328653128E+02  0.85776508534E+02  0.00000000000E+00 0. -1.
</event>
<event>
 7    1  0.2733606E-009  0.2010209E+03  0.7561462E-02  0.1148881E+00
          2   -1    0    0  501    0  0.00000000000E+00  0.00000000000E+00  0.22744415274E+03  0.22744415274E+03  0.00000000000E+00 0. -1.
         -2   -1    0    0    0  501 -0.00000000000E+00 -0.00000000000E+00 -0.21201026885E+03  0.21201026885E+03  0.00000000000E+00 0.  1.
         25    2    1    2    0    0 -0.10795027205E+03 -0.14759388071E+03 -0.58077634308E+02  0.22903630652E+03  0.12508958085E+03 0.  0.
          5    1    3    3  502    0  0.20542054046E+02 -0.11491443830E+02 -0.32096947007E+02  0.40021440166E+02  0.41800000000E+01 0.  1.
         -5    1    3    3    0  502 -0.12849232609E+03 -0.13610243688E+03 -0.25980687301E+02  0.18901486635E+03  0.41800000000E+01 0.  1.
        -11    1    1    2    0    0  0.23298421924E+02  0.77761113202E+02  0.56079249077E+01  0.81369871650E+02  0.00000000000E+00 0.  1.
         11    1    1    2    0    0  0.84651850124E+02  0.69832767508E+02  0.67903593298E+02  0.12904824342E+03  0.00000000000E+00 0. -1.
</event>
<event>
 7    1  0.2733606E-009  0.1183796E+03  0.7561462E-02  0.1245794E+00
         -2   -1    0    0    0  501 -0.00000000000E+00  0.00000000000E+00  0.25913939412E+02  0.25913939412E+02  0.00000000000E+00 0. -1.
          2   -1    0    0  501    0  0.00000000000E+00 -0.00000000000E+00 -0.56226074617E+03  0.56226074617E+03  0.00000000000E+00 0.  1.
         25    2    1    2    0    0  0.24112877869E+02  0.47775561185E+02 -0.30959262829E+03  0.33816917772E+03  0.12508741800E+03 0.  0.
          5    1    3    3  502    0 -0.49614354876E+02  0.15018967696E+02 -0.15881813294E+03  0.16711620314E+03  0.41800000000E+01 0.  1.
         -5    1    3    3    0  502  0.73727232745E+02  0.32756593489E+02 -0.15077449535E+03  0.17105297458E+03  0.41800000000E+01 0.  1.
        -11    1    1    2    0    0 -0.54484707506E+02 -0.98293122444E+01 -0.10088668899E+03  0.11507963654E+03  0.00000000000E+00 0. -1.
         11    1    1    2    0    0  0.30371829637E+02 -0.37946248941E+02 -0.12586748949E+03  0.13492587133E+03  0.00000000000E+00 0.  1.
</event>
<event>
 7    1  0.2733606E-009  0.8601952E+02  0.7561462E-02  0.1312788E+00
          1   -1    0    0  501    0  0.00000000000E+00  0.00000000000E+00  0.12107658578E+03  0.12107658578E+03  0.00000000000E+00 0. -1.
         -1   -1    0    0    0  501 -0.00000000000E+00 -0.00000000000E+00 -0.13848815026E+03  0.13848815026E+03  0.00000000000E+00 0.  1.
         25    2    1    2    0    0  0.15885579695E+02 -0.57217258484E+02  0.28182154765E+02  0.14130809188E+03  0.12509027409E+03 0.  0.
          5    1    3    3  502    0 -0.17836420965E+02 -0.25031636487E+02  0.71246993493E+02  0.77706674230E+02  0.41800000000E+01 0. -1.
         -5    1    3    3    0  502  0.33722000660E+02 -0.32185621998E+02 -0.43064838729E+02  0.63601417647E+02  0.41800000000E+01 0. -1.
        -11    1    1    2    0    0  0.21630465737E+02  0.52025291498E+02  0.32654514102E+01  0.56437320775E+02  0.00000000000E+00 0. -1.
         11    1    1    2    0    0 -0.37516045432E+02  0.51919669869E+01 -0.48859170662E+02  0.61819323386E+02  0.00000000000E+00 0.  1.
</event>
<event>
 7    1  0.2733606E-009  0.1475502E+03  0.7561462E-02  0.1203516E+00
          2   -1    0    0  501    0  0.00000000000E+00  0.00000000000E+00  0.13760850491E+04  0.13760850491E+04  0.00000000000E+00 0. -1.
         -2   -1    0    0    0  501 -0.00000000000E+00 -0.00000000000E+00 -0.21370257092E+02  0.21370257092E+02  0.00000000000E+00 0.  1.
         25    2    1    2    0    0  0.13018550654E+03  0.22935833119E+02  0.78945213634E+03  0.81015856360E+03  0.12509158267E+03 0.  0.
          5    1    3    3  502    0  0.93523094546E+02  0.55697330397E+02  0.31818765227E+03  0.33631773115E+03  0.41800000000E+01 0. -1.
         -5    1    3    3    0  502  0.36662411991E+02 -0.32761497278E+02  0.47126448406E+03  0.47384083245E+03  0.41800000000E+01 0. -1.
        -11    1    1    2    0    0 -0.23344551339E+02  0.94453631336E+01  0.24514894786E+02  0.35144886233E+02  0.00000000000E+00 0.  1.
         11    1    1    2    0    0 -0.10684095520E+03 -0.32381196253E+02  0.54074776087E+03  0.55215185634E+03  0.00000000000E+00 0. -1.
</event>
<event>
 7    1  0.2733606E-009  0.1566221E+03  0.7561462E-02  0.1192564E+00
         -2   -1    0    0    0  501 -0.00000000000E+00  0.00000000000E+00  0.69533087218E+02  0.69533087218E+02  0.00000000000E+00 0.  1.
          2   -1    0    0  501    0  0.00000000000E+00 -0.00000000000E+00 -0.38495521479E+03  0.38495521479E+03  0.00000000000E+00 0. -1.
         25    2    1    2    0    0 -0.39417089473E+02  0.11430424619E+03 -0.20751360179E+03  0.27078714946E+03  0.12507844637E+03 0.  0.
          5    1    3    3  502    0  0.25594077949E+02  0.92989033254E+02 -0.77444065595E+02  0.12376216234E+03  0.41800000000E+01 0.  1.
         -5    1    3    3    0  502 -0.65011167422E+02  0.21315212935E+02 -0.13006953620E+03  0.14702498712E+03  0.41800000000E+01 0.  1.
        -11    1    1    2    0    0 -0.17205336492E+02 -0.80282649980E+02 -0.52245711782E+02  0.97318764333E+02  0.00000000000E+00 0.  1.
         11    1    1    2    0    0  0.56622425965E+02 -0.34021596209E+02 -0.55662813994E+02  0.86382388208E+02  0.00000000000E+00 0. -1.
</event>
<event>
 7    1  0.2733606E-009  0.1464658E+03  0.7561462E-02  0.1204884E+00
          1   -1    0    0  501    0  0.00000000000E+00  0.00000000000E+00  0.27532058130E+03  0.27532058130E+03  0.00000000000E+00 0. -1.
         -1   -1    0    0    0  501 -0.00000000000E+00 -0.00000000000E+00 -0.19893919385E+03  0.19893919385E+03  0.00000000000E+00 0.  1.
         25    2    1    2    0    0  0.11986072095E+03 -0.19425305335E+02  0.21131624717E+03  0.27394946327E+03  0.12509922940E+03 0.  0.
          5    1    3    3  502    0  0.13221845123E+03  0.36448248944E+01  0.20896320593E+03  0.24734206562E+03  0.41800000000E+01 0. -1.
         -5    1    3    3    0  502 -0.12357730283E+02 -0.23070130229E+02  0.23530412374E+01  0.26607397648E+02  0.41800000000E+01 0. -1.
        -11    1    1    2    0    0 -0.67412167343E+02  0.39270185497E+02 -0.34550243231E+02  0.85324481142E+02  0.00000000000E+00 0.  1.
         11    1    1    2    0    0 -0.52448553606E+02 -0.19844880162E+02 -0.10038461648E+03  0.11498583073E+03  0.00000000000E+00 0. -1.
</event>
<event>
 7    1  0.2733606E-009  0.1187762E+03  0.7561462E-02  0.1245130E+00
         -1   -1    0    0    0  501 -0.00000000000E+00  0.00000000000E+00  0.28945706151E+02  0.28945706151E+02  0.00000000000E+00 0.  1.
          1   -1    0    0  501    0  0.00000000000E+00 -0.00000000000E+00 -0.65165702021E+03  0.65165702021E+03  0.00000000000E+00 0. -1.
         25    2    1    2    0    0  0.38443812088E+02 -0.58780068517E+02 -0.51986813034E+03  0.53929917604E+03  0.12509078781E+03 0.  0.
          5    1    3    3  502    0  0.81735826789E+02 -0.24986063507E+02 -0.36598798924E+03  0.37585865617E+03  0.41800000000E+01 0.  1.
         -5    1    3    3    0  502 -0.43292014702E+02 -0.33794005010E+02 -0.15388014110E+03  0.16344051987E+03  0.41800000000E+01 0.  1.
        -11    1    1    2    0    0  0.15333036182E+02  0.34784548519E+02 -0.40155438250E+02  0.55294900626E+02  0.00000000000E+00 0.  1.
         11    1    1    2    0    0 -0.53776848270E+02  0.23995519999E+02 -0.62687745471E+02  0.86008649694E+02  0.00000000000E+00 0. -1.
</event>
<event>
 7    1  0.2733606E-009  0.2475541E+03  0.7561462E-02  0.1114860E+00
          2   -1    0    0  501    0  0.00000000000E+00  0.00000000000E+00  0.39692534623E+02  0.39692534623E+02  0.00000000000E+00 0. -1.
         -2   -1    0    0    0  501 -0.00000000000E+00 -0.00000000000E+00 -0.17471812925E+04  0.17471812925E+04  0.00000000000E+00 0.  1.
         25    2    1    2    0    0 -0.12506842661E+03 -0.20432060617E+03 -0.88919715630E+03  0.92935873137E+03  0.12508815831E+03 0.  0.
          5    1    3    3  502    0 -0.91111216274E+02 -0.64781010221E+02 -0.24497686324E+03  0.26931202895E+03  0.41800000000E+01 0.  1.
         -5    1    3    3    0  502 -0.33957210337E+02 -0.13953959595E+03 -0.64422029306E+03  0.66004670241E+03  0.41800000000E+01 0.  1.
        -11    1    1    2    0    0  0.75364474558E+02  0.12190719791E+03 -0.62948115415E+03  0.64559096366E+03  0.00000000000E+00 0.  1.
         11    1    1    2    0    0  0.49703952053E+02  0.82413408260E+02 -0.18881044745E+03  0.21192413213E+03  0.00000000000E+00 0. -1.
</event>
<event>
 7    1  0.2733606E-009  0.1321370E+03  0.7561462E-02  0.1224319E+00
          1   -1    0    0  501    0  0.00000000000E+00  0.00000000000E+00  0.52746397705E+03  0.52746397705E+03  0.00000000000E+00 0. -1.
         -1   -1    0    0    0  501 -0.00000000000E+00 -0.00000000000E+00 -0.38259885588E+02  0.38259885588E+02  0.00000000000E+00 0.  1.
         25    2    1    2    0    0  0.93170118118E+02  0.18625997584E+02  0.28521382587E+03  0.32560864122E+03  0.12508581883E+03 0.  0.
          5    1    3    3  502    0  0.94251217304E+02  0.56319828179E+02  0.15509596779E+03  0.19007221426E+03  0.41800000000E+01 0. -1.
         -5    1    3    3    0  502 -0.10810991860E+01 -0.37693830595E+02  0.13011785808E+03  0.13553642696E+03  0.41800000000E+01 0. -1.
        -11    1    1    2    0    0 -0.90317969592E+02 -0.37190641325E+02  0.12347108148E+03  0.15743439077E+03  0.00000000000E+00 0.  1.
         11    1    1    2    0    0 -0.28521485255E+01  0.18564643741E+02  0.80519184105E+02  0.82680830653E+02  0.00000000000E+00 0. -1.
</event>
<event>
 7    1  0.3338816E-009  0.9916369E+02  0.7561462E-02  0.1282064E+00
          1   -1    0    0  501    0  0.00000000000E+00  0.00000000000E+00  0.38260111818E+02  0.38260111818E+02  0.00000000000E+00 0. -1.
         -1   -1    0    0    0  501 -0.00000000000E+00 -0.00000000000E+00 -0.37844923145E+03  0.37844923145E+03  0.00000000000E+00 0.  1.
         25    2    1    2    0    0  0.17715472226E+01 -0.51433870932E+02 -0.21109329926E+03  0.25071171754E+03  0.12508957934E+03 0.  0.
          5    1    3    3  502    0  0.48224679298E+02 -0.38510572205E+02 -0.18636529694E+03  0.19636236954E+03  0.41800000000E+01 0. -1.
         -5    1    3    3    0  502 -0.46453132075E+02 -0.12923298727E+02 -0.24728002319E+02  0.54349348002E+02  0.41800000000E+01 0. -1.
        -11    1    1    2    0    0  0.34519594595E+02  0.31159882496E+02 -0.11158968315E+03  0.12089167910E+03  0.00000000000E+00 0.  1.
         11    1    1    2    0    0 -0.36291141818E+02  0.20273988437E+02 -0.17506137214E+02  0.45105946634E+02  0.00000000000E+00 0. -1.
</event>
<event>
 7    1  0.2733606E-009  0.1478202E+03  0.7561462E-02  0.1203177E+00
         -2   -1    0    0    0  501 -0.00000000000E+00  0.00000000000E+00  0.48539688708E+03  0.48539688708E+03  0.00000000000E+00 0.  1.
          2   -1    0    0  501    0  0.00000000000E+00 -0.00000000000E+00 -0.64563659126E+02  0.64563659126E+02  0.00000000000E+00 0. -1.
         25    2    1    2    0    0  0.28571926091E+02 -0.12520464391E+03  0.13912894875E+03  0.22692874267E+03  0.12508889659E+03 0.  0.
          5    1    3    3  502    0 -0.32520677429E+02 -0.76014586142E+02  0.21577198266E+02  0.85550334024E+02  0.41800000000E+01 0.  1.
         -5    1    3    3    0  502  0.61092603520E+02 -0.49190057767E+02  0.11755175048E+03  0.14137840864E+03  0.41800000000E+01 0.  1.
        -11    1    1    2    0    0 -0.13824058095E+02  0.11622324702E+03  0.28245852586E+03  0.30574788071E+03  0.00000000000E+00 0.  1.
         11    1    1    2    0    0 -0.14747867996E+02  0.89813968861E+01 -0.75424664921E+00  0.17283922832E+02  0.00000000000E+00 0. -1.
</event>
<event>
 7    1  0.2733606E-009  0.2019043E+03  0.7561462E-02  0.1148142E+00
          4   -1    0    0  501    0  0.00000000000E+00  0.00000000000E+00  0.74143825819E+03  0.74143825819E+03  0.00000000000E+00 0. -1.
         -4   -1    0    0    0  501 -0.00000000000E+00 -0.00000000000E+00 -0.69505469407E+02  0.69505469407E+02  0.00000000000E+00 0.  1.
         25    2    1    2    0    0  0.18810197868E+03  0.35528400935E+02  0.44841611678E+03  0.50335763507E+03  0.12508906164E+03 0.  0.
          5    1    3    3  502    0  0.47372212537E+01  0.14825172059E+00 -0.80011658183E+01  0.10195798067E+02  0.41800000000E+01 0.  1.
         -5    1    3    3    0  502  0.18336475743E+03  0.35380149214E+02  0.45641728260E+03  0.49316183701E+03  0.41800000000E+01 0.  1.
        -11    1    1    2    0    0 -0.52473444417E+02 -0.52236978321E+02  0.89880324153E+02  0.11645014789E+03  0.00000000000E+00 0.  1.
         11    1    1    2    0    0 -0.13562853427E+03  0.16708577386E+02  0.13363634785E+03  0.19113594464E+03  0.00000000000E+00 0. -1.
</event>
<event>
 7    1  0.2733606E-009  0.8310016E+02  0.7561462E-02  0.1320477E+00
         -4   -1    0    0    0  501 -0.00000000000E+00  0.00000000000E+00  0.14139750142E+03  0.14139750142E+03  0.00000000000E+00 0. -1.
          4   -1    0    0  501    0  0.00000000000E+00 -0.00000000000E+00 -0.10643430192E+03  0.10643430192E+03  0.00000000000E+00 0.  1.
         25    2    1    2    0    0 -0.25099663696E+02  0.39064365642E+02 -0.19334256307E+02  0.13482491258E+03  0.12509166961E+03 0.  0.
          5    1    3    3  502    0  0.34974357939E+02  0.47064166272E+02 -0.39492571862E+02  0.70819327110E+02  0.41800000000E+01 0. -1.
         -5    1    3    3    0  502 -0.60074021635E+02 -0.79998006301E+01  0.20158315555E+02  0.64005585471E+02  0.41800000000E+01 0. -1.
        -11    1    1    2    0    0  0.11581641089E+02 -0.22327096164E+02  0.77431889467E+02  0.81414563438E+02  0.00000000000E+00 0. -1.
         11    1    1    2    0    0  0.13518022607E+02 -0.16737269478E+02 -0.23134433660E+02  0.31592327321E+02  0.00000000000E+00 0.  1.
</event>
<event>
 7    1  0.2733606E-009  0.7830835E+02  0.7561462E-02  0.1333922E+00
         -1   -1    0    0    0  501 -0.00000000000E+00  0.00000000000E+00  0.12550984401E+03  0.12550984401E+03  0.00000000000E+00 0.  1.
          1   -1    0    0  501    0  0.00000000000E+00 -0.00000000000E+00 -0.12698059273E+03  0.12698059273E+03  0.00000000000E+00 0. -1.
         25    2    1    2    0    0  0.10860736386E+00  0.35467582228E+02  0.53018207144E+02  0.14041294872E+03  0.12508758809E+03 0.  0.
          5    1    3    3  502    0 -0.23103716455E+02  0.34111778660E+02  0.88543934668E+02  0.97749147945E+02  0.41800000000E+01 0. -1.
         -5    1    3    3    0  502  0.23212323818E+02  0.13558035678E+01 -0.35525727524E+02  0.42663800774E+02  0.41800000000E+01 0. -1.
        -11    1    1    2    0    0 -0.19677421061E+02  0.22798916623E+02 -0.27168759376E+00  0.30117525013E+02  0.00000000000E+00 0.  1.
         11    1    1    2    0    0  0.19568813697E+02 -0.58266498851E+02 -0.54217268264E+02  0.81959963006E+02  0.00000000000E+00 0. -1.
</event>
<event>
 7    1  0.2733606E-009  0.1058134E+03  0.7561462E-02  0.1268525E+00
         -2   -1    0    0    0  501 -0.00000000000E+00  0.00000000000E+00  0.45907484221E+02  0.45907484221E+02  0.00000000000E+00 0.  1.
          2   -1    0    0  501    0  0.00000000000E+00 -0.00000000000E+00 -0.41195476005E+03  0.41195476005E+03  0.00000000000E+00 0. -1.
         25    2    1    2    0    0 -0.53593176188E+02  0.60139485454E+02 -0.15992672078E+03  0.21843457674E+03  0.12509245401E+03 0.  0.
          5    1    3    3  502    0  0.75736807461E+01  0.49304747491E+02 -0.14640141250E+03  0.15472286433E+03  0.41800000000E+01 0. -1.
         -5    1    3    3    0  502 -0.61166856935E+02  0.10834737963E+02 -0.13525308284E+02  0.63711712410E+02  0.41800000000E+01 0. -1.
        -11    1    1    2    0    0  0.45865182175E+02 -0.71872537524E+02 -0.20842603150E+03  0.22519033548E+03  0.00000000000E+00 0. -1.
         11    1    1    2    0    0  0.77279940130E+01  0.11733052070E+02  0.23054764511E+01  0.14237332054E+02  0.00000000000E+00 0.  1.
</event>
<event>
 7    1  0.2733606E-009  0.1310614E+03  0.7561462E-02  0.1225889E+00
          1   -1    0    0  501    0  0.00000000000E+00  0.00000000000E+00  0.17084782688E+02  0.17084782688E+02  0.00000000000E+00 0. -1.
         -1   -1    0    0    0  501 -0.00000000000E+00 -0.00000000000E+00 -0.15386717157E+04  0.15386717157E+04  0.00000000000E+00 0.  1.
         25    2    1    2    0    0 -0.37839499159E+02 -0.10940480850E+03 -0.93423318187E+03  0.94965142237E+03  0.12507975892E+03 0.  0.
          5    1    3    3  502    0 -0.46331863820E+02 -0.66873926767E+02 -0.85789316444E+03  0.86175223683E+03  0.41800000000E+01 0. -1.
         -5    1    3    3    0  502  0.84923646619E+01 -0.42530881731E+02 -0.76340017427E+02  0.87899185543E+02  0.41800000000E+01 0. -1.
        -11    1    1    2    0    0  0.12317850277E+02  0.11084374032E+03 -0.54760454520E+03  0.55884595563E+03  0.00000000000E+00 0.  1.
         11    1    1    2    0    0  0.25521648881E+02 -0.14389318193E+01 -0.39749205954E+02  0.47259120394E+02  0.00000000000E+00 0. -1.
</event>
<event>
 7    1  0.2733606E-009  0.1941163E+03  0.7561462E-02  0.1154800E+00
         -1   -1    0    0    0  501 -0.00000000000E+00  0.00000000000E+00  0.40394479105E+03  0.40394479105E+03  0.00000000000E+00 0.  1.
          1   -1    0    0  501    0  0.00000000000E+00 -0.00000000000E+00 -0.14247206623E+03  0.14247206623E+03  0.00000000000E+00 0. -1.
         25    2    1    2    0    0  0.14388297859E+03  0.12054832382E+03  0.24941952944E+03  0.33629094163E+03  0.12508911167E+03 0.  0.
          5    1    3    3  502    0 -0.71649552764E+01  0.90216599853E+01 -0.10144149787E+02  0.15909214560E+02  0.41800000000E+01 0. -1.
         -5    1    3    3    0  502  0.15104793386E+03  0.11152666384E+03  0.25956367923E+03  0.32038172708E+03  0.41800000000E+01 0. -1.
        -11    1    1    2    0    0 -0.39564286542E+02 -0.25693316044E+02  0.45148052524E+02  0.65297977807E+02  0.00000000000E+00 0.  1.
         11    1    1    2    0    0 -0.10431869204E+03 -0.94855007776E+02 -0.33094857146E+02  0.14482793784E+03  0.00000000000E+00 0. -1.
</event>
<event>
 7    1  0.2733606E-009  0.2752400E+03  0.7561462E-02  0.1098318E+00
         -2   -1    0    0    0  501 -0.00000000000E+00  0.00000000000E+00  0.10594461454E+03  0.10594461454E+03  0.00000000000E+00 0. -1.
          2   -1    0    0  501    0  0.00000000000E+00 -0.00000000000E+00 -0.78262353060E+03  0.78262353060E+03  0.00000000000E+00 0.  1.
         25    2    1    2    0    0  0.22012658696E+03 -0.14221567725E+03 -0.27646400699E+03  0.40094998976E+03  0.12509010347E+03 0.  0.
          5    1    3    3  502    0  0.14003530156E+03 -0.36048245798E+02 -0.84974117070E+02  0.16777197227E+03  0.41800000000E+01 0.  1.
         -5    1    3    3    0  502  0.80091285398E+02 -0.10616743145E+03 -0.19148988992E+03  0.23317801749E+03  0.41800000000E+01 0.  1.
        -11    1    1    2    0    0 -0.16779904297E+03  0.14294571481E+03 -0.27886972643E+03  0.35546915552E+03  0.00000000000E+00 0.  1.
         11    1    1    2    0    0 -0.52327543986E+02 -0.73003756253E+00 -0.12134518265E+03  0.13214899987E+03  0.00000000000E+00 0. -1.
</event>
<event>
 7    1  0.2733606E-009  0.1457427E+03  0.7561462E-02  0.1205804E+00
         -1   -1    0    0    0  501 -0.00000000000E+00  0.00000000000E+00  0.48749882310E+02  0.48749882310E+02  0.00000000000E+00 0.  1.
          1   -1    0    0  501    0  0.00000000000E+00 -0.00000000000E+00 -0.57122442565E+03  0.57122442565E+03  0.00000000000E+00 0. -1.
         25    2    1    2    0    0 -0.10774293649E+03  0.52606954877E+02 -0.35616538872E+03  0.39607717752E+03  0.12508922563E+03 0.  0.
          5    1    3    3  502    0 -0.87610701146E+01  0.41701618701E+02 -0.23583274727E+02  0.48881740953E+02  0.41800000000E+01 0.  1.
         -5    1    3    3    0  502 -0.98981866375E+02  0.10905336176E+02 -0.33258211399E+03  0.34719543657E+03  0.41800000000E+01 0.  1.
        -11    1    1    2    0    0 -0.84072709317E+01  0.13090227589E+02 -0.25736766257E+02  0.30073533219E+02  0.00000000000E+00 0.  1.
         11    1    1    2    0    0  0.11615020742E+03 -0.65697182466E+02 -0.14057238836E+03  0.19382359722E+03  0.00000000000E+00 0. -1.
</event>
<event>
 7    1  0.2733606E-009  0.1174657E+03  0.7561462E-02  0.1247337E+00
         -1   -1    0    0    0  501 -0.00000000000E+00  0.00000000000E+00  0.85474066688E+02  0.85474066688E+02  0.00000000000E+00 0.  1.
          1   -1    0    0  501    0  0.00000000000E+00 -0.00000000000E+00 -0.19171862978E+03  0.19171862978E+03  0.00000000000E+00 0. -1.
         25    2    1    2    0    0  0.65594968648E+02  0.17625600196E+02 -0.63266753921E+02  0.15577241419E+03  0.12509596786E+03 0.  0.
          5    1    3    3  502    0  0.54424602240E+02  0.61549372402E+02 -0.58084683423E+01  0.82471651351E+02  0.41800000000E+01 0.  1.
         -5    1    3    3    0  502  0.11170366407E+02 -0.43923772206E+02 -0.57458285578E+02  0.73300762834E+02  0.41800000000E+01 0.  1.
        -11    1    1    2    0    0 -0.55172339380E+02  0.26928508449E+02 -0.43648019705E+01  0.61548217652E+02  0.00000000000E+00 0.  1.
         11    1    1    2    0    0 -0.10422629268E+02 -0.44554108645E+02 -0.38613007199E+02  0.59872064629E+02  0.00000000000E+00 0. -1.
</event>
<event>
 7    1  0.2733606E-009  0.1223213E+03  0.7561462E-02  0.1239316E+00
         -2   -1    0    0    0  501 -0.00000000000E+00  0.00000000000E+00  0.56596980330E+02  0.56596980330E+02  0.00000000000E+00 0.  1.
          2   -1    0    0  501    0  0.00000000000E+00 -0.00000000000E+00 -0.29397574386E+03  0.29397574386E+03  0.00000000000E+00 0. -1.
         25    2    1    2    0    0  0.71378455366E+02  0.58381261945E+01 -0.13479208547E+03  0.19734642102E+03  0.12509091084E+03 0.  0.
          5    1    3    3  502    0 -0.70155352447E+01 -0.45603707270E+02 -0.67451777005E+02  0.81829887405E+02  0.41800000000E+01 0.  1.
         -5    1    3    3    0  502  0.78393990610E+02  0.51441833465E+02 -0.67340308466E+02  0.11551653361E+03  0.41800000000E+01 0.  1.
        -11    1    1    2    0    0 -0.39335509189E+02  0.34927083902E+02 -0.82031782522E+02  0.97449457756E+02  0.00000000000E+00 0.  1.
         11    1    1    2    0    0 -0.32042946176E+02 -0.40765210097E+02 -0.20554895537E+02  0.55776845415E+02  0.00000000000E+00 0. -1.
</event>
<event>
 7    1  0.2733606E-009  0.1965297E+03  0.7561462E-02  0.1152700E+00
          1   -1    0    0  501    0  0.00000000000E+00  0.00000000000E+00  0.30431621972E+03  0.30431621972E+03  0.00000000000E+00 0. -1.
         -1   -1    0    0    0  501 -0.00000000000E+00 -0.00000000000E+00 -0.19963160626E+03  0.19963160626E+03  0.00000000000E+00 0.  1.
         25    2    1    2    0    0  0.17286890842E+03  0.24339374038E+02  0.19193280753E+03  0.28802563386E+03  0.12507796980E+03 0.  0.
          5    1    3    3  502    0  0.19259110372E+03  0.26024868452E+02  0.17678004338E+03  0.26274946841E+03  0.41800000000E+01 0.  1.
         -5    1    3    3    0  502 -0.19722195299E+02 -0.16854944142E+01  0.15152764149E+02  0.25276165457E+02  0.41800000000E+01 0.  1.
        -11    1    1    2    0    0 -0.13156403412E+02  0.81259669897E+01  0.16586664573E+02  0.22676854542E+02  0.00000000000E+00 0.  1.
         11    1    1    2    0    0 -0.15971250501E+03 -0.32465341028E+02 -0.10383485864E+03  0.19324533757E+03  0.00000000000E+00 0. -1.
</event>
<event>
 7    1  0.2733606E-009  0.1910201E+03  0.7561462E-02  0.1157544E+00
          2   -1    0    0  501    0  0.00000000000E+00  0.00000000000E+00  0.58972749992E+03  0.58972749992E+03  0.00000000000E+00 0. -1.
         -2   -1    0    0    0  501 -0.00000000000E+00 -0.00000000000E+00 -0.85713855309E+02  0.85713855309E+02  0.00000000000E+00 0.  1.
         25    2    1    2    0    0  0.46014562150E+02  0.15359334779E+03  0.43289915807E+03  0.47828700118E+03  0.12509403676E+03 0.  0.
          5    1    3    3  502    0 -0.36026815507E+02  0.20237166460E+02  0.14139901421E+03  0.14737241249E+03  0.41800000000E+01 0.  1.
         -5    1    3    3    0  502  0.82041377657E+02  0.13335618133E+03  0.29150014385E+03  0.33091458870E+03  0.41800000000E+01 0.  1.
        -11    1    1    2    0    0 -0.31296965799E+02 -0.16328571022E+03  0.64535089667E+02  0.17834377205E+03  0.00000000000E+00 0.  1.
         11    1    1    2    0    0 -0.14717596351E+02  0.96923624299E+01  0.65793968750E+01  0.18810581997E+02  0.00000000000E+00 0. -1.
</event>
<event>
 7    1  0.2733606E-009  0.1275740E+03  0.7561462E-02  0.1231101E+00
          4   -1    0    0  501    0  0.00000000000E+00  0.00000000000E+00  0.22320675099E+03  0.22320675099E+03  0.00000000000E+00 0. -1.
         -4   -1    0    0    0  501 -0.00000000000E+00 -0.00000000000E+00 -0.12055877608E+03  0.12055877608E+03  0.00000000000E+00 0.  1.
         25    2    1    2    0    0 -0.47108026668E+02 -0.77354486889E+02 -0.31263819071E+02  0.15756697593E+03  0.12508813973E+03 0.  0.
          5    1    3    3  502    0 -0.78676499010E+02 -0.47858726523E+02 -0.55750034147E+02  0.10773109072E+03  0.41800000000E+01 0.  1.
         -5    1    3    3    0  502  0.31568472342E+02 -0.29495760367E+02  0.24486215075E+02  0.49835885207E+02  0.41800000000E+01 0.  1.
        -11    1    1    2    0    0  0.64026612350E+02  0.32882525373E+02  0.43690967878E+02  0.84199573859E+02  0.00000000000E+00 0. -1.
         11    1    1    2    0    0 -0.16918585683E+02  0.44471961516E+02  0.90220826110E+02  0.10199897728E+03  0.00000000000E+00 0.  1.
</event>
<event>
 7    1  0.2733606E-009  0.1880065E+03  0.7561462E-02  0.1160272E+00
          1   -1    0    0  501    0  0.00000000000E+00  0.00000000000E+00  0.46055411484E+03  0.46055411484E+03  0.00000000000E+00 0. -1.
         -1   -1    0    0    0  501 -0.00000000000E+00 -0.00000000000E+00 -0.87569953357E+02  0.87569953357E+02  0.00000000000E+00 0.  1.
         25    2    1    2    0    0  0.81347448660E+02 -0.14535601029E+03  0.22289267077E+03  0.30508066444E+03  0.12508913623E+03 0.  0.
          5    1    3    3  502    0  0.54561750465E+02  0.43340148004E+01  0.74750833474E+02  0.92741187199E+02  0.41800000000E+01 0.  1.
         -5    1    3    3    0  502  0.26785698195E+02 -0.14969002509E+03  0.14814183730E+03  0.21233947724E+03  0.41800000000E+01 0.  1.
        -11    1    1    2    0    0 -0.31161255064E+02  0.30273052800E+02 -0.47430570823E+01  0.43703296598E+02  0.00000000000E+00 0.  1.
         11    1    1    2    0    0 -0.50186193596E+02  0.11508295748E+03  0.15483454780E+03  0.19934010716E+03  0.00000000000E+00 0. -1.
</event>
<event>
 7    1  0.2733606E-009  0.1334988E+03  0.7561462E-02  0.1222355E+00
          1   -1    0    0  501    0  0.00000000000E+00  0.00000000000E+00  0.20943000159E+03  0.20943000159E+03  0.00000000000E+00 0. -1.
         -1   -1    0    0    0  501 -0.00000000000E+00 -0.00000000000E+00 -0.92095982745E+02  0.92095982745E+02  0.00000000000E+00 0.  1.
         25    2    1    2    0    0  0.78794600752E+02  0.28864122284E+02  0.82963914969E+02  0.17196676664E+03  0.12509129058E+03 0.  0.
          5    1    3    3  502    0 -0.25784483931E+02 -0.21397383192E+02  0.11702918149E+02  0.35736792137E+02  0.41800000000E+01 0.  1.
         -5    1    3    3    0  502  0.10457908468E+03  0.50261505477E+02  0.71260996821E+02  0.13622997451E+03  0.41800000000E+01 0.  1.
        -11    1    1    2    0    0 -0.66061665092E+02  0.18075538811E+02  0.41979613168E+02  0.80331541874E+02  0.00000000000E+00 0.  1.
         11    1    1    2    0    0 -0.12732935660E+02 -0.46939661096E+02 -0.76095092957E+01  0.49227675814E+02  0.00000000000E+00 0. -1.
</event>
<event>
 7    1  0.2733606E-009  0.8930472E+02  0.7561462E-02  0.1304544E+00
         -1   -1    0    0    0  501 -0.00000000000E+00  0.00000000000E+00  0.56346436255E+02  0.56346436255E+02  0.00000000000E+00 0.  1.
          1   -1    0    0  501    0  0.00000000000E+00 -0.00000000000E+00 -0.73318218388E+03  0.73318218388E+03  0.00000000000E+00 0. -1.
         25    2    1    2    0    0 -0.61028137669E+02  0.12709507591E+02 -0.66743950753E+03  0.68191588828E+03  0.12509123593E+03 0.  0.
          5    1    3    3  502    0  0.18431475798E+01  0.41754675158E+02 -0.79661702514E+02  0.90057255887E+02  0.41800000000E+01 0. -1.
         -5    1    3    3    0  502 -0.62871285248E+02 -0.29045167567E+02 -0.58777780502E+03  0.59185863239E+03  0.41800000000E+01 0. -1.
        -11    1    1    2    0    0  0.26557602475E+02 -0.18369079108E+02 -0.46525837062E+02  0.56633760522E+02  0.00000000000E+00 0. -1.
         11    1    1    2    0    0  0.34470535193E+02  0.56595715166E+01  0.37129596973E+02  0.50978971327E+02  0.00000000000E+00 0.  1.
</event>
<event>
 7    1  0.2733606E-009  0.2061213E+03  0.7561462E-02  0.1144675E+00
         -1   -1    0    0    0  501 -0.00000000000E+00  0.00000000000E+00  0.67158282522E+02  0.67158282522E+02  0.00000000000E+00 0.  1.
          1   -1    0    0  501    0  0.00000000000E+00 -0.00000000000E+00 -0.78013095012E+03  0.78013095012E+03  0.00000000000E+00 0. -1.
         25    2    1    2    0    0  0.69113295096E+02 -0.17389604946E+03 -0.23237990098E+03  0.32352599066E+03  0.12510861153E+03 0.  0.
          5    1    3    3  502    0 -0.16037977962E+02 -0.87268624784E+02 -0.43471184966E+02  0.98895125923E+02  0.41800000000E+01 0. -1.
         -5    1    3    3    0  502  0.85151273059E+02 -0.86627424680E+02 -0.18890871601E+03  0.22463086474E+03  0.41800000000E+01 0. -1.
        -11    1    1    2    0    0 -0.22939270976E+01  0.10800385948E+03 -0.19210828083E+03  0.22039892769E+03  0.00000000000E+00 0.  1.
         11    1    1    2    0    0 -0.66819367999E+02  0.65892189988E+02 -0.28848448579E+03  0.30336431429E+03  0.00000000000E+00 0. -1.
</event>
<event>
 7    1  0.2733606E-009  0.2561289E+03  0.7561462E-02  0.1109492E+00
          1   -1    0    0  501    0  0.00000000000E+00  0.00000000000E+00  0.30973247709E+03  0.30973247709E+03  0.00000000000E+00 0. -1.
         -1   -1    0    0    0  501 -0.00000000000E+00 -0.00000000000E+00 -0.28752456125E+03  0.28752456125E+03  0.00000000000E+00 0.  1.
         25    2    1    2    0    0  0.23966737555E+03 -0.84871499910E+02  0.12356539146E+03  0.30913324971E+03  0.12510530648E+03 0.  0.
          5    1    3    3  502    0  0.19722078180E+03 -0.53523871978E+02  0.14646827376E+03  0.25145828534E+03  0.41800000000E+01 0.  1.
         -5    1    3    3    0  502  0.42446593748E+02 -0.31347627932E+02 -0.22902882301E+02  0.57674964374E+02  0.41800000000E+01 0.  1.
        -11    1    1    2    0    0 -0.73378363397E+02  0.17004985012E+02  0.11218521881E+02  0.76153850613E+02  0.00000000000E+00 0. -1.
         11    1    1    2    0    0 -0.16628901216E+03  0.67866514898E+02 -0.11257599750E+03  0.21196993801E+03  0.00000000000E+00 0.  1.
</event>
<event>
 7    1  0.2733606E-009  0.7526777E+02  0.7561462E-02  0.1343044E+00
         -1   -1    0    0    0  501 -0.00000000000E+00  0.00000000000E+00  0.85690592695E+02  0.85690592695E+02  0.00000000000E+00 0.  1.
          1   -1    0    0  501    0  0.00000000000E+00 -0.00000000000E+00 -0.14720296223E+03  0.14720296223E+03  0.00000000000E+00 0. -1.
         25    2    1    2    0    0  0.13343727011E+02  0.98103013567E+01 -0.49729910906E+02  0.13563202228E+03  0.12509470159E+03 0.  0.
          5    1    3    3  502    0  0.39814807836E+02 -0.28844916653E+02  0.18553825803E+02  0.52715889366E+02  0.41800000000E+01 0. -1.
         -5    1    3    3    0  502 -0.26471080825E+02  0.38655218010E+02 -0.68283736708E+02  0.82916132919E+02  0.41800000000E+01 0. -1.
        -11    1    1    2    0    0 -0.21512419082E+02 -0.27356538458E+02 -0.46160522838E+02  0.57809672546E+02  0.00000000000E+00 0. -1.
         11    1    1    2    0    0  0.81686920708E+01  0.17546237101E+02  0.34378064206E+02  0.39451860097E+02  0.00000000000E+00 0.  1.
</event>
<event>
 7    1  0.2892533E-009  0.9954148E+02  0.7561462E-02  0.1281263E+00
          2   -1    0    0  501    0  0.00000000000E+00  0.00000000000E+00  0.31024684740E+03  0.31024684740E+03  0.00000000000E+00 0.  1.
         -2   -1    0    0    0  501 -0.00000000000E+00 -0.00000000000E+00 -0.58375612160E+02  0.58375612160E+02  0.00000000000E+00 0. -1.
         25    2    1    2    0    0 -0.52833802665E+02 -0.20310516893E+02  0.62028441686E+02  0.15066040848E+03  0.12508838197E+03 0.  0.
          5    1    3    3  502    0 -0.34091548862E+02  0.38415251494E+02  0.71519270085E+02  0.88150119935E+02  0.41800000000E+01 0.  1.
         -5    1    3    3    0  502 -0.18742253803E+02 -0.58725768387E+02 -0.94908283984E+01  0.62510288544E+02  0.41800000000E+01 0.  1.
        -11    1    1    2    0    0  0.15369681244E+02  0.40422033130E+02  0.30182499961E+02  0.52736620747E+02  0.00000000000E+00 0. -1.
         11    1    1    2    0    0  0.37464121421E+02 -0.20111516237E+02  0.15966029359E+03  0.16522543033E+03  0.00000000000E+00 0.  1.
</event>
<event>
 7    1  0.2733606E-009  0.1114068E+03  0.7561462E-02  0.1257987E+00
          2   -1    0    0  501    0  0.00000000000E+00  0.00000000000E+00  0.26040705486E+03  0.26040705486E+03  0.00000000000E+00 0. -1.
         -2   -1    0    0    0  501 -0.00000000000E+00 -0.00000000000E+00 -0.51572647785E+02  0.51572647785E+02  0.00000000000E+00 0.  1.
         25    2    1    2    0    0 -0.27548924265E+02 -0.16660585328E+02  0.82992213947E+02  0.15353234879E+03  0.12509179117E+03 0.  0.
          5    1    3    3  502    0 -0.56420260649E+02 -0.54950263237E+02  0.37614656777E+02  0.87379128206E+02  0.41800000000E+01 0.  1.
         -5    1    3    3    0  502  0.28871336384E+02  0.38289677909E+02  0.45377557169E+02  0.66153220584E+02  0.41800000000E+01 0.  1.
        -11    1    1    2    0    0 -0.40070914285E+00  0.51298687008E+02  0.59549374081E+02  0.78599260875E+02  0.00000000000E+00 0.  1.
         11    1    1    2    0    0  0.27949633408E+02 -0.34638101680E+02  0.66292819048E+02  0.79848092982E+02  0.00000000000E+00 0. -1.
</event>
<event>
 7    1  0.2733606E-009  0.9337103E+02  0.7561462E-02  0.1294888E+00
          3   -1    0    0  501    0  0.00000000000E+00  0.00000000000E+00  0.46056554068E+03  0.46056554068E+03  0.00000000000E+00 0. -1.
         -3   -1    0    0    0  501 -0.00000000000E+00 -0.00000000000E+00 -0.34324772196E+02  0.34324772196E+02  0.00000000000E+00 0.  1.
         25    2    1    2    0    0 -0.32226529169E+02 -0.42714414219E+02  0.30807452912E+03  0.33677948199E+03  0.12508970234E+03 0.  0.
          5    1    3    3  502    0 -0.51804488965E+02 -0.65575698619E+01  0.40989031609E+02  0.66515260743E+02  0.41800000000E+01 0.  1.
         -5    1    3    3    0  502  0.19577959796E+02 -0.36156844357E+02  0.26708549751E+03  0.27026422125E+03  0.41800000000E+01 0.  1.
        -11    1    1    2    0    0 -0.29470051033E+00  0.57360394865E+02  0.10582107330E+03  0.12036777518E+03  0.00000000000E+00 0. -1.
         11    1    1    2    0    0  0.32521229679E+02 -0.14645980646E+02  0.12345166060E+02  0.37743055705E+02  0.00000000000E+00 0.  1.
</event>
<event>
 7    1  0.2733606E-009  0.1390449E+03  0.7561462E-02  0.1214620E+00
         -2   -1    0    0    0  501 -0.00000000000E+00  0.00000000000E+00  0.43448967552E+02  0.43448967552E+02  0.00000000000E+00 0.  1.
          2   -1    0    0  501    0  0.00000000000E+00 -0.00000000000E+00 -0.62812531533E+03  0.62812531533E+03  0.00000000000E+00 0. -1.
         25    2    1    2    0    0 -0.47271155038E+02  0.97099970483E+02 -0.20118135248E+03  0.26035450939E+03  0.12509023787E+03 0.  0.
          5    1    3    3  502    0  0.40704525919E+02  0.19583805141E+02 -0.78041723944E+02  0.90268305236E+02  0.41800000000E+01 0.  1.
         -5    1    3    3    0  502 -0.87975680957E+02  0.77516165342E+02 -0.12313962853E+03  0.17008620416E+03  0.41800000000E+01 0.  1.
        -11    1    1    2    0    0  0.99891776219E+01  0.13922187482E+01  0.30888930936E+01  0.10548137426E+02  0.00000000000E+00 0.  1.
         11    1    1    2    0    0  0.37281977416E+02 -0.98492189231E+02 -0.38658388839E+03  0.40067163606E+03  0.00000000000E+00 0. -1.
</event>
<event>
 7    1  0.2733606E-009  0.1112604E+03  0.7561462E-02  0.1258254E+00
         -1   -1    0    0    0  501 -0.00000000000E+00  0.00000000000E+00  0.18763791898E+03  0.18763791898E+03  0.00000000000E+00 0. -1.
          1   -1    0    0  501    0  0.00000000000E+00 -0.00000000000E+00 -0.93333797062E+02  0.93333797062E+02  0.00000000000E+00 0.  1.
         25    2    1    2    0    0 -0.30042683498E+02  0.67589166020E+02  0.69778881538E+02  0.16120841782E+03  0.12509277946E+03 0.  0.
          5    1    3    3  502    0  0.12763312508E+02 -0.12250949779E+02 -0.24424539305E+02  0.30446977468E+02  0.41800000000E+01 0.  1.
         -5    1    3    3    0  502 -0.42805996007E+02  0.79840115799E+02  0.94203420844E+02  0.13076144035E+03  0.41800000000E+01 0.  1.
        -11    1    1    2    0    0 -0.28716194894E+02 -0.38665179237E+02 -0.40011558103E+01  0.48328306224E+02  0.00000000000E+00 0.  1.
         11    1    1    2    0    0  0.58758878392E+02 -0.28923986783E+02  0.28526396185E+02  0.71434991990E+02  0.00000000000E+00 0. -1.
</event>
<event>
 7    1  0.2733606E-009  0.9439248E+02  0.7561462E-02  0.1292550E+00
          2   -1    0    0  501    0  0.00000000000E+00  0.00000000000E+00  0.41375202422E+02  0.41375202422E+02  0.00000000000E+00 0. -1.
         -2   -1    0    0    0  501 -0.00000000000E+00 -0.00000000000E+00 -0.51277618565E+03  0.51277618565E+03  0.00000000000E+00 0.  1.
         25    2    1    2    0    0  0.18035861378E+02 -0.41504584699E+02 -0.42031908979E+03  0.44086571237E+03  0.12508603540E+03 0.  0.
          5    1    3    3  502    0  0.54941865947E+02 -0.65128442886E+01 -0.83824263062E+02  0.10052365519E+03  0.41800000000E+01 0.  1.
         -5    1    3    3    0  502 -0.36906004569E+02 -0.34991740410E+02 -0.33649482673E+03  0.34034205718E+03  0.41800000000E+01 0.  1.
        -11    1    1    2    0    0  0.26451332465E+02  0.13413267847E+02  0.11247153164E+02  0.31718877625E+02  0.00000000000E+00 0. -1.
         11    1    1    2    0    0 -0.44487193843E+02  0.28091316852E+02 -0.62329046604E+02  0.81566798080E+02  0.00000000000E+00 0.  1.
</event>
<event>
 7    1  0.2733606E-009  0.1362321E+03  0.7561462E-02  0.1218491E+00
         -1   -1    0    0    0  501 -0.00000000000E+00  0.00000000000E+00  0.37082824988E+02  0.37082824988E+02  0.00000000000E+00 0.  1.
          1   -1    0    0  501    0  0.00000000000E+00 -0.00000000000E+00 -0.58563976532E+03  0.58563976532E+03  0.00000000000E+00 0. -1.
         25    2    1    2    0    0  0.15002853750E+02 -0.98170788140E+02 -0.28794648961E+03  0.32927908917E+03  0.12509575699E+03 0.  0.
          5    1    3    3  502    0  0.26680206349E+02 -0.12583310018E+03 -0.22005108261E+03  0.25492303519E+03  0.41800000000E+01 0.  1.
         -5    1    3    3    0  502 -0.11677352599E+02  0.27662312038E+02 -0.67895407006E+02  0.74356053981E+02  0.41800000000E+01 0.  1.
        -11    1    1    2    0    0  0.17508919826E+02  0.63715340332E+02 -0.22408595803E+03  0.23362517727E+03  0.00000000000E+00 0. -1.
         11    1    1    2    0    0 -0.32511773576E+02  0.34455447808E+02 -0.36524492682E+02  0.59818323868E+02  0.00000000000E+00 0.  1.
</event>
<event>
 7    1  0.2733606E-009  0.2507996E+03  0.7561462E-02  0.1112801E+00
         -2   -1    0    0    0  501 -0.00000000000E+00  0.00000000000E+00  0.23392082118E+03  0.23392082118E+03  0.00000000000E+00 0.  1.
          2   -1    0    0  501    0  0.00000000000E+00 -0.00000000000E+00 -0.38684213794E+03  0.38684213794E+03  0.00000000000E+00 0. -1.
         25    2    1    2    0    0  0.21122564594E+03  0.85631753699E+02  0.89580854570E+02  0.27499408511E+03  0.12509175271E+03 0.  0.
          5    1    3    3  502    0  0.13671536121E+03 -0.62239556762E+01  0.73955017973E+02  0.15561698076E+03  0.41800000000E+01 0.  1.
         -5    1    3    3    0  502  0.74510284730E+02  0.91855709375E+02  0.15625836597E+02  0.11937710436E+03  0.41800000000E+01 0.  1.
        -11    1    1    2    0    0 -0.15208802133E+03 -0.12965880531E+02 -0.15597708719E+03  0.21823778779E+03  0.00000000000E+00 0. -1.
         11    1    1    2    0    0 -0.59137624617E+02 -0.72665873168E+02 -0.86525084134E+02  0.12753108622E+03  0.00000000000E+00 0.  1.
</event>
<event>
 7    1  0.2733606E-009  0.1145881E+03  0.7561462E-02  0.1252302E+00
          1   -1    0    0  501    0  0.00000000000E+00  0.00000000000E+00  0.66896350395E+03  0.66896350395E+03  0.00000000000E+00 0. -1.
         -1   -1    0    0    0  501 -0.00000000000E+00 -0.00000000000E+00 -0.32470136774E+02  0.32470136774E+02  0.00000000000E+00 0.  1.
         25    2    1    2    0    0  0.89177358750E+02 -0.22877582128E+02  0.43287197819E+03  0.45989312064E+03  0.12509015882E+03 0.  0.
          5    1    3    3  502    0  0.43714322221E+02 -0.47504459745E+02  0.78395561858E+02  0.10164129172E+03  0.41800000000E+01 0.  1.
         -5    1    3    3    0  502  0.45463036529E+02  0.24626877617E+02  0.35447641633E+03  0.35825182892E+03  0.41800000000E+01 0.  1.
        -11    1    1    2    0    0 -0.24900096666E+02 -0.22795652408E+02  0.12767372510E+03  0.13206148820E+03  0.00000000000E+00 0. -1.
         11    1    1    2    0    0 -0.64277262084E+02  0.45673234536E+02  0.75947663884E+02  0.10947903189E+03  0.00000000000E+00 0.  1.
</event>
<event>
 7    1  0.2733606E-009  0.1191854E+03  0.7561462E-02  0.1244447E+00
          2   -1    0    0  501    0  0.00000000000E+00  0.00000000000E+00  0.16151203174E+04  0.16151203174E+04  0.00000000000E+00 0.  1.
         -2   -1    0    0    0  501 -0.00000000000E+00 -0.00000000000E+00 -0.14786072771E+02  0.14786072771E+02  0.00000000000E+00 0. -1.
         25    2    1    2    0    0  0.22203152642E+02  0.85584661871E+02  0.12073707005E+04  0.12170492473E+04  0.12508855897E+03 0.  0.
          5    1    3    3  502    0  0.36108439513E+02  0.94158946615E+02  0.11836508009E+04  0.11879463024E+04  0.41800000000E+01 0. -1.
         -5    1    3    3    0  502 -0.13905286871E+02 -0.85742847448E+01  0.23719899604E+02  0.29102944852E+02  0.41800000000E+01 0. -1.
        -11    1    1    2    0    0 -0.53392118369E+02 -0.48624468329E+02  0.29358278010E+03  0.30233409665E+03  0.00000000000E+00 0.  1.
         11    1    1    2    0    0  0.31188965727E+02 -0.36960193542E+02  0.99380764101E+02  0.11052304630E+03  0.00000000000E+00 0. -1.
</event>
<event>
 7    1  0.2733606E-009  0.1104321E+03  0.7561462E-02  0.1259772E+00
         -3   -1    0    0    0  501 -0.00000000000E+00  0.00000000000E+00  0.87127007970E+02  0.87127007970E+02  0.00000000000E+00 0.  1.
          3   -1    0    0  501    0  0.00000000000E+00 -0.00000000000E+00 -0.16680771848E+03  0.16680771848E+03  0.00000000000E+00 0. -1.
         25    2    1    2    0    0 -0.38036306942E+02  0.24688540719E+02 -0.48787620287E+02  0.14171735361E+03  0.12508913515E+03 0.  0.
          5    1    3    3  502    0 -0.58890339325E+02  0.60753841835E+02 -0.11201457775E+02  0.85452012380E+02  0.41800000000E+01 0.  1.
         -5    1    3    3    0  502  0.20854032383E+02 -0.36065301116E+02 -0.37586162511E+02  0.56265341228E+02  0.41800000000E+01 0.  1.
        -11    1    1    2    0    0  0.53651726906E+02 -0.44041243342E+02  0.38184115891E+01  0.69517761631E+02  0.00000000000E+00 0.  1.
         11    1    1    2    0    0 -0.15615419964E+02  0.19352702624E+02 -0.34711501813E+02  0.42699611212E+02  0.00000000000E+00 0. -1.
</event>
<event>
 7    1  0.2733606E-009  0.2760495E+03  0.7561462E-02  0.1097866E+00
          2   -1    0    0  501    0  0.00000000000E+00  0.00000000000E+00  0.11534630782E+04  0.11534630782E+04  0.00000000000E+00 0.  1.
         -2   -1    0    0    0  501 -0.00000000000E+00 -0.00000000000E+00 -0.17610001203E+03  0.17610001203E+03  0.00000000000E+00 0. -1.
         25    2    1    2    0    0  0.94276154171E+02 -0.23863151649E+03 -0.29027248036E+02  0.28692132979E+03  0.12509306316E+03 0.  0.
          5    1    3    3  502    0 -0.16039775078E+02 -0.12819860589E+03 -0.15368244089E+02  0.13017608176E+03  0.41800000000E+01 0. -1.
         -5    1    3    3    0  502  0.11031592925E+03 -0.11043291060E+03 -0.13659003947E+02  0.15674524802E+03  0.41800000000E+01 0. -1.
        -11    1    1    2    0    0 -0.33765303002E+02  0.17744850600E+03  0.57322220823E+03  0.60100895831E+03  0.00000000000E+00 0. -1.
         11    1    1    2    0    0 -0.60510851169E+02  0.61183010489E+02  0.43316810598E+03  0.44163280213E+03  0.00000000000E+00 0.  1.
</event>
<event>
 7    1  0.2733606E-009  0.1151798E+03  0.7561462E-02  0.1251268E+00
         -4   -1    0    0    0  501 -0.00000000000E+00  0.00000000000E+00  0.12253524611E+03  0.12253524611E+03  0.00000000000E+00 0. -1.
          4   -1    0    0  501    0  0.00000000000E+00 -0.00000000000E+00 -0.17632937216E+03  0.17632937216E+03  0.00000000000E+00 0.  1.
         25    2    1    2    0    0  0.76676608357E+02  0.57626088928E+02  0.41455488808E+00  0.15763249713E+03  0.12509102246E+03 0.  0.
          5    1    3    3  502    0  0.61842766694E+02  0.28995007691E+02 -0.58705197607E+02  0.90161027553E+02  0.41800000000E+01 0.  1.
         -5    1    3    3    0  502  0.14833841663E+02  0.28631081237E+02  0.59119752495E+02  0.67471469574E+02  0.41800000000E+01 0.  1.
        -11    1    1    2    0    0 -0.20996646509E+02 -0.69396530170E+02 -0.38988414292E+02  0.82321528249E+02  0.00000000000E+00 0. -1.
         11    1    1    2    0    0 -0.55679961848E+02  0.11770441242E+02 -0.15220266651E+02  0.58910592896E+02  0.00000000000E+00 0.  1.
</event>
<event>
 7    1  0.2733606E-009  0.9098110E+02  0.7561462E-02  0.1300493E+00
          2   -1    0    0  501    0  0.00000000000E+00  0.00000000000E+00  0.50096447345E+03  0.50096447345E+03  0.00000000000E+00 0.  1.
         -2   -1    0    0    0  501 -0.00000000000E+00 -0.00000000000E+00 -0.28231225205E+02  0.28231225205E+02  0.00000000000E+00 0. -1.
         25    2    1    2    0    0 -0.37702566150E+02  0.10187186957E+02  0.19866854584E+03  0.23799530353E+03  0.12508921266E+03 0.  0.
          5    1    3    3  502    0 -0.36969707682E+02 -0.27874776400E+02  0.19390773023E+03  0.19940271485E+03  0.41800000000E+01 0. -1.
         -5    1    3    3    0  502 -0.73285846813E+00  0.38061963356E+02  0.47608156134E+01  0.38592588685E+02  0.41800000000E+01 0. -1.
        -11    1    1    2    0    0  0.77249523038E+01  0.38899271262E+02  0.13516922794E+03  0.14086713021E+03  0.00000000000E+00 0.  1.
         11    1    1    2    0    0  0.29977613847E+02 -0.49086458218E+02  0.13889547446E+03  0.15033326491E+03  0.00000000000E+00 0. -1.
</event>
<event>
 7    1  0.2733606E-009  0.1079331E+03  0.7561462E-02  0.1264446E+00
         -2   -1    0    0    0  501 -0.00000000000E+00  0.00000000000E+00  0.69347020313E+02  0.69347020313E+02  0.00000000000E+00 0.  1.
          2   -1    0    0  501    0  0.00000000000E+00 -0.00000000000E+00 -0.26364513453E+03  0.26364513453E+03  0.00000000000E+00 0. -1.
         25    2    1    2    0    0 -0.36916254606E+02 -0.35068767848E+02 -0.18294815057E+03  0.22739953589E+03  0.12509154565E+03 0.  0.
          5    1    3    3  502    0  0.38408558434E+02  0.10241873252E+02 -0.94616689518E+02  0.10271272396E+03  0.41800000000E+01 0. -1.
         -5    1    3    3    0  502 -0.75324813039E+02 -0.45310641100E+02 -0.88331461056E+02  0.12468681193E+03  0.41800000000E+01 0. -1.
        -11    1    1    2    0    0  0.34521679118E+01  0.50800041008E+02 -0.34920907337E+02  0.61741650439E+02  0.00000000000E+00 0. -1.
         11    1    1    2    0    0  0.33464086694E+02 -0.15731273160E+02  0.23570943690E+02  0.43850968518E+02  0.00000000000E+00 0.  1.
</event>
<event>
 7    1  0.2733606E-009  0.8086255E+02  0.7561462E-02  0.1326621E+00
          2   -1    0    0  501    0  0.00000000000E+00  0.00000000000E+00  0.78879344207E+03  0.78879344207E+03  0.00000000000E+00 0. -1.
         -2   -1    0    0    0  501 -0.00000000000E+00 -0.00000000000E+00 -0.17203835170E+02  0.17203835170E+02  0.00000000000E+00 0.  1.
         25    2    1    2    0    0 -0.36602914447E+01 -0.11921781588E+02  0.58135597719E+03  0.59479256967E+03  0.12509157490E+03 0.  0.
          5    1    3    3  502    0  0.15068931796E+02  0.24462499598E+02  0.29448343030E+02  0.41354127959E+02  0.41800000000E+01 0.  1.
         -5    1    3    3    0  502 -0.18729223240E+02 -0.36384281185E+02  0.55190763416E+03  0.55343844171E+03  0.41800000000E+01 0.  1.
        -11    1    1    2    0    0 -0.31965380517E+02 -0.24751582148E+02  0.77189848240E+02  0.87136094942E+02  0.00000000000E+00 0. -1.
         11    1    1    2    0    0  0.35625671962E+02  0.36673363735E+02  0.11304378147E+03  0.12406861263E+03  0.00000000000E+00 0.  1.
</event>
<event>
 7    1  0.2733606E-009  0.1014500E+03  0.7561462E-02  0.1277276E+00
          3   -1    0    0  501    0  0.00000000000E+00  0.00000000000E+00  0.49437178022E+02  0.49437178022E+02  0.00000000000E+00 0. -1.
         -3   -1    0    0    0  501 -0.00000000000E+00 -0.00000000000E+00 -0.35206196864E+03  0.35206196864E+03  0.00000000000E+00 0.  1.
         25    2    1    2    0    0 -0.32511783288E+01  0.49510848878E+01 -0.28750564499E+03  0.31359496024E+03  0.12508884756E+03 0.  0.
          5    1    3    3  502    0 -0.49505277054E+02  0.36033380423E+02 -0.20465008350E+03  0.21365464197E+03  0.41800000000E+01 0. -1.
         -5    1    3    3    0  502  0.46254098725E+02 -0.31082295535E+02 -0.82855561496E+02  0.99940318268E+02  0.41800000000E+01 0. -1.
        -11    1    1    2    0    0 -0.40676338259E+02  0.37956046405E+01 -0.72934861738E+00  0.40859552838E+02  0.00000000000E+00 0.  1.
         11    1    1    2    0    0  0.43927516587E+02 -0.87466895283E+01 -0.14389797008E+02  0.47044633585E+02  0.00000000000E+00 0. -1.
</event>
<event>
 7    1  0.2733606E-009  0.8375230E+02  0.7561462E-02  0.1318728E+00
         -1   -1    0    0    0  501 -0.00000000000E+00  0.00000000000E+00  0.50743364882E+02  0.50743364882E+02  0.00000000000E+00 0.  1.
          1   -1    0    0  501    0  0.00000000000E+00 -0.00000000000E+00 -0.31154785138E+03  0.31154785138E+03  0.00000000000E+00 0. -1.
         25    2    1    2    0    0 -0.23231029280E+02  0.24390249658E+02 -0.22971634353E+03  0.26372538111E+03  0.12508762191E+03 0.  0.
          5    1    3    3  502    0  0.23945126187E+02 -0.29372431953E+01 -0.19999909495E+03  0.20149220046E+03  0.41800000000E+01 0.  1.
         -5    1    3    3    0  502 -0.47176155468E+02  0.27327492853E+02 -0.29717248580E+02  0.62233180648E+02  0.41800000000E+01 0.  1.
        -11    1    1    2    0    0 -0.25061219719E+02 -0.30708909840E+02  0.19966728278E+01  0.39687385651E+02  0.00000000000E+00 0.  1.
         11    1    1    2    0    0  0.48292248999E+02  0.63186601823E+01 -0.33084815802E+02  0.58878449509E+02  0.00000000000E+00 0. -1.
</event>
<event>
 7    1  0.2733606E-009  0.1061633E+03  0.7561462E-02  0.1267844E+00
         -1   -1    0    0    0  501 -0.00000000000E+00  0.00000000000E+00  0.50888117211E+02  0.50888117211E+02  0.00000000000E+00 0.  1.
          1   -1    0    0  501    0  0.00000000000E+00 -0.00000000000E+00 -0.27351784778E+03  0.27351784778E+03  0.00000000000E+00 0. -1.
         25    2    1    2    0    0  0.15471046341E+02  0.16015418231E+02 -0.18045851469E+03  0.22070049794E+03  0.12509031685E+03 0.  0.
          5    1    3    3  502    0  0.35811268972E+00 -0.51073522765E+02 -0.11393442726E+03  0.12492861597E+03  0.41800000000E+01 0.  1.
         -5    1    3    3    0  502  0.15112933651E+02  0.67088940996E+02 -0.66524087432E+02  0.95771881970E+02  0.41800000000E+01 0.  1.
        -11    1    1    2    0    0  0.37653120423E+02 -0.71133216733E+01 -0.29529163608E+02  0.48376940026E+02  0.00000000000E+00 0.  1.
         11    1    1    2    0    0 -0.53124166764E+02 -0.89020965573E+01 -0.12642052267E+02  0.55328527027E+02  0.00000000000E+00 0. -1.
</event>
<event>
 7    1  0.2733606E-009  0.1213478E+03  0.7561462E-02  0.1240890E+00
          2   -1    0    0  501    0  0.00000000000E+00  0.00000000000E+00  0.43970918580E+03  0.43970918580E+03  0.00000000000E+00 0. -1.
         -2   -1    0    0    0  501 -0.00000000000E+00 -0.00000000000E+00 -0.35946415958E+02  0.35946415958E+02  0.00000000000E+00 0.  1.
         25    2    1    2    0    0 -0.63109604903E+02  0.67228124709E+01  0.24768661285E+03  0.28464494225E+03  0.12508423772E+03 0.  0.
          5    1    3    3  502    0 -0.95081753594E+02 -0.17075850528E+02  0.20147448830E+03  0.22347609800E+03  0.41800000000E+01 0. -1.
         -5    1    3    3    0  502  0.31972148691E+02  0.23798662999E+02  0.46212124541E+02  0.61168844252E+02  0.41800000000E+01 0. -1.
        -11    1    1    2    0    0  0.54028147644E+02 -0.42672423920E+02  0.74714911990E+02  0.10159869377E+03  0.00000000000E+00 0.  1.
         11    1    1    2    0    0  0.90814572587E+01  0.35949611450E+02  0.81361245004E+02  0.89411965743E+02  0.00000000000E+00 0. -1.
</event>
<event>
 7    1  0.2733606E-009  0.1791948E+03  0.7561462E-02  0.1168585E+00
          2   -1    0    0  501    0  0.00000000000E+00  0.00000000000E+00  0.19970269740E+03  0.19970269740E+03  0.00000000000E+00 0. -1.
         -2   -1    0    0    0  501 -0.00000000000E+00 -0.00000000000E+00 -0.18794355213E+03  0.18794355213E+03  0.00000000000E+00 0.  1.
         25    2    1    2    0    0 -0.76259786811E+02  0.14004341984E+03 -0.10216341352E+02  0.20292706817E+03  0.12508919554E+03 0.  0.
          5    1    3    3  502    0  0.66004188885E+01 -0.16885783339E+02 -0.17117913600E+02  0.25282218544E+02  0.41800000000E+01 0. -1.
         -5    1    3    3    0  502 -0.82860205700E+02  0.15692920318E+03  0.69015722480E+01  0.17764484963E+03  0.41800000000E+01 0. -1.
        -11    1    1    2    0    0  0.72952846456E+02 -0.10965474368E+03 -0.19557913071E+02  0.13314951214E+03  0.00000000000E+00 0.  1.
         11    1    1    2    0    0  0.33069403549E+01 -0.30388676156E+02  0.41533399699E+02  0.51569669221E+02  0.00000000000E+00 0. -1.
</event>
<event>
 7    1  0.2733606E-009  0.1134041E+03  0.7561462E-02  0.1254393E+00
         -4   -1    0    0    0  501 -0.00000000000E+00  0.00000000000E+00  0.99072601157E+02  0.99072601157E+02  0.00000000000E+00 0.  1.
          4   -1    0    0  501    0  0.00000000000E+00 -0.00000000000E+00 -0.16689424126E+03  0.16689424126E+03  0.00000000000E+00 0. -1.
         25    2    1    2    0    0  0.23804443750E+02  0.62661579586E+02 -0.43436876231E+02  0.14842637194E+03  0.12510196070E+03 0.  0.
          5    1    3    3  502    0 -0.35120779285E+02  0.62771068939E+02  0.47302447396E+01  0.72204735639E+02  0.41800000000E+01 0. -1.
         -5    1    3    3    0  502  0.58925223035E+02 -0.10948935276E+00 -0.48167120971E+02  0.76221636300E+02  0.41800000000E+01 0. -1.
        -11    1    1    2    0    0 -0.13108401602E+02 -0.76825777149E+02  0.10265135690E+02  0.78609180366E+02  0.00000000000E+00 0.  1.
         11    1    1    2    0    0 -0.10696042148E+02  0.14164197562E+02 -0.34649899565E+02  0.38931290116E+02  0.00000000000E+00 0. -1.
</event>
<event>
 7    1  0.2733606E-009  0.1154686E+03  0.7561462E-02  0.1250765E+00
          1   -1    0    0  501    0  0.00000000000E+00  0.00000000000E+00  0.85087596643E+03  0.85087596643E+03  0.00000000000E+00 0. -1.
         -1   -1    0    0    0  501 -0.00000000000E+00 -0.00000000000E+00 -0.19755956693E+02  0.19755956693E+02  0.00000000000E+00 0.  1.
         25    2    1    2    0    0  0.52144522601E+02 -0.47719178860E+02  0.47129564908E+03  0.49271084312E+03  0.12509282479E+03 0.  0.
          5    1    3    3  502    0 -0.30861091950E+02  0.15946603121E+01  0.24029646688E+03  0.24231139951E+03  0.41800000000E+01 0. -1.
         -5    1    3    3    0  502  0.83005614551E+02 -0.49313839172E+02  0.23099918220E+03  0.25039944360E+03  0.41800000000E+01 0. -1.
        -11    1    1    2    0    0 -0.43379599072E+02 -0.10177347353E+02  0.75823671874E+02  0.87946558951E+02  0.00000000000E+00 0.  1.
         11    1    1    2    0    0 -0.87649235290E+01  0.57896526213E+02  0.28400068878E+03  0.28997452105E+03  0.00000000000E+00 0. -1.
</event>
<event>
 7    1  0.5166002E-009  0.1513344E+03  0.7561462E-02  0.1198843E+00
          2   -1    0    0  501    0  0.00000000000E+00  0.00000000000E+00  0.31066404437E+03  0.31066404437E+03  0.00000000000E+00 0. -1.
         -2   -1    0    0    0  501 -0.00000000000E+00 -0.00000000000E+00 -0.94378301804E+02  0.94378301804E+02  0.00000000000E+00 0.  1.
         25    2    1    2    0    0  0.51510172875E+02 -0.11701088507E+03  0.75375617924E+02  0.19409788925E+03  0.12509061396E+03 0.  0.
          5    1    3    3  502    0 -0.35359806970E+02 -0.10158211606E+02 -0.56343068355E-01  0.37026757710E+02  0.41800000000E+01 0. -1.
         -5    1    3    3    0  502  0.86869979845E+02 -0.10685267346E+03  0.75431960992E+02  0.15707113154E+03  0.41800000000E+01 0. -1.
        -11    1    1    2    0    0 -0.29714052585E+02  0.70402403708E+02  0.19179390662E+02  0.78786244961E+02  0.00000000000E+00 0.  1.
         11    1    1    2    0    0 -0.21796120291E+02  0.46608481358E+02  0.12173073398E+03  0.13215821197E+03  0.00000000000E+00 0. -1.
</event>
<event>
 7    1  0.2733606E-009  0.8384480E+02  0.7561462E-02  0.1318481E+00
         -2   -1    0    0    0  501 -0.00000000000E+00  0.00000000000E+00  0.35682759367E+03  0.35682759367E+03  0.00000000000E+00 0.  1.
          2   -1    0    0  501    0  0.00000000000E+00 -0.00000000000E+00 -0.53010092137E+02  0.53010092137E+02  0.00000000000E+00 0. -1.
         25    2    1    2    0    0 -0.31104328133E+02  0.52824754088E+02  0.80415690959E+02  0.16084933070E+03  0.12509152633E+03 0.  0.
          5    1    3    3  502    0 -0.14429802341E+02  0.52560562278E+02  0.11214641580E+03  0.12476026162E+03  0.41800000000E+01 0.  1.
         -5    1    3    3    0  502 -0.16674525792E+02  0.26419180999E+00 -0.31730724843E+02  0.36089069076E+02  0.41800000000E+01 0.  1.
        -11    1    1    2    0    0  0.35644602412E+02  0.65858121549E+01  0.31410813426E+02  0.47964046983E+02  0.00000000000E+00 0.  1.
         11    1    1    2    0    0 -0.45402742791E+01 -0.59410566243E+02  0.19199099714E+03  0.20102430812E+03  0.00000000000E+00 0. -1.
</event>
<event>
 7    1  0.2733606E-009  0.1455229E+03  0.7561462E-02  0.1206085E+00
          2   -1    0    0  501    0  0.00000000000E+00  0.00000000000E+00  0.33732075934E+03  0.33732075934E+03  0.00000000000E+00 0. -1.
         -2   -1    0    0    0  501 -0.00000000000E+00 -0.00000000000E+00 -0.72464116111E+02  0.72464116111E+02  0.00000000000E+00 0.  1.
         25    2    1    2    0    0  0.10271398803E+03  0.35161605342E+02  0.20199980548E+03  0.26122677675E+03  0.12509598575E+03 0.  0.
          5    1    3    3  502    0 -0.23524669406E+01  0.53246191193E+02  0.38059472662E+02  0.65625352087E+02  0.41800000000E+01 0. -1.
         -5    1    3    3    0  502  0.10506645497E+03 -0.18084585851E+02  0.16394033281E+03  0.19560142466E+03  0.41800000000E+01 0. -1.
        -11    1    1    2    0    0 -0.22216572362E+02 -0.44614422088E+02  0.41199571871E+02  0.64663958030E+02  0.00000000000E+00 0.  1.
         11    1    1    2    0    0 -0.80497415668E+02  0.94528167460E+01  0.21657265879E+02  0.83894140671E+02  0.00000000000E+00 0. -1.
</event>
<event>
 7    1  0.2733606E-009  0.1167368E+03  0.7561462E-02  0.1248579E+00
         -2   -1    0    0    0  501 -0.00000000000E+00  0.00000000000E+00  0.48532218240E+02  0.48532218240E+02  0.00000000000E+00 0.  1.
          2   -1    0    0  501    0  0.00000000000E+00 -0.00000000000E+00 -0.33523619429E+03  0.33523619429E+03  0.00000000000E+00 0. -1.
         25    2    1    2    0    0 -0.39772698267E+02  0.47324351866E+02 -0.20085018303E+03  0.24455645425E+03  0.12508237880E+03 0.  0.
          5    1    3    3  502    0 -0.16230368631E+02 -0.42086066322E+02 -0.49066207646E+02  0.66780438582E+02  0.41800000000E+01 0. -1.
         -5    1    3    3    0  502 -0.23542329636E+02  0.89410418188E+02 -0.15178397538E+03  0.17777601567E+03  0.41800000000E+01 0. -1.
        -11    1    1    2    0    0  0.61262731923E+02 -0.38714560278E+02 -0.29420120851E+02  0.78214340189E+02  0.00000000000E+00 0.  1.
         11    1    1    2    0    0 -0.21490033657E+02 -0.86097915873E+01 -0.56433672171E+02  0.60997618088E+02  0.00000000000E+00 0. -1.
</event>
<event>
 7    1  0.2733606E-009  0.1974461E+03  0.7561462E-02  0.1151912E+00
          2   -1    0    0  501    0  0.00000000000E+00  0.00000000000E+00  0.53658612016E+03  0.53658612016E+03  0.00000000000E+00 0. -1.
         -2   -1    0    0    0  501 -0.00000000000E+00 -0.00000000000E+00 -0.90191453575E+02  0.90191453575E+02  0.00000000000E+00 0.  1.
         25    2    1    2    0    0 -0.17647405798E+03 -0.72418228266E+02  0.24524220333E+03  0.33493594610E+03  0.12510338432E+03 0.  0.
          5    1    3    3  502    0 -0.11646438187E+03 -0.57974265834E+02  0.67271428931E+02  0.14651923182E+03  0.41800000000E+01 0. -1.
         -5    1    3    3    0  502 -0.60009676106E+02 -0.14443962432E+02  0.17797077440E+03  0.18841671428E+03  0.41800000000E+01 0.  1.
        -11    1    1    2    0    0  0.64008897837E+02 -0.81392681358E+01  0.28329918945E+02  0.70469645916E+02  0.00000000000E+00 0.  1.
         11    1    1    2    0    0  0.11246516014E+03  0.80557496402E+02  0.17282254431E+03  0.22137198173E+03  0.00000000000E+00 0. -1.
</event>
<event>
 7    1  0.2733606E-009  0.1089007E+03  0.7561462E-02  0.1262619E+00
          1   -1    0    0  501    0  0.00000000000E+00  0.00000000000E+00  0.43378066944E+03  0.43378066944E+03  0.00000000000E+00 0. -1.
         -1   -1    0    0    0  501 -0.00000000000E+00 -0.00000000000E+00 -0.28228955926E+02  0.28228955926E+02  0.00000000000E+00 0.  1.
         25    2    1    2    0    0 -0.16630520271E+02 -0.15116718074E+02  0.24639250135E+03  0.27724125549E+03  0.12509340372E+03 0.  0.
          5    1    3    3  502    0  0.17553839563E+02  0.48587647333E+02  0.13248637226E+03  0.14226386749E+03  0.41800000000E+01 0.  1.
         -5    1    3    3    0  502 -0.34184359834E+02 -0.63704365407E+02  0.11390612909E+03  0.13497738801E+03  0.41800000000E+01 0.  1.
        -11    1    1    2    0    0 -0.37232097456E+02  0.13699274675E+02  0.74812104052E+02  0.84680281768E+02  0.00000000000E+00 0.  1.
         11    1    1    2    0    0  0.53862617727E+02  0.14174433996E+01  0.84347108115E+02  0.10008808811E+03  0.00000000000E+00 0. -1.
</event>
<event>
 7    1  0.2733606E-009  0.1400072E+03  0.7561462E-02  0.1213319E+00
         -1   -1    0    0    0  501 -0.00000000000E+00  0.00000000000E+00  0.28348858396E+02  0.28348858396E+02  0.00000000000E+00 0.  1.
          1   -1    0    0  501    0  0.00000000000E+00 -0.00000000000E+00 -0.10574948593E+04  0.10574948593E+04  0.00000000000E+00 0. -1.
         25    2    1    2    0    0  0.60115012508E+02  0.12073756193E+03 -0.55983303572E+03  0.58928078543E+03  0.12508973820E+03 0.  0.
          5    1    3    3  502    0  0.31663069242E+02  0.10521488393E+03 -0.20224493558E+03  0.23020253718E+03  0.41800000000E+01 0. -1.
         -5    1    3    3    0  502  0.28451943266E+02  0.15522678002E+02 -0.35758810013E+03  0.35907824825E+03  0.41800000000E+01 0. -1.
        -11    1    1    2    0    0 -0.24938201426E+02 -0.78748295012E+02 -0.39884621600E+03  0.40731009302E+03  0.00000000000E+00 0.  1.
         11    1    1    2    0    0 -0.35176811082E+02 -0.41989266917E+02 -0.70466749206E+02  0.89252839270E+02  0.00000000000E+00 0. -1.
</event>
<event>
 7    1  0.2733606E-009  0.8969995E+02  0.7561462E-02  0.1303580E+00
         -2   -1    0    0    0  501 -0.00000000000E+00  0.00000000000E+00  0.17637073428E+03  0.17637073428E+03  0.00000000000E+00 0.  1.
          2   -1    0    0  501    0  0.00000000000E+00 -0.00000000000E+00 -0.85793749057E+02  0.85793749057E+02  0.00000000000E+00 0. -1.
         25    2    1    2    0    0  0.43386698726E+02  0.13831043888E+02  0.77347721936E+01  0.13334604416E+03  0.12509051679E+03 0.  0.
          5    1    3    3  502    0  0.25000312653E+02 -0.43646400908E+02  0.40353053946E+02  0.64620935522E+02  0.41800000000E+01 0. -1.
         -5    1    3    3    0  502  0.18386386073E+02  0.57477444796E+02 -0.32618281752E+02  0.68725108640E+02  0.41800000000E+01 0. -1.
        -11    1    1    2    0    0 -0.69358885195E+01 -0.28360339941E+02  0.84643462932E+02  0.89537317630E+02  0.00000000000E+00 0.  1.
         11    1    1    2    0    0 -0.36450810207E+02  0.14529296053E+02 -0.18012499046E+01  0.39281121544E+02  0.00000000000E+00 0. -1.
</event>
<event>
 7    1  0.2733606E-009  0.9052917E+02  0.7561462E-02  0.1301575E+00
         -1   -1    0    0    0  501 -0.00000000000E+00  0.00000000000E+00  0.50678251082E+02  0.50678251082E+02  0.00000000000E+00 0.  1.
          1   -1    0    0  501    0  0.00000000000E+00 -0.00000000000E+00 -0.30455478882E+03  0.30455478882E+03  0.00000000000E+00 0. -1.
         25    2    1    2    0    0 -0.17674653028E+02  0.27415532232E+02 -0.70030309125E+02  0.14702344201E+03  0.12509054136E+03 0.  0.
          5    1    3    3  502    0 -0.37702078619E+02 -0.36780207070E+02 -0.44888223074E+01  0.53026901569E+02  0.41800000000E+01 0. -1.
         -5    1    3    3    0  502  0.20027425591E+02  0.64195739302E+02 -0.65541486818E+02  0.93996540440E+02  0.41800000000E+01 0. -1.
        -11    1    1    2    0    0 -0.17824643203E+02 -0.38500553136E+01  0.12441398279E+01  0.18278093859E+02  0.00000000000E+00 0.  1.
         11    1    1    2    0    0  0.35499296230E+02 -0.23565476918E+02 -0.18509036844E+03  0.18993150403E+03  0.00000000000E+00 0. -1.
</event>
<event>
 7    1  0.2733606E-009  0.9065799E+02  0.7561462E-02  0.1301266E+00
          1   -1    0    0  501    0  0.00000000000E+00  0.00000000000E+00  0.27639196562E+03  0.27639196562E+03  0.00000000000E+00 0. -1.
         -1   -1    0    0    0  501 -0.00000000000E+00 -0.00000000000E+00 -0.46268295143E+02  0.46268295143E+02  0.00000000000E+00 0.  1.
         25    2    1    2    0    0 -0.28911405251E+01 -0.10659572322E+02  0.85910544565E+02  0.15215112971E+03  0.12508940574E+03 0.  0.
          5    1    3    3  502    0 -0.65562192599E+01 -0.56949851892E+02  0.36462932327E+01  0.57593727921E+02  0.41800000000E+01 0.  1.
         -5    1    3    3    0  502  0.36650787348E+01  0.46290279571E+02  0.82264251332E+02  0.94557401784E+02  0.41800000000E+01 0.  1.
        -11    1    1    2    0    0 -0.60952424178E+01 -0.32532145257E+02  0.19946939548E+02  0.38644182647E+02  0.00000000000E+00 0.  1.
         11    1    1    2    0    0  0.89863829429E+01  0.43191717579E+02  0.12426618636E+03  0.13186494841E+03  0.00000000000E+00 0. -1.
</event>
<event>
 7    1  0.2733606E-009  0.1291968E+03  0.7561462E-02  0.1228652E+00
         -3   -1    0    0    0  501 -0.00000000000E+00  0.00000000000E+00  0.69968384221E+02  0.69968384221E+02  0.00000000000E+00 0.  1.
          3   -1    0    0  501    0  0.00000000000E+00 -0.00000000000E+00 -0.28706124030E+03  0.28706124030E+03  0.00000000000E+00 0. -1.
         25    2    1    2    0    0 -0.75397151675E+02  0.47393439759E+02 -0.93687615644E+02  0.17987717583E+03  0.12509020923E+03 0.  0.
          5    1    3    3  502    0  0.22748426590E+02  0.15088504538E+00  0.13682039917E+02  0.26873486840E+02  0.41800000000E+01 0. -1.
         -5    1    3    3    0  502 -0.98145578265E+02  0.47242554714E+02 -0.10736965556E+03  0.15300368899E+03  0.41800000000E+01 0. -1.
        -11    1    1    2    0    0  0.60540381403E+02 -0.74107447167E+02 -0.84384087153E+02  0.12758419052E+03  0.00000000000E+00 0.  1.
         11    1    1    2    0    0  0.14856770272E+02  0.26714007408E+02 -0.39021153279E+02  0.49568258169E+02  0.00000000000E+00 0. -1.
</event>
<event>
 7    1  0.2733606E-009  0.1050271E+03  0.7561462E-02  0.1270066E+00
         -1   -1    0    0    0  501 -0.00000000000E+00  0.00000000000E+00  0.12286930148E+03  0.12286930148E+03  0.00000000000E+00 0. -1.
          1   -1    0    0  501    0  0.00000000000E+00 -0.00000000000E+00 -0.12428805045E+03  0.12428805045E+03  0.00000000000E+00 0.  1.
         25    2    1    2    0    0  0.33690130994E+02 -0.19324729006E+02 -0.46421079592E+02  0.13896262010E+03  0.12508886072E+03 0.  0.
          5    1    3    3  502    0  0.39570891739E+02  0.46388262459E+02 -0.58443481188E+01  0.61395074492E+02  0.41800000000E+01 0.  1.
         -5    1    3    3    0  502 -0.58807607450E+01 -0.65712991464E+02 -0.40576731473E+02  0.77567545605E+02  0.41800000000E+01 0.  1.
        -11    1    1    2    0    0 -0.60051919092E+01 -0.27655098859E+02 -0.10689869250E+02  0.30251283070E+02  0.00000000000E+00 0.  1.
         11    1    1    2    0    0 -0.27684939085E+02  0.46979827865E+02  0.55692199874E+02  0.77943448763E+02  0.00000000000E+00 0. -1.
</event>
<event>
 7    1  0.2733606E-009  0.1674496E+03  0.7561462E-02  0.1180534E+00
          2   -1    0    0  501    0  0.00000000000E+00  0.00000000000E+00  0.57788042049E+02  0.57788042049E+02  0.00000000000E+00 0.  1.
         -2   -1    0    0    0  501 -0.00000000000E+00 -0.00000000000E+00 -0.65014117039E+03  0.65014117039E+03  0.00000000000E+00 0. -1.
         25    2    1    2    0    0 -0.12208894595E+03 -0.72476765120E+02 -0.16894137438E+03  0.25366637654E+03  0.12508737107E+03 0.  0.
          5    1    3    3  502    0 -0.89967444482E+02  0.14162192958E+02 -0.53388730578E+02  0.10565291160E+03  0.41800000000E+01 0. -1.
         -5    1    3    3    0  502 -0.32121501467E+02 -0.86638958078E+02 -0.11555264380E+03  0.14801346494E+03  0.41800000000E+01 0. -1.
        -11    1    1    2    0    0  0.63379415891E+02  0.77597658920E+01 -0.95287721368E+02  0.11470359266E+03  0.00000000000E+00 0.  1.
         11    1    1    2    0    0  0.58709530059E+02  0.64716999228E+02 -0.32812403259E+03  0.33955924324E+03  0.00000000000E+00 0. -1.
</event>
<event>
 7    1  0.2733606E-009  0.1196461E+03  0.7561462E-02  0.1243682E+00
         -4   -1    0    0    0  501 -0.00000000000E+00  0.00000000000E+00  0.91174743564E+02  0.91174743564E+02  0.00000000000E+00 0.  1.
          4   -1    0    0  501    0  0.00000000000E+00 -0.00000000000E+00 -0.22706417854E+03  0.22706417854E+03  0.00000000000E+00 0. -1.
         25    2    1    2    0    0  0.62394684766E+02  0.17504681755E+02  0.16531581600E+01  0.14088846711E+03  0.12508923480E+03 0.  0.
          5    1    3    3  502    0  0.98259856613E+02  0.12681052684E+02 -0.15936727223E+02  0.10043535330E+03  0.41800000000E+01 0. -1.
         -5    1    3    3    0  502 -0.35865171847E+02  0.48236290706E+01  0.17589885383E+02  0.40453113809E+02  0.41800000000E+01 0. -1.
        -11    1    1    2    0    0 -0.25831415280E+02  0.32650323076E+02 -0.90012355788E+02  0.99174239633E+02  0.00000000000E+00 0. -1.
         11    1    1    2    0    0 -0.36563269486E+02 -0.50155004831E+02 -0.47530237345E+02  0.78176215354E+02  0.00000000000E+00 0.  1.
</event>
<event>
 7    1  0.2733606E-009  0.8180086E+02  0.7561462E-02  0.1324017E+00
         -2   -1    0    0    0  501 -0.00000000000E+00  0.00000000000E+00  0.59870137982E+02  0.59870137982E+02  0.00000000000E+00 0. -1.
          2   -1    0    0  501    0  0.00000000000E+00 -0.00000000000E+00 -0.20621345357E+03  0.20621345357E+03  0.00000000000E+00 0.  1.
         25    2    1    2    0    0  0.10392622842E+02 -0.61557876841E+01 -0.13096745559E+03  0.18150864487E+03  0.12508802263E+03 0.  0.
          5    1    3    3  502    0  0.45711395881E+02  0.37056743235E+02 -0.30275488758E+02  0.66308457621E+02  0.41800000000E+01 0.  1.
         -5    1    3    3    0  502 -0.35318773039E+02 -0.43212530919E+02 -0.10069196683E+03  0.11520018724E+03  0.41800000000E+01 0.  1.
        -11    1    1    2    0    0 -0.62920329971E+01 -0.20617788997E+02  0.26835183686E+02  0.34421068923E+02  0.00000000000E+00 0. -1.
         11    1    1    2    0    0 -0.41005898446E+01  0.26773576681E+02 -0.42211043690E+02  0.50153877764E+02  0.00000000000E+00 0.  1.
</event>
<event>
 7    1  0.2733606E-009  0.6314429E+02  0.7561462E-02  0.1385091E+00
         -1   -1    0    0    0  501 -0.00000000000E+00  0.00000000000E+00  0.35529371302E+03  0.35529371302E+03  0.00000000000E+00 0.  1.
          1   -1    0    0  501    0  0.00000000000E+00 -0.00000000000E+00 -0.36758623194E+02  0.36758623194E+02  0.00000000000E+00 0. -1.
         25    2    1    2    0    0 -0.21540863392E+02 -0.27157171329E+02  0.21202587517E+03  0.24859867842E+03  0.12507921659E+03 0.  0.
          5    1    3    3  502    0  0.10602120666E+02 -0.34794991589E+02  0.27797124962E+01  0.36719144923E+02  0.41800000000E+01 0.  1.
         -5    1    3    3    0  502 -0.32142984058E+02  0.76378202601E+01  0.20924616268E+03  0.21187953350E+03  0.41800000000E+01 0.  1.
        -11    1    1    2    0    0  0.35368801323E+02  0.17170910693E+02  0.11699967815E+03  0.12342899566E+03  0.00000000000E+00 0.  1.
         11    1    1    2    0    0 -0.13827937931E+02  0.99862606358E+01 -0.10490463501E+02  0.20024662129E+02  0.00000000000E+00 0. -1.
</event>
<event>
 7    1  0.2733606E-009  0.8140699E+02  0.7561462E-02  0.1325105E+00
          2   -1    0    0  501    0  0.00000000000E+00  0.00000000000E+00  0.51656287276E+03  0.51656287276E+03  0.00000000000E+00 0. -1.
         -2   -1    0    0    0  501 -0.00000000000E+00 -0.00000000000E+00 -0.28365973695E+02  0.28365973695E+02  0.00000000000E+00 0.  1.
         25    2    1    2    0    0 -0.24243380541E+01  0.34161513324E+02  0.37588437429E+03  0.39762836061E+03  0.12508542647E+03 0.  0.
          5    1    3    3  502    0 -0.43424758476E+02  0.24134410760E+02  0.56137148430E+02  0.75080165591E+02  0.41800000000E+01 0. -1.
         -5    1    3    3    0  502  0.41000420422E+02  0.10027102564E+02  0.31974722586E+03  0.32254819502E+03  0.41800000000E+01 0. -1.
        -11    1    1    2    0    0 -0.67170185043E+01 -0.50969095869E+02  0.11683066505E+03  0.12764157382E+03  0.00000000000E+00 0. -1.
         11    1    1    2    0    0  0.91413565585E+01  0.16807582546E+02 -0.45181402734E+01  0.19658912032E+02  0.00000000000E+00 0.  1.
</event>
<event>
 7    1  0.2733606E-009  0.1291267E+03  0.7561462E-02  0.1228757E+00
          1   -1    0    0  501    0  0.00000000000E+00  0.00000000000E+00  0.19555513292E+04  0.19555513292E+04  0.00000000000E+00 0. -1.
         -1   -1    0    0    0  501 -0.00000000000E+00 -0.00000000000E+00 -0.10856303384E+02  0.10856303384E+02  0.00000000000E+00 0.  1.
         25    2    1    2    0    0 -0.83176122136E+02  0.43837905670E+02  0.12156782669E+04  0.12257083434E+04  0.12508902981E+03 0.  0.
          5    1    3    3  502    0 -0.95085207633E+02  0.15215942903E+02  0.49188964240E+03  0.50124406663E+03  0.41800000000E+01 0. -1.
         -5    1    3    3    0  502  0.11909085497E+02  0.28621962767E+02  0.72378862445E+03  0.72446427680E+03  0.41800000000E+01 0. -1.
        -11    1    1    2    0    0  0.48535755497E+02  0.24202632871E+02  0.27304160162E+03  0.27837601048E+03  0.00000000000E+00 0. -1.
         11    1    1    2    0    0  0.34640366639E+02 -0.68040538542E+02  0.45597515733E+03  0.46232327866E+03  0.00000000000E+00 0.  1.
</event>
<event>
 7    1  0.2733606E-009  0.1410995E+03  0.7561462E-02  0.1211857E+00
          4   -1    0    0  501    0  0.00000000000E+00  0.00000000000E+00  0.15022970900E+03  0.15022970900E+03  0.00000000000E+00 0.  1.
         -4   -1    0    0    0  501 -0.00000000000E+00 -0.00000000000E+00 -0.13962694959E+03  0.13962694959E+03  0.00000000000E+00 0. -1.
         25    2    1    2    0    0  0.58281706475E+02  0.67251361618E+02  0.14239979316E+02  0.15417702242E+03  0.12509306248E+03 0.  0.
          5    1    3    3  502    0  0.79222792858E+02  0.27718056709E+01 -0.14018425574E+02  0.80609692162E+02  0.41800000000E+01 0. -1.
         -5    1    3    3    0  502 -0.20941086382E+02  0.64479555947E+02  0.28258404891E+02  0.73567330256E+02  0.41800000000E+01 0. -1.
        -11    1    1    2    0    0  0.52868750368E+01 -0.71017459688E+02 -0.89700544007E+01  0.71776684962E+02  0.00000000000E+00 0. -1.
         11    1    1    2    0    0 -0.63568581512E+02  0.37660980696E+01  0.53328344884E+01  0.63902951214E+02  0.00000000000E+00 0.  1.
</event>
<event>
 7    1  0.2733606E-009  0.1343346E+03  0.7561462E-02  0.1221162E+00
         -2   -1    0    0    0  501 -0.00000000000E+00  0.00000000000E+00  0.21739435252E+03  0.21739435252E+03  0.00000000000E+00 0.  1.
          2   -1    0    0  501    0  0.00000000000E+00 -0.00000000000E+00 -0.13056501421E+03  0.13056501421E+03  0.00000000000E+00 0. -1.
         25    2    1    2    0    0  0.10687275218E+03  0.51442439251E+01 -0.27386267520E+02  0.16687107600E+03  0.12509076686E+03 0.  0.
          5    1    3    3  502    0 -0.10295782534E+02 -0.35428819008E+02  0.77414392097E+01  0.37928968287E+02  0.41800000000E+01 0. -1.
         -5    1    3    3    0  502  0.11716853471E+03  0.40573062933E+02 -0.35127706730E+02  0.12894210772E+03  0.41800000000E+01 0. -1.
        -11    1    1    2    0    0 -0.34888441326E+02 -0.64391603330E+01  0.10208940821E+03  0.10807827438E+03  0.00000000000E+00 0.  1.
         11    1    1    2    0    0 -0.71984310852E+02  0.12949164079E+01  0.12126197623E+02  0.73010016341E+02  0.00000000000E+00 0. -1.
</event>
<event>
 7    1  0.2733606E-009  0.9761479E+02  0.7561462E-02  0.1285393E+00
          2   -1    0    0  501    0  0.00000000000E+00  0.00000000000E+00  0.19460077540E+03  0.19460077540E+03  0.00000000000E+00 0. -1.
         -2   -1    0    0    0  501 -0.00000000000E+00 -0.00000000000E+00 -0.70804994419E+02  0.70804994419E+02  0.00000000000E+00 0.  1.
         25    2    1    2    0    0  0.33372164221E+02  0.24312897046E+02  0.84511357093E+02  0.15650665106E+03  0.12508934423E+03 0.  0.
          5    1    3    3  502    0  0.12811198314E+02 -0.47374546999E+02  0.85825095644E+01  0.49996063605E+02  0.41800000000E+01 0.  1.
         -5    1    3    3    0  502  0.20560965907E+02  0.71687444045E+02  0.75928847528E+02  0.10651058745E+03  0.41800000000E+01 0.  1.
        -11    1    1    2    0    0  0.15649077028E+02 -0.14402366457E+02 -0.21461057211E+02  0.30214214337E+02  0.00000000000E+00 0.  1.
         11    1    1    2    0    0 -0.49021241249E+02 -0.99105305889E+01  0.60745481100E+02  0.78684904424E+02  0.00000000000E+00 0. -1.
</event>
<event>
 7    1  0.2733606E-009  0.1134440E+03  0.7561462E-02  0.1254322E+00
         -1   -1    0    0    0  501 -0.00000000000E+00  0.00000000000E+00  0.90660817885E+02  0.90660817885E+02  0.00000000000E+00 0.  1.
          1   -1    0    0  501    0  0.00000000000E+00 -0.00000000000E+00 -0.22813360033E+03  0.22813360033E+03  0.00000000000E+00 0. -1.
         25    2    1    2    0    0 -0.68077560838E+02 -0.45859527736E+02 -0.30970603346E+02  0.15279000489E+03  0.12509179329E+03 0.  0.
          5    1    3    3  502    0 -0.95305653808E+02 -0.51854517129E+02 -0.49211914126E+02  0.11921133959E+03  0.41800000000E+01 0. -1.
         -5    1    3    3    0  502  0.27228092970E+02  0.59949893931E+01  0.18241310781E+02  0.33578665304E+02  0.41800000000E+01 0. -1.
        -11    1    1    2    0    0  0.23183409408E+02  0.38037823851E+02 -0.11158820176E+03  0.12015104364E+03  0.00000000000E+00 0. -1.
         11    1    1    2    0    0  0.44894151430E+02  0.78217038846E+01  0.50860226682E+01  0.45853369679E+02  0.00000000000E+00 0.  1.
</event>
<event>
 7    1  0.2733606E-009  0.1231414E+03  0.7561462E-02  0.1238003E+00
         -2   -1    0    0    0  501 -0.00000000000E+00  0.00000000000E+00  0.11070798868E+03  0.11070798868E+03  0.00000000000E+00 0.  1.
          2   -1    0    0  501    0  0.00000000000E+00 -0.00000000000E+00 -0.16069429605E+03  0.16069429605E+03  0.00000000000E+00 0. -1.
         25    2    1    2    0    0  0.27758131906E+02  0.82718620890E+02 -0.20568256133E+02  0.15388900303E+03  0.12508352395E+03 0.  0.
          5    1    3    3  502    0  0.76514973642E+02  0.41093155394E+02 -0.18452130012E+01  0.86971638036E+02  0.41800000000E+01 0.  1.
         -5    1    3    3    0  502 -0.48756841736E+02  0.41625465496E+02 -0.18723043132E+02  0.66917364996E+02  0.41800000000E+01 0.  1.
        -11    1    1    2    0    0 -0.20937287605E+02 -0.12187970557E+02 -0.39098139557E+02  0.45995447116E+02  0.00000000000E+00 0. -1.
         11    1    1    2    0    0 -0.68208443015E+01 -0.70530650333E+02  0.96800883138E+01  0.71517834581E+02  0.00000000000E+00 0.  1.
</event>
<event>
 7    1  0.2733606E-009  0.5952407E+02  0.7561462E-02  0.1399840E+00
          3   -1    0    0  501    0  0.00000000000E+00  0.00000000000E+00  0.17538721803E+03  0.17538721803E+03  0.00000000000E+00 0. -1.
         -3   -1    0    0    0  501 -0.00000000000E+00 -0.00000000000E+00 -0.15635021452E+03  0.15635021452E+03  0.00000000000E+00 0.  1.
         25    2    1    2    0    0  0.17197844973E+02 -0.82022930019E+01 -0.11350371725E+03  0.16998119904E+03  0.12508985057E+03 0.  0.
          5    1    3    3  502    0  0.13179339003E+02  0.18534510884E+02  0.21895858205E+02  0.31845314833E+02  0.41800000000E+01 0.  1.
         -5    1    3    3    0  502  0.40185059700E+01 -0.26736803886E+02 -0.13539957545E+03  0.13813588420E+03  0.41800000000E+01 0.  1.
        -11    1    1    2    0    0  0.20712849010E+02 -0.13652310809E+02  0.10955315586E+03  0.11232676290E+03  0.00000000000E+00 0. -1.
         11    1    1    2    0    0 -0.37910693984E+02  0.21854603811E+02  0.22987564891E+02  0.49429470619E+02  0.00000000000E+00 0.  1.
</event>
<event>
 7    1  0.2733606E-009  0.1347801E+03  0.7561462E-02  0.1220530E+00
          4   -1    0    0  501    0  0.00000000000E+00  0.00000000000E+00  0.12458885387E+03  0.12458885387E+03  0.00000000000E+00 0. -1.
         -4   -1    0    0    0  501 -0.00000000000E+00 -0.00000000000E+00 -0.16190087522E+03  0.16190087522E+03  0.00000000000E+00 0.  1.
         25    2    1    2    0    0  0.88726484115E+02  0.19502747753E+02 -0.11383237389E+02  0.15502331904E+03  0.12509958113E+03 0.  0.
          5    1    3    3  502    0  0.19992197509E+02  0.66275778467E+02  0.72181230315E+01  0.69726182118E+02  0.41800000000E+01 0. -1.
         -5    1    3    3    0  502  0.68734286606E+02 -0.46773030714E+02 -0.18601360421E+02  0.85297136921E+02  0.41800000000E+01 0. -1.
        -11    1    1    2    0    0 -0.31319535010E+02 -0.44446299792E+02  0.15338686344E+02  0.56494797435E+02  0.00000000000E+00 0. -1.
         11    1    1    2    0    0 -0.57406949105E+02  0.24943552039E+02 -0.41267470304E+02  0.74971612622E+02  0.00000000000E+00 0.  1.
</event>
<event>
 7    1  0.2733606E-009  0.1063314E+03  0.7561462E-02  0.1267518E+00
          1   -1    0    0  501    0  0.00000000000E+00  0.00000000000E+00  0.26447171325E+03  0.26447171325E+03  0.00000000000E+00 0. -1.
         -1   -1    0    0    0  501 -0.00000000000E+00 -0.00000000000E+00 -0.78725778567E+02  0.78725778567E+02  0.00000000000E+00 0.  1.
         25    2    1    2    0    0 -0.25365505206E+02  0.70434680216E+02  0.59728785434E+02  0.15754426019E+03  0.12509281785E+03 0.  0.
          5    1    3    3  502    0 -0.46707898150E+02  0.47674972929E+02  0.91160868903E+02  0.11305886614E+03  0.41800000000E+01 0.  1.
         -5    1    3    3    0  502  0.21342392944E+02  0.22759707287E+02 -0.31432083469E+02  0.44485394048E+02  0.41800000000E+01 0.  1.
        -11    1    1    2    0    0  0.44503179906E+02 -0.34405659860E+01  0.10303302334E+03  0.11228612744E+03  0.00000000000E+00 0. -1.
         11    1    1    2    0    0 -0.19137674700E+02 -0.66994114230E+02  0.22984125912E+02  0.73367104197E+02  0.00000000000E+00 0.  1.
</event>
<event>
 7    1  0.2733606E-009  0.1430124E+03  0.7561462E-02  0.1209332E+00
         -2   -1    0    0    0  501 -0.00000000000E+00  0.00000000000E+00  0.25152349119E+02  0.25152349119E+02  0.00000000000E+00 0.  1.
          2   -1    0    0  501    0  0.00000000000E+00 -0.00000000000E+00 -0.12167616197E+04  0.12167616197E+04  0.00000000000E+00 0. -1.
         25    2    1    2    0    0  0.34789005644E+02 -0.10875960386E+03 -0.90053182428E+03  0.91632112436E+03  0.12509160672E+03 0.  0.
          5    1    3    3  502    0 -0.43477932584E+02 -0.51283921395E+02 -0.26645050736E+03  0.27483397986E+03  0.41800000000E+01 0. -1.
         -5    1    3    3    0  502  0.78266938228E+02 -0.57475682462E+02 -0.63408131692E+03  0.64148714450E+03  0.41800000000E+01 0. -1.
        -11    1    1    2    0    0  0.82034842386E+01  0.36282259565E+02 -0.19179399004E+03  0.19536794549E+03  0.00000000000E+00 0. -1.
         11    1    1    2    0    0 -0.42992489883E+02  0.72477344292E+02 -0.99283456283E+02  0.13022489898E+03  0.00000000000E+00 0.  1.
</event>
<event>
 7    1  0.2733606E-009  0.8460727E+02  0.7561462E-02  0.1316463E+00
          1   -1    0    0  501    0  0.00000000000E+00  0.00000000000E+00  0.16775126416E+03  0.16775126416E+03  0.00000000000E+00 0. -1.
         -1   -1    0    0    0  501 -0.00000000000E+00 -0.00000000000E+00 -0.78400714339E+02  0.78400714339E+02  0.00000000000E+00 0.  1.
         25    2    1    2    0    0 -0.10813306392E+02 -0.10114515342E+02  0.12721663477E+02  0.12661315980E+03  0.12509924259E+03 0.  0.
          5    1    3    3  502    0  0.19759201245E+02  0.31712698698E+02  0.50065708853E+02  0.62611252148E+02  0.41800000000E+01 0. -1.
         -5    1    3    3    0  502 -0.30572507637E+02 -0.41827214040E+02 -0.37344045376E+02  0.64001907648E+02  0.41800000000E+01 0. -1.
        -11    1    1    2    0    0  0.44903559617E+02  0.56123412203E+01  0.71721013260E+02  0.84804078813E+02  0.00000000000E+00 0.  1.
         11    1    1    2    0    0 -0.34090253225E+02  0.45021741218E+01  0.49078730791E+01  0.34734739886E+02  0.00000000000E+00 0. -1.
</event>
<event>
 7    1  0.2733606E-009  0.1510184E+03  0.7561462E-02  0.1199227E+00
          4   -1    0    0  501    0  0.00000000000E+00  0.00000000000E+00  0.31354971028E+03  0.31354971028E+03  0.00000000000E+00 0. -1.
         -4   -1    0    0    0  501 -0.00000000000E+00 -0.00000000000E+00 -0.10993618632E+03  0.10993618632E+03  0.00000000000E+00 0.  1.
         25    2    1    2    0    0  0.91485609640E+02 -0.55352427828E+02  0.22828886853E+03  0.28141952828E+03  0.12509050869E+03 0.  0.
          5    1    3    3  502    0 -0.11070225596E+02  0.28852318862E+02  0.53533873562E+02  0.61954452762E+02  0.41800000000E+01 0.  1.
         -5    1    3    3    0  502  0.10255583524E+03 -0.84204746690E+02  0.17475499496E+03  0.21946507551E+03  0.41800000000E+01 0.  1.
        -11    1    1    2    0    0 -0.95982712684E+02  0.72548674126E+02 -0.13501531579E+02  0.12107139467E+03  0.00000000000E+00 0. -1.
         11    1    1    2    0    0  0.44971030441E+01 -0.17196246298E+02 -0.11173812986E+02  0.20994973664E+02  0.00000000000E+00 0.  1.
</event>
<event>
 7    1  0.2733606E-009  0.7227865E+02  0.7561462E-02  0.1352511E+00
         -2   -1    0    0    0  501 -0.00000000000E+00  0.00000000000E+00  0.18554948705E+03  0.18554948705E+03  0.00000000000E+00 0.  1.
          2   -1    0    0  501    0  0.00000000000E+00 -0.00000000000E+00 -0.75657214234E+02  0.75657214234E+02  0.00000000000E+00 0. -1.
         25    2    1    2    0    0 -0.13662099640E+02  0.32257190813E+02  0.98073839970E+02  0.16276940228E+03  0.12509284915E+03 0.  0.
          5    1    3    3  502    0 -0.28416890761E+02 -0.53495458622E+01  0.11508620859E+03  0.11873687351E+03  0.41800000000E+01 0.  1.
         -5    1    3    3    0  502  0.14754791121E+02  0.37606736675E+02 -0.17012368624E+02  0.44032528777E+02  0.41800000000E+01 0.  1.
        -11    1    1    2    0    0  0.10989109567E+02  0.19776767920E+02 -0.25694135885E+02  0.34235503462E+02  0.00000000000E+00 0. -1.
         11    1    1    2    0    0  0.26729900729E+01 -0.52033958733E+02  0.37512568726E+02  0.64201795534E+02  0.00000000000E+00 0.  1.
</event>
<event>
 7    1  0.2733606E-009  0.1045792E+03  0.7561462E-02  0.1270951E+00
         -3   -1    0    0    0  501 -0.00000000000E+00  0.00000000000E+00  0.19503178752E+03  0.19503178752E+03  0.00000000000E+00 0.  1.
          3   -1    0    0  501    0  0.00000000000E+00 -0.00000000000E+00 -0.63275064164E+02  0.63275064164E+02  0.00000000000E+00 0. -1.
         25    2    1    2    0    0  0.16469813469E+00 -0.22787032285E+02  0.91957239238E+02  0.15691636985E+03  0.12508931734E+03 0.  0.
          5    1    3    3  502    0  0.48496779551E+02  0.19140819700E+02  0.10667039767E+02  0.53381333282E+02  0.41800000000E+01 0. -1.
         -5    1    3    3    0  502 -0.48332081416E+02 -0.41927851985E+02  0.81290199471E+02  0.10353503656E+03  0.41800000000E+01 0. -1.
        -11    1    1    2    0    0  0.79370893869E+01  0.57012407249E+02  0.19466266137E+02  0.60764689463E+02  0.00000000000E+00 0.  1.
         11    1    1    2    0    0 -0.81017875216E+01 -0.34225374964E+02  0.20333217977E+02  0.40625792371E+02  0.00000000000E+00 0. -1.
</event>
<event>
 7    1  0.2733606E-009  0.1212553E+03  0.7561462E-02  0.1241040E+00
         -1   -1    0    0    0  501 -0.00000000000E+00  0.00000000000E+00  0.39337921242E+02  0.39337921242E+02  0.00000000000E+00 0.  1.
          1   -1    0    0  501    0  0.00000000000E+00 -0.00000000000E+00 -0.50624934689E+03  0.50624934689E+03  0.00000000000E+00 0. -1.
         25    2    1    2    0    0  0.87468923387E+02 -0.15989435439E+02 -0.25041478837E+03  0.29370458204E+03  0.12509332784E+03 0.  0.
          5    1    3    3  502    0  0.94356143847E+02 -0.57305293383E+02 -0.16638241433E+03  0.19971869900E+03  0.41800000000E+01 0.  1.
         -5    1    3    3    0  502 -0.68872204601E+01  0.41315857944E+02 -0.84032374044E+02  0.93985883040E+02  0.41800000000E+01 0.  1.
        -11    1    1    2    0    0 -0.12213412534E+02  0.71951447351E+01  0.70595480892E+01  0.15835869812E+02  0.00000000000E+00 0.  1.
         11    1    1    2    0    0 -0.75255510853E+02  0.87942907040E+01 -0.22355618537E+03  0.23604681628E+03  0.00000000000E+00 0. -1.
</event>
<event>
 7    1  0.2733606E-009  0.8708395E+02  0.7561462E-02  0.1310071E+00
          1   -1    0    0  501    0  0.00000000000E+00  0.00000000000E+00  0.65598371226E+02  0.65598371226E+02  0.00000000000E+00 0. -1.
         -1   -1    0    0    0  501 -0.00000000000E+00 -0.00000000000E+00 -0.21724632106E+03  0.21724632106E+03  0.00000000000E+00 0.  1.
         25    2    1    2    0    0 -0.23882533501E+02  0.89482579550E+01 -0.34261649565E+02  0.13217964515E+03  0.12508857355E+03 0.  0.
          5    1    3    3  502    0  0.26304707048E+02 -0.39434723249E+02 -0.39920720125E+02  0.62114179588E+02  0.41800000000E+01 0. -1.
         -5    1    3    3    0  502 -0.50187240549E+02  0.48382981204E+02  0.56590705603E+01  0.70065465557E+02  0.41800000000E+01 0. -1.
        -11    1    1    2    0    0  0.24427256985E+02  0.17652584538E+02  0.16681092149E+00  0.30138554221E+02  0.00000000000E+00 0. -1.
         11    1    1    2    0    0 -0.54472348382E+00 -0.26600842493E+02 -0.11755311119E+03  0.12052649292E+03  0.00000000000E+00 0.  1.
</event>
<event>
 7    1  0.2733606E-009  0.1315087E+03  0.7561462E-02  0.1225234E+00
         -1   -1    0    0    0  501 -0.00000000000E+00  0.00000000000E+00  0.40097407575E+02  0.40097407575E+02  0.00000000000E+00 0.  1.
          1   -1    0    0  501    0  0.00000000000E+00 -0.00000000000E+00 -0.46646656463E+03  0.46646656463E+03  0.00000000000E+00 0. -1.
         25    2    1    2    0    0 -0.47768479676E+02 -0.65745684193E+02 -0.26357097532E+03  0.30285878387E+03  0.12509780692E+03 0.  0.
          5    1    3    3  502    0  0.35396612304E+02 -0.44221233273E+02 -0.64143019436E+02  0.85675182971E+02  0.41800000000E+01 0. -1.
         -5    1    3    3    0  502 -0.83165091980E+02 -0.21524450920E+02 -0.19942795588E+03  0.21718360090E+03  0.41800000000E+01 0. -1.
        -11    1    1    2    0    0  0.68984639095E+02  0.70321900845E+02 -0.11645482399E+03  0.15253123024E+03  0.00000000000E+00 0.  1.
         11    1    1    2    0    0 -0.21216159419E+02 -0.45762166528E+01 -0.46343357755E+02  0.51173958097E+02  0.00000000000E+00 0. -1.
</event>
<event>
 7    1  0.2733606E-009  0.1219757E+03  0.7561462E-02  0.1239873E+00
          2   -1    0    0  501    0  0.00000000000E+00  0.00000000000E+00  0.67300421630E+03  0.67300421630E+03  0.00000000000E+00 0. -1.
         -2   -1    0    0    0  501 -0.00000000000E+00 -0.00000000000E+00 -0.32596818295E+02  0.32596818295E+02  0.00000000000E+00 0.  1.
         25    2    1    2    0    0  0.88541102714E+02 -0.89258762254E+01  0.46189630872E+03  0.48673697925E+03  0.12508192844E+03 0.  0.
          5    1    3    3  502    0 -0.28993084833E+02 -0.18060913709E+02  0.13092599093E+03  0.13537312537E+03  0.41800000000E+01 0. -1.
         -5    1    3    3    0  502  0.11753418755E+03  0.91350374833E+01  0.33097031779E+03  0.35136385388E+03  0.41800000000E+01 0. -1.
        -11    1    1    2    0    0 -0.78692052307E+02  0.62422870494E+00  0.18737392721E+03  0.20322848559E+03  0.00000000000E+00 0. -1.
         11    1    1    2    0    0 -0.98490504070E+01  0.83016475204E+01 -0.88628379258E+01  0.15635569755E+02  0.00000000000E+00 0.  1.
</event>
<event>
 7    1  0.2733606E-009  0.1264142E+03  0.7561462E-02  0.1232876E+00
          1   -1    0    0  501    0  0.00000000000E+00  0.00000000000E+00  0.19002728485E+03  0.19002728485E+03  0.00000000000E+00 0. -1.
         -1   -1    0    0    0  501 -0.00000000000E+00 -0.00000000000E+00 -0.96322556126E+02  0.96322556126E+02  0.00000000000E+00 0.  1.
         25    2    1    2    0    0 -0.16895437411E+02  0.72111863454E+02  0.31910177093E+02  0.14883225194E+03  0.12508878110E+03 0.  0.
          5    1    3    3  502    0  0.42309286097E+02  0.69852500731E+02  0.35892250673E+02  0.89303827503E+02  0.41800000000E+01 0.  1.
         -5    1    3    3    0  502 -0.59204723508E+02  0.22593627232E+01 -0.39820735792E+01  0.59528424434E+02  0.41800000000E+01 0.  1.
        -11    1    1    2    0    0  0.32669732377E+02  0.49121503390E+01 -0.61496474643E+01  0.33604446112E+02  0.00000000000E+00 0.  1.
         11    1    1    2    0    0 -0.15774294966E+02 -0.77024013793E+02  0.67944199099E+02  0.10391314293E+03  0.00000000000E+00 0. -1.
</event>
<event>
 7    1  0.2733606E-009  0.1256895E+03  0.7561462E-02  0.1233996E+00
          1   -1    0    0  501    0  0.00000000000E+00  0.00000000000E+00  0.23096693563E+03  0.23096693563E+03  0.00000000000E+00 0. -1.
         -1   -1    0    0    0  501 -0.00000000000E+00 -0.00000000000E+00 -0.10870222835E+03  0.10870222835E+03  0.00000000000E+00 0.  1.
         25    2    1    2    0    0 -0.83041901704E+02  0.58493139556E+02  0.88502911210E+01  0.16137657641E+03  0.12508663777E+03 0.  0.
          5    1    3    3  502    0 -0.63005083849E+02  0.11691428619E+02  0.60861723977E+02  0.88475713839E+02  0.41800000000E+01 0. -1.
         -5    1    3    3    0  502 -0.20036817855E+02  0.46801710937E+02 -0.52011432856E+02  0.72900862575E+02  0.41800000000E+01 0. -1.
        -11    1    1    2    0    0  0.10080196638E+03 -0.35161617853E+02  0.77469387438E+02  0.13190482094E+03  0.00000000000E+00 0.  1.
         11    1    1    2    0    0 -0.17760064679E+02 -0.23331521704E+02  0.35945028726E+02  0.46387766626E+02  0.00000000000E+00 0. -1.
</event>
<event>
 7    1  0.2733606E-009  0.1888185E+03  0.7561462E-02  0.1159531E+00
         -2   -1    0    0    0  501 -0.00000000000E+00  0.00000000000E+00  0.41881487715E+02  0.41881487715E+02  0.00000000000E+00 0.  1.
          2   -1    0    0  501    0  0.00000000000E+00 -0.00000000000E+00 -0.10799514666E+04  0.10799514666E+04  0.00000000000E+00 0. -1.
         25    2    1    2    0    0  0.59408379335E+02 -0.15323321726E+03 -0.33538273139E+03  0.39387654224E+03  0.12508948639E+03 0.  0.
          5    1    3    3  502    0 -0.97741359716E+01 -0.99027582796E+02 -0.93974095069E+02  0.13693282599E+03  0.41800000000E+01 0.  1.
         -5    1    3    3    0  502  0.69182515306E+02 -0.54205634467E+02 -0.24140863633E+03  0.25694371626E+03  0.41800000000E+01 0.  1.
        -11    1    1    2    0    0 -0.13329890132E+02  0.14199980007E+03 -0.51789593581E+03  0.53717579014E+03  0.00000000000E+00 0.  1.
         11    1    1    2    0    0 -0.46078489203E+02  0.11233417190E+02 -0.18479131168E+03  0.19078062192E+03  0.00000000000E+00 0. -1.
</event>
<event>
 7    1  0.2733606E-009  0.1681437E+03  0.7561462E-02  0.1179798E+00
         -1   -1    0    0    0  501 -0.00000000000E+00  0.00000000000E+00  0.28730295508E+03  0.28730295508E+03  0.00000000000E+00 0.  1.
          1   -1    0    0  501    0  0.00000000000E+00 -0.00000000000E+00 -0.10666290945E+03  0.10666290945E+03  0.00000000000E+00 0. -1.
         25    2    1    2    0    0  0.11444004889E+03  0.70364619193E+02  0.67775584505E+02  0.19567537130E+03  0.12509043390E+03 0.  0.
          5    1    3    3  502    0 -0.70316326122E+01 -0.23668696790E+02 -0.51676242135E+01  0.25570056803E+02  0.41800000000E+01 0.  1.
         -5    1    3    3    0  502  0.12147168150E+03  0.94033315983E+02  0.72943208718E+02  0.17010531450E+03  0.41800000000E+01 0.  1.
        -11    1    1    2    0    0 -0.93707860441E+02 -0.89337530385E+02  0.70409272367E+02  0.14737646718E+03  0.00000000000E+00 0. -1.
         11    1    1    2    0    0 -0.20732188447E+02  0.18972911191E+02  0.42455188754E+02  0.50914026054E+02  0.00000000000E+00 0.  1.
</event>
<event>
 7    1  0.2733606E-009  0.1735784E+03  0.7561462E-02  0.1174167E+00
         -2   -1    0    0    0  501 -0.00000000000E+00  0.00000000000E+00  0.17983197843E+02  0.17983197843E+02  0.00000000000E+00 0.  1.
          2   -1    0    0  501    0  0.00000000000E+00 -0.00000000000E+00 -0.18219728176E+04  0.18219728176E+04  0.00000000000E+00 0. -1.
         25    2    1    2    0    0  0.45593420272E+02 -0.13524116031E+03 -0.10746291063E+04  0.10912580302E+04  0.12508973184E+03 0.  0.
          5    1    3    3  502    0  0.20103324865E+02  0.20400784723E+02 -0.25017040954E+03  0.25183931762E+03  0.41800000000E+01 0. -1.
         -5    1    3    3    0  502  0.25490095408E+02 -0.15564194503E+03 -0.82445869677E+03  0.83941871262E+03  0.41800000000E+01 0. -1.
        -11    1    1    2    0    0 -0.58817604663E+02  0.13495326916E+03 -0.71093134205E+03  0.72601327026E+03  0.00000000000E+00 0. -1.
         11    1    1    2    0    0  0.13224184391E+02  0.28789114366E+00 -0.18429171397E+02  0.22684714953E+02  0.00000000000E+00 0.  1.
</event>
<event>
 7    1  0.2733606E-009  0.2543663E+03  0.7561462E-02  0.1110576E+00
          1   -1    0    0  501    0  0.00000000000E+00  0.00000000000E+00  0.41790352803E+03  0.41790352803E+03  0.00000000000E+00 0.  1.
         -1   -1    0    0    0  501 -0.00000000000E+00 -0.00000000000E+00 -0.24836087627E+03  0.24836087627E+03  0.00000000000E+00 0. -1.
         25    2    1    2    0    0 -0.20120429862E+03  0.14053148928E+03 -0.96867306280E+02  0.29199998725E+03  0.12509375791E+03 0.  0.
          5    1    3    3  502    0 -0.99900257069E+02  0.24906336368E+02 -0.92004810609E+02  0.13814030740E+03  0.41800000000E+01 0. -1.
         -5    1    3    3    0  502 -0.10130404155E+03  0.11562515291E+03 -0.48624956705E+01  0.15385967985E+03  0.41800000000E+01 0. -1.
        -11    1    1    2    0    0  0.13617020235E+03 -0.61104943965E+02  0.10320484488E+03  0.18145902620E+03  0.00000000000E+00 0. -1.
         11    1    1    2    0    0  0.65034096272E+02 -0.79426545313E+02  0.16320511316E+03  0.19280539085E+03  0.00000000000E+00 0.  1.
</event>
<event>
 7    1  0.2733606E-009  0.1556594E+03  0.7561462E-02  0.1193686E+00
          2   -1    0    0  501    0  0.00000000000E+00  0.00000000000E+00  0.17971639813E+03  0.17971639813E+03  0.00000000000E+00 0. -1.
         -2   -1    0    0    0  501 -0.00000000000E+00 -0.00000000000E+00 -0.19171684907E+03  0.19171684907E+03  0.00000000000E+00 0.  1.
         25    2    1    2    0    0 -0.13455330736E+03 -0.60699032199E+02  0.15042005168E+00  0.19348525995E+03  0.12509020009E+03 0.  0.
          5    1    3    3  502    0 -0.52726340066E+02 -0.62328385292E+02 -0.51500689638E+02  0.96616189031E+02  0.41800000000E+01 0. -1.
         -5    1    3    3    0  502 -0.81826967297E+02  0.16293530925E+01  0.51651109689E+02  0.96869070919E+02  0.41800000000E+01 0. -1.
        -11    1    1    2    0    0  0.11227444564E+03  0.49867235304E+02  0.32330497772E+02  0.12703367029E+03  0.00000000000E+00 0. -1.
         11    1    1    2    0    0  0.22278861720E+02  0.10831796895E+02 -0.44481368770E+02  0.50914316957E+02  0.00000000000E+00 0.  1.
</event>
<event>
 7    1  0.2733606E-009  0.1121861E+03  0.7561462E-02  0.1256574E+00
         -2   -1    0    0    0  501 -0.00000000000E+00  0.00000000000E+00  0.32261629611E+03  0.32261629611E+03  0.00000000000E+00 0.  1.
          2   -1    0    0  501    0  0.00000000000E+00 -0.00000000000E+00 -0.55474152722E+02  0.55474152722E+02  0.00000000000E+00 0. -1.
         25    2    1    2    0    0 -0.48214772175E+01 -0.75143784133E+02  0.18000992647E+03  0.23177594353E+03  0.12508668768E+03 0.  0.
          5    1    3    3  502    0 -0.38543759220E+02 -0.22296296786E+02  0.40165259620E+01  0.44903798347E+02  0.41800000000E+01 0.  1.
         -5    1    3    3    0  502  0.33722282003E+02 -0.52847487347E+02  0.17599340051E+03  0.18687214518E+03  0.41800000000E+01 0.  1.
        -11    1    1    2    0    0 -0.30915296124E+02  0.74956654224E+02  0.52799876246E+02  0.96757854867E+02  0.00000000000E+00 0.  1.
         11    1    1    2    0    0  0.35736773341E+02  0.18712990897E+00  0.34332340669E+02  0.49556650434E+02  0.00000000000E+00 0. -1.
</event>
<event>
 7    1  0.2733606E-009  0.7735506E+02  0.7561462E-02  0.1336729E+00
          1   -1    0    0  501    0  0.00000000000E+00  0.00000000000E+00  0.20690557138E+03  0.20690557138E+03  0.00000000000E+00 0. -1.
         -1   -1    0    0    0  501 -0.00000000000E+00 -0.00000000000E+00 -0.96943708261E+02  0.96943708261E+02  0.00000000000E+00 0.  1.
         25    2    1    2    0    0  0.20435008535E+02 -0.59029815570E+00 -0.36699259687E+02  0.13195628430E+03  0.12509071620E+03 0.  0.
          5    1    3    3  502    0 -0.18933504752E+02  0.36659075585E+02 -0.59898760094E+02  0.72853958614E+02  0.41800000000E+01 0. -1.
         -5    1    3    3    0  502  0.39368513287E+02 -0.37249373741E+02  0.23199500407E+02  0.59102325687E+02  0.41800000000E+01 0. -1.
        -11    1    1    2    0    0  0.18613538835E+02 -0.53863150892E+01 -0.63905634260E+00  0.19387743840E+02  0.00000000000E+00 0.  1.
         11    1    1    2    0    0 -0.39048547370E+02  0.59766132449E+01  0.14730017914E+03  0.15250525150E+03  0.00000000000E+00 0. -1.
</event>
<event>
 7    1  0.2733606E-009  0.2198593E+03  0.7561462E-02  0.1133988E+00
          2   -1    0    0  501    0  0.00000000000E+00  0.00000000000E+00  0.55344193412E+03  0.55344193412E+03  0.00000000000E+00 0. -1.
         -2   -1    0    0    0  501 -0.00000000000E+00 -0.00000000000E+00 -0.10452965080E+03  0.10452965080E+03  0.00000000000E+00 0.  1.
         25    2    1    2    0    0  0.17717565066E+03  0.82519232140E+02  0.11148173046E+03  0.25743790236E+03  0.12508182315E+03 0.  0.
          5    1    3    3  502    0  0.17950145219E+03  0.35890710915E+02  0.74277730686E+02  0.19759445373E+03  0.41800000000E+01 0. -1.
         -5    1    3    3    0  502 -0.23258015302E+01  0.46628521225E+02  0.37203999777E+02  0.59843448629E+02  0.41800000000E+01 0. -1.
        -11    1    1    2    0    0 -0.71524271656E+01 -0.31396028475E+02  0.23455959207E+02  0.39837794124E+02  0.00000000000E+00 0.  1.
         11    1    1    2    0    0 -0.17002322349E+03 -0.51123203665E+02  0.31397459365E+03  0.36069588844E+03  0.00000000000E+00 0. -1.
</event>
<event>
 7    1  0.2733606E-009  0.1339230E+03  0.7561462E-02  0.1221748E+00
          1   -1    0    0  501    0  0.00000000000E+00  0.00000000000E+00  0.32489116721E+03  0.32489116721E+03  0.00000000000E+00 0. -1.
         -1   -1    0    0    0  501 -0.00000000000E+00 -0.00000000000E+00 -0.76309390402E+02  0.76309390402E+02  0.00000000000E+00 0.  1.
         25    2    1    2    0    0  0.70911505639E+02  0.78128637600E+02  0.79806145448E+02  0.18206687063E+03  0.12508716514E+03 0.  0.
          5    1    3    3  502    0  0.50155366846E+02  0.90816922292E+02  0.10438635721E+03  0.14723198759E+03  0.41800000000E+01 0. -1.
         -5    1    3    3    0  502  0.20756138793E+02 -0.12688284692E+02 -0.24580211762E+02  0.34834883038E+02  0.41800000000E+01 0. -1.
        -11    1    1    2    0    0 -0.92900199484E+02 -0.67968645606E+02  0.14564395611E+03  0.18564036684E+03  0.00000000000E+00 0. -1.
         11    1    1    2    0    0  0.21988693845E+02 -0.10159991993E+02  0.23131675248E+02  0.33493320142E+02  0.00000000000E+00 0.  1.
</event>
<event>
 7    1  0.2733606E-009  0.1067253E+03  0.7561462E-02  0.1266757E+00
         -2   -1    0    0    0  501 -0.00000000000E+00  0.00000000000E+00  0.29381123165E+02  0.29381123165E+02  0.00000000000E+00 0.  1.
          2   -1    0    0  501    0  0.00000000000E+00 -0.00000000000E+00 -0.44222617781E+03  0.44222617781E+03  0.00000000000E+00 0. -1.
         25    2    1    2    0    0  0.24543310793E+02  0.47919279676E+01 -0.17399385083E+03  0.21574752099E+03  0.12509115080E+03 0.  0.
          5    1    3    3  502    0  0.14011339549E+02  0.62267141713E+02 -0.12046955812E+03  0.13639611947E+03  0.41800000000E+01 0.  1.
         -5    1    3    3    0  502  0.10531971244E+02 -0.57475213745E+02 -0.53524292713E+02  0.79351401524E+02  0.41800000000E+01 0.  1.
        -11    1    1    2    0    0 -0.81696284248E+01  0.41244938741E+02 -0.12766657758E+03  0.13441221236E+03  0.00000000000E+00 0.  1.
         11    1    1    2    0    0 -0.16373682368E+02 -0.46036866709E+02 -0.11118462624E+03  0.12144756763E+03  0.00000000000E+00 0. -1.
</event>
<event>
 7    1  0.2733606E-009  0.9116531E+02  0.7561462E-02  0.1300054E+00
          2   -1    0    0  501    0  0.00000000000E+00  0.00000000000E+00  0.18540566003E+03  0.18540566003E+03  0.00000000000E+00 0. -1.
         -2   -1    0    0    0  501 -0.00000000000E+00 -0.00000000000E+00 -0.91711651134E+02  0.91711651134E+02  0.00000000000E+00 0.  1.
         25    2    1    2    0    0  0.17498780851E+02 -0.34510529114E+02 -0.13099573534E+02  0.13157799349E+03  0.12507591931E+03 0.  0.
          5    1    3    3  502    0 -0.39516275737E+02  0.70962581793E+01 -0.39143714853E+02  0.56228068976E+02  0.41800000000E+01 0.  1.
         -5    1    3    3    0  502  0.57015056588E+02 -0.41606787293E+02  0.26044141319E+02  0.75349924510E+02  0.41800000000E+01 0.  1.
        -11    1    1    2    0    0  0.21574209711E+01  0.47596687245E+02  0.11168571025E+03  0.12142403789E+03  0.00000000000E+00 0. -1.
         11    1    1    2    0    0 -0.19656201822E+02 -0.13086158131E+02 -0.48921278244E+01  0.24115279790E+02  0.00000000000E+00 0.  1.
</event>
<event>
 7    1  0.2733606E-009  0.7947206E+02  0.7561462E-02  0.1330556E+00
         -2   -1    0    0    0  501 -0.00000000000E+00  0.00000000000E+00  0.20078660018E+03  0.20078660018E+03  0.00000000000E+00 0.  1.
          2   -1    0    0  501    0  0.00000000000E+00 -0.00000000000E+00 -0.70362032147E+02  0.70362032147E+02  0.00000000000E+00 0. -1.
         25    2    1    2    0    0  0.11468092260E+02  0.19810954448E+02  0.15716539529E+02  0.12813163877E+03  0.12508683457E+03 0.  0.
          5    1    3    3  502    0  0.99962693167E+01 -0.26011710598E+02  0.58722151183E+02  0.65132925069E+02  0.41800000000E+01 0.  1.
         -5    1    3    3    0  502  0.14718229434E+01  0.45822665046E+02 -0.43005611654E+02  0.62998713704E+02  0.41800000000E+01 0.  1.
        -11    1    1    2    0    0  0.92674571337E+01  0.29667771793E+02  0.51050742263E+02  0.59768225091E+02  0.00000000000E+00 0.  1.
         11    1    1    2    0    0 -0.20735549394E+02 -0.49478726241E+02  0.63657286241E+02  0.83248768464E+02  0.00000000000E+00 0. -1.
</event>
<event>
 7    1  0.2733606E-009  0.1294981E+03  0.7561462E-02  0.1228202E+00
          1   -1    0    0  501    0  0.00000000000E+00  0.00000000000E+00  0.11595727213E+04  0.11595727213E+04  0.00000000000E+00 0. -1.
         -1   -1    0    0    0  501 -0.00000000000E+00 -0.00000000000E+00 -0.20739897867E+02  0.20739897867E+02  0.00000000000E+00 0.  1.
         25    2    1    2    0    0 -0.11057363675E+03 -0.11170085777E+02  0.71013341001E+03  0.72958054470E+03  0.12508801394E+03 0.  0.
          5    1    3    3  502    0 -0.50226707932E+02 -0.53390837794E+02  0.52791548685E+03  0.53299675178E+03  0.41800000000E+01 0.  1.
         -5    1    3    3    0  502 -0.60346928819E+02  0.42220752017E+02  0.18221792316E+03  0.19658379292E+03  0.41800000000E+01 0.  1.
        -11    1    1    2    0    0  0.43614398457E+02  0.10421133869E+02  0.54445279193E+02  0.70534418621E+02  0.00000000000E+00 0.  1.
         11    1    1    2    0    0  0.66959238294E+02  0.74895190797E+00  0.37425413426E+03  0.38019765588E+03  0.00000000000E+00 0. -1.
</event>
<event>
 7    1  0.2733606E-009  0.1291907E+03  0.7561462E-02  0.1228662E+00
          1   -1    0    0  501    0  0.00000000000E+00  0.00000000000E+00  0.73159973265E+03  0.73159973265E+03  0.00000000000E+00 0. -1.
         -1   -1    0    0    0  501 -0.00000000000E+00 -0.00000000000E+00 -0.29594155917E+02  0.29594155917E+02  0.00000000000E+00 0.  1.
         25    2    1    2    0    0  0.80117612242E+02  0.86680114215E+01  0.47750424414E+03  0.50015187400E+03  0.12509047800E+03 0.  0.
          5    1    3    3  502    0 -0.33858240845E+02  0.38816339423E+01  0.12461840882E+03  0.12926201210E+03  0.41800000000E+01 0.  1.
         -5    1    3    3    0  502  0.11397585309E+03  0.47863774792E+01  0.35288583532E+03  0.37088986191E+03  0.41800000000E+01 0.  1.
        -11    1    1    2    0    0 -0.14103162679E+02 -0.35832630706E+02  0.17917815469E+02  0.42472635096E+02  0.00000000000E+00 0.  1.
         11    1    1    2    0    0 -0.66014449563E+02  0.27164619284E+02  0.20658351713E+03  0.21856937947E+03  0.00000000000E+00 0. -1.
</event>
<event>
 7    1  0.2733606E-009  0.1141434E+03  0.7561462E-02  0.1253084E+00
         -1   -1    0    0    0  501 -0.00000000000E+00  0.00000000000E+00  0.25164294781E+03  0.25164294781E+03  0.00000000000E+00 0.  1.
          1   -1    0    0  501    0  0.00000000000E+00 -0.00000000000E+00 -0.11490854985E+03  0.11490854985E+03  0.00000000000E+00 0. -1.
         25    2    1    2    0    0 -0.76632179492E+02  0.39659394288E+02  0.18054195730E+03  0.23597869129E+03  0.12508071757E+03 0.  0.
          5    1    3    3  502    0 -0.41294446394E+02  0.78609203567E+02  0.15176714285E+03  0.17588455372E+03  0.41800000000E+01 0.  1.
         -5    1    3    3    0  502 -0.35337733098E+02 -0.38949809279E+02  0.28774814445E+02  0.60094137565E+02  0.41800000000E+01 0.  1.
        -11    1    1    2    0    0  0.12738175691E+02 -0.99953480737E+01  0.26494283308E+02  0.31050203720E+02  0.00000000000E+00 0.  1.
         11    1    1    2    0    0  0.63894003801E+02 -0.29664046214E+02 -0.70301842643E+02  0.99522602651E+02  0.00000000000E+00 0. -1.
</event>
<event>
 7    1  0.2733606E-009  0.1427698E+03  0.7561462E-02  0.1209650E+00
         -1   -1    0    0    0  501 -0.00000000000E+00  0.00000000000E+00  0.55416226059E+03  0.55416226059E+03  0.00000000000E+00 0.  1.
          1   -1    0    0  501    0  0.00000000000E+00 -0.00000000000E+00 -0.43363092294E+02  0.43363092294E+02  0.00000000000E+00 0. -1.
         25    2    1    2    0    0 -0.93437468888E+02  0.31485395601E+02  0.21401044853E+03  0.26677516359E+03  0.12508647051E+03 0.  0.
          5    1    3    3  502    0 -0.88723317787E+02 -0.31192654423E+02  0.10627029630E+03  0.14197062050E+03  0.41800000000E+01 0.  1.
         -5    1    3    3    0  502 -0.47141511008E+01  0.62678050025E+02  0.10774015222E+03  0.12480454309E+03  0.41800000000E+01 0.  1.
        -11    1    1    2    0    0  0.30614763448E+02 -0.53664537176E+02  0.65430695193E+02  0.89990678210E+02  0.00000000000E+00 0.  1.
         11    1    1    2    0    0  0.62822705440E+02  0.22179141574E+02  0.23135802458E+03  0.24075951108E+03  0.00000000000E+00 0. -1.
</event>
<event>
 7    1  0.2733606E-009  0.1167592E+03  0.7561462E-02  0.1248541E+00
         -2   -1    0    0    0  501 -0.00000000000E+00  0.00000000000E+00  0.35528912122E+03  0.35528912122E+03  0.00000000000E+00 0.  1.
          2   -1    0    0  501    0  0.00000000000E+00 -0.00000000000E+00 -0.58033627665E+02  0.58033627665E+02  0.00000000000E+00 0. -1.
         25    2    1    2    0    0  0.32388653232E+02  0.67202704210E+02  0.18836239921E+03  0.23810233743E+03  0.12508837413E+03 0.  0.
          5    1    3    3  502    0 -0.25070303153E+01  0.61983726879E+02  0.19253732486E+03  0.20232736212E+03  0.41800000000E+01 0.  1.
         -5    1    3    3    0  502  0.34895683547E+02  0.52189773304E+01 -0.41749256438E+01  0.35774975314E+02  0.41800000000E+01 0.  1.
        -11    1    1    2    0    0  0.27631703642E+02  0.16974322474E+02  0.37522256430E+02  0.49593935084E+02  0.00000000000E+00 0.  1.
         11    1    1    2    0    0 -0.60020356873E+02 -0.84177026683E+02  0.71370837915E+02  0.12562647637E+03  0.00000000000E+00 0. -1.
</event>
<event>
 7    1  0.2733606E-009  0.1138863E+03  0.7561462E-02  0.1253538E+00
          1   -1    0    0  501    0  0.00000000000E+00  0.00000000000E+00  0.34214787883E+03  0.34214787883E+03  0.00000000000E+00 0. -1.
         -1   -1    0    0    0  501 -0.00000000000E+00 -0.00000000000E+00 -0.82680337554E+02  0.82680337554E+02  0.00000000000E+00 0.  1.
         25    2    1    2    0    0 -0.27807218209E+02  0.58238605841E+02 -0.18482513307E+01  0.14076728051E+03  0.12508810748E+03 0.  0.
          5    1    3    3  502    0  0.14101062033E+02  0.86353590502E+02 -0.13955478708E+02  0.88701805669E+02  0.41800000000E+01 0.  1.
         -5    1    3    3    0  502 -0.41908280242E+02 -0.28114984660E+02  0.12107227377E+02  0.52065474838E+02  0.41800000000E+01 0.  1.
        -11    1    1    2    0    0  0.39191301484E+02 -0.10659188224E+02  0.20705922790E+03  0.21100497687E+03  0.00000000000E+00 0. -1.
         11    1    1    2    0    0 -0.11384083275E+02 -0.47579417617E+02  0.54256564712E+02  0.73055959012E+02  0.00000000000E+00 0.  1.
</event>
<event>
 7    1  0.2733606E-009  0.1086279E+03  0.7561462E-02  0.1263132E+00
          2   -1    0    0  501    0  0.00000000000E+00  0.00000000000E+00  0.50763177176E+02  0.50763177176E+02  0.00000000000E+00 0. -1.
         -2   -1    0    0    0  501 -0.00000000000E+00 -0.00000000000E+00 -0.23248483906E+03  0.23248483906E+03  0.00000000000E+00 0.  1.
         25    2    1    2    0    0 -0.37838037245E+00 -0.21687031393E+02 -0.10704605947E+03  0.16606252585E+03  0.12508970038E+03 0.  0.
          5    1    3    3  502    0  0.51457029825E+02  0.24726769176E+02 -0.47237227221E+02  0.74216353102E+02  0.41800000000E+01 0. -1.
         -5    1    3    3    0  502 -0.51835410198E+02 -0.46413800569E+02 -0.59808832249E+02  0.91846172749E+02  0.41800000000E+01 0. -1.
        -11    1    1    2    0    0 -0.43426067144E+02  0.15295747482E+02 -0.38370760408E+02  0.59934117603E+02  0.00000000000E+00 0.  1.
         11    1    1    2    0    0  0.43804447516E+02  0.63912839110E+01 -0.36304842008E+02  0.57251372782E+02  0.00000000000E+00 0. -1.
</event>
<event>
 7    1  0.2733606E-009  0.9977943E+02  0.7561462E-02  0.1280760E+00
         -2   -1    0    0    0  501 -0.00000000000E+00  0.00000000000E+00  0.15349519258E+02  0.15349519258E+02  0.00000000000E+00 0.  1.
          2   -1    0    0  501    0  0.00000000000E+00 -0.00000000000E+00 -0.88607430658E+03  0.88607430658E+03  0.00000000000E+00 0. -1.
         25    2    1    2    0    0  0.47233853375E+02  0.16779931529E+02 -0.52475349851E+03  0.54178141426E+03  0.12509301993E+03 0.  0.
          5    1    3    3  502    0 -0.29703337374E+02  0.67996301664E+01 -0.38101772324E+02  0.48966730295E+02  0.41800000000E+01 0.  1.
         -5    1    3    3    0  502  0.76937190748E+02  0.99803013628E+01 -0.48665172618E+03  0.49281468397E+03  0.41800000000E+01 0.  1.
        -11    1    1    2    0    0 -0.32070227117E+02  0.28779943089E+02 -0.23202141801E+03  0.23598881967E+03  0.00000000000E+00 0. -1.
         11    1    1    2    0    0 -0.15163626258E+02 -0.45559874618E+02 -0.11394987080E+03  0.12365359191E+03  0.00000000000E+00 0.  1.
</event>
<event>
 7    1  0.2733606E-009  0.9553554E+02  0.7561462E-02  0.1289974E+00
          1   -1    0    0  501    0  0.00000000000E+00  0.00000000000E+00  0.57940459260E+02  0.57940459260E+02  0.00000000000E+00 0. -1.
         -1   -1    0    0    0  501 -0.00000000000E+00 -0.00000000000E+00 -0.24310841014E+03  0.24310841014E+03  0.00000000000E+00 0.  1.
         25    2    1    2    0    0 -0.35486465053E+02  0.90591273051E+01 -0.71006995077E+02  0.14842762489E+03  0.12508960585E+03 0.  0.
          5    1    3    3  502    0 -0.46259115915E+02 -0.30489584667E+02 -0.87825856679E+02  0.10392484823E+03  0.41800000000E+01 0. -1.
         -5    1    3    3    0  502  0.10772650862E+02  0.39548711972E+02  0.16818861602E+02  0.44502776664E+02  0.41800000000E+01 0. -1.
        -11    1    1    2    0    0  0.38556591930E+02 -0.44416937443E+02 -0.96418801804E+02  0.11294273086E+03  0.00000000000E+00 0. -1.
         11    1    1    2    0    0 -0.30701268771E+01  0.35357810138E+02 -0.17742154004E+02  0.39678513650E+02  0.00000000000E+00 0.  1.
</event>
<event>
 7    1  0.2733606E-009  0.8759482E+02  0.7561462E-02  0.1308783E+00
         -2   -1    0    0    0  501 -0.00000000000E+00  0.00000000000E+00  0.20389993194E+02  0.20389993194E+02  0.00000000000E+00 0.  1.
          2   -1    0    0  501    0  0.00000000000E+00 -0.00000000000E+00 -0.61717709970E+03  0.61717709970E+03  0.00000000000E+00 0. -1.
         25    2    1    2    0    0 -0.12709987661E+02  0.15613237669E+02 -0.29927091822E+03  0.32498675025E+03  0.12509191968E+03 0.  0.
          5    1    3    3  502    0  0.32400306869E+02  0.26984088947E+02 -0.30550775951E+02  0.52237374098E+02  0.41800000000E+01 0. -1.
         -5    1    3    3    0  502 -0.45110294530E+02 -0.11370851277E+02 -0.26872014227E+03  0.27274937615E+03  0.41800000000E+01 0. -1.
        -11    1    1    2    0    0 -0.29772294864E+02 -0.29005395429E+02 -0.21327623388E+03  0.21728887327E+03  0.00000000000E+00 0. -1.
         11    1    1    2    0    0  0.42482282526E+02  0.13392157759E+02 -0.84239954403E+02  0.95291469376E+02  0.00000000000E+00 0.  1.
</event>
<event>
 7    1  0.2733606E-009  0.1132498E+03  0.7561462E-02  0.1254667E+00
          2   -1    0    0  501    0  0.00000000000E+00  0.00000000000E+00  0.14232581636E+03  0.14232581636E+03  0.00000000000E+00 0. -1.
         -2   -1    0    0    0  501 -0.00000000000E+00 -0.00000000000E+00 -0.11885872271E+03  0.11885872271E+03  0.00000000000E+00 0.  1.
         25    2    1    2    0    0 -0.34511171897E+02  0.63519632073E+02  0.92366758245E+01  0.14476980786E+03  0.12508883421E+03 0.  0.
          5    1    3    3  502    0 -0.23338134675E+02 -0.36449544894E+02  0.71748581021E+01  0.44070271634E+02  0.41800000000E+01 0. -1.
         -5    1    3    3    0  502 -0.11173037221E+02  0.99969176968E+02  0.20618177224E+01  0.10069953623E+03  0.41800000000E+01 0. -1.
        -11    1    1    2    0    0  0.13491911763E+02  0.19003904361E+01 -0.31196733090E+02  0.34042316641E+02  0.00000000000E+00 0.  1.
         11    1    1    2    0    0  0.21019260134E+02 -0.65420022509E+02  0.45427150908E+02  0.82372414565E+02  0.00000000000E+00 0. -1.
</event>
<event>
 7    1  0.2733606E-009  0.8696416E+02  0.7561462E-02  0.1310375E+00
          1   -1    0    0  501    0  0.00000000000E+00  0.00000000000E+00  0.50705700669E+03  0.50705700669E+03  0.00000000000E+00 0. -1.
         -1   -1    0    0    0  501 -0.00000000000E+00 -0.00000000000E+00 -0.24253889673E+02  0.24253889673E+02  0.00000000000E+00 0.  1.
         25    2    1    2    0    0  0.60687173463E+01  0.12700531230E+02  0.22962159049E+03  0.26186902123E+03  0.12510466274E+03 0.  0.
          5    1    3    3  502    0 -0.44931020123E+02  0.17693832302E+01  0.27033849492E+02  0.52632962150E+02  0.41800000000E+01 0.  1.
         -5    1    3    3    0  502  0.50999737469E+02  0.10931147999E+02  0.20258774100E+03  0.20923605908E+03  0.41800000000E+01 0.  1.
        -11    1    1    2    0    0 -0.19877829200E+02  0.27502952456E+02  0.19179470690E+03  0.19477358672E+03  0.00000000000E+00 0. -1.
         11    1    1    2    0    0  0.13809111853E+02 -0.40203483685E+02  0.61386819627E+02  0.74668288413E+02  0.00000000000E+00 0.  1.
</event>
<event>
 7    1  0.2733606E-009  0.1236989E+03  0.7561462E-02  0.1237117E+00
         -2   -1    0    0    0  501 -0.00000000000E+00  0.00000000000E+00  0.45135094653E+02  0.45135094653E+02  0.00000000000E+00 0.  1.
          2   -1    0    0  501    0  0.00000000000E+00 -0.00000000000E+00 -0.55547802386E+03  0.55547802386E+03  0.00000000000E+00 0. -1.
         25    2    1    2    0    0  0.60032414528E+02 -0.71410762380E+02 -0.37158116064E+03  0.40301614269E+03  0.12508422979E+03 0.  0.
          5    1    3    3  502    0  0.79091024923E+02 -0.47122352747E+02 -0.12953903383E+03  0.15897716829E+03  0.41800000000E+01 0. -1.
         -5    1    3    3    0  502 -0.19058610395E+02 -0.24288409633E+02 -0.24204212681E+03  0.24403897439E+03  0.41800000000E+01 0. -1.
        -11    1    1    2    0    0 -0.18146219530E+02 -0.17868269595E+02 -0.77320456158E+02  0.81406469534E+02  0.00000000000E+00 0. -1.
         11    1    1    2    0    0 -0.41886194998E+02  0.89279031975E+02 -0.61441312401E+02  0.11619050629E+03  0.00000000000E+00 0.  1.
</event>
<event>
 7    1  0.2733606E-009  0.8547341E+02  0.7561462E-02  0.1314199E+00
          1   -1    0    0  501    0  0.00000000000E+00  0.00000000000E+00  0.30625839299E+02  0.30625839299E+02  0.00000000000E+00 0. -1.
         -1   -1    0    0    0  501 -0.00000000000E+00 -0.00000000000E+00 -0.38884187232E+03  0.38884187232E+03  0.00000000000E+00 0.  1.
         25    2    1    2    0    0  0.15962729174E+02  0.25879559158E+01 -0.23653501348E+03  0.26806236644E+03  0.12508842258E+03 0.  0.
          5    1    3    3  502    0  0.32934337340E+02 -0.55305092915E+02 -0.10395482303E+03  0.12234133198E+03  0.41800000000E+01 0. -1.
         -5    1    3    3    0  502 -0.16971608165E+02  0.57893048830E+02 -0.13258019044E+03  0.14572103446E+03  0.41800000000E+01 0. -1.
        -11    1    1    2    0    0 -0.11214892014E+02 -0.22691670625E+02 -0.12746517629E+03  0.12995405682E+03  0.00000000000E+00 0.  1.
         11    1    1    2    0    0 -0.47478371604E+01  0.20103714709E+02  0.57841567453E+01  0.21451288354E+02  0.00000000000E+00 0. -1.
</event>
<event>
 7    1  0.2733606E-009  0.1164389E+03  0.7561462E-02  0.1249090E+00
          1   -1    0    0  501    0  0.00000000000E+00  0.00000000000E+00  0.56571668401E+03  0.56571668401E+03  0.00000000000E+00 0. -1.
         -1   -1    0    0    0  501 -0.00000000000E+00 -0.00000000000E+00 -0.12564300353E+03  0.12564300353E+03  0.00000000000E+00 0.  1.
         25    2    1    2    0    0  0.13316316921E+02  0.74441235016E+02 -0.73792410904E+02  0.16373211002E+03  0.12507622547E+03 0.  0.
          5    1    3    3  502    0 -0.74393364392E+01  0.92434840889E+02 -0.90364229585E+01  0.93266676132E+02  0.41800000000E+01 0.  1.
         -5    1    3    3    0  502  0.20755653360E+02 -0.17993605873E+02 -0.64755987946E+02  0.70465433892E+02  0.41800000000E+01 0.  1.
        -11    1    1    2    0    0  0.31016100814E+02 -0.73929862818E+01  0.75556736641E+02  0.82008994676E+02  0.00000000000E+00 0.  1.
         11    1    1    2    0    0 -0.44332417735E+02 -0.67048248734E+02  0.43830935475E+03  0.44561858285E+03  0.00000000000E+00 0. -1.
</event>
<event>
 7    1  0.2733606E-009  0.3097719E+03  0.7561462E-02  0.1080455E+00
         -1   -1    0    0    0  501 -0.00000000000E+00  0.00000000000E+00  0.15752624216E+03  0.15752624216E+03  0.00000000000E+00 0.  1.
          1   -1    0    0  501    0  0.00000000000E+00 -0.00000000000E+00 -0.80924329467E+03  0.80924329467E+03  0.00000000000E+00 0. -1.
         25    2    1    2    0    0  0.70341517697E+02 -0.28546284978E+03 -0.56295883912E+03  0.64730879389E+03  0.12509617256E+03 0.  0.
          5    1    3    3  502    0  0.11432137493E+02 -0.25051058766E+03 -0.43608239466E+03  0.50306219857E+03  0.41800000000E+01 0. -1.
         -5    1    3    3    0  502  0.58909380204E+02 -0.34952262122E+02 -0.12687644446E+03  0.14424659533E+03  0.41800000000E+01 0. -1.
        -11    1    1    2    0    0 -0.72495280173E+02  0.17231418773E+03 -0.22423512696E+02  0.18828318794E+03  0.00000000000E+00 0.  1.
         11    1    1    2    0    0  0.21537624765E+01  0.11314866205E+03 -0.66334700693E+02  0.13117755499E+03  0.00000000000E+00 0. -1.
</event>
<event>
 7    1  0.2733606E-009  0.1376781E+03  0.7561462E-02  0.1216488E+00
          1   -1    0    0  501    0  0.00000000000E+00  0.00000000000E+00  0.36293561083E+03  0.36293561083E+03  0.00000000000E+00 0. -1.
         -1   -1    0    0    0  501 -0.00000000000E+00 -0.00000000000E+00 -0.71044207910E+02  0.71044207910E+02  0.00000000000E+00 0.  1.
         25    2    1    2    0    0 -0.99743647509E+01  0.98079488443E+02  0.23942796306E+03  0.28756204362E+03  0.12508839049E+03 0.  0.
          5    1    3    3  502    0 -0.60628483159E+02  0.16229648777E+02  0.96727727952E+02  0.11538171529E+03  0.41800000000E+01 0. -1.
         -5    1    3    3    0  502  0.50654118408E+02  0.81849839666E+02  0.14270023510E+03  0.17218032833E+03  0.41800000000E+01 0. -1.
        -11    1    1    2    0    0 -0.11755287519E+02  0.34716225813E+01 -0.17379123301E+02  0.21266708131E+02  0.00000000000E+00 0.  1.
         11    1    1    2    0    0  0.21729652270E+02 -0.10155111102E+03  0.69842563165E+02  0.12515106699E+03  0.00000000000E+00 0. -1.
</event>
<event>
 7    1  0.2733606E-009  0.9126348E+02  0.7561462E-02  0.1299821E+00
          2   -1    0    0  501    0  0.00000000000E+00  0.00000000000E+00  0.31294282586E+03  0.31294282586E+03  0.00000000000E+00 0.  1.
         -2   -1    0    0    0  501 -0.00000000000E+00 -0.00000000000E+00 -0.41209232187E+02  0.41209232187E+02  0.00000000000E+00 0. -1.
         25    2    1    2    0    0  0.15783760884E+02  0.54399158453E+01  0.19522356322E+03  0.23246272673E+03  0.12509180585E+03 0.  0.
          5    1    3    3  502    0  0.33946002622E+02  0.37588090761E+02  0.18781832673E+03  0.19457233081E+03  0.41800000000E+01 0. -1.
         -5    1    3    3    0  502 -0.18162241738E+02 -0.32148174916E+02  0.74052364881E+01  0.37890395918E+02  0.41800000000E+01 0. -1.
        -11    1    1    2    0    0  0.39261405725E+02 -0.42323205880E+01  0.34448640126E+02  0.52403046892E+02  0.00000000000E+00 0.  1.
         11    1    1    2    0    0 -0.55045166609E+02 -0.12075952572E+01  0.42061390331E+02  0.69286284429E+02  0.00000000000E+00 0. -1.
</event>
<event>
 7    1  0.2733606E-009  0.1592620E+03  0.7561462E-02  0.1189532E+00
          1   -1    0    0  501    0  0.00000000000E+00  0.00000000000E+00  0.96088188097E+03  0.96088188097E+03  0.00000000000E+00 0. -1.
         -1   -1    0    0    0  501 -0.00000000000E+00 -0.00000000000E+00 -0.37055962035E+02  0.37055962035E+02  0.00000000000E+00 0.  1.
         25    2    1    2    0    0  0.39296632808E+02 -0.14354917312E+03  0.37880908151E+03  0.42578623842E+03  0.12508800958E+03 0.  0.
          5    1    3    3  502    0  0.62675217066E+02 -0.97524471354E+02  0.14189904419E+03  0.18328124969E+03  0.41800000000E+01 0.  1.
         -5    1    3    3    0  502 -0.23378584258E+02 -0.46024701762E+02  0.23691003733E+03  0.24250498874E+03  0.41800000000E+01 0.  1.
        -11    1    1    2    0    0 -0.18025142425E+02  0.10645107846E+03  0.49362596344E+03  0.50529528956E+03  0.00000000000E+00 0. -1.
         11    1    1    2    0    0 -0.21271490382E+02  0.37098094656E+02  0.51390873976E+02  0.66856315021E+02  0.00000000000E+00 0.  1.
</event>
<event>
 7    1  0.2733606E-009  0.3109441E+03  0.7561462E-02  0.1079894E+00
          2   -1    0    0  501    0  0.00000000000E+00  0.00000000000E+00  0.14113086170E+04  0.14113086170E+04  0.00000000000E+00 0. -1.
         -2   -1    0    0    0  501 -0.00000000000E+00 -0.00000000000E+00 -0.82149509041E+02  0.82149509041E+02  0.00000000000E+00 0.  1.
         25    2    1    2    0    0  0.17000088012E+03  0.24294330234E+03  0.95193236457E+03  0.10048607129E+04  0.12509227873E+03 0.  0.
          5    1    3    3  502    0  0.13336981750E+03  0.93846620623E+02  0.57893600294E+03  0.60148072648E+03  0.41800000000E+01 0.  1.
         -5    1    3    3    0  502  0.36631062616E+02  0.14909668172E+03  0.37299636162E+03  0.40337998640E+03  0.41800000000E+01 0.  1.
        -11    1    1    2    0    0 -0.83787298589E+02 -0.17961060528E+03  0.28626001874E+03  0.34817392100E+03  0.00000000000E+00 0. -1.
         11    1    1    2    0    0 -0.86213581530E+02 -0.63332697058E+02  0.90966724670E+02  0.14042349217E+03  0.00000000000E+00 0.  1.
</event>
<event>
 7    1  0.2733606E-009  0.1128704E+03  0.7561462E-02  0.1255345E+00
         -1   -1    0    0    0  501 -0.00000000000E+00  0.00000000000E+00  0.25109213222E+02  0.25109213222E+02  0.00000000000E+00 0.  1.
          1   -1    0    0  501    0  0.00000000000E+00 -0.00000000000E+00 -0.61215031402E+03  0.61215031402E+03  0.00000000000E+00 0. -1.
         25    2    1    2    0    0 -0.32389069269E+02  0.37072982275E+02 -0.40249036177E+03  0.42434639610E+03  0.12509162539E+03 0.  0.
          5    1    3    3  502    0  0.24765594193E+02 -0.34481542332E+02 -0.13540807128E+03  0.14196876270E+03  0.41800000000E+01 0.  1.
         -5    1    3    3    0  502 -0.57154663461E+02  0.71554524606E+02 -0.26708229049E+03  0.28237763340E+03  0.41800000000E+01 0.  1.
        -11    1    1    2    0    0  0.18529638284E+02 -0.61002305196E+02 -0.68354788697E+02  0.93471952327E+02  0.00000000000E+00 0.  1.
         11    1    1    2    0    0  0.13859430985E+02  0.23929322921E+02 -0.11619595034E+03  0.11944117882E+03  0.00000000000E+00 0. -1.
</event>
<event>
 7    1  0.2733606E-009  0.1092543E+03  0.7561462E-02  0.1261957E+00
         -2   -1    0    0    0  501 -0.00000000000E+00  0.00000000000E+00  0.27883425367E+03  0.27883425367E+03  0.00000000000E+00 0.  1.
          2   -1    0    0  501    0  0.00000000000E+00 -0.00000000000E+00 -0.10876452691E+03  0.10876452691E+03  0.00000000000E+00 0. -1.
         25    2    1    2    0    0 -0.93248452252E+02 -0.23709355677E+02 -0.17053487178E+02  0.15872554205E+03  0.12508224847E+03 0.  0.
          5    1    3    3  502    0 -0.42197015006E+02 -0.49066234023E+02 -0.59123911293E+02  0.87756439554E+02  0.41800000000E+01 0.  1.
         -5    1    3    3    0  502 -0.51051437246E+02  0.25356878346E+02  0.42070424115E+02  0.70969102500E+02  0.41800000000E+01 0.  1.
        -11    1    1    2    0    0  0.33356246511E+02  0.48177098473E+01  0.15444399236E+03  0.15807844979E+03  0.00000000000E+00 0.  1.
         11    1    1    2    0    0  0.59892205741E+02  0.18891645830E+02  0.32679221575E+02  0.70794788745E+02  0.00000000000E+00 0. -1.
</event>
<event>
 7    1  0.2733606E-009  0.1091142E+03  0.7561462E-02  0.1262219E+00
         -2   -1    0    0    0  501 -0.00000000000E+00  0.00000000000E+00  0.14963176370E+03  0.14963176370E+03  0.00000000000E+00 0.  1.
          2   -1    0    0  501    0  0.00000000000E+00 -0.00000000000E+00 -0.85797577599E+02  0.85797577599E+02  0.00000000000E+00 0. -1.
         25    2    1    2    0    0 -0.22933533736E+02 -0.11863186211E+02  0.54145248429E+02  0.13872603520E+03  0.12508606140E+03 0.  0.
          5    1    3    3  502    0 -0.13648450024E+02 -0.68345086927E+02  0.23527541266E+02  0.73677328216E+02  0.41800000000E+01 0.  1.
         -5    1    3    3    0  502 -0.92850837111E+01  0.56481900716E+02  0.30617707163E+02  0.65048706981E+02  0.41800000000E+01 0.  1.
        -11    1    1    2    0    0  0.25371399855E+02  0.48267929954E+02  0.21106828736E+02  0.58472208885E+02  0.00000000000E+00 0.  1.
         11    1    1    2    0    0 -0.24378661190E+01 -0.36404743743E+02 -0.11417891061E+02  0.38231097218E+02  0.00000000000E+00 0. -1.
</event>
<event>
 7    1  0.2733606E-009  0.1069719E+03  0.7561462E-02  0.1266282E+00
         -1   -1    0    0    0  501 -0.00000000000E+00  0.00000000000E+00  0.60647302021E+02  0.60647302021E+02  0.00000000000E+00 0.  1.
          1   -1    0    0  501    0  0.00000000000E+00 -0.00000000000E+00 -0.21385717642E+03  0.21385717642E+03  0.00000000000E+00 0. -1.
         25    2    1    2    0    0 -0.68067833144E+01 -0.34812681209E+02 -0.86233446612E+02  0.15602182485E+03  0.12509335491E+03 0.  0.
          5    1    3    3  502    0  0.51179522245E+02  0.42852508203E+00 -0.73334496663E+01  0.51872719372E+02  0.41800000000E+01 0. -1.
         -5    1    3    3    0  502 -0.57986305560E+02 -0.35241206291E+02 -0.78899996945E+02  0.10414910548E+03  0.41800000000E+01 0. -1.
        -11    1    1    2    0    0  0.46856896342E+02  0.26047515848E+02 -0.52414036411E+02  0.74975149413E+02  0.00000000000E+00 0.  1.
         11    1    1    2    0    0 -0.40050113028E+02  0.87651653608E+01 -0.14562391376E+02  0.43507504180E+02  0.00000000000E+00 0. -1.
</event>
<event>
 7    1  0.2733606E-009  0.1254257E+03  0.7561462E-02  0.1234406E+00
         -1   -1    0    0    0  501 -0.00000000000E+00  0.00000000000E+00  0.10274474527E+04  0.10274474527E+04  0.00000000000E+00 0.  1.
          1   -1    0    0  501    0  0.00000000000E+00 -0.00000000000E+00 -0.19398913978E+02  0.19398913978E+02  0.00000000000E+00 0. -1.
         25    2    1    2    0    0  0.86140641666E+02  0.40242729803E+01  0.65777810358E+03  0.67509729664E+03  0.12509165224E+03 0.  0.
          5    1    3    3  502    0  0.70045174645E+02 -0.39244503772E+02  0.57175334747E+03  0.57737840305E+03  0.41800000000E+01 0. -1.
         -5    1    3    3    0  502  0.16095467021E+02  0.43268776752E+02  0.86024756114E+02  0.97718893591E+02  0.41800000000E+01 0. -1.
        -11    1    1    2    0    0 -0.90618440115E+02  0.25578254135E+02  0.27840088258E+03  0.29389283794E+03  0.00000000000E+00 0.  1.
         11    1    1    2    0    0  0.44777984495E+01 -0.29602527115E+02  0.71869552575E+02  0.77856232107E+02  0.00000000000E+00 0. -1.
</event>
<event>
 7    1  0.2733606E-009  0.8718598E+02  0.7561462E-02  0.1309813E+00
         -2   -1    0    0    0  501 -0.00000000000E+00  0.00000000000E+00  0.25085796879E+03  0.25085796879E+03  0.00000000000E+00 0.  1.
          2   -1    0    0  501    0  0.00000000000E+00 -0.00000000000E+00 -0.68532419954E+02  0.68532419954E+02  0.00000000000E+00 0. -1.
         25    2    1    2    0    0  0.55227022223E+02  0.47943743472E+02  0.83158962195E+02  0.16706578727E+03  0.12508772026E+03 0.  0.
          5    1    3    3  502    0  0.43166144740E+02 -0.47845056023E+01  0.10094707300E+03  0.10997268521E+03  0.41800000000E+01 0. -1.
         -5    1    3    3    0  502  0.12060877483E+02  0.52728249075E+02 -0.17788110806E+02  0.57093102054E+02  0.41800000000E+01 0. -1.
        -11    1    1    2    0    0 -0.33049503071E+02 -0.13887565572E+02 -0.88419514527E+01  0.36923085411E+02  0.00000000000E+00 0.  1.
         11    1    1    2    0    0 -0.22177519152E+02 -0.34056177900E+02  0.10800853809E+03  0.11540151606E+03  0.00000000000E+00 0. -1.
</event>
<event>
 7    1  0.2733606E-009  0.8363729E+02  0.7561462E-02  0.1319035E+00
          2   -1    0    0  501    0  0.00000000000E+00  0.00000000000E+00  0.33725636413E+03  0.33725636413E+03  0.00000000000E+00 0.  1.
         -2   -1    0    0    0  501 -0.00000000000E+00 -0.00000000000E+00 -0.41557378823E+02  0.41557378823E+02  0.00000000000E+00 0. -1.
         25    2    1    2    0    0  0.11923070274E+02  0.41672459707E+02  0.17263401620E+03  0.21755153383E+03  0.12508961916E+03 0.  0.
          5    1    3    3  502    0 -0.29656253621E+02  0.27750633779E+02  0.15185458788E+01  0.40857917661E+02  0.41800000000E+01 0.  1.
         -5    1    3    3    0  502  0.41579323895E+02  0.13921825927E+02  0.17111547032E+03  0.17669361617E+03  0.41800000000E+01 0.  1.
        -11    1    1    2    0    0  0.28976276472E+02 -0.99457942690E+01  0.10001113156E+03  0.10459813506E+03  0.00000000000E+00 0.  1.
         11    1    1    2    0    0 -0.40899346746E+02 -0.31726665438E+02  0.23053837552E+02  0.56664074067E+02  0.00000000000E+00 0. -1.
</event>
<event>
 7    1  0.2733606E-009  0.1057663E+03  0.7561462E-02  0.1268617E+00
          1   -1    0    0  501    0  0.00000000000E+00  0.00000000000E+00  0.54957527051E+03  0.54957527051E+03  0.00000000000E+00 0. -1.
         -1   -1    0    0    0  501 -0.00000000000E+00 -0.00000000000E+00 -0.27092806887E+02  0.27092806887E+02  0.00000000000E+00 0.  1.
         25    2    1    2    0    0 -0.38845335299E+02 -0.38825291674E+02  0.35530295200E+03  0.38066557181E+03  0.12509886694E+03 0.  0.
          5    1    3    3  502    0 -0.11260399855E+02 -0.74097566230E+02  0.12336600401E+03  0.14440875760E+03  0.41800000000E+01 0.  1.
         -5    1    3    3    0  502 -0.27584935444E+02  0.35272274556E+02  0.23193694799E+03  0.23625681421E+03  0.41800000000E+01 0.  1.
        -11    1    1    2    0    0  0.11957940322E+02 -0.21973483998E+02  0.93393056206E+02  0.96685517443E+02  0.00000000000E+00 0. -1.
         11    1    1    2    0    0  0.26887394977E+02  0.60798775672E+02  0.73786455419E+02  0.99316988150E+02  0.00000000000E+00 0.  1.
</event>
<event>
 7    1  0.2733606E-009  0.1166449E+03  0.7561462E-02  0.1248737E+00
          2   -1    0    0  501    0  0.00000000000E+00  0.00000000000E+00  0.45158068326E+03  0.45158068326E+03  0.00000000000E+00 0. -1.
         -2   -1    0    0    0  501 -0.00000000000E+00 -0.00000000000E+00 -0.44515197299E+02  0.44515197299E+02  0.00000000000E+00 0.  1.
         25    2    1    2    0    0 -0.33384000689E+01  0.80756903832E+02  0.14896126555E+03  0.21064249033E+03  0.12509187690E+03 0.  0.
          5    1    3    3  502    0 -0.68916946965E+01  0.95410617494E+02  0.45511829209E+02  0.10601641564E+03  0.41800000000E+01 0. -1.
         -5    1    3    3    0  502  0.35532946276E+01 -0.14653713662E+02  0.10344943634E+03  0.10462607470E+03  0.41800000000E+01 0. -1.
        -11    1    1    2    0    0  0.46380930313E+02 -0.54116083171E+02  0.15418810885E+03  0.16986381034E+03  0.00000000000E+00 0. -1.
         11    1    1    2    0    0 -0.43042530245E+02 -0.26640820662E+02  0.10391611156E+03  0.11558957988E+03  0.00000000000E+00 0.  1.
</event>
<event>
 7    1  0.2733606E-009  0.1643690E+03  0.7561462E-02  0.1183851E+00
          2   -1    0    0  501    0  0.00000000000E+00  0.00000000000E+00  0.54275062927E+02  0.54275062927E+02  0.00000000000E+00 0. -1.
         -2   -1    0    0    0  501 -0.00000000000E+00 -0.00000000000E+00 -0.53194181886E+03  0.53194181886E+03  0.00000000000E+00 0.  1.
         25    2    1    2    0    0 -0.89067631335E+01  0.13041489416E+03 -0.26479867641E+03  0.32071202365E+03  0.12510191061E+03 0.  0.
          5    1    3    3  502    0 -0.49862447098E+02  0.20235753724E+02 -0.40620802200E+02  0.67551989835E+02  0.41800000000E+01 0.  1.
         -5    1    3    3    0  502  0.40955683964E+02  0.11017914043E+03 -0.22417787421E+03  0.25316003382E+03  0.41800000000E+01 0.  1.
        -11    1    1    2    0    0 -0.37267850945E+02 -0.34917206071E+02 -0.87189567456E+02  0.10104516152E+03  0.00000000000E+00 0. -1.
         11    1    1    2    0    0  0.46174614079E+02 -0.95497688087E+02 -0.12567851206E+03  0.16445969661E+03  0.00000000000E+00 0.  1.
</event>
<event>
 7    1  0.2733606E-009  0.1151063E+03  0.7561462E-02  0.1251396E+00
         -2   -1    0    0    0  501 -0.00000000000E+00  0.00000000000E+00  0.29543240553E+03  0.29543240553E+03  0.00000000000E+00 0.  1.
          2   -1    0    0  501    0  0.00000000000E+00 -0.00000000000E+00 -0.19552304075E+03  0.19552304075E+03  0.00000000000E+00 0. -1.
         25    2    1    2    0    0  0.43578991042E+02  0.18521469010E+01 -0.16264154018E+03  0.20976851017E+03  0.12509195961E+03 0.  0.
          5    1    3    3  502    0 -0.41978641201E+02 -0.10722837939E+02 -0.74058697722E+02  0.85903135442E+02  0.41800000000E+01 0. -1.
         -5    1    3    3    0  502  0.85557632243E+02  0.12574984840E+02 -0.88582842455E+02  0.12386537473E+03  0.41800000000E+01 0. -1.
        -11    1    1    2    0    0 -0.62508947739E+02 -0.27449710602E+02  0.19228437265E+03  0.20404444399E+03  0.00000000000E+00 0.  1.
         11    1    1    2    0    0  0.18929956697E+02  0.25597563701E+02  0.70266532315E+02  0.77142492127E+02  0.00000000000E+00 0. -1.
</event>
<event>
 7    1  0.2733606E-009  0.1027295E+03  0.7561462E-02  0.1274659E+00
          2   -1    0    0  501    0  0.00000000000E+00  0.00000000000E+00  0.34015149067E+03  0.34015149067E+03  0.00000000000E+00 0.  1.
         -2   -1    0    0    0  501 -0.00000000000E+00 -0.00000000000E+00 -0.43565463893E+02  0.43565463893E+02  0.00000000000E+00 0. -1.
         25    2    1    2    0    0 -0.14762421223E+02  0.10002295703E+02  0.84114940166E+02  0.15179427259E+03  0.12509277770E+03 0.  0.
          5    1    3    3  502    0  0.39943127530E+02  0.42263664125E+02  0.60194551976E+02  0.83800520462E+02  0.41800000000E+01 0.  1.
         -5    1    3    3    0  502 -0.54705548753E+02 -0.32261368423E+02  0.23920388190E+02  0.67993752125E+02  0.41800000000E+01 0.  1.
        -11    1    1    2    0    0 -0.32391575882E+02 -0.15730267098E+02  0.14502460662E+03  0.14942821693E+03  0.00000000000E+00 0.  1.
         11    1    1    2    0    0  0.47153997106E+02  0.57279713952E+01  0.67446479995E+02  0.82494465045E+02  0.00000000000E+00 0. -1.
</event>
<event>
 7    1  0.2733606E-009  0.1421081E+03  0.7561462E-02  0.1210520E+00
         -1   -1    0    0    0  501 -0.00000000000E+00  0.00000000000E+00  0.62465859672E+02  0.62465859672E+02  0.00000000000E+00 0.  1.
          1   -1    0    0  501    0  0.00000000000E+00 -0.00000000000E+00 -0.48899477270E+03  0.48899477270E+03  0.00000000000E+00 0. -1.
         25    2    1    2    0    0 -0.16624854030E+01 -0.11619453026E+03 -0.34156904193E+03  0.38186325812E+03  0.12508479033E+03 0.  0.
          5    1    3    3  502    0 -0.41564359391E+02  0.18434661569E+01 -0.52953386180E+02  0.67472422863E+02  0.41800000000E+01 0. -1.
         -5    1    3    3    0  502  0.39901873988E+02 -0.11803799642E+03 -0.28861565575E+03  0.31439083526E+03  0.41800000000E+01 0. -1.
        -11    1    1    2    0    0  0.10207499157E+02  0.54434314797E+02  0.97227848205E+01  0.56230065010E+02  0.00000000000E+00 0.  1.
         11    1    1    2    0    0 -0.85450137539E+01  0.61760215465E+02 -0.94682655918E+02  0.11336730925E+03  0.00000000000E+00 0. -1.
</event>
<event>
 7    1  0.2733606E-009  0.1150504E+03  0.7561462E-02  0.1251493E+00
          1   -1    0    0  501    0  0.00000000000E+00  0.00000000000E+00  0.32259737859E+03  0.32259737859E+03  0.00000000000E+00 0. -1.
         -1   -1    0    0    0  501 -0.00000000000E+00 -0.00000000000E+00 -0.75020062386E+02  0.75020062386E+02  0.00000000000E+00 0.  1.
         25    2    1    2    0    0  0.58500429452E+02  0.89867183043E+02  0.16210383895E+03  0.23113449852E+03  0.12508833266E+03 0.  0.
          5    1    3    3  502    0  0.59643125034E+02  0.59858589890E+02  0.21492248643E+02  0.87291135284E+02  0.41800000000E+01 0.  1.
         -5    1    3    3    0  502 -0.11426955818E+01  0.30008593152E+02  0.14061159031E+03  0.14384336323E+03  0.41800000000E+01 0.  1.
        -11    1    1    2    0    0 -0.21538881827E+02 -0.42942495381E+01  0.68242382659E+02  0.71689516670E+02  0.00000000000E+00 0. -1.
         11    1    1    2    0    0 -0.36961547625E+02 -0.85572933505E+02  0.17231094588E+02  0.94793425785E+02  0.00000000000E+00 0.  1.
</event>
<event>
 7    1  0.2733606E-009  0.7955834E+02  0.7561462E-02  0.1330310E+00
          1   -1    0    0  501    0  0.00000000000E+00  0.00000000000E+00  0.58200387865E+03  0.58200387865E+03  0.00000000000E+00 0. -1.
         -1   -1    0    0    0  501 -0.00000000000E+00 -0.00000000000E+00 -0.22809527012E+02  0.22809527012E+02  0.00000000000E+00 0.  1.
         25    2    1    2    0    0  0.22516337096E+02  0.28529859315E+02  0.34333280890E+03  0.36721382944E+03  0.12509052944E+03 0.  0.
          5    1    3    3  502    0  0.45538345208E+02  0.30395185488E+02  0.33890844952E+03  0.34332785750E+03  0.41800000000E+01 0.  1.
         -5    1    3    3    0  502 -0.23022008112E+02 -0.18653261735E+01  0.44243593807E+01  0.23885971933E+02  0.41800000000E+01 0.  1.
        -11    1    1    2    0    0 -0.33482854071E+02  0.14383711977E+02  0.32061464573E+02  0.48537925353E+02  0.00000000000E+00 0.  1.
         11    1    1    2    0    0  0.10966516975E+02 -0.42913571292E+02  0.18380007816E+03  0.18906165087E+03  0.00000000000E+00 0. -1.
</event>
<event>
 7    1  0.2733606E-009  0.1006039E+03  0.7561462E-02  0.1279031E+00
          1   -1    0    0  501    0  0.00000000000E+00  0.00000000000E+00  0.58245203975E+03  0.58245203975E+03  0.00000000000E+00 0. -1.
         -1   -1    0    0    0  501 -0.00000000000E+00 -0.00000000000E+00 -0.27045322123E+02  0.27045322123E+02  0.00000000000E+00 0.  1.
         25    2    1    2    0    0  0.27547691951E+02 -0.42567793281E+01  0.45753013888E+03  0.47514113463E+03  0.12509306268E+03 0.  0.
          5    1    3    3  502    0 -0.99085092807E+01 -0.59745433906E+02  0.23562823126E+03  0.24332248395E+03  0.41800000000E+01 0.  1.
         -5    1    3    3    0  502  0.37456201232E+02  0.55488654578E+02  0.22190190762E+03  0.23181865068E+03  0.41800000000E+01 0.  1.
        -11    1    1    2    0    0 -0.50081085419E+02 -0.17242851278E+01  0.21549217708E+02  0.54547750272E+02  0.00000000000E+00 0.  1.
         11    1    1    2    0    0  0.22533393468E+02  0.59810644559E+01  0.76327361038E+02  0.79808476970E+02  0.00000000000E+00 0. -1.
</event>
<event>
 7    1  0.2733606E-009  0.1113654E+03  0.7561462E-02  0.1258062E+00
         -2   -1    0    0    0  501 -0.00000000000E+00  0.00000000000E+00  0.24657626415E+02  0.24657626415E+02  0.00000000000E+00 0.  1.
          2   -1    0    0  501    0  0.00000000000E+00 -0.00000000000E+00 -0.61767961811E+03  0.61767961811E+03  0.00000000000E+00 0. -1.
         25    2    1    2    0    0  0.35568647656E+02 -0.23007341366E+02 -0.21387174553E+03  0.25136105885E+03  0.12508713730E+03 0.  0.
          5    1    3    3  502    0  0.25147515017E+02  0.50991788007E+02 -0.85493162647E+02  0.10275754578E+03  0.41800000000E+01 0.  1.
         -5    1    3    3    0  502  0.10421132639E+02 -0.73999129373E+02 -0.12837858289E+03  0.14860351307E+03  0.41800000000E+01 0.  1.
        -11    1    1    2    0    0 -0.44270589764E+01  0.49677571752E+02 -0.14692904122E+03  0.15516315007E+03  0.00000000000E+00 0.  1.
         11    1    1    2    0    0 -0.31141588680E+02 -0.26670230385E+02 -0.23222120494E+03  0.23581303560E+03  0.00000000000E+00 0. -1.
</event>
<event>
 7    1  0.2733606E-009  0.9040201E+02  0.7561462E-02  0.1301881E+00
         -1   -1    0    0    0  501 -0.00000000000E+00  0.00000000000E+00  0.18577562023E+04  0.18577562023E+04  0.00000000000E+00 0.  1.
          1   -1    0    0  501    0  0.00000000000E+00 -0.00000000000E+00 -0.69451971981E+01  0.69451971981E+01  0.00000000000E+00 0. -1.
         25    2    1    2    0    0  0.47395715812E+00  0.21835115786E+01  0.13499357072E+04  0.13557221136E+04  0.12510412917E+03 0.  0.
          5    1    3    3  502    0 -0.19739838961E+02  0.41420996801E+02  0.21317983837E+03  0.21810198556E+03  0.41800000000E+01 0.  1.
         -5    1    3    3    0  502  0.20213796119E+02 -0.39237485222E+02  0.11367558689E+04  0.11376201280E+04  0.41800000000E+01 0.  1.
        -11    1    1    2    0    0  0.13934872037E+02 -0.44005769150E+02  0.24572052612E+03  0.25001852998E+03  0.00000000000E+00 0.  1.
         11    1    1    2    0    0 -0.14408829195E+02  0.41822257572E+02  0.25515477173E+03  0.25896075596E+03  0.00000000000E+00 0. -1.
</event>
<event>
 7    1  0.2733606E-009  0.9831176E+02  0.7561462E-02  0.1283887E+00
          1   -1    0    0  501    0  0.00000000000E+00  0.00000000000E+00  0.48268014143E+03  0.48268014143E+03  0.00000000000E+00 0. -1.
         -1   -1    0    0    0  501 -0.00000000000E+00 -0.00000000000E+00 -0.34634531431E+02  0.34634531431E+02  0.00000000000E+00 0.  1.
         25    2    1    2    0    0  0.64105839847E+02 -0.45434916281E+01  0.17983755106E+03  0.22829586654E+03  0.12508899187E+03 0.  0.
          5    1    3    3  502    0  0.31422304247E+02  0.50109604541E+02  0.14253467409E+03  0.15437596766E+03  0.41800000000E+01 0. -1.
         -5    1    3    3    0  502  0.32683535600E+02 -0.54653096169E+02  0.37302876966E+02  0.73919898878E+02  0.41800000000E+01 0. -1.
        -11    1    1    2    0    0 -0.16099449724E+02 -0.14691723206E+02  0.72260714863E+01  0.22962036523E+02  0.00000000000E+00 0.  1.
         11    1    1    2    0    0 -0.48006390122E+02  0.19235214834E+02  0.26098198745E+03  0.26605676980E+03  0.00000000000E+00 0. -1.
</event>
<event>
 7    1  0.2733606E-009  0.7371426E+02  0.7561462E-02  0.1347899E+00
         -2   -1    0    0    0  501 -0.00000000000E+00  0.00000000000E+00  0.61616886366E+02  0.61616886366E+02  0.00000000000E+00 0.  1.
          2   -1    0    0  501    0  0.00000000000E+00 -0.00000000000E+00 -0.27687848597E+03  0.27687848597E+03  0.00000000000E+00 0. -1.
         25    2    1    2    0    0 -0.66758692151E+02  0.16195762162E+02 -0.94564190670E+02  0.17119914925E+03  0.12509091437E+03 0.  0.
          5    1    3    3  502    0 -0.56363772364E+02  0.21608015461E+02 -0.12469489481E+03  0.13860039812E+03  0.41800000000E+01 0.  1.
         -5    1    3    3    0  502 -0.10394919787E+02 -0.54122532986E+01  0.30130704143E+02  0.32598751131E+02  0.41800000000E+01 0.  1.
        -11    1    1    2    0    0  0.28914035812E+02 -0.21811876041E+02  0.43947194084E+01  0.36484146723E+02  0.00000000000E+00 0.  1.
         11    1    1    2    0    0  0.37844656339E+02  0.56161138793E+01 -0.12509212834E+03  0.13081207636E+03  0.00000000000E+00 0. -1.
</event>
<event>
 7    1  0.2733606E-009  0.1262422E+03  0.7561462E-02  0.1233141E+00
          2   -1    0    0  501    0  0.00000000000E+00  0.00000000000E+00  0.55825615872E+03  0.55825615872E+03  0.00000000000E+00 0. -1.
         -2   -1    0    0    0  501 -0.00000000000E+00 -0.00000000000E+00 -0.37547247054E+02  0.37547247054E+02  0.00000000000E+00 0.  1.
         25    2    1    2    0    0 -0.29128050983E+02 -0.63497721522E+02  0.14867605178E+03  0.20647346792E+03  0.12508525329E+03 0.  0.
          5    1    3    3  502    0 -0.34651358524E+02 -0.10007783204E+03  0.10756354565E+03  0.15100886685E+03  0.41800000000E+01 0.  1.
         -5    1    3    3    0  502  0.55233075405E+01  0.36580110523E+02  0.41112506135E+02  0.55464601078E+02  0.41800000000E+01 0.  1.
        -11    1    1    2    0    0  0.30803230220E+00 -0.20478494338E+02  0.32782633688E+02  0.38654426471E+02  0.00000000000E+00 0.  1.
         11    1    1    2    0    0  0.28820018681E+02  0.83976215860E+02  0.33925022620E+03  0.35067551138E+03  0.00000000000E+00 0. -1.
</event>
<event>
 7    1  0.2733606E-009  0.6897373E+02  0.7561462E-02  0.1363618E+00
         -2   -1    0    0    0  501 -0.00000000000E+00  0.00000000000E+00  0.18902106372E+03  0.18902106372E+03  0.00000000000E+00 0.  1.
          2   -1    0    0  501    0  0.00000000000E+00 -0.00000000000E+00 -0.58386717440E+02  0.58386717440E+02  0.00000000000E+00 0. -1.
         25    2    1    2    0    0  0.47321006294E+00  0.65367492404E+01  0.81917152363E+02  0.14967037349E+03  0.12509135794E+03 0.  0.
          5    1    3    3  502    0 -0.38954679063E+02 -0.92728535245E+01 -0.15633777756E+02  0.43189584859E+02  0.41800000000E+01 0.  1.
         -5    1    3    3    0  502  0.39427889126E+02  0.15809602765E+02  0.97550930119E+02  0.10648078863E+03  0.41800000000E+01 0.  1.
        -11    1    1    2    0    0  0.14767285593E+02 -0.26229493671E+02  0.62431622458E+02  0.69309209667E+02  0.00000000000E+00 0.  1.
         11    1    1    2    0    0 -0.15240495656E+02  0.19692744430E+02 -0.13714428545E+02  0.28428197997E+02  0.00000000000E+00 0. -1.
</event>
<event>
 7    1  0.2733606E-009  0.1127514E+03  0.7561462E-02  0.1255558E+00
          2   -1    0    0  501    0  0.00000000000E+00  0.00000000000E+00  0.10689166164E+04  0.10689166164E+04  0.00000000000E+00 0. -1.
         -2   -1    0    0    0  501 -0.00000000000E+00 -0.00000000000E+00 -0.17204841506E+02  0.17204841506E+02  0.00000000000E+00 0.  1.
         25    2    1    2    0    0 -0.34020648334E+02 -0.69616621907E+02  0.68607856622E+03  0.70168113378E+03  0.12509490762E+03 0.  0.
          5    1    3    3  502    0 -0.56931609269E+02 -0.30399594843E+02  0.60665406589E+03  0.61009177307E+03  0.41800000000E+01 0. -1.
         -5    1    3    3    0  502  0.22910960935E+02 -0.39217027064E+02  0.79424500330E+02  0.91589360711E+02  0.41800000000E+01 0. -1.
        -11    1    1    2    0    0  0.55341683516E+02  0.75018256337E+02  0.32652092301E+03  0.33956789289E+03  0.00000000000E+00 0. -1.
         11    1    1    2    0    0 -0.21321035182E+02 -0.54016344296E+01  0.39112285680E+02  0.44872431256E+02  0.00000000000E+00 0.  1.
</event>
<event>
 7    1  0.2733606E-009  0.1883167E+03  0.7561462E-02  0.1159988E+00
         -2   -1    0    0    0  501 -0.00000000000E+00  0.00000000000E+00  0.25290857835E+02  0.25290857835E+02  0.00000000000E+00 0.  1.
          2   -1    0    0  501    0  0.00000000000E+00 -0.00000000000E+00 -0.16162566282E+04  0.16162566282E+04  0.00000000000E+00 0. -1.
         25    2    1    2    0    0  0.49728894680E+02 -0.15444433695E+03 -0.10400226094E+04  0.10600099527E+04  0.12509218862E+03 0.  0.
          5    1    3    3  502    0  0.89672416093E+02 -0.12279541578E+03 -0.71615715786E+03  0.73213277723E+03  0.41800000000E+01 0. -1.
         -5    1    3    3    0  502 -0.39943521413E+02 -0.31648921164E+02 -0.32386545153E+03  0.32787717549E+03  0.41800000000E+01 0. -1.
        -11    1    1    2    0    0 -0.64203789132E+02  0.12196376688E+03 -0.50482090138E+03  0.52329860447E+03  0.00000000000E+00 0. -1.
         11    1    1    2    0    0  0.14474894453E+02  0.32480570073E+02 -0.46122259566E+02  0.58238928812E+02  0.00000000000E+00 0.  1.
</event>
<event>
 7    1  0.2733606E-009  0.1270999E+03  0.7561462E-02  0.1231824E+00
          3   -1    0    0  501    0  0.00000000000E+00  0.00000000000E+00  0.27738925900E+02  0.27738925900E+02  0.00000000000E+00 0. -1.
         -3   -1    0    0    0  501 -0.00000000000E+00 -0.00000000000E+00 -0.66439518052E+03  0.66439518052E+03  0.00000000000E+00 0.  1.
         25    2    1    2    0    0 -0.21792439011E+02  0.77611829850E+02 -0.35852096583E+03  0.38817739849E+03  0.12508358498E+03 0.  0.
          5    1    3    3  502    0  0.30843075087E+02 -0.20580396094E+02 -0.88202745219E+02  0.95770792251E+02  0.41800000000E+01 0. -1.
         -5    1    3    3    0  502 -0.52635514098E+02  0.98192225944E+02 -0.27031822061E+03  0.29240660624E+03  0.41800000000E+01 0. -1.
        -11    1    1    2    0    0 -0.17599935058E+02  0.83060391647E+00 -0.69870030458E+01  0.18954308969E+02  0.00000000000E+00 0. -1.
         11    1    1    2    0    0  0.39392374069E+02 -0.78442433766E+02 -0.27114828575E+03  0.28500239896E+03  0.00000000000E+00 0.  1.
</event>
<event>
 7    1  0.2733606E-009  0.1091132E+03  0.7561462E-02  0.1262221E+00
          3   -1    0    0  501    0  0.00000000000E+00  0.00000000000E+00  0.40846563842E+02  0.40846563842E+02  0.00000000000E+00 0. -1.
         -3   -1    0    0    0  501 -0.00000000000E+00 -0.00000000000E+00 -0.30247160127E+03  0.30247160127E+03  0.00000000000E+00 0.  1.
         25    2    1    2    0    0 -0.97397088521E+01  0.23421558041E+02 -0.14485860268E+03  0.19306644083E+03  0.12508878644E+03 0.  0.
          5    1    3    3  502    0  0.48345176424E+02  0.43052833986E+02 -0.60565271829E+02  0.88749237458E+02  0.41800000000E+01 0.  1.
         -5    1    3    3    0  502 -0.58084885276E+02 -0.19631275945E+02 -0.84293330854E+02  0.10431720337E+03  0.41800000000E+01 0.  1.
        -11    1    1    2    0    0  0.42747729678E+02  0.11071490733E+02 -0.73905856799E+02  0.86093100588E+02  0.00000000000E+00 0.  1.
         11    1    1    2    0    0 -0.33008020826E+02 -0.34493048773E+02 -0.42860577946E+02  0.64158623694E+02  0.00000000000E+00 0. -1.
</event>
<event>
 7    1  0.2733606E-009  0.1871282E+03  0.7561462E-02  0.1161077E+00
          1   -1    0    0  501    0  0.00000000000E+00  0.00000000000E+00  0.96528275881E+03  0.96528275881E+03  0.00000000000E+00 0. -1.
         -1   -1    0    0    0  501 -0.00000000000E+00 -0.00000000000E+00 -0.41592095877E+02  0.41592095877E+02  0.00000000000E+00 0.  1.
         25    2    1    2    0    0 -0.15099042442E+03  0.69460037428E+02  0.54900502424E+03  0.58709180078E+03  0.12508981110E+03 0.  0.
          5    1    3    3  502    0 -0.15145730956E+03  0.13816926097E+02  0.40832215331E+03  0.43574611570E+03  0.41800000000E+01 0.  1.
         -5    1    3    3    0  502  0.46688513234E+00  0.55643111331E+02  0.14068287093E+03  0.15134568508E+03  0.41800000000E+01 0.  1.
        -11    1    1    2    0    0  0.11901784830E+03 -0.57437623591E+02  0.18681390673E+03  0.22883130154E+03  0.00000000000E+00 0.  1.
         11    1    1    2    0    0  0.31972576121E+02 -0.12022413837E+02  0.18787173197E+03  0.19095175237E+03  0.00000000000E+00 0. -1.
</event>
<event>
 7    1  0.2733606E-009  0.9859985E+02  0.7561462E-02  0.1283268E+00
          1   -1    0    0  501    0  0.00000000000E+00  0.00000000000E+00  0.10021017290E+04  0.10021017290E+04  0.00000000000E+00 0. -1.
         -1   -1    0    0    0  501 -0.00000000000E+00 -0.00000000000E+00 -0.16388280824E+02  0.16388280824E+02  0.00000000000E+00 0.  1.
         25    2    1    2    0    0 -0.23543385248E+02 -0.16016771938E+01  0.81037044003E+03  0.82030794270E+03  0.12509202384E+03 0.  0.
          5    1    3    3  502    0  0.40044729220E+02 -0.12182813815E+02  0.12475223504E+03  0.13165330926E+03  0.41800000000E+01 0.  1.
         -5    1    3    3    0  502 -0.63588114468E+02  0.10581136621E+02  0.68561820498E+03  0.68865463344E+03  0.41800000000E+01 0.  1.
        -11    1    1    2    0    0 -0.30272000981E+02 -0.15578817674E+02  0.47766382816E+02  0.58657658757E+02  0.00000000000E+00 0.  1.
         11    1    1    2    0    0  0.53815386229E+02  0.17180494868E+02  0.12757662533E+03  0.13952440836E+03  0.00000000000E+00 0. -1.
</event>
<event>
 7    1  0.2733606E-009  0.8381346E+02  0.7561462E-02  0.1318565E+00
         -3   -1    0    0    0  501 -0.00000000000E+00  0.00000000000E+00  0.55911463571E+02  0.55911463571E+02  0.00000000000E+00 0. -1.
          3   -1    0    0  501    0  0.00000000000E+00 -0.00000000000E+00 -0.26348047756E+03  0.26348047756E+03  0.00000000000E+00 0.  1.
         25    2    1    2    0    0 -0.47192046847E+02 -0.89299672182E+01 -0.17477657702E+03  0.22022996296E+03  0.12509017191E+03 0.  0.
          5    1    3    3  502    0 -0.34814209465E+02  0.25203673028E+02 -0.17835371982E+03  0.18350688295E+03  0.41800000000E+01 0. -1.
         -5    1    3    3    0  502 -0.12377837382E+02 -0.34133640246E+02  0.35771428032E+01  0.36723080009E+02  0.41800000000E+01 0. -1.
        -11    1    1    2    0    0 -0.38215599348E+01 -0.25865048173E+02  0.52031749546E+01  0.26658545852E+02  0.00000000000E+00 0.  1.
         11    1    1    2    0    0  0.51013606781E+02  0.34795015392E+02 -0.37995611926E+02  0.72503432323E+02  0.00000000000E+00 0. -1.
</event>
<event>
 7    1  0.3003679E-009  0.1199422E+03  0.7561462E-02  0.1243192E+00
         -2   -1    0    0    0  501 -0.00000000000E+00  0.00000000000E+00  0.44928870462E+02  0.44928870462E+02  0.00000000000E+00 0.  1.
          2   -1    0    0  501    0  0.00000000000E+00 -0.00000000000E+00 -0.43460754749E+03  0.43460754749E+03  0.00000000000E+00 0. -1.
         25    2    1    2    0    0  0.35004133684E+02  0.80008530882E+02 -0.21525877236E+03  0.26383618813E+03  0.12508613313E+03 0.  0.
          5    1    3    3  502    0 -0.47279412823E+02  0.30929302760E+02 -0.79067300820E+02  0.97268057989E+02  0.41800000000E+01 0.  1.
         -5    1    3    3    0  502  0.82283546506E+02  0.49079228122E+02 -0.13619147154E+03  0.16656813015E+03  0.41800000000E+01 0.  1.
        -11    1    1    2    0    0 -0.12702901391E+02 -0.28395066526E+02  0.13704221627E+01  0.31137141225E+02  0.00000000000E+00 0.  1.
         11    1    1    2    0    0 -0.22301232293E+02 -0.51613464356E+02 -0.17579032682E+03  0.18456308859E+03  0.00000000000E+00 0. -1.
</event>
<event>
 7    1  0.2733606E-009  0.2738313E+03  0.7561462E-02  0.1099107E+00
          2   -1    0    0  501    0  0.00000000000E+00  0.00000000000E+00  0.39209807030E+04  0.39209807030E+04  0.00000000000E+00 0. -1.
         -2   -1    0    0    0  501 -0.00000000000E+00 -0.00000000000E+00 -0.24385092787E+02  0.24385092787E+02  0.00000000000E+00 0.  1.
         25    2    1    2    0    0 -0.25251396420E+03  0.45545629341E+02  0.28249721233E+04  0.28393578341E+04  0.12509079239E+03 0.  0.
          5    1    3    3  502    0 -0.23905726020E+03  0.67461562505E+02  0.27149606312E+04  0.27263030165E+04  0.41800000000E+01 0. -1.
         -5    1    3    3    0  502 -0.13456704006E+02 -0.21915933164E+02  0.11001149205E+03  0.11305481764E+03  0.41800000000E+01 0. -1.
        -11    1    1    2    0    0  0.69893839910E+02  0.29338441981E+02  0.32678048711E+03  0.33545697159E+03  0.00000000000E+00 0. -1.
         11    1    1    2    0    0  0.18262012429E+03 -0.74884071322E+02  0.74484299982E+03  0.77055099008E+03  0.00000000000E+00 0.  1.
</event>
<event>
 7    1  0.2733606E-009  0.1019711E+03  0.7561462E-02  0.1276205E+00
         -2   -1    0    0    0  501 -0.00000000000E+00  0.00000000000E+00  0.79193352536E+02  0.79193352536E+02  0.00000000000E+00 0.  1.
          2   -1    0    0  501    0  0.00000000000E+00 -0.00000000000E+00 -0.15835200814E+03  0.15835200814E+03  0.00000000000E+00 0. -1.
         25    2    1    2    0    0 -0.15902285830E+02 -0.49199348631E+02 -0.43246801652E+02  0.14209550048E+03  0.12508951517E+03 0.  0.
          5    1    3    3  502    0  0.48236037163E+02 -0.50021567896E+02 -0.12070539747E+02  0.70654390279E+02  0.41800000000E+01 0. -1.
         -5    1    3    3    0  502 -0.64138322993E+02  0.82221926501E+00 -0.31176261905E+02  0.71441110204E+02  0.41800000000E+01 0. -1.
        -11    1    1    2    0    0  0.28811806005E+02  0.12989507664E+02 -0.45902587187E+02  0.55730557015E+02  0.00000000000E+00 0. -1.
         11    1    1    2    0    0 -0.12909520175E+02  0.36209840967E+02  0.99907332393E+01  0.39719303174E+02  0.00000000000E+00 0.  1.
</event>
<event>
 7    1  0.2733606E-009  0.2879451E+03  0.7561462E-02  0.1091427E+00
          2   -1    0    0  501    0  0.00000000000E+00  0.00000000000E+00  0.61045786326E+03  0.61045786326E+03  0.00000000000E+00 0. -1.
         -2   -1    0    0    0  501 -0.00000000000E+00 -0.00000000000E+00 -0.14829577628E+03  0.14829577628E+03  0.00000000000E+00 0.  1.
         25    2    1    2    0    0  0.21451832061E+03 -0.18040803494E+03  0.23409123139E+03  0.38601911063E+03  0.12508749022E+03 0.  0.
          5    1    3    3  502    0 -0.48137725153E+01 -0.25087789275E+02  0.61139048399E+02  0.66392960588E+02  0.41800000000E+01 0. -1.
         -5    1    3    3    0  502  0.21933209313E+03 -0.15532024567E+03  0.17295218299E+03  0.31962615004E+03  0.41800000000E+01 0. -1.
        -11    1    1    2    0    0 -0.50722268331E+02  0.30571575093E+02  0.73309088069E+01  0.59675052846E+02  0.00000000000E+00 0.  1.
         11    1    1    2    0    0 -0.16379605228E+03  0.14983645985E+03  0.22073994679E+03  0.31305947607E+03  0.00000000000E+00 0. -1.
</event>
<event>
 7    1  0.2733606E-009  0.1239380E+03  0.7561462E-02  0.1236738E+00
          2   -1    0    0  501    0  0.00000000000E+00  0.00000000000E+00  0.54315332924E+03  0.54315332924E+03  0.00000000000E+00 0. -1.
         -2   -1    0    0    0  501 -0.00000000000E+00 -0.00000000000E+00 -0.40910882212E+02  0.40910882212E+02  0.00000000000E+00 0.  1.
         25    2    1    2    0    0  0.82752040859E+02  0.47310591748E+02  0.34496678013E+03  0.37911953496E+03  0.12507337862E+03 0.  0.
          5    1    3    3  502    0  0.13056255505E+02  0.53544257321E+02  0.45596163884E+02  0.71651488894E+02  0.41800000000E+01 0. -1.
         -5    1    3    3    0  502  0.69695785354E+02 -0.62336655733E+01  0.29937061624E+03  0.30746804607E+03  0.41800000000E+01 0. -1.
        -11    1    1    2    0    0 -0.14237595834E+01 -0.40900507317E+02  0.20708889475E+02  0.45866509496E+02  0.00000000000E+00 0.  1.
         11    1    1    2    0    0 -0.81328281276E+02 -0.64100844310E+01  0.13656677743E+03  0.15907816700E+03  0.00000000000E+00 0. -1.
</event>
<event>
 7    1  0.2733606E-009  0.8252852E+02  0.7561462E-02  0.1322025E+00
          1   -1    0    0  501    0  0.00000000000E+00  0.00000000000E+00  0.22269011101E+03  0.22269011101E+03  0.00000000000E+00 0. -1.
         -1   -1    0    0    0  501 -0.00000000000E+00 -0.00000000000E+00 -0.66481221613E+02  0.66481221613E+02  0.00000000000E+00 0.  1.
         25    2    1    2    0    0  0.28800312863E+02  0.28468836727E+02  0.13070936118E+03  0.18539544806E+03  0.12508637966E+03 0.  0.
          5    1    3    3  502    0  0.26553677143E+02 -0.26545123556E+02 -0.57257013649E+01  0.38209912465E+02  0.41800000000E+01 0.  1.
         -5    1    3    3    0  502  0.22466357203E+01  0.55013960283E+02  0.13643506255E+03  0.14718553560E+03  0.41800000000E+01 0.  1.
        -11    1    1    2    0    0  0.18442852100E+02 -0.12117613461E+02 -0.24567226282E+02  0.33023082182E+02  0.00000000000E+00 0.  1.
         11    1    1    2    0    0 -0.47243164963E+02 -0.16351223267E+02  0.50066754501E+02  0.70752802378E+02  0.00000000000E+00 0. -1.
</event>
<event>
 7    1  0.2733606E-009  0.8275667E+02  0.7561462E-02  0.1321406E+00
         -2   -1    0    0    0  501 -0.00000000000E+00  0.00000000000E+00  0.36278012633E+02  0.36278012633E+02  0.00000000000E+00 0.  1.
          2   -1    0    0  501    0  0.00000000000E+00 -0.00000000000E+00 -0.35181146239E+03  0.35181146239E+03  0.00000000000E+00 0. -1.
         25    2    1    2    0    0 -0.17895690558E+02 -0.28402334333E+02 -0.17772213406E+03  0.21990815288E+03  0.12508992938E+03 0.  0.
          5    1    3    3  502    0 -0.81590812303E+01 -0.50344830250E+02 -0.18696919992E+03  0.19384562585E+03  0.41800000000E+01 0. -1.
         -5    1    3    3    0  502 -0.97366093277E+01  0.21942495917E+02  0.92470658664E+01  0.26062527034E+02  0.41800000000E+01 0. -1.
        -11    1    1    2    0    0 -0.22994026265E+02 -0.17206432372E+02 -0.18782379295E+02  0.34315657226E+02  0.00000000000E+00 0.  1.
         11    1    1    2    0    0  0.40889716823E+02  0.45608766705E+02 -0.11902893640E+03  0.13386566492E+03  0.00000000000E+00 0. -1.
</event>
<event>
 7    1  0.2733606E-009  0.9205658E+02  0.7561462E-02  0.1297946E+00
          1   -1    0    0  501    0  0.00000000000E+00  0.00000000000E+00  0.38074349122E+03  0.38074349122E+03  0.00000000000E+00 0. -1.
         -1   -1    0    0    0  501 -0.00000000000E+00 -0.00000000000E+00 -0.35945608452E+02  0.35945608452E+02  0.00000000000E+00 0.  1.
         25    2    1    2    0    0 -0.45545795401E+02  0.39800806453E+01  0.18416101582E+03  0.22727644019E+03  0.12509612303E+03 0.  0.
          5    1    3    3  502    0 -0.50887417161E+02 -0.26647688836E+02  0.18710508127E+03  0.19576877274E+03  0.41800000000E+01 0. -1.
         -5    1    3    3    0  502  0.53416217596E+01  0.30627769481E+02 -0.29440654483E+01  0.31507667444E+02  0.41800000000E+01 0. -1.
        -11    1    1    2    0    0  0.70242211874E+02 -0.51013251338E+01  0.88168985586E+02  0.11284397133E+03  0.00000000000E+00 0.  1.
         11    1    1    2    0    0 -0.24696416472E+02  0.11212444886E+01  0.72467881362E+02  0.76568688149E+02  0.00000000000E+00 0. -1.
</event>
<event>
 7    1  0.2733606E-009  0.1313349E+03  0.7561462E-02  0.1225488E+00
          2   -1    0    0  501    0  0.00000000000E+00  0.00000000000E+00  0.70873587457E+03  0.70873587457E+03  0.00000000000E+00 0. -1.
         -2   -1    0    0    0  501 -0.00000000000E+00 -0.00000000000E+00 -0.31253591288E+02  0.31253591288E+02  0.00000000000E+00 0.  1.
         25    2    1    2    0    0 -0.31069704860E+02  0.89690555560E+02  0.29687789833E+03  0.33584890009E+03  0.12509306478E+03 0.  0.
          5    1    3    3  502    0  0.36913717619E+01 -0.15373391067E+02 -0.25925680776E+01  0.16557813492E+02  0.41800000000E+01 0.  1.
         -5    1    3    3    0  502 -0.34761076622E+02  0.10506394663E+03  0.29947046641E+03  0.31929108659E+03  0.41800000000E+01 0.  1.
        -11    1    1    2    0    0 -0.18248440378E+02  0.12489258072E+02  0.52257637696E+02  0.56743703096E+02  0.00000000000E+00 0.  1.
         11    1    1    2    0    0  0.49318145238E+02 -0.10217981363E+03  0.32834674726E+03  0.34739686268E+03  0.00000000000E+00 0. -1.
</event>
<event>
 7    1  0.2733606E-009  0.1098957E+03  0.7561462E-02  0.1260763E+00
         -3   -1    0    0    0  501 -0.00000000000E+00  0.00000000000E+00  0.10850213620E+03  0.10850213620E+03  0.00000000000E+00 0.  1.
          3   -1    0    0  501    0  0.00000000000E+00 -0.00000000000E+00 -0.22182133220E+03  0.22182133220E+03  0.00000000000E+00 0. -1.
         25    2    1    2    0    0  0.55317238065E+02 -0.10358941981E+01 -0.16260522034E+03  0.21248779470E+03  0.12509810276E+03 0.  0.
          5    1    3    3  502    0  0.66999709588E+02 -0.35657275698E+02 -0.42948504111E+02  0.87306636635E+02  0.41800000000E+01 0.  1.
         -5    1    3    3    0  502 -0.11682471523E+02  0.34621381500E+02 -0.11965671623E+03  0.12518115807E+03  0.41800000000E+01 0.  1.
        -11    1    1    2    0    0 -0.45118341392E+02 -0.42682945809E+02  0.27186722411E+02  0.67798351517E+02  0.00000000000E+00 0.  1.
         11    1    1    2    0    0 -0.10198896674E+02  0.43718840008E+02  0.22099301924E+02  0.50037322176E+02  0.00000000000E+00 0. -1.
</event>
<event>
 7    1  0.2733606E-009  0.9838743E+02  0.7561462E-02  0.1283724E+00
          2   -1    0    0  501    0  0.00000000000E+00  0.00000000000E+00  0.17469339986E+03  0.17469339986E+03  0.00000000000E+00 0. -1.
         -2   -1    0    0    0  501 -0.00000000000E+00 -0.00000000000E+00 -0.11789376428E+03  0.11789376428E+03  0.00000000000E+00 0.  1.
         25    2    1    2    0    0 -0.58978402512E+02 -0.98729559721E+01 -0.42789359889E+02  0.14509809173E+03  0.12508636888E+03 0.  0.
          5    1    3    3  502    0 -0.89501593566E+02  0.10229269290E+02 -0.20452377169E+01  0.90204371282E+02  0.41800000000E+01 0.  1.
         -5    1    3    3    0  502  0.30523191054E+02 -0.20102225262E+02 -0.40744122172E+02  0.54893720444E+02  0.41800000000E+01 0.  1.
        -11    1    1    2    0    0  0.46319663614E+02 -0.88982301011E+01  0.18936988819E+01  0.47204616636E+02  0.00000000000E+00 0.  1.
         11    1    1    2    0    0  0.12658738897E+02  0.18771186073E+02  0.97695296582E+02  0.10028445578E+03  0.00000000000E+00 0. -1.
</event>
<event>
 7    1  0.3272524E-009  0.9945425E+02  0.7561462E-02  0.1281448E+00
         -1   -1    0    0    0  501 -0.00000000000E+00  0.00000000000E+00  0.12005642915E+03  0.12005642915E+03  0.00000000000E+00 0.  1.
          1   -1    0    0  501    0  0.00000000000E+00 -0.00000000000E+00 -0.12205397917E+03  0.12205397917E+03  0.00000000000E+00 0. -1.
         25    2    1    2    0    0  0.10917626261E+02 -0.29791407274E+02 -0.44138807230E+02  0.13639222776E+03  0.12509149842E+03 0.  0.
          5    1    3    3  502    0  0.80600861766E+01 -0.78813047367E+02 -0.21744414927E+02  0.82260278415E+02  0.41800000000E+01 0.  1.
         -5    1    3    3    0  502  0.28575400847E+01  0.49021640093E+02 -0.22394392304E+02  0.54131949340E+02  0.41800000000E+01 0.  1.
        -11    1    1    2    0    0 -0.31872976578E+02 -0.23094046304E+01  0.56394132145E+02  0.64819118523E+02  0.00000000000E+00 0.  1.
         11    1    1    2    0    0  0.20955350317E+02  0.32100811905E+02 -0.14252874933E+02  0.40899062040E+02  0.00000000000E+00 0. -1.
</event>
<event>
 7    1  0.2733606E-009  0.1281936E+03  0.7561462E-02  0.1230161E+00
          1   -1    0    0  501    0  0.00000000000E+00  0.00000000000E+00  0.12270506034E+03  0.12270506034E+03  0.00000000000E+00 0. -1.
         -1   -1    0    0    0  501 -0.00000000000E+00 -0.00000000000E+00 -0.21260134274E+03  0.21260134274E+03  0.00000000000E+00 0.  1.
         25    2    1    2    0    0 -0.55990026696E+02  0.73111860642E+02  0.31216771619E+02  0.15843741555E+03  0.12509076928E+03 0.  0.
          5    1    3    3  502    0 -0.47662446556E+02 -0.25914378331E+02  0.21477701713E+02  0.58498101566E+02  0.41800000000E+01 0. -1.
         -5    1    3    3    0  502 -0.83275801401E+01  0.99026238973E+02  0.97390699059E+01  0.99939313980E+02  0.41800000000E+01 0. -1.
        -11    1    1    2    0    0  0.33563854329E+02 -0.92343887370E+01  0.35682055866E+01  0.34993404291E+02  0.00000000000E+00 0. -1.
         11    1    1    2    0    0  0.22426172368E+02 -0.63877471905E+02 -0.12468125961E+03  0.14187558324E+03  0.00000000000E+00 0.  1.
</event>
<event>
 7    1  0.2733606E-009  0.1105050E+03  0.7561462E-02  0.1259638E+00
         -1   -1    0    0    0  501 -0.00000000000E+00  0.00000000000E+00  0.45311140054E+02  0.45311140054E+02  0.00000000000E+00 0.  1.
          1   -1    0    0  501    0  0.00000000000E+00 -0.00000000000E+00 -0.29175660621E+03  0.29175660621E+03  0.00000000000E+00 0. -1.
         25    2    1    2    0    0 -0.14458080168E+02  0.13064040377E+02 -0.11018029433E+03  0.16782789391E+03  0.12508716754E+03 0.  0.
          5    1    3    3  502    0 -0.64895046784E+02  0.31891393133E+02 -0.67385714874E+02  0.98927928424E+02  0.41800000000E+01 0.  1.
         -5    1    3    3    0  502  0.50436966617E+02 -0.18827352756E+02 -0.42794579453E+02  0.68899965485E+02  0.41800000000E+01 0.  1.
        -11    1    1    2    0    0 -0.21436499431E+02  0.31037234316E+02 -0.83683569531E+02  0.91792010717E+02  0.00000000000E+00 0. -1.
         11    1    1    2    0    0  0.35894579599E+02 -0.44101274693E+02 -0.52581602297E+02  0.77447841637E+02  0.00000000000E+00 0.  1.
</event>
<event>
 7    1  0.2733606E-009  0.1351240E+03  0.7561462E-02  0.1220045E+00
         -2   -1    0    0    0  501 -0.00000000000E+00  0.00000000000E+00  0.46755512726E+02  0.46755512726E+02  0.00000000000E+00 0. -1.
          2   -1    0    0  501    0  0.00000000000E+00 -0.00000000000E+00 -0.42709177614E+03  0.42709177614E+03  0.00000000000E+00 0.  1.
         25    2    1    2    0    0  0.77579671203E+02  0.45763236001E+02 -0.24336556455E+03  0.28807394538E+03  0.12508765266E+03 0.  0.
          5    1    3    3  502    0 -0.31681763936E+02  0.18435265401E+01 -0.83886679018E+02  0.89786302257E+02  0.41800000000E+01 0. -1.
         -5    1    3    3    0  502  0.10926143514E+03  0.43919709461E+02 -0.15947888553E+03  0.19828764313E+03  0.41800000000E+01 0. -1.
        -11    1    1    2    0    0 -0.51401083526E+02  0.15580080875E+02 -0.87746326104E+02  0.10287967755E+03  0.00000000000E+00 0.  1.
         11    1    1    2    0    0 -0.26178587678E+02 -0.61343316876E+02 -0.49224372767E+02  0.82893665937E+02  0.00000000000E+00 0. -1.
</event>
<event>
 7    1  0.2733606E-009  0.1611594E+03  0.7561462E-02  0.1187394E+00
          2   -1    0    0  501    0  0.00000000000E+00  0.00000000000E+00  0.13773127008E+03  0.13773127008E+03  0.00000000000E+00 0. -1.
         -2   -1    0    0    0  501 -0.00000000000E+00 -0.00000000000E+00 -0.20520457934E+03  0.20520457934E+03  0.00000000000E+00 0.  1.
         25    2    1    2    0    0  0.11699442372E+03 -0.51489036848E+02 -0.37312565923E+02  0.18269935632E+03  0.12509201064E+03 0.  0.
          5    1    3    3  502    0 -0.14143457799E+02 -0.34927077467E+02  0.14603224960E+02  0.40628373314E+02  0.41800000000E+01 0. -1.
         -5    1    3    3    0  502  0.13113788152E+03 -0.16561959381E+02 -0.51915790883E+02  0.14207098300E+03  0.41800000000E+01 0. -1.
        -11    1    1    2    0    0 -0.41761027362E+02 -0.21818101387E+02 -0.28727084744E+02  0.55183859528E+02  0.00000000000E+00 0.  1.
         11    1    1    2    0    0 -0.75233396361E+02  0.73307138235E+02 -0.14336585848E+01  0.10505263358E+03  0.00000000000E+00 0. -1.
</event>
<event>
 7    1  0.2733606E-009  0.9028684E+02  0.7561462E-02  0.1302159E+00
         -2   -1    0    0    0  501 -0.00000000000E+00  0.00000000000E+00  0.42857872422E+02  0.42857872422E+02  0.00000000000E+00 0.  1.
          2   -1    0    0  501    0  0.00000000000E+00 -0.00000000000E+00 -0.26025279104E+03  0.26025279104E+03  0.00000000000E+00 0. -1.
         25    2    1    2    0    0 -0.31305291152E+02  0.28165771822E+02 -0.12327295618E+03  0.18060313730E+03  0.12509172443E+03 0.  0.
          5    1    3    3  502    0  0.37790036167E+02  0.32895093798E+02 -0.91256914347E+02  0.10418959087E+03  0.41800000000E+01 0. -1.
         -5    1    3    3    0  502 -0.69095327319E+02 -0.47293219759E+01 -0.32016041836E+02  0.76413546433E+02  0.41800000000E+01 0. -1.
        -11    1    1    2    0    0 -0.42817821289E+01 -0.24802412732E+02 -0.39093313564E+01  0.25471085709E+02  0.00000000000E+00 0.  1.
         11    1    1    2    0    0  0.35587073281E+02 -0.33633590892E+01 -0.90212631075E+02  0.97036440446E+02  0.00000000000E+00 0. -1.
</event>
<event>
 7    1  0.2733606E-009  0.1377811E+03  0.7561462E-02  0.1216346E+00
          1   -1    0    0  501    0  0.00000000000E+00  0.00000000000E+00  0.45928143756E+03  0.45928143756E+03  0.00000000000E+00 0. -1.
         -1   -1    0    0    0  501 -0.00000000000E+00 -0.00000000000E+00 -0.98709295560E+02  0.98709295560E+02  0.00000000000E+00 0.  1.
         25    2    1    2    0    0  0.11385492702E+03 -0.43066586647E+02  0.82798071681E+01  0.17474180167E+03  0.12509383179E+03 0.  0.
          5    1    3    3  502    0  0.65683466374E+02 -0.44729363803E+02 -0.53784311374E+02  0.96048208161E+02  0.41800000000E+01 0.  1.
         -5    1    3    3    0  502  0.48171460650E+02  0.16627771562E+01  0.62064118542E+02  0.78693593509E+02  0.41800000000E+01 0.  1.
        -11    1    1    2    0    0 -0.12248049437E+03  0.21469171496E+02  0.26202047007E+03  0.29002952188E+03  0.00000000000E+00 0.  1.
         11    1    1    2    0    0  0.86255673459E+01  0.21597415151E+02  0.90271864763E+02  0.93219409573E+02  0.00000000000E+00 0. -1.
</event>
<event>
 7    1  0.3380822E-009  0.1499986E+03  0.7561462E-02  0.1200475E+00
         -1   -1    0    0    0  501 -0.00000000000E+00  0.00000000000E+00  0.84357971221E+02  0.84357971221E+02  0.00000000000E+00 0.  1.
          1   -1    0    0  501    0  0.00000000000E+00 -0.00000000000E+00 -0.49209199913E+03  0.49209199913E+03  0.00000000000E+00 0. -1.
         25    2    1    2    0    0 -0.14970586818E+03  0.50273018531E-01 -0.92239363256E+02  0.21579383414E+03  0.12508808586E+03 0.  0.
          5    1    3    3  502    0 -0.82303733900E+02 -0.47868706424E+01  0.19796659281E+02  0.84889333035E+02  0.41800000000E+01 0. -1.
         -5    1    3    3    0  502 -0.67402134279E+02  0.48371436609E+01 -0.11203602254E+03  0.13090450111E+03  0.41800000000E+01 0. -1.
        -11    1    1    2    0    0  0.35471332864E+02 -0.14468063060E+01 -0.13857956791E+02  0.38109731960E+02  0.00000000000E+00 0.  1.
         11    1    1    2    0    0  0.11423453531E+03  0.13965332875E+01 -0.30163670786E+03  0.32254640424E+03  0.00000000000E+00 0. -1.
</event>
<event>
 7    1  0.2733606E-009  0.1199153E+03  0.7561462E-02  0.1243237E+00
         -1   -1    0    0    0  501 -0.00000000000E+00  0.00000000000E+00  0.18462963131E+03  0.18462963131E+03  0.00000000000E+00 0.  1.
          1   -1    0    0  501    0  0.00000000000E+00 -0.00000000000E+00 -0.10251721005E+03  0.10251721005E+03  0.00000000000E+00 0. -1.
         25    2    1    2    0    0  0.10782209969E+02  0.69339587505E+02 -0.34099801992E+01  0.14347041724E+03  0.12509155931E+03 0.  0.
          5    1    3    3  502    0 -0.39598119050E+01 -0.31590126377E+02 -0.23030540399E+02  0.39515748581E+02  0.41800000000E+01 0. -1.
         -5    1    3    3    0  502  0.14742021874E+02  0.10092971388E+03  0.19620560199E+02  0.10395466866E+03  0.41800000000E+01 0. -1.
        -11    1    1    2    0    0  0.34387594667E+02 -0.33004984384E+02  0.10395858518E+02  0.48784316491E+02  0.00000000000E+00 0. -1.
         11    1    1    2    0    0 -0.45169804636E+02 -0.36334603122E+02  0.75126542946E+02  0.94892107627E+02  0.00000000000E+00 0.  1.
</event>
<event>
 7    1  0.2733606E-009  0.8826892E+02  0.7561462E-02  0.1307099E+00
          1   -1    0    0  501    0  0.00000000000E+00  0.00000000000E+00  0.21691144722E+03  0.21691144722E+03  0.00000000000E+00 0. -1.
         -1   -1    0    0    0  501 -0.00000000000E+00 -0.00000000000E+00 -0.56307414796E+02  0.56307414796E+02  0.00000000000E+00 0.  1.
         25    2    1    2    0    0 -0.11331158625E+02  0.49360585917E+01  0.10350637879E+03  0.16283130060E+03  0.12509077574E+03 0.  0.
          5    1    3    3  502    0 -0.18837999487E+02 -0.36431091475E+02 -0.93955708751E+01  0.42282902015E+02  0.41800000000E+01 0. -1.
         -5    1    3    3    0  502  0.75068408620E+01  0.41367150066E+02  0.11290194966E+03  0.12054839859E+03  0.41800000000E+01 0. -1.
        -11    1    1    2    0    0  0.44466838024E+02 -0.28128081962E+02  0.41598327891E+02  0.67073911188E+02  0.00000000000E+00 0.  1.
         11    1    1    2    0    0 -0.33135679398E+02  0.23192023371E+02  0.15499325744E+02  0.43313650224E+02  0.00000000000E+00 0. -1.
</event>
<event>
 7    1  0.2733606E-009  0.1648602E+03  0.7561462E-02  0.1183316E+00
          1   -1    0    0  501    0  0.00000000000E+00  0.00000000000E+00  0.77909061231E+02  0.77909061231E+02  0.00000000000E+00 0. -1.
         -1   -1    0    0    0  501 -0.00000000000E+00 -0.00000000000E+00 -0.38506493522E+03  0.38506493522E+03  0.00000000000E+00 0.  1.
         25    2    1    2    0    0 -0.82855206128E+02 -0.99332533604E+02 -0.18106996114E+03  0.25527532146E+03  0.12508885445E+03 0.  0.
          5    1    3    3  502    0  0.13962813360E+02 -0.59100135330E+02 -0.11820297158E+03  0.13295563562E+03  0.41800000000E+01 0.  1.
         -5    1    3    3    0  502 -0.96818019487E+02 -0.40232398274E+02 -0.62866989557E+02  0.12231968584E+03  0.41800000000E+01 0.  1.
        -11    1    1    2    0    0  0.97581253069E+02  0.10900611928E+03 -0.11944650402E+03  0.18887006728E+03  0.00000000000E+00 0.  1.
         11    1    1    2    0    0 -0.14726046942E+02 -0.96735856812E+01 -0.66394088233E+01  0.18828607702E+02  0.00000000000E+00 0. -1.
</event>
<event>
 7    1  0.2733606E-009  0.7309161E+02  0.7561462E-02  0.1349885E+00
         -3   -1    0    0    0  501 -0.00000000000E+00  0.00000000000E+00  0.10803538853E+03  0.10803538853E+03  0.00000000000E+00 0.  1.
          3   -1    0    0  501    0  0.00000000000E+00 -0.00000000000E+00 -0.13938295797E+03  0.13938295797E+03  0.00000000000E+00 0. -1.
         25    2    1    2    0    0  0.54931406528E+01 -0.20170675681E+02  0.36852736459E+02  0.13207002992E+03  0.12508931956E+03 0.  0.
          5    1    3    3  502    0 -0.25829107525E+02  0.15420888386E+01 -0.39051522744E+02  0.47032059940E+02  0.41800000000E+01 0. -1.
         -5    1    3    3    0  502  0.31322248178E+02 -0.21712764520E+02  0.75904259203E+02  0.85037969985E+02  0.41800000000E+01 0. -1.
        -11    1    1    2    0    0  0.28710798553E+02 -0.15151373449E+02 -0.55934878007E+02  0.64672905058E+02  0.00000000000E+00 0.  1.
         11    1    1    2    0    0 -0.34203939206E+02  0.35322049131E+02 -0.12265427893E+02  0.50675411526E+02  0.00000000000E+00 0. -1.
</event>
<event>
 7    1  0.2733606E-009  0.2186986E+03  0.7561462E-02  0.1134857E+00
          2   -1    0    0  501    0  0.00000000000E+00  0.00000000000E+00  0.43792637183E+03  0.43792637183E+03  0.00000000000E+00 0. -1.
         -2   -1    0    0    0  501 -0.00000000000E+00 -0.00000000000E+00 -0.13827274562E+03  0.13827274562E+03  0.00000000000E+00 0.  1.
         25    2    1    2    0    0 -0.16213776336E+03  0.13919241006E+03  0.89937273763E+02  0.26343794384E+03  0.12509059003E+03 0.  0.
          5    1    3    3  502    0 -0.10789688155E+02  0.42040232214E+02  0.69961503021E+02  0.82437144541E+02  0.41800000000E+01 0.  1.
         -5    1    3    3    0  502 -0.15134807521E+03  0.97152177846E+02  0.19975770742E+02  0.18100079930E+03  0.41800000000E+01 0.  1.
        -11    1    1    2    0    0  0.13077211015E+03 -0.10719654944E+03  0.20781264936E+03  0.26791517732E+03  0.00000000000E+00 0. -1.
         11    1    1    2    0    0  0.31365653212E+02 -0.31995860618E+02  0.19037030850E+01  0.44845996294E+02  0.00000000000E+00 0.  1.
</event>
<event>
 7    1  0.2733606E-009  0.1077740E+03  0.7561462E-02  0.1264749E+00
          1   -1    0    0  501    0  0.00000000000E+00  0.00000000000E+00  0.40243914629E+02  0.40243914629E+02  0.00000000000E+00 0. -1.
         -1   -1    0    0    0  501 -0.00000000000E+00 -0.00000000000E+00 -0.33824965620E+03  0.33824965620E+03  0.00000000000E+00 0.  1.
         25    2    1    2    0    0 -0.42105755404E+01 -0.16833385898E+02 -0.23065388152E+03  0.26296416146E+03  0.12509134792E+03 0.  0.
          5    1    3    3  502    0  0.49080452131E+02  0.23636806781E+02 -0.69388558558E+02  0.88316668161E+02  0.41800000000E+01 0.  1.
         -5    1    3    3    0  502 -0.53291027671E+02 -0.40470192679E+02 -0.16126532296E+03  0.17464749330E+03  0.41800000000E+01 0.  1.
        -11    1    1    2    0    0  0.48081113626E+02  0.13115732245E+02 -0.35709334124E+02  0.61310459658E+02  0.00000000000E+00 0. -1.
         11    1    1    2    0    0 -0.43870538085E+02  0.37176536532E+01 -0.31642525924E+02  0.54218949708E+02  0.00000000000E+00 0.  1.
</event>
<event>
 7    1  0.2733606E-009  0.1221721E+03  0.7561462E-02  0.1239556E+00
          2   -1    0    0  501    0  0.00000000000E+00  0.00000000000E+00  0.14341836764E+04  0.14341836764E+04  0.00000000000E+00 0.  1.
         -2   -1    0    0    0  501 -0.00000000000E+00 -0.00000000000E+00 -0.11248192196E+02  0.11248192196E+02  0.00000000000E+00 0. -1.
         25    2    1    2    0    0 -0.20943828122E+02 -0.54206026209E+02  0.98246226203E+03  0.99209594182E+03  0.12508127059E+03 0.  0.
          5    1    3    3  502    0  0.31953948948E+02  0.26227295140E+02  0.30196175162E+03  0.30480698434E+03  0.41800000000E+01 0.  1.
         -5    1    3    3    0  502 -0.52897777070E+02 -0.80433321349E+02  0.68050051041E+03  0.68728895748E+03  0.41800000000E+01 0.  1.
        -11    1    1    2    0    0 -0.25783643894E+02 -0.94572029452E+01  0.91151532707E+02  0.95198933265E+02  0.00000000000E+00 0.  1.
         11    1    1    2    0    0  0.46727472016E+02  0.63663229154E+02  0.34932168946E+03  0.35813699350E+03  0.00000000000E+00 0. -1.
</event>
<event>
 7    1  0.2733606E-009  0.1471555E+03  0.7561462E-02  0.1204013E+00
         -3   -1    0    0    0  501 -0.00000000000E+00  0.00000000000E+00  0.69459980010E+03  0.69459980010E+03  0.00000000000E+00 0.  1.
          3   -1    0    0  501    0  0.00000000000E+00 -0.00000000000E+00 -0.41698195051E+02  0.41698195051E+02  0.00000000000E+00 0. -1.
         25    2    1    2    0    0  0.89669498897E+02  0.58115059445E+02  0.18537020567E+03  0.24784642854E+03  0.12509100616E+03 0.  0.
          5    1    3    3  502    0 -0.29038644253E+02  0.29511339878E+02  0.57640778631E+02  0.71092150077E+02  0.41800000000E+01 0.  1.
         -5    1    3    3    0  502  0.11870814315E+03  0.28603719567E+02  0.12772942704E+03  0.17675427847E+03  0.41800000000E+01 0.  1.
        -11    1    1    2    0    0 -0.41790844632E+02  0.13900387561E+02  0.79341189989E+02  0.90745357448E+02  0.00000000000E+00 0.  1.
         11    1    1    2    0    0 -0.47878654265E+02 -0.72015447006E+02  0.38819020938E+03  0.39770620916E+03  0.00000000000E+00 0. -1.
</event>
<event>
 7    1  0.2733606E-009  0.3182374E+03  0.7561462E-02  0.1076463E+00
         -1   -1    0    0    0  501 -0.00000000000E+00  0.00000000000E+00  0.17032920313E+03  0.17032920313E+03  0.00000000000E+00 0.  1.
          1   -1    0    0  501    0  0.00000000000E+00 -0.00000000000E+00 -0.67779063428E+03  0.67779063428E+03  0.00000000000E+00 0. -1.
         25    2    1    2    0    0  0.28311515857E+03 -0.12137011653E+03 -0.14210575766E+03  0.36156089634E+03  0.12508931692E+03 0.  0.
          5    1    3    3  502    0  0.16420179111E+03 -0.12942487181E+03 -0.11722640873E+03  0.23973428822E+03  0.41800000000E+01 0. -1.
         -5    1    3    3    0  502  0.11891336746E+03  0.80547552772E+01 -0.24879348932E+02  0.12182660812E+03  0.41800000000E+01 0. -1.
        -11    1    1    2    0    0 -0.21343990545E+03  0.88557110790E+02 -0.32729934614E+03  0.40065423634E+03  0.00000000000E+00 0. -1.
         11    1    1    2    0    0 -0.69675253113E+02  0.32813005745E+02 -0.38056327353E+02  0.85904704726E+02  0.00000000000E+00 0.  1.
</event>
<event>
 7    1  0.2733606E-009  0.1073912E+03  0.7561462E-02  0.1265479E+00
         -3   -1    0    0    0  501 -0.00000000000E+00  0.00000000000E+00  0.43845057128E+03  0.43845057128E+03  0.00000000000E+00 0.  1.
          3   -1    0    0  501    0  0.00000000000E+00 -0.00000000000E+00 -0.32171300921E+02  0.32171300921E+02  0.00000000000E+00 0. -1.
         25    2    1    2    0    0  0.22123235082E+01 -0.30339857932E+02  0.30391088587E+03  0.33005572356E+03  0.12509817246E+03 0.  0.
          5    1    3    3  502    0 -0.36507669069E+02 -0.61066537286E+02  0.11996828989E+03  0.13954137328E+03  0.41800000000E+01 0.  1.
         -5    1    3    3    0  502  0.38719992577E+02  0.30726679354E+02  0.18394259597E+03  0.19051435028E+03  0.41800000000E+01 0.  1.
        -11    1    1    2    0    0  0.63795448124E+01  0.61373749347E+02  0.51548892311E+02  0.80403507383E+02  0.00000000000E+00 0.  1.
         11    1    1    2    0    0 -0.85918683206E+01 -0.31033891415E+02  0.50819492180E+02  0.60162641257E+02  0.00000000000E+00 0. -1.
</event>
<event>
 7    1  0.2733606E-009  0.1697399E+03  0.7561462E-02  0.1178119E+00
         -1   -1    0    0    0  501 -0.00000000000E+00  0.00000000000E+00  0.58517643886E+03  0.58517643886E+03  0.00000000000E+00 0.  1.
          1   -1    0    0  501    0  0.00000000000E+00 -0.00000000000E+00 -0.51699988567E+02  0.51699988567E+02  0.00000000000E+00 0. -1.
         25    2    1    2    0    0  0.59370273301E+02  0.12314855212E+03  0.28886478285E+03  0.34319187072E+03  0.12508957635E+03 0.  0.
          5    1    3    3  502    0 -0.29818871050E+02  0.72079893706E+02  0.89055677253E+02  0.11846122656E+03  0.41800000000E+01 0. -1.
         -5    1    3    3    0  502  0.89189144352E+02  0.51068658418E+02  0.19980910560E+03  0.22473064416E+03  0.41800000000E+01 0. -1.
        -11    1    1    2    0    0 -0.98127575092E+01 -0.10541187933E+03  0.13068285623E+03  0.16818431385E+03  0.00000000000E+00 0. -1.
         11    1    1    2    0    0 -0.49557515792E+02 -0.17736672798E+02  0.11392881120E+03  0.12550024285E+03  0.00000000000E+00 0.  1.
</event>
<event>
 7    1  0.2948828E-009  0.8916740E+02  0.7561462E-02  0.1304881E+00
          2   -1    0    0  501    0  0.00000000000E+00  0.00000000000E+00  0.19928565996E+03  0.19928565996E+03  0.00000000000E+00 0. -1.
         -2   -1    0    0    0  501 -0.00000000000E+00 -0.00000000000E+00 -0.10515571183E+03  0.10515571183E+03  0.00000000000E+00 0.  1.
         25    2    1    2    0    0  0.34868176526E+02 -0.70567893928E+02 -0.60900611760E+01  0.14791972818E+03  0.12509012652E+03 0.  0.
          5    1    3    3  502    0  0.12912283011E+02  0.90797517720E+01  0.46911927993E+02  0.49672631628E+02  0.41800000000E+01 0. -1.
         -5    1    3    3    0  502  0.21955893515E+02 -0.79647645700E+02 -0.53001989169E+02  0.98247096555E+02  0.41800000000E+01 0. -1.
        -11    1    1    2    0    0 -0.13594687508E+02  0.38215040320E+02  0.10944340523E+03  0.11671788117E+03  0.00000000000E+00 0. -1.
         11    1    1    2    0    0 -0.21273489018E+02  0.32352853608E+02 -0.92233959293E+01  0.39803762436E+02  0.00000000000E+00 0.  1.
</event>
<event>
 7    1  0.2733606E-009  0.1034139E+03  0.7561462E-02  0.1273276E+00
         -2   -1    0    0    0  501 -0.00000000000E+00  0.00000000000E+00  0.11430425526E+03  0.11430425526E+03  0.00000000000E+00 0.  1.
          2   -1    0    0  501    0  0.00000000000E+00 -0.00000000000E+00 -0.30609967712E+03  0.30609967712E+03  0.00000000000E+00 0. -1.
         25    2    1    2    0    0 -0.14242244306E+02 -0.88712160939E+02 -0.23274995817E+03  0.27909361650E+03  0.12509202501E+03 0.  0.
          5    1    3    3  502    0  0.46966354137E+01 -0.53298458273E+02 -0.23260556971E+03  0.23871658405E+03  0.41800000000E+01 0. -1.
         -5    1    3    3    0  502 -0.18938879720E+02 -0.35413702666E+02 -0.14438845901E+00  0.40377032451E+02  0.41800000000E+01 0. -1.
        -11    1    1    2    0    0  0.40927629006E+02  0.39931635567E+02  0.59668023995E+02  0.82643084542E+02  0.00000000000E+00 0.  1.
         11    1    1    2    0    0 -0.26685384700E+02  0.48780525372E+02 -0.18713487681E+02  0.58667231342E+02  0.00000000000E+00 0. -1.
</event>
<event>
 7    1  0.2733606E-009  0.4791399E+02  0.7561462E-02  0.1456929E+00
          3   -1    0    0  501    0  0.00000000000E+00  0.00000000000E+00  0.33153515781E+03  0.33153515781E+03  0.00000000000E+00 0. -1.
         -3   -1    0    0    0  501 -0.00000000000E+00 -0.00000000000E+00 -0.37604889300E+02  0.37604889300E+02  0.00000000000E+00 0.  1.
         25    2    1    2    0    0 -0.13597402419E+02  0.15494097769E+02  0.19053579323E+03  0.22885958053E+03  0.12509141730E+03 0.  0.
          5    1    3    3  502    0 -0.83134366901E+01  0.29268045387E+02 -0.63636530112E+01  0.31363995122E+02  0.41800000000E+01 0. -1.
         -5    1    3    3    0  502 -0.52839657289E+01 -0.13773947618E+02  0.19689944624E+03  0.19749558541E+03  0.41800000000E+01 0. -1.
        -11    1    1    2    0    0  0.19525156558E+02  0.11151930347E+02 -0.92957241070E+01  0.24331209912E+02  0.00000000000E+00 0.  1.
         11    1    1    2    0    0 -0.59277541391E+01 -0.26646028116E+02  0.11269019938E+03  0.11594925666E+03  0.00000000000E+00 0. -1.
</event>
<event>
 7    1  0.4783843E-009  0.1039337E+03  0.7561462E-02  0.1272235E+00
         -1   -1    0    0    0  501 -0.00000000000E+00  0.00000000000E+00  0.37993278762E+02  0.37993278762E+02  0.00000000000E+00 0.  1.
          1   -1    0    0  501    0  0.00000000000E+00 -0.00000000000E+00 -0.56638120537E+03  0.56638120537E+03  0.00000000000E+00 0. -1.
         25    2    1    2    0    0 -0.54235906302E+02 -0.73010649811E+02 -0.20725706943E+03  0.25860252050E+03  0.12509069616E+03 0.  0.
          5    1    3    3  502    0 -0.68051997334E+01 -0.40783856409E+02  0.19840964144E+01  0.41605801586E+02  0.41800000000E+01 0.  1.
         -5    1    3    3    0  502 -0.47430706568E+02 -0.32226793402E+02 -0.20924116584E+03  0.21699671892E+03  0.41800000000E+01 0.  1.
        -11    1    1    2    0    0  0.36815027505E+02  0.33039497335E+01 -0.35524653850E+02  0.51266591122E+02  0.00000000000E+00 0.  1.
         11    1    1    2    0    0  0.17420878796E+02  0.69706700078E+02 -0.28560620334E+03  0.29450537251E+03  0.00000000000E+00 0. -1.
</event>
<event>
 7    1  0.2733606E-009  0.8723833E+02  0.7561462E-02  0.1309681E+00
          1   -1    0    0  501    0  0.00000000000E+00  0.00000000000E+00  0.36534040612E+03  0.36534040612E+03  0.00000000000E+00 0. -1.
         -1   -1    0    0    0  501 -0.00000000000E+00 -0.00000000000E+00 -0.57322820786E+02  0.57322820786E+02  0.00000000000E+00 0.  1.
         25    2    1    2    0    0 -0.64948513756E+01 -0.41189602054E+02  0.41448141020E+02  0.13821624150E+03  0.12508802744E+03 0.  0.
          5    1    3    3  502    0 -0.38967329875E+02 -0.24944495769E+02 -0.31840043682E+02  0.56319991552E+02  0.41800000000E+01 0.  1.
         -5    1    3    3    0  502  0.32472478500E+02 -0.16245106284E+02  0.73288184702E+02  0.81896249944E+02  0.41800000000E+01 0.  1.
        -11    1    1    2    0    0 -0.26829005091E+02  0.50227588612E+02  0.10725684910E+03  0.12143573548E+03  0.00000000000E+00 0.  1.
         11    1    1    2    0    0  0.33323856466E+02 -0.90379865584E+01  0.15931259521E+03  0.16301124993E+03  0.00000000000E+00 0. -1.
</event>
<event>
 7    1  0.2733606E-009  0.9886135E+02  0.7561462E-02  0.1282709E+00
          3   -1    0    0  501    0  0.00000000000E+00  0.00000000000E+00  0.66322606083E+02  0.66322606083E+02  0.00000000000E+00 0. -1.
         -3   -1    0    0    0  501 -0.00000000000E+00 -0.00000000000E+00 -0.18664435792E+03  0.18664435792E+03  0.00000000000E+00 0.  1.
         25    2    1    2    0    0 -0.10626542086E+02  0.24184998079E+02 -0.90783243198E+02  0.15680207054E+03  0.12508978595E+03 0.  0.
          5    1    3    3  502    0 -0.56504518470E+02  0.42892245168E+02 -0.77889529786E+02  0.10543603062E+03  0.41800000000E+01 0. -1.
         -5    1    3    3    0  502  0.45877976385E+02 -0.18707247089E+02 -0.12893713412E+02  0.51366039913E+02  0.41800000000E+01 0. -1.
        -11    1    1    2    0    0 -0.30953761355E+01  0.25349648008E+02  0.13714573507E+02  0.28987506516E+02  0.00000000000E+00 0. -1.
         11    1    1    2    0    0  0.13721918221E+02 -0.49534646087E+02 -0.43253082151E+02  0.67177386956E+02  0.00000000000E+00 0.  1.
</event>
<event>
 7    1  0.2733606E-009  0.9469144E+02  0.7561462E-02  0.1291873E+00
         -2   -1    0    0    0  501 -0.00000000000E+00  0.00000000000E+00  0.53312328775E+02  0.53312328775E+02  0.00000000000E+00 0.  1.
          2   -1    0    0  501    0  0.00000000000E+00 -0.00000000000E+00 -0.34476640649E+03  0.34476640649E+03  0.00000000000E+00 0. -1.
         25    2    1    2    0    0 -0.18827128894E+02  0.78188169008E+02 -0.91505082063E+02  0.17460641827E+03  0.12508545360E+03 0.  0.
          5    1    3    3  502    0 -0.97955239849E+01  0.79239858523E+02 -0.12011804335E+03  0.14429388139E+03  0.41800000000E+01 0. -1.
         -5    1    3    3    0  502 -0.90316049089E+01 -0.10516895155E+01  0.28612961288E+02  0.30312536874E+02  0.41800000000E+01 0. -1.
        -11    1    1    2    0    0 -0.11167981660E+02 -0.66176641354E+02 -0.12559784243E+03  0.14240396658E+03  0.00000000000E+00 0.  1.
         11    1    1    2    0    0  0.29995110554E+02 -0.12011527654E+02 -0.74351153221E+02  0.81068350415E+02  0.00000000000E+00 0. -1.
</event>
<event>
 7    1  0.2733606E-009  0.1058355E+03  0.7561462E-02  0.1268482E+00
          2   -1    0    0  501    0  0.00000000000E+00  0.00000000000E+00  0.10638692627E+04  0.10638692627E+04  0.00000000000E+00 0. -1.
         -2   -1    0    0    0  501 -0.00000000000E+00 -0.00000000000E+00 -0.17118816113E+02  0.17118816113E+02  0.00000000000E+00 0.  1.
         25    2    1    2    0    0  0.70292211748E+02 -0.38718088401E+02  0.55431066996E+03  0.57388783477E+03  0.12508734014E+03 0.  0.
          5    1    3    3  502    0  0.41957567646E+02  0.11891981759E+02  0.46659040445E+03  0.46864265132E+03  0.41800000000E+01 0.  1.
         -5    1    3    3    0  502  0.28334644102E+02 -0.50610070160E+02  0.87720265514E+02  0.10524518345E+03  0.41800000000E+01 0.  1.
        -11    1    1    2    0    0 -0.85966864310E+02  0.38072768789E+02  0.47232102287E+03  0.48158798378E+03  0.00000000000E+00 0. -1.
         11    1    1    2    0    0  0.15674652562E+02  0.64531961188E+00  0.20118753723E+02  0.25512260224E+02  0.00000000000E+00 0.  1.
</event>
<event>
 7    1  0.2733606E-009  0.9604545E+02  0.7561462E-02  0.1288839E+00
          1   -1    0    0  501    0  0.00000000000E+00  0.00000000000E+00  0.11988241602E+03  0.11988241602E+03  0.00000000000E+00 0. -1.
         -1   -1    0    0    0  501 -0.00000000000E+00 -0.00000000000E+00 -0.14614622239E+03  0.14614622239E+03  0.00000000000E+00 0.  1.
         25    2    1    2    0    0  0.46104187122E+02 -0.34578208180E+02 -0.65642661502E+02  0.15256952402E+03  0.12508897674E+03 0.  0.
          5    1    3    3  502    0  0.32879167435E+02  0.15202553442E+02 -0.88759590135E+02  0.95957774689E+02  0.41800000000E+01 0. -1.
         -5    1    3    3    0  502  0.13225019688E+02 -0.49780761623E+02  0.23116928632E+02  0.56611749336E+02  0.41800000000E+01 0. -1.
        -11    1    1    2    0    0 -0.70920279003E+02  0.35094630755E+02  0.19084994058E+02  0.81397518880E+02  0.00000000000E+00 0.  1.
         11    1    1    2    0    0  0.24816091880E+02 -0.51642257510E+00  0.20293861078E+02  0.32061595499E+02  0.00000000000E+00 0. -1.
</event>
<event>
 7    1  0.2733606E-009  0.1431927E+03  0.7561462E-02  0.1209096E+00
          2   -1    0    0  501    0  0.00000000000E+00  0.00000000000E+00  0.45777645320E+03  0.45777645320E+03  0.00000000000E+00 0.  1.
         -2   -1    0    0    0  501 -0.00000000000E+00 -0.00000000000E+00 -0.58590806569E+02  0.58590806569E+02  0.00000000000E+00 0. -1.
         25    2    1    2    0    0 -0.85600028003E+02  0.85967295233E+02  0.19190006757E+03  0.25921325875E+03  0.12509251350E+03 0.  0.
          5    1    3    3  502    0 -0.47473694605E+02 -0.43365898632E+01  0.49846678680E+01  0.48113168726E+02  0.41800000000E+01 0. -1.
         -5    1    3    3    0  502 -0.38126333398E+02  0.90303885097E+02  0.18691539970E+03  0.21110009002E+03  0.41800000000E+01 0. -1.
        -11    1    1    2    0    0  0.56977310421E+02 -0.82153418325E+01  0.38867172016E+02  0.69459072875E+02  0.00000000000E+00 0. -1.
         11    1    1    2    0    0  0.28622717583E+02 -0.77751953401E+02  0.16841840705E+03  0.18769492815E+03  0.00000000000E+00 0.  1.
</event>
<event>
 7    1  0.2733606E-009  0.1038024E+03  0.7561462E-02  0.1272497E+00
         -1   -1    0    0    0  501 -0.00000000000E+00  0.00000000000E+00  0.25442892329E+02  0.25442892329E+02  0.00000000000E+00 0.  1.
          1   -1    0    0  501    0  0.00000000000E+00 -0.00000000000E+00 -0.59833400364E+03  0.59833400364E+03  0.00000000000E+00 0. -1.
         25    2    1    2    0    0 -0.58652756538E+02  0.22982974068E+01 -0.31002722638E+03  0.33942576850E+03  0.12509014033E+03 0.  0.
          5    1    3    3  502    0 -0.25899707040E+02 -0.44398350481E+02 -0.45456530200E+02  0.68744286221E+02  0.41800000000E+01 0.  1.
         -5    1    3    3    0  502 -0.32753049497E+02  0.46696647888E+02 -0.26457069618E+03  0.27068148228E+03  0.41800000000E+01 0.  1.
        -11    1    1    2    0    0 -0.18925909086E+02 -0.90371505181E+01 -0.18800060010E+02  0.28165624094E+02  0.00000000000E+00 0.  1.
         11    1    1    2    0    0  0.77578665624E+02  0.67388531114E+01 -0.24406382493E+03  0.25618550337E+03  0.00000000000E+00 0. -1.
</event>
<event>
 7    1  0.2733606E-009  0.5703581E+02  0.7561462E-02  0.1410710E+00
          2   -1    0    0  501    0  0.00000000000E+00  0.00000000000E+00  0.26857920663E+03  0.26857920663E+03  0.00000000000E+00 0.  1.
         -2   -1    0    0    0  501 -0.00000000000E+00 -0.00000000000E+00 -0.45248470630E+02  0.45248470630E+02  0.00000000000E+00 0. -1.
         25    2    1    2    0    0  0.17894023391E+02  0.12561746402E+02  0.14172948365E+03  0.19029544997E+03  0.12508844150E+03 0.  0.
          5    1    3    3  502    0 -0.23517642097E+02 -0.41102417060E+01  0.14339366638E+03  0.14542760926E+03  0.41800000000E+01 0. -1.
         -5    1    3    3    0  502  0.41411665488E+02  0.16671988108E+02 -0.16641827306E+01  0.44867840712E+02  0.41800000000E+01 0. -1.
        -11    1    1    2    0    0 -0.17941960684E+02  0.11255424414E+02  0.94225156421E+02  0.96576284017E+02  0.00000000000E+00 0.  1.
         11    1    1    2    0    0  0.47937293620E-01 -0.23817170817E+02 -0.12623904071E+02  0.26955943272E+02  0.00000000000E+00 0. -1.
</event>
<event>
 7    1  0.2733606E-009  0.8516205E+02  0.7561462E-02  0.1315009E+00
          2   -1    0    0  501    0  0.00000000000E+00  0.00000000000E+00  0.40770205441E+03  0.40770205441E+03  0.00000000000E+00 0. -1.
         -2   -1    0    0    0  501 -0.00000000000E+00 -0.00000000000E+00 -0.49193903304E+02  0.49193903304E+02  0.00000000000E+00 0.  1.
         25    2    1    2    0    0  0.56474749091E+02 -0.44424614978E+01  0.27767795321E+03  0.30977735750E+03  0.12509129773E+03 0.  0.
          5    1    3    3  502    0  0.34462339694E+02  0.40374879824E+02  0.39272369009E+02  0.66163246183E+02  0.41800000000E+01 0.  1.
         -5    1    3    3    0  502  0.22012409397E+02 -0.44817341322E+02  0.23840558421E+03  0.24361411131E+03  0.41800000000E+01 0.  1.
        -11    1    1    2    0    0 -0.37892895809E+02 -0.14372378616E+02  0.10421517344E+03  0.11181788406E+03  0.00000000000E+00 0. -1.
         11    1    1    2    0    0 -0.18581853282E+02  0.18814840113E+02 -0.23384975550E+02  0.35300716160E+02  0.00000000000E+00 0.  1.
</event>
<event>
 7    1  0.2733606E-009  0.1144407E+03  0.7561462E-02  0.1252561E+00
          1   -1    0    0  501    0  0.00000000000E+00  0.00000000000E+00  0.67142804765E+02  0.67142804765E+02  0.00000000000E+00 0. -1.
         -1   -1    0    0    0  501 -0.00000000000E+00 -0.00000000000E+00 -0.23421614166E+03  0.23421614166E+03  0.00000000000E+00 0.  1.
         25    2    1    2    0    0  0.39223715073E+02 -0.35037913430E+02 -0.54150091250E+02  0.14610322424E+03  0.12509102506E+03 0.  0.
          5    1    3    3  502    0  0.23292804326E+02  0.40791797801E+02 -0.49496678319E+02  0.68366066625E+02  0.41800000000E+01 0. -1.
         -5    1    3    3    0  502  0.15930910747E+02 -0.75829711230E+02 -0.46534129313E+01  0.77737157617E+02  0.41800000000E+01 0. -1.
        -11    1    1    2    0    0 -0.73983111135E+01 -0.30437669769E+02 -0.19815475360E+02  0.37065345163E+02  0.00000000000E+00 0. -1.
         11    1    1    2    0    0 -0.31825403960E+02  0.65475583199E+02 -0.93107770281E+02  0.11819037702E+03  0.00000000000E+00 0.  1.
</event>
<event>
 7    1  0.3049464E-009  0.1054355E+03  0.7561462E-02  0.1269264E+00
         -2   -1    0    0    0  501 -0.00000000000E+00  0.00000000000E+00  0.39378613454E+02  0.39378613454E+02  0.00000000000E+00 0. -1.
          2   -1    0    0  501    0  0.00000000000E+00 -0.00000000000E+00 -0.37543013604E+03  0.37543013604E+03  0.00000000000E+00 0.  1.
         25    2    1    2    0    0  0.18363065746E+02 -0.32681053833E+02 -0.12083748801E+03  0.17792568640E+03  0.12510234974E+03 0.  0.
          5    1    3    3  502    0  0.42702921443E+02 -0.72083579159E+02 -0.82502884507E+02  0.11765959475E+03  0.41800000000E+01 0. -1.
         -5    1    3    3    0  502 -0.24339855698E+02  0.39402525326E+02 -0.38334603499E+02  0.60266091651E+02  0.41800000000E+01 0. -1.
        -11    1    1    2    0    0  0.49301278923E+01  0.50757998488E+02 -0.59330028122E+02  0.78235112376E+02  0.00000000000E+00 0. -1.
         11    1    1    2    0    0 -0.23293193638E+02 -0.18076944655E+02 -0.15588400646E+03  0.15864795072E+03  0.00000000000E+00 0.  1.
</event>
<event>
 7    1  0.2733606E-009  0.9994352E+02  0.7561462E-02  0.1280415E+00
         -2   -1    0    0    0  501 -0.00000000000E+00  0.00000000000E+00  0.42456885295E+02  0.42456885295E+02  0.00000000000E+00 0.  1.
          2   -1    0    0  501    0  0.00000000000E+00 -0.00000000000E+00 -0.33282500225E+03  0.33282500225E+03  0.00000000000E+00 0. -1.
         25    2    1    2    0    0  0.39168311136E+02  0.26479758155E+02 -0.15435177547E+03  0.20422198449E+03  0.12508722625E+03 0.  0.
          5    1    3    3  502    0  0.24648235325E+01  0.57198642150E+02 -0.18794542522E+02  0.60402543386E+02  0.41800000000E+01 0. -1.
         -5    1    3    3    0  502  0.36703487604E+02 -0.30718883995E+02 -0.13555723295E+03  0.14381944111E+03  0.41800000000E+01 0. -1.
        -11    1    1    2    0    0 -0.32704807113E+02  0.25864766042E+02 -0.26226534331E+02  0.49258721398E+02  0.00000000000E+00 0.  1.
         11    1    1    2    0    0 -0.64635040227E+01 -0.52344524197E+02 -0.10978980716E+03  0.12180118166E+03  0.00000000000E+00 0. -1.
</event>
<event>
 7    1  0.2733606E-009  0.7092061E+02  0.7561462E-02  0.1356990E+00
         -1   -1    0    0    0  501 -0.00000000000E+00  0.00000000000E+00  0.17259686250E+02  0.17259686250E+02  0.00000000000E+00 0.  1.
          1   -1    0    0  501    0  0.00000000000E+00 -0.00000000000E+00 -0.65969324554E+03  0.65969324554E+03  0.00000000000E+00 0. -1.
         25    2    1    2    0    0 -0.29180485024E+02 -0.12650823635E+02 -0.36344921205E+03  0.38568564353E+03  0.12508613769E+03 0.  0.
          5    1    3    3  502    0 -0.42663446876E+02 -0.19480018601E+02 -0.36666676072E+03  0.36967773350E+03  0.41800000000E+01 0. -1.
         -5    1    3    3    0  502  0.13482961852E+02  0.68291949668E+01  0.32175486754E+01  0.16007910035E+02  0.41800000000E+01 0. -1.
        -11    1    1    2    0    0  0.40165371385E+02 -0.19824155876E+02 -0.10870925029E+03  0.11757531762E+03  0.00000000000E+00 0.  1.
         11    1    1    2    0    0 -0.10984886361E+02  0.32474979511E+02 -0.17027509695E+03  0.17369197063E+03  0.00000000000E+00 0. -1.
</event>
<event>
 7    1  0.2733606E-009  0.1382075E+03  0.7561462E-02  0.1215761E+00
         -2   -1    0    0    0  501 -0.00000000000E+00  0.00000000000E+00  0.22378014302E+02  0.22378014302E+02  0.00000000000E+00 0. -1.
          2   -1    0    0  501    0  0.00000000000E+00 -0.00000000000E+00 -0.98429872842E+03  0.98429872842E+03  0.00000000000E+00 0.  1.
         25    2    1    2    0    0  0.86592605506E+02  0.28774390168E+02 -0.38297429009E+03  0.41308411282E+03  0.12507170958E+03 0.  0.
          5    1    3    3  502    0  0.27984480690E+02 -0.45074751974E+02 -0.82836004721E+02  0.98458826436E+02  0.41800000000E+01 0. -1.
         -5    1    3    3    0  502  0.58608124816E+02  0.73849142142E+02 -0.30013828537E+03  0.31462528638E+03  0.41800000000E+01 0. -1.
        -11    1    1    2    0    0 -0.40962879048E+02  0.32595398904E+02 -0.29059602316E+03  0.29527354465E+03  0.00000000000E+00 0. -1.
         11    1    1    2    0    0 -0.45629726458E+02 -0.61369789072E+02 -0.28835040086E+03  0.29831908525E+03  0.00000000000E+00 0.  1.
</event>
<event>
 7    1  0.2733606E-009  0.9794820E+02  0.7561462E-02  0.1284671E+00
         -2   -1    0    0    0  501 -0.00000000000E+00  0.00000000000E+00  0.52283843727E+02  0.52283843727E+02  0.00000000000E+00 0.  1.
          2   -1    0    0  501    0  0.00000000000E+00 -0.00000000000E+00 -0.40251655691E+03  0.40251655691E+03  0.00000000000E+00 0. -1.
         25    2    1    2    0    0  0.41748912469E+02 -0.11133909880E+01 -0.32873391245E+03  0.35420309554E+03  0.12509850665E+03 0.  0.
          5    1    3    3  502    0  0.38716402450E+01 -0.46134703838E+02 -0.25776366842E+03  0.26192170901E+03  0.41800000000E+01 0.  1.
         -5    1    3    3    0  502  0.37877272224E+02  0.45021312849E+02 -0.70970244032E+02  0.92281386530E+02  0.41800000000E+01 0.  1.
        -11    1    1    2    0    0  0.22468630713E+02 -0.11096711692E+02  0.11268368979E+02  0.27476399254E+02  0.00000000000E+00 0. -1.
         11    1    1    2    0    0 -0.64217543182E+02  0.12210102680E+02 -0.32767169711E+02  0.73120905839E+02  0.00000000000E+00 0.  1.
</event>
<event>
 7    1  0.2733606E-009  0.1104904E+03  0.7561462E-02  0.1259664E+00
         -2   -1    0    0    0  501 -0.00000000000E+00  0.00000000000E+00  0.18341703898E+02  0.18341703898E+02  0.00000000000E+00 0.  1.
          2   -1    0    0  501    0  0.00000000000E+00 -0.00000000000E+00 -0.70204017907E+03  0.70204017907E+03  0.00000000000E+00 0. -1.
         25    2    1    2    0    0  0.25611733796E+02  0.62054955146E+01 -0.42016043289E+03  0.43917766977E+03  0.12509103555E+03 0.  0.
          5    1    3    3  502    0  0.24064964901E+02 -0.58254873710E+02 -0.21410138755E+03  0.22322551242E+03  0.41800000000E+01 0.  1.
         -5    1    3    3    0  502  0.15467688947E+01  0.64460369225E+02 -0.20605904535E+03  0.21595215735E+03  0.41800000000E+01 0.  1.
        -11    1    1    2    0    0  0.12253231634E+02 -0.40376170824E+02 -0.76818371966E+02  0.87643819676E+02  0.00000000000E+00 0.  1.
         11    1    1    2    0    0 -0.37864965429E+02  0.34170675310E+02 -0.18671967031E+03  0.19356039352E+03  0.00000000000E+00 0. -1.
</event>
<event>
 7    1  0.2733606E-009  0.1257722E+03  0.7561462E-02  0.1233867E+00
          1   -1    0    0  501    0  0.00000000000E+00  0.00000000000E+00  0.37106905692E+02  0.37106905692E+02  0.00000000000E+00 0. -1.
         -1   -1    0    0    0  501 -0.00000000000E+00 -0.00000000000E+00 -0.43660823891E+03  0.43660823891E+03  0.00000000000E+00 0.  1.
         25    2    1    2    0    0 -0.51739209772E+02  0.41779063148E+02 -0.23540853727E+03  0.27474679912E+03  0.12508472433E+03 0.  0.
          5    1    3    3  502    0 -0.62676023633E+02  0.79837957761E+02 -0.17638831123E+03  0.20355022028E+03  0.41800000000E+01 0.  1.
         -5    1    3    3    0  502  0.10936813861E+02 -0.38058894612E+02 -0.59020226038E+02  0.71196578837E+02  0.41800000000E+01 0.  1.
        -11    1    1    2    0    0  0.28543881376E+02 -0.68824513568E+02 -0.12891943813E+03  0.14890194210E+03  0.00000000000E+00 0.  1.
         11    1    1    2    0    0  0.23195328396E+02  0.27045450420E+02 -0.35173357815E+02  0.50066403384E+02  0.00000000000E+00 0. -1.
</event>
<event>
 7    1  0.2733606E-009  0.2949912E+03  0.7561462E-02  0.1087772E+00
          2   -1    0    0  501    0  0.00000000000E+00  0.00000000000E+00  0.26623848078E+03  0.26623848078E+03  0.00000000000E+00 0. -1.
         -2   -1    0    0    0  501 -0.00000000000E+00 -0.00000000000E+00 -0.37433078784E+03  0.37433078784E+03  0.00000000000E+00 0.  1.
         25    2    1    2    0    0 -0.23473128617E+03  0.17646920587E+03 -0.99205259965E+02  0.33425965222E+03  0.12509066380E+03 0.  0.
          5    1    3    3  502    0 -0.15655806717E+03  0.95131961775E+02  0.10981230715E+01  0.18324627369E+03  0.41800000000E+01 0. -1.
         -5    1    3    3    0  502 -0.78173219000E+02  0.81337244097E+02 -0.10030338304E+03  0.15101337853E+03  0.41800000000E+01 0. -1.
        -11    1    1    2    0    0  0.17907741953E+03 -0.14004281314E+03 -0.43298385846E+02  0.23142053045E+03  0.00000000000E+00 0.  1.
         11    1    1    2    0    0  0.55653866638E+02 -0.36426392735E+02  0.34411338754E+02  0.74889085949E+02  0.00000000000E+00 0. -1.
</event>
<event>
 7    1  0.2733606E-009  0.1341268E+03  0.7561462E-02  0.1221458E+00
          2   -1    0    0  501    0  0.00000000000E+00  0.00000000000E+00  0.32114253463E+02  0.32114253463E+02  0.00000000000E+00 0. -1.
         -2   -1    0    0    0  501 -0.00000000000E+00 -0.00000000000E+00 -0.65977260416E+03  0.65977260416E+03  0.00000000000E+00 0.  1.
         25    2    1    2    0    0  0.61197212675E+02  0.57972958327E+02 -0.46298199711E+03  0.48693420895E+03  0.12508649593E+03 0.  0.
          5    1    3    3  502    0 -0.20760273728E+02 -0.23178430246E+02 -0.59563183581E+02  0.67331076275E+02  0.41800000000E+01 0. -1.
         -5    1    3    3    0  502  0.81957486402E+02  0.81151388573E+02 -0.40341881352E+03  0.41960313267E+03  0.41800000000E+01 0. -1.
        -11    1    1    2    0    0 -0.29675747136E+02  0.21039418071E+02 -0.40575599106E+02  0.54494828412E+02  0.00000000000E+00 0. -1.
         11    1    1    2    0    0 -0.31521465539E+02 -0.79012376398E+02 -0.12410075448E+03  0.15045782026E+03  0.00000000000E+00 0.  1.
</event>
<event>
 7    1  0.2733606E-009  0.1551865E+03  0.7561462E-02  0.1194241E+00
         -1   -1    0    0    0  501 -0.00000000000E+00  0.00000000000E+00  0.20319614180E+03  0.20319614180E+03  0.00000000000E+00 0.  1.
          1   -1    0    0  501    0  0.00000000000E+00 -0.00000000000E+00 -0.14018300371E+03  0.14018300371E+03  0.00000000000E+00 0. -1.
         25    2    1    2    0    0 -0.21131336003E+02 -0.11956121407E+03 -0.11947764373E+02  0.17472950230E+03  0.12508490168E+03 0.  0.
          5    1    3    3  502    0 -0.67912860489E+02 -0.40907643964E+02  0.11361638094E+02  0.80200693106E+02  0.41800000000E+01 0.  1.
         -5    1    3    3    0  502  0.46781524486E+02 -0.78653570108E+02 -0.23309402467E+02  0.94528809192E+02  0.41800000000E+01 0.  1.
        -11    1    1    2    0    0 -0.24860333542E+02  0.32605949163E+02 -0.57545190918E+01  0.41404089105E+02  0.00000000000E+00 0. -1.
         11    1    1    2    0    0  0.45991669545E+02  0.86955264909E+02  0.80715421554E+02  0.12724555410E+03  0.00000000000E+00 0.  1.
</event>
<event>
 7    1  0.2733606E-009  0.9315375E+02  0.7561462E-02  0.1295389E+00
          1   -1    0    0  501    0  0.00000000000E+00  0.00000000000E+00  0.31751819175E+02  0.31751819175E+02  0.00000000000E+00 0. -1.
         -1   -1    0    0    0  501 -0.00000000000E+00 -0.00000000000E+00 -0.54722986716E+03  0.54722986716E+03  0.00000000000E+00 0.  1.
         25    2    1    2    0    0 -0.69071938215E+02 -0.19169546008E+02 -0.33147748575E+03  0.36147255844E+03  0.12508670116E+03 0.  0.
          5    1    3    3  502    0  0.67025870045E+01  0.11562610618E+02  0.52339231620E+01  0.14949414320E+02  0.41800000000E+01 0. -1.
         -5    1    3    3    0  502 -0.75774525220E+02 -0.30732156626E+02 -0.33671140891E+03  0.34652314412E+03  0.41800000000E+01 0. -1.
        -11    1    1    2    0    0  0.25421355416E+02  0.35636674227E+02 -0.15830846847E+03  0.16424916758E+03  0.00000000000E+00 0.  1.
         11    1    1    2    0    0  0.43650582799E+02 -0.16467128219E+02 -0.25692093771E+02  0.53259960315E+02  0.00000000000E+00 0. -1.
</event>
<event>
 7    1  0.2733606E-009  0.3371803E+03  0.7561462E-02  0.1068003E+00
          1   -1    0    0  501    0  0.00000000000E+00  0.00000000000E+00  0.27482046307E+04  0.27482046307E+04  0.00000000000E+00 0. -1.
         -1   -1    0    0    0  501 -0.00000000000E+00 -0.00000000000E+00 -0.42550391905E+02  0.42550391905E+02  0.00000000000E+00 0.  1.
         25    2    1    2    0    0  0.15480913243E+03  0.28474056802E+03  0.15009377761E+04  0.15406184356E+04  0.12509155720E+03 0.  0.
          5    1    3    3  502    0  0.10456890329E+03  0.85772219666E+02  0.75133122829E+03  0.76341837560E+03  0.41800000000E+01 0.  1.
         -5    1    3    3    0  502  0.50240229143E+02  0.19896834835E+03  0.74960654785E+03  0.77720005999E+03  0.41800000000E+01 0.  1.
        -11    1    1    2    0    0 -0.50370269956E+02 -0.30369135420E+02  0.19969966240E+03  0.20818117985E+03  0.00000000000E+00 0.  1.
         11    1    1    2    0    0 -0.10443886247E+03 -0.25437143260E+03  0.10050168002E+04  0.10419554071E+04  0.00000000000E+00 0. -1.
</event>
<event>
 7    1  0.2733606E-009  0.1353766E+03  0.7561462E-02  0.1219689E+00
          1   -1    0    0  501    0  0.00000000000E+00  0.00000000000E+00  0.42465999281E+03  0.42465999281E+03  0.00000000000E+00 0. -1.
         -1   -1    0    0    0  501 -0.00000000000E+00 -0.00000000000E+00 -0.46844911537E+02  0.46844911537E+02  0.00000000000E+00 0.  1.
         25    2    1    2    0    0 -0.78222880021E+02 -0.35184536956E+02  0.25060751334E+03  0.29293044045E+03  0.12508935446E+03 0.  0.
          5    1    3    3  502    0 -0.83659492453E+02  0.27705374441E+02  0.15296994809E+03  0.17658928583E+03  0.41800000000E+01 0.  1.
         -5    1    3    3    0  502  0.54366124323E+01 -0.62889911397E+02  0.97637565248E+02  0.11634115462E+03  0.41800000000E+01 0.  1.
        -11    1    1    2    0    0  0.29255780259E+00  0.41107620802E+02  0.71923959569E+02  0.82843092881E+02  0.00000000000E+00 0. -1.
         11    1    1    2    0    0  0.77930322218E+02 -0.59230838460E+01  0.55283608361E+02  0.95731371016E+02  0.00000000000E+00 0.  1.
</event>
<event>
 7    1  0.2733606E-009  0.1194303E+03  0.7561462E-02  0.1244040E+00
          1   -1    0    0  501    0  0.00000000000E+00  0.00000000000E+00  0.34157549896E+03  0.34157549896E+03  0.00000000000E+00 0. -1.
         -1   -1    0    0    0  501 -0.00000000000E+00 -0.00000000000E+00 -0.74096215019E+02  0.74096215019E+02  0.00000000000E+00 0.  1.
         25    2    1    2    0    0 -0.96968916533E+02 -0.13596200858E+02  0.22455857187E+03  0.27506777591E+03  0.12509157322E+03 0.  0.
          5    1    3    3  502    0 -0.73718709518E+02  0.14526491489E+02  0.22611352957E+03  0.23830708706E+03  0.41800000000E+01 0.  1.
         -5    1    3    3    0  502 -0.23250207015E+02 -0.28122692346E+02 -0.15549577001E+01  0.36760688847E+02  0.41800000000E+01 0.  1.
        -11    1    1    2    0    0  0.33363900898E+02 -0.33849681042E+02 -0.51830242590E+01  0.47810192745E+02  0.00000000000E+00 0.  1.
         11    1    1    2    0    0  0.63605015635E+02  0.47445881900E+02  0.48103736328E+02  0.92793745327E+02  0.00000000000E+00 0. -1.
</event>
<event>
 7    1  0.2733606E-009  0.7232115E+02  0.7561462E-02  0.1352373E+00
          1   -1    0    0  501    0  0.00000000000E+00  0.00000000000E+00  0.28055826070E+03  0.28055826070E+03  0.00000000000E+00 0. -1.
         -1   -1    0    0    0  501 -0.00000000000E+00 -0.00000000000E+00 -0.43902185076E+02  0.43902185076E+02  0.00000000000E+00 0.  1.
         25    2    1    2    0    0  0.27513160187E+01 -0.12006430844E+02  0.16846123828E+03  0.21018397132E+03  0.12508552625E+03 0.  0.
          5    1    3    3  502    0 -0.62599483374E+01  0.27302484273E+02 -0.77548955195E+01  0.29363640871E+02  0.41800000000E+01 0. -1.
         -5    1    3    3    0  502  0.90112643561E+01 -0.39308915117E+02  0.17621613380E+03  0.18082033045E+03  0.41800000000E+01 0. -1.
        -11    1    1    2    0    0  0.31471238502E+02  0.23930522259E+02  0.29546866375E+01  0.39646423818E+02  0.00000000000E+00 0.  1.
         11    1    1    2    0    0 -0.34222554520E+02 -0.11924091416E+02  0.65240150709E+02  0.74630050640E+02  0.00000000000E+00 0. -1.
</event>
<event>
 7    1  0.2733606E-009  0.1111688E+03  0.7561462E-02  0.1258421E+00
         -3   -1    0    0    0  501 -0.00000000000E+00  0.00000000000E+00  0.29941430275E+02  0.29941430275E+02  0.00000000000E+00 0.  1.
          3   -1    0    0  501    0  0.00000000000E+00 -0.00000000000E+00 -0.83472253524E+03  0.83472253524E+03  0.00000000000E+00 0. -1.
         25    2    1    2    0    0  0.41832088375E+02  0.71752845827E+02 -0.64774139503E+03  0.66491752661E+03  0.12509199758E+03 0.  0.
          5    1    3    3  502    0 -0.17901364728E+02  0.52540050320E+02 -0.51537384808E+03  0.51837109432E+03  0.41800000000E+01 0. -1.
         -5    1    3    3    0  502  0.59733453103E+02  0.19212795508E+02 -0.13236754695E+03  0.14654643229E+03  0.41800000000E+01 0. -1.
        -11    1    1    2    0    0  0.14887009724E+02 -0.39744457750E+01 -0.83098773554E+02  0.84515237939E+02  0.00000000000E+00 0. -1.
         11    1    1    2    0    0 -0.56719098098E+02 -0.67778400052E+02 -0.73940936385E+02  0.11523120097E+03  0.00000000000E+00 0.  1.
</event>
<event>
 7    1  0.2733606E-009  0.1158702E+03  0.7561462E-02  0.1250070E+00
          2   -1    0    0  501    0  0.00000000000E+00  0.00000000000E+00  0.33279197263E+03  0.33279197263E+03  0.00000000000E+00 0.  1.
         -2   -1    0    0    0  501 -0.00000000000E+00 -0.00000000000E+00 -0.63899260563E+02  0.63899260563E+02  0.00000000000E+00 0. -1.
         25    2    1    2    0    0 -0.62463766089E+02  0.62198318179E+02  0.19716443263E+03  0.24958303944E+03  0.12509007643E+03 0.  0.
          5    1    3    3  502    0 -0.32871334384E+02 -0.25579623639E+02  0.13748826173E+02  0.44060689859E+02  0.41800000000E+01 0.  1.
         -5    1    3    3    0  502 -0.29592431705E+02  0.87777941818E+02  0.18341560646E+03  0.20552234958E+03  0.41800000000E+01 0.  1.
        -11    1    1    2    0    0  0.38185641885E+02 -0.98290266556E+01 -0.15618811100E+02  0.42411086656E+02  0.00000000000E+00 0. -1.
         11    1    1    2    0    0  0.24278124204E+02 -0.52369291524E+02  0.87347090538E+02  0.10469710710E+03  0.00000000000E+00 0.  1.
</event>
<event>
 7    1  0.2733606E-009  0.9520697E+02  0.7561462E-02  0.1290711E+00
          1   -1    0    0  501    0  0.00000000000E+00  0.00000000000E+00  0.19138144191E+03  0.19138144191E+03  0.00000000000E+00 0. -1.
         -1   -1    0    0    0  501 -0.00000000000E+00 -0.00000000000E+00 -0.10689299379E+03  0.10689299379E+03  0.00000000000E+00 0.  1.
         25    2    1    2    0    0  0.41026201757E+02  0.21710562015E+02  0.12900960194E+03  0.18558865226E+03  0.12508066486E+03 0.  0.
          5    1    3    3  502    0 -0.18259482416E+02  0.20118391106E+02 -0.13901325242E+02  0.30803856938E+02  0.41800000000E+01 0.  1.
         -5    1    3    3    0  502  0.59285684173E+02  0.15921709094E+01  0.14291092718E+03  0.15478479532E+03  0.41800000000E+01 0.  1.
        -11    1    1    2    0    0  0.20143383834E+02  0.20819583116E+02 -0.10951297242E+02  0.30970015575E+02  0.00000000000E+00 0. -1.
         11    1    1    2    0    0 -0.61169585591E+02 -0.42530145131E+02 -0.33569856576E+02  0.81715767859E+02  0.00000000000E+00 0.  1.
</event>
<event>
 7    1  0.2733606E-009  0.1696820E+03  0.7561462E-02  0.1178180E+00
         -2   -1    0    0    0  501 -0.00000000000E+00  0.00000000000E+00  0.73155116229E+02  0.73155116229E+02  0.00000000000E+00 0.  1.
          2   -1    0    0  501    0  0.00000000000E+00 -0.00000000000E+00 -0.45683087915E+03  0.45683087915E+03  0.00000000000E+00 0. -1.
         25    2    1    2    0    0 -0.24981966723E+01  0.14077143447E+03 -0.13797569460E+03  0.23346809300E+03  0.12508885003E+03 0.  0.
          5    1    3    3  502    0  0.48553157404E+01 -0.15931015240E+02  0.81786183669E+01  0.19019293780E+02  0.41800000000E+01 0. -1.
         -5    1    3    3    0  502 -0.73535124127E+01  0.15670244971E+03 -0.14615431297E+03  0.21444879922E+03  0.41800000000E+01 0. -1.
        -11    1    1    2    0    0 -0.40623733527E+02 -0.89361383806E+02 -0.13206896215E+03  0.16455380702E+03  0.00000000000E+00 0.  1.
         11    1    1    2    0    0  0.43121930199E+02 -0.51410050663E+02 -0.11363110617E+03  0.13196409536E+03  0.00000000000E+00 0. -1.
</event>
<event>
 7    1  0.2733606E-009  0.8908647E+02  0.7561462E-02  0.1305079E+00
          2   -1    0    0  501    0  0.00000000000E+00  0.00000000000E+00  0.55309755883E+02  0.55309755883E+02  0.00000000000E+00 0.  1.
         -2   -1    0    0    0  501 -0.00000000000E+00 -0.00000000000E+00 -0.26715574799E+03  0.26715574799E+03  0.00000000000E+00 0. -1.
         25    2    1    2    0    0 -0.51105624841E+02  0.19146103821E+02 -0.13001682732E+03  0.18849244557E+03  0.12508664385E+03 0.  0.
          5    1    3    3  502    0 -0.59860208828E+02  0.57412473797E+02 -0.44305728365E+02  0.94127077477E+02  0.41800000000E+01 0. -1.
         -5    1    3    3    0  502  0.87545839869E+01 -0.38266369976E+02 -0.85711098954E+02  0.94365368096E+02  0.41800000000E+01 0. -1.
        -11    1    1    2    0    0  0.24419782266E+02 -0.14955411681E+02 -0.98265399783E+02  0.10235271808E+03  0.00000000000E+00 0. -1.
         11    1    1    2    0    0  0.26685842575E+02 -0.41906921397E+01  0.16436234996E+02  0.31620340216E+02  0.00000000000E+00 0.  1.
</event>
<event>
 7    1  0.2733606E-009  0.9167868E+02  0.7561462E-02  0.1298837E+00
         -1   -1    0    0    0  501 -0.00000000000E+00  0.00000000000E+00  0.33475453756E+03  0.33475453756E+03  0.00000000000E+00 0.  1.
          1   -1    0    0  501    0  0.00000000000E+00 -0.00000000000E+00 -0.41879129632E+02  0.41879129632E+02  0.00000000000E+00 0. -1.
         25    2    1    2    0    0  0.13103377969E+02 -0.29782889138E+02  0.21635006140E+03  0.25201739951E+03  0.12508677623E+03 0.  0.
          5    1    3    3  502    0  0.41317309230E+02  0.37628567538E+02  0.92096867569E+02  0.10780693184E+03  0.41800000000E+01 0.  1.
         -5    1    3    3    0  502 -0.28213931261E+02 -0.67411456676E+02  0.12425319383E+03  0.14421046767E+03  0.41800000000E+01 0.  1.
        -11    1    1    2    0    0 -0.28990965723E+01  0.39750165400E+02  0.93975515836E+02  0.10207780360E+03  0.00000000000E+00 0.  1.
         11    1    1    2    0    0 -0.10204281397E+02 -0.99672762624E+01 -0.17450169302E+02  0.22538464091E+02  0.00000000000E+00 0. -1.
</event>
<event>
 7    1  0.2733606E-009  0.1242650E+03  0.7561462E-02  0.1236222E+00
         -1   -1    0    0    0  501 -0.00000000000E+00  0.00000000000E+00  0.59811084031E+02  0.59811084031E+02  0.00000000000E+00 0.  1.
          1   -1    0    0  501    0  0.00000000000E+00 -0.00000000000E+00 -0.36599923414E+03  0.36599923414E+03  0.00000000000E+00 0. -1.
         25    2    1    2    0    0 -0.59068357994E+02 -0.80407912754E+02 -0.16039069722E+03  0.22655174616E+03  0.12508403010E+03 0.  0.
          5    1    3    3  502    0 -0.68862037487E+02 -0.62391711023E+02 -0.17692097999E+03  0.19988299420E+03  0.41800000000E+01 0. -1.
         -5    1    3    3    0  502  0.97936794925E+01 -0.18016201732E+02  0.16530282770E+02  0.26668751964E+02  0.41800000000E+01 0. -1.
        -11    1    1    2    0    0  0.73646579537E+02  0.25753011066E+02 -0.71073160950E+02  0.10553876285E+03  0.00000000000E+00 0.  1.
         11    1    1    2    0    0 -0.14578221543E+02  0.54654901689E+02 -0.74724291945E+02  0.93719809158E+02  0.00000000000E+00 0. -1.
</event>
<event>
 7    1  0.2733606E-009  0.5037508E+03  0.7561462E-02  0.1012805E+00
         -2   -1    0    0    0  501 -0.00000000000E+00  0.00000000000E+00  0.15508367675E+03  0.15508367675E+03  0.00000000000E+00 0.  1.
          2   -1    0    0  501    0  0.00000000000E+00 -0.00000000000E+00 -0.20112462449E+04  0.20112462449E+04  0.00000000000E+00 0. -1.
         25    2    1    2    0    0  0.29452448548E+03  0.39380046518E+03 -0.46598363281E+03  0.68892069147E+03  0.12508994427E+03 0.  0.
          5    1    3    3  502    0  0.14016457983E+03  0.90154148601E+02 -0.14840692687E+03  0.22319491099E+03  0.41800000000E+01 0. -1.
         -5    1    3    3    0  502  0.15435990566E+03  0.30364631658E+03 -0.31757670594E+03  0.46572578048E+03  0.41800000000E+01 0. -1.
        -11    1    1    2    0    0 -0.22157069744E+03 -0.35236870497E+03 -0.11580004587E+04  0.12305374194E+04  0.00000000000E+00 0. -1.
         11    1    1    2    0    0 -0.72953788046E+02 -0.41431760215E+02 -0.23217847672E+03  0.24687181086E+03  0.00000000000E+00 0.  1.
</event>
<event>
 7    1  0.2733606E-009  0.1123841E+03  0.7561462E-02  0.1256217E+00
          2   -1    0    0  501    0  0.00000000000E+00  0.00000000000E+00  0.74416415104E+03  0.74416415104E+03  0.00000000000E+00 0. -1.
         -2   -1    0    0    0  501 -0.00000000000E+00 -0.00000000000E+00 -0.18098199153E+02  0.18098199153E+02  0.00000000000E+00 0.  1.
         25    2    1    2    0    0  0.35247796648E+02  0.22086369797E+02  0.40414324347E+03  0.42510041960E+03  0.12509352740E+03 0.  0.
          5    1    3    3  502    0 -0.45424703656E+02  0.69377804072E+01  0.10149785787E+03  0.11149360543E+03  0.41800000000E+01 0. -1.
         -5    1    3    3    0  502  0.80672500304E+02  0.15148589390E+02  0.30264538561E+03  0.31360681417E+03  0.41800000000E+01 0. -1.
        -11    1    1    2    0    0 -0.10260430645E+02  0.33744963020E+02  0.16524900413E+03  0.16897109910E+03  0.00000000000E+00 0.  1.
         11    1    1    2    0    0 -0.24987366003E+02 -0.55831332817E+02  0.15667370428E+03  0.16819083149E+03  0.00000000000E+00 0. -1.
</event>
<event>
 7    1  0.2733606E-009  0.7507425E+02  0.7561462E-02  0.1343641E+00
          4   -1    0    0  501    0  0.00000000000E+00  0.00000000000E+00  0.21054797210E+03  0.21054797210E+03  0.00000000000E+00 0. -1.
         -4   -1    0    0    0  501 -0.00000000000E+00 -0.00000000000E+00 -0.82859974031E+02  0.82859974031E+02  0.00000000000E+00 0.  1.
         25    2    1    2    0    0 -0.80486183451E+01 -0.32982684545E+02 -0.32368653708E+01  0.12965259270E+03  0.12508668898E+03 0.  0.
          5    1    3    3  502    0  0.13511528684E+02 -0.26128972422E+02  0.57490117292E+02  0.64713758920E+02  0.41800000000E+01 0.  1.
         -5    1    3    3    0  502 -0.21560147029E+02 -0.68537121225E+01 -0.60726982663E+02  0.64938833784E+02  0.41800000000E+01 0.  1.
        -11    1    1    2    0    0 -0.41512336630E+02  0.20620047550E+02  0.73552815095E+02  0.86939502310E+02  0.00000000000E+00 0.  1.
         11    1    1    2    0    0  0.49560954976E+02  0.12362636995E+02  0.57372048343E+02  0.76815851115E+02  0.00000000000E+00 0. -1.
</event>
<event>
 7    1  0.2733606E-009  0.9592188E+02  0.7561462E-02  0.1289113E+00
          1   -1    0    0  501    0  0.00000000000E+00  0.00000000000E+00  0.18650092869E+03  0.18650092869E+03  0.00000000000E+00 0. -1.
         -1   -1    0    0    0  501 -0.00000000000E+00 -0.00000000000E+00 -0.76389262822E+02  0.76389262822E+02  0.00000000000E+00 0.  1.
         25    2    1    2    0    0 -0.24746303853E+02 -0.79361689777E+01  0.22805942358E+01  0.12777418662E+03  0.12508268994E+03 0.  0.
          5    1    3    3  502    0 -0.38213037339E+02 -0.60613145430E+02  0.10793720685E+02  0.72582135734E+02  0.41800000000E+01 0.  1.
         -5    1    3    3    0  502  0.13466733486E+02  0.52676976452E+02 -0.85131264490E+01  0.55192050885E+02  0.41800000000E+01 0.  1.
        -11    1    1    2    0    0  0.20272980738E+02  0.33732534975E+02  0.10049471643E+03  0.10792620486E+03  0.00000000000E+00 0. -1.
         11    1    1    2    0    0  0.44733231154E+01 -0.25796365997E+02  0.73363551981E+01  0.27189800035E+02  0.00000000000E+00 0.  1.
</event>
<event>
 7    1  0.2733606E-009  0.2256305E+03  0.7561462E-02  0.1129754E+00
          1   -1    0    0  501    0  0.00000000000E+00  0.00000000000E+00  0.29856574443E+03  0.29856574443E+03  0.00000000000E+00 0. -1.
         -1   -1    0    0    0  501 -0.00000000000E+00 -0.00000000000E+00 -0.19874861313E+03  0.19874861313E+03  0.00000000000E+00 0.  1.
         25    2    1    2    0    0 -0.20616865043E+03 -0.24390243222E+01  0.12269972577E+03  0.27058032009E+03  0.12508807160E+03 0.  0.
          5    1    3    3  502    0 -0.85561310452E+02 -0.48339164419E+02  0.94098683657E+01  0.98810073807E+02  0.41800000000E+01 0. -1.
         -5    1    3    3    0  502 -0.12060733998E+03  0.45900140097E+02  0.11328985741E+03  0.17177024628E+03  0.41800000000E+01 0. -1.
        -11    1    1    2    0    0  0.35614984416E+02  0.35244591614E+02 -0.17148972202E+02  0.52959376890E+02  0.00000000000E+00 0.  1.
         11    1    1    2    0    0  0.17055366601E+03 -0.32805567291E+02 -0.57336222607E+01  0.17377466058E+03  0.00000000000E+00 0. -1.
</event>
<event>
 7    1  0.2733606E-009  0.1172656E+03  0.7561462E-02  0.1247677E+00
         -2   -1    0    0    0  501 -0.00000000000E+00  0.00000000000E+00  0.20540169498E+03  0.20540169498E+03  0.00000000000E+00 0.  1.
          2   -1    0    0  501    0  0.00000000000E+00 -0.00000000000E+00 -0.90796525343E+02  0.90796525343E+02  0.00000000000E+00 0. -1.
         25    2    1    2    0    0  0.26356542258E+02 -0.61103213869E+02  0.10777187070E+02  0.14209881322E+03  0.12509058675E+03 0.  0.
          5    1    3    3  502    0 -0.52192676757E+01 -0.86133737202E+02  0.36850236748E+02  0.93923765831E+02  0.41800000000E+01 0. -1.
         -5    1    3    3    0  502  0.31575809934E+02  0.25030523334E+02 -0.26073049678E+02  0.48175047388E+02  0.41800000000E+01 0. -1.
        -11    1    1    2    0    0 -0.56999519610E+02  0.31999909112E+02  0.86506052292E+02  0.10842617997E+03  0.00000000000E+00 0.  1.
         11    1    1    2    0    0  0.30642977352E+02  0.29103304757E+02  0.17321930277E+02  0.45673227139E+02  0.00000000000E+00 0. -1.
</event>
<event>
 7    1  0.2733606E-009  0.1390265E+03  0.7561462E-02  0.1214645E+00
         -1   -1    0    0    0  501 -0.00000000000E+00  0.00000000000E+00  0.40817671730E+03  0.40817671730E+03  0.00000000000E+00 0.  1.
          1   -1    0    0  501    0  0.00000000000E+00 -0.00000000000E+00 -0.60229515683E+02  0.60229515683E+02  0.00000000000E+00 0. -1.
         25    2    1    2    0    0  0.57272177241E+02  0.89496787298E+02  0.24328506240E+03  0.29347052314E+03  0.12509016406E+03 0.  0.
          5    1    3    3  502    0  0.83657050709E+02  0.43338427369E+02  0.86897576079E+02  0.12823955142E+03  0.41800000000E+01 0. -1.
         -5    1    3    3    0  502 -0.26384873468E+02  0.46158359930E+02  0.15638748632E+03  0.16523097172E+03  0.41800000000E+01 0. -1.
        -11    1    1    2    0    0 -0.75859823966E+02 -0.76473340009E+02  0.10735694244E+03  0.15208023447E+03  0.00000000000E+00 0.  1.
         11    1    1    2    0    0  0.18587646725E+02 -0.13023447289E+02 -0.26948032261E+01  0.22855475372E+02  0.00000000000E+00 0. -1.
</event>
<event>
 7    1  0.2733606E-009  0.1074191E+03  0.7561462E-02  0.1265425E+00
          2   -1    0    0  501    0  0.00000000000E+00  0.00000000000E+00  0.17871878913E+03  0.17871878913E+03  0.00000000000E+00 0. -1.
         -2   -1    0    0    0  501 -0.00000000000E+00 -0.00000000000E+00 -0.81029024096E+02  0.81029024096E+02  0.00000000000E+00 0.  1.
         25    2    1    2    0    0  0.25218856909E+01 -0.44982614444E+02  0.52430496275E+02  0.14292213674E+03  0.12509190510E+03 0.  0.
          5    1    3    3  502    0 -0.59572465643E+02 -0.72006129260E+01  0.23488742045E+02  0.64574924639E+02  0.41800000000E+01 0.  1.
         -5    1    3    3    0  502  0.62094351334E+02 -0.37782001518E+02  0.28941754230E+02  0.78347212103E+02  0.41800000000E+01 0.  1.
        -11    1    1    2    0    0 -0.32805184849E+02  0.74244677660E+01 -0.17300202144E+02  0.37823271525E+02  0.00000000000E+00 0.  1.
         11    1    1    2    0    0  0.30283299158E+02  0.37558146678E+02  0.62559470904E+02  0.79002404961E+02  0.00000000000E+00 0. -1.
</event>
<event>
 7    1  0.2733606E-009  0.1000256E+03  0.7561462E-02  0.1280242E+00
          2   -1    0    0  501    0  0.00000000000E+00  0.00000000000E+00  0.62080900417E+03  0.62080900417E+03  0.00000000000E+00 0.  1.
         -2   -1    0    0    0  501 -0.00000000000E+00 -0.00000000000E+00 -0.38841513559E+02  0.38841513559E+02  0.00000000000E+00 0. -1.
         25    2    1    2    0    0  0.70120174628E+01  0.69702830398E+02  0.12969116130E+03  0.19332723604E+03  0.12509184594E+03 0.  0.
          5    1    3    3  502    0 -0.22013848145E+02  0.51800261436E+02 -0.27462407537E+01  0.56505670806E+02  0.41800000000E+01 0.  1.
         -5    1    3    3    0  502  0.29025865608E+02  0.17902568962E+02  0.13243740206E+03  0.13682156524E+03  0.41800000000E+01 0.  1.
        -11    1    1    2    0    0 -0.42080411514E+02 -0.15802124663E+02  0.25197585307E+03  0.25595370422E+03  0.00000000000E+00 0. -1.
         11    1    1    2    0    0  0.35068394052E+02 -0.53900705735E+02  0.20030047624E+03  0.21036957746E+03  0.00000000000E+00 0.  1.
</event>
<event>
 7    1  0.2733606E-009  0.9337971E+02  0.7561462E-02  0.1294868E+00
          1   -1    0    0  501    0  0.00000000000E+00  0.00000000000E+00  0.84350041816E+02  0.84350041816E+02  0.00000000000E+00 0. -1.
         -1   -1    0    0    0  501 -0.00000000000E+00 -0.00000000000E+00 -0.25400388265E+03  0.25400388265E+03  0.00000000000E+00 0.  1.
         25    2    1    2    0    0  0.75261047347E+02  0.46695258460E+02 -0.14014697934E+03  0.20767861182E+03  0.12507820586E+03 0.  0.
          5    1    3    3  502    0  0.42865222463E+02  0.15840705391E+02  0.13308411657E+02  0.47780136719E+02  0.41800000000E+01 0.  1.
         -5    1    3    3    0  502  0.32395824884E+02  0.30854553069E+02 -0.15345539100E+03  0.15989847510E+03  0.41800000000E+01 0.  1.
        -11    1    1    2    0    0 -0.25887118444E+02  0.27852725022E+01 -0.51238671767E+02  0.57474360620E+02  0.00000000000E+00 0.  1.
         11    1    1    2    0    0 -0.49373928903E+02 -0.49480530962E+02  0.21731810270E+02  0.73200952024E+02  0.00000000000E+00 0. -1.
</event>
<event>
 7    1  0.2733606E-009  0.8648696E+02  0.7561462E-02  0.1311589E+00
         -1   -1    0    0    0  501 -0.00000000000E+00  0.00000000000E+00  0.11360894296E+03  0.11360894296E+03  0.00000000000E+00 0.  1.
          1   -1    0    0  501    0  0.00000000000E+00 -0.00000000000E+00 -0.15342594333E+03  0.15342594333E+03  0.00000000000E+00 0. -1.
         25    2    1    2    0    0 -0.16564217086E+02 -0.51072156569E+02  0.31096638707E+02  0.13963655780E+03  0.12509447977E+03 0.  0.
          5    1    3    3  502    0  0.15406772178E+02  0.89651661896E+01 -0.38252254048E+02  0.42408138058E+02  0.41800000000E+01 0.  1.
         -5    1    3    3    0  502 -0.31970989264E+02 -0.60037322758E+02  0.69348892756E+02  0.97228419739E+02  0.41800000000E+01 0.  1.
        -11    1    1    2    0    0  0.24762774384E+02 -0.86538321093E+01 -0.60869769774E+02  0.66281314695E+02  0.00000000000E+00 0. -1.
         11    1    1    2    0    0 -0.81985572982E+01  0.59725988678E+02 -0.10043869308E+02  0.61117013802E+02  0.00000000000E+00 0.  1.
</event>
<event>
 7    1  0.2733606E-009  0.1741154E+03  0.7561462E-02  0.1173623E+00
         -1   -1    0    0    0  501 -0.00000000000E+00  0.00000000000E+00  0.10130532334E+03  0.10130532334E+03  0.00000000000E+00 0.  1.
          1   -1    0    0  501    0  0.00000000000E+00 -0.00000000000E+00 -0.35561640447E+03  0.35561640447E+03  0.00000000000E+00 0. -1.
         25    2    1    2    0    0 -0.11255024506E+03 -0.10383667497E+03 -0.10409107477E+03  0.22345713574E+03  0.12509407233E+03 0.  0.
          5    1    3    3  502    0 -0.92597593467E+02 -0.13140333240E+03 -0.98888359596E+02  0.18877905113E+03  0.41800000000E+01 0.  1.
         -5    1    3    3    0  502 -0.19952651596E+02  0.27566657423E+02 -0.52027151777E+01  0.34678084613E+02  0.41800000000E+01 0.  1.
        -11    1    1    2    0    0  0.66505739365E+02  0.60413468004E+02 -0.14418314467E+03  0.16988696151E+03  0.00000000000E+00 0. -1.
         11    1    1    2    0    0  0.46044505697E+02  0.43423206970E+02 -0.60368616940E+01  0.63577630560E+02  0.00000000000E+00 0.  1.
</event>
<event>
 7    1  0.2733606E-009  0.8246513E+02  0.7561462E-02  0.1322198E+00
          2   -1    0    0  501    0  0.00000000000E+00  0.00000000000E+00  0.89568956916E+03  0.89568956916E+03  0.00000000000E+00 0. -1.
         -2   -1    0    0    0  501 -0.00000000000E+00 -0.00000000000E+00 -0.19390766065E+02  0.19390766065E+02  0.00000000000E+00 0.  1.
         25    2    1    2    0    0  0.19580360167E+02  0.27101309471E+02  0.70861742904E+03  0.72035032553E+03  0.12509220307E+03 0.  0.
          5    1    3    3  502    0  0.66058178072E+02  0.27860779349E+02  0.55975682697E+03  0.56434482690E+03  0.41800000000E+01 0. -1.
         -5    1    3    3    0  502 -0.46477817905E+02 -0.75946987767E+00  0.14886060208E+03  0.15600549863E+03  0.41800000000E+01 0. -1.
        -11    1    1    2    0    0 -0.16328063392E+02  0.26270578131E+01 -0.66699887217E+01  0.17832437759E+02  0.00000000000E+00 0.  1.
         11    1    1    2    0    0 -0.32522967747E+01 -0.29728367284E+02  0.17435136277E+03  0.17689757193E+03  0.00000000000E+00 0. -1.
</event>
<event>
 7    1  0.2733606E-009  0.1241486E+03  0.7561462E-02  0.1236406E+00
          1   -1    0    0  501    0  0.00000000000E+00  0.00000000000E+00  0.18336393312E+03  0.18336393312E+03  0.00000000000E+00 0. -1.
         -1   -1    0    0    0  501 -0.00000000000E+00 -0.00000000000E+00 -0.10015070048E+03  0.10015070048E+03  0.00000000000E+00 0.  1.
         25    2    1    2    0    0 -0.37117812184E+02 -0.49270312945E+02 -0.10104322999E+02  0.13982958977E+03  0.12507965907E+03 0.  0.
          5    1    3    3  502    0 -0.31863388875E+01 -0.87796540782E+02 -0.67496208361E+01  0.88212329695E+02  0.41800000000E+01 0. -1.
         -5    1    3    3    0  502 -0.33931473296E+02  0.38526227837E+02 -0.33547021628E+01  0.51617260079E+02  0.41800000000E+01 0. -1.
        -11    1    1    2    0    0  0.65826161695E+02  0.22453416621E+02  0.65597145792E+02  0.95604524043E+02  0.00000000000E+00 0.  1.
         11    1    1    2    0    0 -0.28708349511E+02  0.26816896324E+02  0.27720409848E+02  0.48080519779E+02  0.00000000000E+00 0. -1.
</event>
<event>
 7    1  0.2733606E-009  0.1250311E+03  0.7561462E-02  0.1235021E+00
          1   -1    0    0  501    0  0.00000000000E+00  0.00000000000E+00  0.12349883501E+03  0.12349883501E+03  0.00000000000E+00 0. -1.
         -1   -1    0    0    0  501 -0.00000000000E+00 -0.00000000000E+00 -0.21888996901E+03  0.21888996901E+03  0.00000000000E+00 0.  1.
         25    2    1    2    0    0  0.59941228890E+02 -0.63167955326E+02  0.39625664463E+02  0.15748366214E+03  0.12509104307E+03 0.  0.
          5    1    3    3  502    0  0.25798855466E+02 -0.82226382383E+02  0.67278193479E+02  0.10941017604E+03  0.41800000000E+01 0. -1.
         -5    1    3    3    0  502  0.34142373424E+02  0.19058427057E+02 -0.27652529016E+02  0.48073486101E+02  0.41800000000E+01 0. -1.
        -11    1    1    2    0    0 -0.19302250638E+02 -0.22496710634E+02 -0.46799537276E+02  0.55397432777E+02  0.00000000000E+00 0. -1.
         11    1    1    2    0    0 -0.40638978253E+02  0.85664665961E+02 -0.88217261182E+02  0.12950770911E+03  0.00000000000E+00 0.  1.
</event>
<event>
 7    1  0.2733606E-009  0.9510759E+02  0.7561462E-02  0.1290934E+00
         -1   -1    0    0    0  501 -0.00000000000E+00  0.00000000000E+00  0.17982145657E+02  0.17982145657E+02  0.00000000000E+00 0.  1.
          1   -1    0    0  501    0  0.00000000000E+00 -0.00000000000E+00 -0.67593322289E+03  0.67593322289E+03  0.00000000000E+00 0. -1.
         25    2    1    2    0    0 -0.11471734745E+02 -0.13086615759E+02 -0.40491898178E+03  0.42415749727E+03  0.12508932997E+03 0.  0.
          5    1    3    3  502    0 -0.93207969974E+01 -0.54312205619E+02 -0.83885355103E+02  0.10045356209E+03  0.41800000000E+01 0. -1.
         -5    1    3    3    0  502 -0.21509377480E+01  0.41225589860E+02 -0.32103362668E+03  0.32370393518E+03  0.41800000000E+01 0. -1.
        -11    1    1    2    0    0 -0.23801611056E+02  0.41715837990E+02 -0.12554347013E+03  0.13441685430E+03  0.00000000000E+00 0. -1.
         11    1    1    2    0    0  0.35273345802E+02 -0.28629222231E+02 -0.12748862532E+03  0.13534101697E+03  0.00000000000E+00 0.  1.
</event>
<event>
 7    1  0.2733606E-009  0.1592973E+03  0.7561462E-02  0.1189492E+00
          1   -1    0    0  501    0  0.00000000000E+00  0.00000000000E+00  0.23704461038E+03  0.23704461038E+03  0.00000000000E+00 0. -1.
         -1   -1    0    0    0  501 -0.00000000000E+00 -0.00000000000E+00 -0.14957663535E+03  0.14957663535E+03  0.00000000000E+00 0.  1.
         25    2    1    2    0    0  0.76334865164E+02 -0.12338786632E+03  0.97202532963E+02  0.21481888085E+03  0.12508893620E+03 0.  0.
          5    1    3    3  502    0  0.58708020132E+02 -0.11742276691E+03  0.12485904604E+03  0.18122359558E+03  0.41800000000E+01 0. -1.
         -5    1    3    3    0  502  0.17626845032E+02 -0.59650994101E+01 -0.27656513077E+02  0.33595285269E+02  0.41800000000E+01 0. -1.
        -11    1    1    2    0    0  0.92247741348E+00  0.79135741113E+02 -0.21462803664E+02  0.81999807482E+02  0.00000000000E+00 0.  1.
         11    1    1    2    0    0 -0.77257342578E+02  0.44252125208E+02  0.11728245725E+02  0.89802557399E+02  0.00000000000E+00 0. -1.
</event>
<event>
 7    1  0.2733606E-009  0.1184020E+03  0.7561462E-02  0.1245757E+00
         -1   -1    0    0    0  501 -0.00000000000E+00  0.00000000000E+00  0.39607613390E+02  0.39607613390E+02  0.00000000000E+00 0.  1.
          1   -1    0    0  501    0  0.00000000000E+00 -0.00000000000E+00 -0.39328753128E+03  0.39328753128E+03  0.00000000000E+00 0. -1.
         25    2    1    2    0    0 -0.56799823417E+02 -0.23345506365E+02 -0.18190866872E+03  0.22914909459E+03  0.12508921291E+03 0.  0.
          5    1    3    3  502    0 -0.88912754602E+02  0.53681547273E+01 -0.15303983433E+03  0.17712413248E+03  0.41800000000E+01 0. -1.
         -5    1    3    3    0  502  0.32112931185E+02 -0.28713661092E+02 -0.28868834393E+02  0.52024962103E+02  0.41800000000E+01 0. -1.
        -11    1    1    2    0    0  0.33688987355E+01 -0.29210686414E+02 -0.23619168300E+02  0.37715763159E+02  0.00000000000E+00 0.  1.
         11    1    1    2    0    0  0.53430924681E+02  0.52556192779E+02 -0.14815208087E+03  0.16603028693E+03  0.00000000000E+00 0. -1.
</event>
<event>
 7    1  0.2733606E-009  0.1732525E+03  0.7561462E-02  0.1174498E+00
          2   -1    0    0  501    0  0.00000000000E+00  0.00000000000E+00  0.36644655232E+03  0.36644655232E+03  0.00000000000E+00 0.  1.
         -2   -1    0    0    0  501 -0.00000000000E+00 -0.00000000000E+00 -0.10926707841E+03  0.10926707841E+03  0.00000000000E+00 0. -1.
         25    2    1    2    0    0  0.66073639871E+02  0.13193024474E+03  0.22864413072E+03  0.29949391736E+03  0.12508857926E+03 0.  0.
          5    1    3    3  502    0  0.10235040673E+03  0.81448803093E+02  0.16210093596E+03  0.20833554455E+03  0.41800000000E+01 0.  1.
         -5    1    3    3    0  502 -0.36276766862E+02  0.50481441646E+02  0.66543194762E+02  0.91158372812E+02  0.41800000000E+01 0.  1.
        -11    1    1    2    0    0 -0.10353928396E+02 -0.66887981079E+02  0.54309590964E+02  0.86779822059E+02  0.00000000000E+00 0. -1.
         11    1    1    2    0    0 -0.55719711475E+02 -0.65042263661E+02 -0.25774247773E+02  0.89439891308E+02  0.00000000000E+00 0.  1.
</event>
<event>
 7    1  0.2733606E-009  0.1183330E+03  0.7561462E-02  0.1245873E+00
          1   -1    0    0  501    0  0.00000000000E+00  0.00000000000E+00  0.75546491630E+03  0.75546491630E+03  0.00000000000E+00 0. -1.
         -1   -1    0    0    0  501 -0.00000000000E+00 -0.00000000000E+00 -0.34750296020E+02  0.34750296020E+02  0.00000000000E+00 0.  1.
         25    2    1    2    0    0  0.31925537552E+02  0.80258675254E+02  0.18255072900E+03  0.23755702930E+03  0.12509148097E+03 0.  0.
          5    1    3    3  502    0 -0.17030516710E+00 -0.13076059247E+02 -0.12722637901E+02  0.18717645269E+02  0.41800000000E+01 0.  1.
         -5    1    3    3    0  502  0.32095842719E+02  0.93334734501E+02  0.19527336690E+03  0.21883938403E+03  0.41800000000E+01 0.  1.
        -11    1    1    2    0    0  0.31237809277E+02 -0.21867371895E+02  0.20841946402E+03  0.21187887026E+03  0.00000000000E+00 0. -1.
         11    1    1    2    0    0 -0.63163346829E+02 -0.58391303359E+02  0.32974442726E+03  0.34077931276E+03  0.00000000000E+00 0.  1.
</event>
<event>
 7    1  0.2733606E-009  0.7654024E+02  0.7561462E-02  0.1339167E+00
          2   -1    0    0  501    0  0.00000000000E+00  0.00000000000E+00  0.40159287725E+02  0.40159287725E+02  0.00000000000E+00 0. -1.
         -2   -1    0    0    0  501 -0.00000000000E+00 -0.00000000000E+00 -0.32034849224E+03  0.32034849224E+03  0.00000000000E+00 0.  1.
         25    2    1    2    0    0 -0.12587438047E+02 -0.66012250929E+01 -0.20710610839E+03  0.24237007190E+03  0.12509313272E+03 0.  0.
          5    1    3    3  502    0 -0.78438948484E+01 -0.47691166283E+02 -0.19216388813E+03  0.19819285135E+03  0.41800000000E+01 0.  1.
         -5    1    3    3    0  502 -0.47435431985E+01  0.41089941190E+02 -0.14942220262E+02  0.44177220549E+02  0.41800000000E+01 0.  1.
        -11    1    1    2    0    0  0.11434075202E+02 -0.27027256348E+02  0.79433011334E+01  0.30402412640E+02  0.00000000000E+00 0. -1.
         11    1    1    2    0    0  0.11533628450E+01  0.33628481441E+02 -0.81026397261E+02  0.87735295423E+02  0.00000000000E+00 0.  1.
</event>
<event>
 7    1  0.2733606E-009  0.8689173E+02  0.7561462E-02  0.1310558E+00
         -1   -1    0    0    0  501 -0.00000000000E+00  0.00000000000E+00  0.18869357188E+03  0.18869357188E+03  0.00000000000E+00 0.  1.
          1   -1    0    0  501    0  0.00000000000E+00 -0.00000000000E+00 -0.66409356173E+02  0.66409356173E+02  0.00000000000E+00 0. -1.
         25    2    1    2    0    0 -0.18415784730E+02  0.17853952251E+02  0.47635686864E+02  0.13627923602E+03  0.12507984157E+03 0.  0.
          5    1    3    3  502    0 -0.53697636031E+02  0.53234057418E+02  0.39736970580E+02  0.85520758973E+02  0.41800000000E+01 0.  1.
         -5    1    3    3    0  502  0.35281851301E+02 -0.35380105167E+02  0.78987162839E+01  0.50758477043E+02  0.41800000000E+01 0.  1.
        -11    1    1    2    0    0 -0.12952585792E+02 -0.69921082616E+01  0.83242289541E+02  0.84533649067E+02  0.00000000000E+00 0.  1.
         11    1    1    2    0    0  0.31368370522E+02 -0.10861843990E+02 -0.85937606953E+01  0.34290042971E+02  0.00000000000E+00 0. -1.
</event>
<event>
 7    1  0.2733606E-009  0.1115679E+03  0.7561462E-02  0.1257694E+00
          4   -1    0    0  501    0  0.00000000000E+00  0.00000000000E+00  0.39329838156E+03  0.39329838156E+03  0.00000000000E+00 0.  1.
         -4   -1    0    0    0  501 -0.00000000000E+00 -0.00000000000E+00 -0.52152586919E+02  0.52152586919E+02  0.00000000000E+00 0. -1.
         25    2    1    2    0    0  0.51553186665E+02  0.11412625280E+02  0.65708514919E+02  0.15084071616E+03  0.12508930270E+03 0.  0.
          5    1    3    3  502    0 -0.36006443484E+02  0.27511706641E+02  0.31644211416E+02  0.55427308168E+02  0.41800000000E+01 0. -1.
         -5    1    3    3    0  502  0.87559630148E+02 -0.16099081361E+02  0.34064303503E+02  0.95413407996E+02  0.41800000000E+01 0. -1.
        -11    1    1    2    0    0 -0.54217365400E+02  0.19394556912E+02  0.24326469337E+03  0.24998676482E+03  0.00000000000E+00 0.  1.
         11    1    1    2    0    0  0.26641787352E+01 -0.30807182193E+02  0.32172586355E+02  0.44623487490E+02  0.00000000000E+00 0. -1.
</event>
<event>
 7    1  0.2733606E-009  0.1533062E+03  0.7561462E-02  0.1196468E+00
         -2   -1    0    0    0  501 -0.00000000000E+00  0.00000000000E+00  0.10735411502E+03  0.10735411502E+03  0.00000000000E+00 0. -1.
          2   -1    0    0  501    0  0.00000000000E+00 -0.00000000000E+00 -0.35798878421E+03  0.35798878421E+03  0.00000000000E+00 0.  1.
         25    2    1    2    0    0 -0.79007181221E+02 -0.11123412849E+03 -0.23686515003E+03  0.30061284575E+03  0.12509123752E+03 0.  0.
          5    1    3    3  502    0  0.84417352069E+01 -0.70916660098E+01  0.12101989786E+02  0.16896306605E+02  0.41800000000E+01 0. -1.
         -5    1    3    3    0  502 -0.87448916428E+02 -0.10414246248E+03 -0.24896713982E+03  0.28371653915E+03  0.41800000000E+01 0. -1.
        -11    1    1    2    0    0  0.24326972856E+02  0.10003846111E+03 -0.28839409050E+02  0.10691682199E+03  0.00000000000E+00 0.  1.
         11    1    1    2    0    0  0.54680208365E+02  0.11195667384E+02  0.15069889889E+02  0.57813231499E+02  0.00000000000E+00 0. -1.
</event>
<event>
 7    1  0.2733606E-009  0.1049669E+03  0.7561462E-02  0.1270185E+00
          2   -1    0    0  501    0  0.00000000000E+00  0.00000000000E+00  0.34785557017E+03  0.34785557017E+03  0.00000000000E+00 0. -1.
         -2   -1    0    0    0  501 -0.00000000000E+00 -0.00000000000E+00 -0.34166156873E+02  0.34166156873E+02  0.00000000000E+00 0.  1.
         25    2    1    2    0    0  0.14390422671E+02 -0.87696413295E+00  0.16133926538E+03  0.20465855001E+03  0.12508761013E+03 0.  0.
          5    1    3    3  502    0  0.24789882209E+02  0.59438198976E+02  0.85013866936E+02  0.10673456670E+03  0.41800000000E+01 0.  1.
         -5    1    3    3    0  502 -0.10399459538E+02 -0.60315163109E+02  0.76325398442E+02  0.97923983308E+02  0.41800000000E+01 0.  1.
        -11    1    1    2    0    0 -0.82607471089E+01  0.41831450539E+02  0.43548531381E+02  0.60947393566E+02  0.00000000000E+00 0. -1.
         11    1    1    2    0    0 -0.61296755619E+01 -0.40954486406E+02  0.10880161653E+03  0.11641578346E+03  0.00000000000E+00 0.  1.
</event>
<event>
 7    1  0.2896671E-009  0.2004755E+03  0.7561462E-02  0.1149338E+00
         -1   -1    0    0    0  501 -0.00000000000E+00  0.00000000000E+00  0.49300867458E+03  0.49300867458E+03  0.00000000000E+00 0.  1.
          1   -1    0    0  501    0  0.00000000000E+00 -0.00000000000E+00 -0.10538975832E+03  0.10538975832E+03  0.00000000000E+00 0. -1.
         25    2    1    2    0    0  0.70299156952E+02 -0.18479374355E+03  0.24082927615E+03  0.33576363176E+03  0.12509107496E+03 0.  0.
          5    1    3    3  502    0  0.20484087521E+02 -0.11722898183E+03  0.21843422138E+03  0.24878346708E+03  0.41800000000E+01 0.  1.
         -5    1    3    3    0  502  0.49815069431E+02 -0.67564761723E+02  0.22395054771E+02  0.86980164677E+02  0.41800000000E+01 0.  1.
        -11    1    1    2    0    0 -0.36813782011E+02  0.10601115570E+03  0.27037521787E+02  0.11543243592E+03  0.00000000000E+00 0. -1.
         11    1    1    2    0    0 -0.33485374942E+02  0.78782587855E+02  0.11975211832E+03  0.14720236522E+03  0.00000000000E+00 0.  1.
</event>
<event>
 7    1  0.2733606E-009  0.1690323E+03  0.7561462E-02  0.1178861E+00
         -2   -1    0    0    0  501 -0.00000000000E+00  0.00000000000E+00  0.14918296249E+03  0.14918296249E+03  0.00000000000E+00 0.  1.
          2   -1    0    0  501    0  0.00000000000E+00 -0.00000000000E+00 -0.83791007439E+03  0.83791007439E+03  0.00000000000E+00 0. -1.
         25    2    1    2    0    0 -0.11897645427E+03  0.43579932433E+02  0.77078458284E+02  0.19400712820E+03  0.12507225864E+03 0.  0.
          5    1    3    3  502    0 -0.98267792924E+02 -0.38173741536E+00  0.99868490788E+02  0.14017094100E+03  0.41800000000E+01 0. -1.
         -5    1    3    3    0  502 -0.20708661341E+02  0.43961669849E+02 -0.22790032504E+02  0.53836187198E+02  0.41800000000E+01 0. -1.
        -11    1    1    2    0    0  0.16340067240E+02 -0.80284628750E+02 -0.48490308915E+03  0.49177599096E+03  0.00000000000E+00 0. -1.
         11    1    1    2    0    0  0.10263638703E+03  0.36704696317E+02 -0.28090248103E+03  0.30130991773E+03  0.00000000000E+00 0.  1.
</event>
<event>
 7    1  0.2733606E-009  0.2048603E+03  0.7561462E-02  0.1145702E+00
         -2   -1    0    0    0  501 -0.00000000000E+00  0.00000000000E+00  0.36981795194E+02  0.36981795194E+02  0.00000000000E+00 0. -1.
          2   -1    0    0  501    0  0.00000000000E+00 -0.00000000000E+00 -0.14892007712E+04  0.14892007712E+04  0.00000000000E+00 0.  1.
         25    2    1    2    0    0  0.36270649626E+02  0.19441293310E+03 -0.96296267045E+03  0.99098778798E+03  0.12509093754E+03 0.  0.
          5    1    3    3  502    0  0.15848331709E+02  0.38784175540E+02 -0.50701901600E+03  0.50876432351E+03  0.41800000000E+01 0. -1.
         -5    1    3    3    0  502  0.20422317917E+02  0.15562875756E+03 -0.45594365445E+03  0.48222346447E+03  0.41800000000E+01 0. -1.
        -11    1    1    2    0    0 -0.58026855017E+02 -0.12412807061E+03 -0.37549781368E+03  0.39971677710E+03  0.00000000000E+00 0. -1.
         11    1    1    2    0    0  0.21756205391E+02 -0.70284862491E+02 -0.11375849190E+03  0.13547800134E+03  0.00000000000E+00 0.  1.
</event>
<event>
 7    1  0.2733606E-009  0.1352040E+03  0.7561462E-02  0.1219932E+00
         -1   -1    0    0    0  501 -0.00000000000E+00  0.00000000000E+00  0.60601634525E+02  0.60601634525E+02  0.00000000000E+00 0.  1.
          1   -1    0    0  501    0  0.00000000000E+00 -0.00000000000E+00 -0.36281273193E+03  0.36281273193E+03  0.00000000000E+00 0. -1.
         25    2    1    2    0    0  0.87391256166E+02  0.31685406311E+02 -0.21995109434E+03  0.26956868140E+03  0.12509034121E+03 0.  0.
          5    1    3    3  502    0  0.11769491294E+03  0.28270340857E+02 -0.19668465593E+03  0.23098404920E+03  0.41800000000E+01 0. -1.
         -5    1    3    3    0  502 -0.30303656777E+02  0.34150654540E+01 -0.23266438408E+02  0.38584632204E+02  0.41800000000E+01 0. -1.
        -11    1    1    2    0    0  0.63150556938E+01 -0.23631616023E+02  0.56512243138E+01  0.25105169597E+02  0.00000000000E+00 0.  1.
         11    1    1    2    0    0 -0.93706311860E+02 -0.80537902879E+01 -0.87911227380E+02  0.12874051546E+03  0.00000000000E+00 0. -1.
</event>
<event>
 7    1  0.2733606E-009  0.2326056E+03  0.7561462E-02  0.1124819E+00
          2   -1    0    0  501    0  0.00000000000E+00  0.00000000000E+00  0.66468750115E+03  0.66468750115E+03  0.00000000000E+00 0. -1.
         -2   -1    0    0    0  501 -0.00000000000E+00 -0.00000000000E+00 -0.92672700588E+02  0.92672700588E+02  0.00000000000E+00 0.  1.
         25    2    1    2    0    0  0.22159395299E+03 -0.16091116444E+02  0.28738908144E+03  0.38418938021E+03  0.12508473808E+03 0.  0.
          5    1    3    3  502    0 -0.13516852518E+01 -0.51523384621E+01 -0.10153160440E+02  0.12203799063E+02  0.41800000000E+01 0. -1.
         -5    1    3    3    0  502  0.22294563825E+03 -0.10938777982E+02  0.29754224188E+03  0.37198558114E+03  0.41800000000E+01 0. -1.
        -11    1    1    2    0    0 -0.33394092451E+02 -0.26019007875E+02  0.88538271520E+02  0.98138573992E+02  0.00000000000E+00 0.  1.
         11    1    1    2    0    0 -0.18819986054E+03  0.42110124319E+02  0.19608744760E+03  0.27503224754E+03  0.00000000000E+00 0. -1.
</event>
<event>
 7    1  0.2733606E-009  0.1239015E+03  0.7561462E-02  0.1236796E+00
         -2   -1    0    0    0  501 -0.00000000000E+00  0.00000000000E+00  0.28970334824E+03  0.28970334824E+03  0.00000000000E+00 0.  1.
          2   -1    0    0  501    0  0.00000000000E+00 -0.00000000000E+00 -0.74671369409E+02  0.74671369409E+02  0.00000000000E+00 0. -1.
         25    2    1    2    0    0  0.63725709615E+02  0.21366064037E+02  0.27305928663E+02  0.14460626412E+03  0.12509149901E+03 0.  0.
          5    1    3    3  502    0  0.67312213816E+02  0.64790615394E+02  0.97865969813E+00  0.93526403474E+02  0.41800000000E+01 0. -1.
         -5    1    3    3    0  502 -0.35865042008E+01 -0.43424551357E+02  0.26327268965E+02  0.51079860651E+02  0.41800000000E+01 0. -1.
        -11    1    1    2    0    0 -0.85907325495E+02 -0.20454803783E+02  0.12358260108E+03  0.15189182618E+03  0.00000000000E+00 0.  1.
         11    1    1    2    0    0  0.22181615880E+02 -0.91126025315E+00  0.64143449094E+02  0.67876627347E+02  0.00000000000E+00 0. -1.
</event>
<event>
 7    1  0.2733606E-009  0.1017241E+03  0.7561462E-02  0.1276712E+00
          2   -1    0    0  501    0  0.00000000000E+00  0.00000000000E+00  0.22993147895E+03  0.22993147895E+03  0.00000000000E+00 0. -1.
         -2   -1    0    0    0  501 -0.00000000000E+00 -0.00000000000E+00 -0.78276281674E+02  0.78276281674E+02  0.00000000000E+00 0.  1.
         25    2    1    2    0    0  0.55136223750E+02  0.54881260779E+02  0.75606692810E+02  0.16557848024E+03  0.12509158711E+03 0.  0.
          5    1    3    3  502    0  0.67652749850E+02  0.75201316440E+02  0.91614745130E+02  0.13653888267E+03  0.41800000000E+01 0.  1.
         -5    1    3    3    0  502 -0.12516526100E+02 -0.20320055660E+02 -0.16008052321E+02  0.29039597566E+02  0.41800000000E+01 0.  1.
        -11    1    1    2    0    0 -0.44707031907E+02 -0.47305226796E+02 -0.41205733999E+00  0.65089730184E+02  0.00000000000E+00 0.  1.
         11    1    1    2    0    0 -0.10429191843E+02 -0.75760339833E+01  0.76460561807E+02  0.77539550201E+02  0.00000000000E+00 0. -1.
</event>
<event>
 7    1  0.2733606E-009  0.1298485E+03  0.7561462E-02  0.1227681E+00
          2   -1    0    0  501    0  0.00000000000E+00  0.00000000000E+00  0.17260025973E+04  0.17260025973E+04  0.00000000000E+00 0. -1.
         -2   -1    0    0    0  501 -0.00000000000E+00 -0.00000000000E+00 -0.20854466598E+02  0.20854466598E+02  0.00000000000E+00 0.  1.
         25    2    1    2    0    0  0.86059876736E+02  0.71443697291E+02  0.13870441921E+04  0.13971576386E+04  0.12508945585E+03 0.  0.
          5    1    3    3  502    0 -0.19105061873E+01  0.20057993952E+01  0.76924660677E+03  0.76926295094E+03  0.41800000000E+01 0.  1.
         -5    1    3    3    0  502  0.87970382923E+02  0.69437897896E+02  0.61779758533E+03  0.62789468764E+03  0.41800000000E+01 0.  1.
        -11    1    1    2    0    0 -0.16328357335E+02  0.21085625729E+02  0.36611361811E+02  0.45294709176E+02  0.00000000000E+00 0.  1.
         11    1    1    2    0    0 -0.69731519401E+02 -0.92529323020E+02  0.28149257682E+03  0.30440471616E+03  0.00000000000E+00 0. -1.
</event>
<event>
 7    1  0.2733606E-009  0.1243957E+03  0.7561462E-02  0.1236017E+00
          2   -1    0    0  501    0  0.00000000000E+00  0.00000000000E+00  0.11020027542E+04  0.11020027542E+04  0.00000000000E+00 0. -1.
         -2   -1    0    0    0  501 -0.00000000000E+00 -0.00000000000E+00 -0.15818987917E+02  0.15818987917E+02  0.00000000000E+00 0.  1.
         25    2    1    2    0    0  0.80890524941E+02  0.94492956391E+01  0.75030398194E+03  0.76500749771E+03  0.12509132674E+03 0.  0.
          5    1    3    3  502    0  0.10814278643E+03 -0.17685770477E+02  0.58979147319E+03  0.59989924403E+03  0.41800000000E+01 0.  1.
         -5    1    3    3    0  502 -0.27252261494E+02  0.27135066116E+02  0.16051250875E+03  0.16510825369E+03  0.41800000000E+01 0.  1.
        -11    1    1    2    0    0 -0.27930429134E+02  0.24822121234E+02  0.67825010785E+02  0.77436933451E+02  0.00000000000E+00 0. -1.
         11    1    1    2    0    0 -0.52960095806E+02 -0.34271416873E+02  0.26805477355E+03  0.27537731094E+03  0.00000000000E+00 0.  1.
</event>
<event>
 7    1  0.2733606E-009  0.1000578E+03  0.7561462E-02  0.1280174E+00
         -2   -1    0    0    0  501 -0.00000000000E+00  0.00000000000E+00  0.17758270591E+03  0.17758270591E+03  0.00000000000E+00 0.  1.
          2   -1    0    0  501    0  0.00000000000E+00 -0.00000000000E+00 -0.76560373544E+02  0.76560373544E+02  0.00000000000E+00 0. -1.
         25    2    1    2    0    0  0.62422350790E+01 -0.36262690437E+02  0.66577148144E+02  0.14640586992E+03  0.12509282104E+03 0.  0.
          5    1    3    3  502    0  0.62066746930E+02 -0.20277940005E+02  0.11830459450E+02  0.66489909732E+02  0.41800000000E+01 0.  1.
         -5    1    3    3    0  502 -0.55824511851E+02 -0.15984750432E+02  0.54746688694E+02  0.79915960188E+02  0.41800000000E+01 0.  1.
        -11    1    1    2    0    0  0.29556731008E+02  0.73624983896E+01  0.50527707116E+02  0.58998778944E+02  0.00000000000E+00 0.  1.
         11    1    1    2    0    0 -0.35798966087E+02  0.28900192047E+02 -0.16082522899E+02  0.48738430587E+02  0.00000000000E+00 0. -1.
</event>
<event>
 7    1  0.2733606E-009  0.1502152E+03  0.7561462E-02  0.1200209E+00
         -3   -1    0    0    0  501 -0.00000000000E+00  0.00000000000E+00  0.13913642655E+03  0.13913642655E+03  0.00000000000E+00 0.  1.
          3   -1    0    0  501    0  0.00000000000E+00 -0.00000000000E+00 -0.21984145568E+03  0.21984145568E+03  0.00000000000E+00 0. -1.
         25    2    1    2    0    0 -0.33708916475E+02  0.10313005962E+03  0.41320418135E+02  0.17066652756E+03  0.12509031309E+03 0.  0.
          5    1    3    3  502    0 -0.24575469931E+02 -0.24620671466E+02 -0.27752138592E+01  0.35146911639E+02  0.41800000000E+01 0. -1.
         -5    1    3    3    0  502 -0.91334465441E+01  0.12775073109E+03  0.44095631994E+02  0.13551961592E+03  0.41800000000E+01 0. -1.
        -11    1    1    2    0    0  0.26516959904E+02  0.65651485959E+01 -0.50377245433E+01  0.27778211016E+02  0.00000000000E+00 0.  1.
         11    1    1    2    0    0  0.71919565710E+01 -0.10969520822E+03 -0.11698772272E+03  0.16053314366E+03  0.00000000000E+00 0. -1.
</event>
<event>
 7    1  0.2733606E-009  0.1131157E+03  0.7561462E-02  0.1254906E+00
         -1   -1    0    0    0  501 -0.00000000000E+00  0.00000000000E+00  0.78086131195E+02  0.78086131195E+02  0.00000000000E+00 0.  1.
          1   -1    0    0  501    0  0.00000000000E+00 -0.00000000000E+00 -0.20201222062E+03  0.20201222062E+03  0.00000000000E+00 0. -1.
         25    2    1    2    0    0 -0.33268506391E+02  0.31199741134E+02 -0.11494969053E+03  0.17589790060E+03  0.12508566152E+03 0.  0.
          5    1    3    3  502    0  0.31701996364E+02 -0.25325650330E+02 -0.63566425014E+02  0.75528590130E+02  0.41800000000E+01 0.  1.
         -5    1    3    3    0  502 -0.64970502755E+02  0.56525391464E+02 -0.51383265520E+02  0.10036931047E+03  0.41800000000E+01 0.  1.
        -11    1    1    2    0    0 -0.20404432019E+02  0.17399147108E+02 -0.16370909503E+02  0.31417795022E+02  0.00000000000E+00 0. -1.
         11    1    1    2    0    0  0.53672938410E+02 -0.48598888242E+02  0.73945106088E+01  0.72782656197E+02  0.00000000000E+00 0.  1.
</event>
<event>
 7    1  0.2733606E-009  0.1059697E+03  0.7561462E-02  0.1268221E+00
          4   -1    0    0  501    0  0.00000000000E+00  0.00000000000E+00  0.31845174379E+02  0.31845174379E+02  0.00000000000E+00 0. -1.
         -4   -1    0    0    0  501 -0.00000000000E+00 -0.00000000000E+00 -0.46491475112E+03  0.46491475112E+03  0.00000000000E+00 0.  1.
         25    2    1    2    0    0  0.30921093687E+02 -0.81179401168E+01 -0.33648038922E+03  0.36040223376E+03  0.12509477522E+03 0.  0.
          5    1    3    3  502    0  0.61271446468E+02  0.29226685239E+02 -0.26867995388E+03  0.27715479303E+03  0.41800000000E+01 0.  1.
         -5    1    3    3    0  502 -0.30350352781E+02 -0.37344625356E+02 -0.67800435338E+02  0.83247440735E+02  0.41800000000E+01 0.  1.
        -11    1    1    2    0    0  0.82345797010E+01 -0.35828395473E+02 -0.29715330761E+02  0.47270319517E+02  0.00000000000E+00 0. -1.
         11    1    1    2    0    0 -0.39155673388E+02  0.43946335589E+02 -0.66873856761E+02  0.89087372216E+02  0.00000000000E+00 0.  1.
</event>
<event>
 7    1  0.2733606E-009  0.8235708E+02  0.7561462E-02  0.1322492E+00
         -2   -1    0    0    0  501 -0.00000000000E+00  0.00000000000E+00  0.36426792899E+03  0.36426792899E+03  0.00000000000E+00 0.  1.
          2   -1    0    0  501    0  0.00000000000E+00 -0.00000000000E+00 -0.46717638939E+02  0.46717638939E+02  0.00000000000E+00 0. -1.
         25    2    1    2    0    0 -0.40221549227E+02 -0.63195788988E+00  0.27148042206E+03  0.30160742474E+03  0.12508895515E+03 0.  0.
          5    1    3    3  502    0 -0.43787852980E+02  0.51956221779E+02  0.20872943857E+03  0.21955016733E+03  0.41800000000E+01 0. -1.
         -5    1    3    3    0  502  0.35663037527E+01 -0.52588179669E+02  0.62750983496E+02  0.82057257407E+02  0.41800000000E+01 0. -1.
        -11    1    1    2    0    0  0.28023457868E+02  0.84570701322E+01  0.73080741416E+02  0.78725034087E+02  0.00000000000E+00 0.  1.
         11    1    1    2    0    0  0.12198091359E+02 -0.78251122423E+01 -0.27010873429E+02  0.30653109105E+02  0.00000000000E+00 0. -1.
</event>
<event>
 7    1  0.2733606E-009  0.1168625E+03  0.7561462E-02  0.1248365E+00
         -3   -1    0    0    0  501 -0.00000000000E+00  0.00000000000E+00  0.44518279135E+02  0.44518279135E+02  0.00000000000E+00 0.  1.
          3   -1    0    0  501    0  0.00000000000E+00 -0.00000000000E+00 -0.32303480293E+03  0.32303480293E+03  0.00000000000E+00 0. -1.
         25    2    1    2    0    0  0.12967000206E+02  0.79392897202E+01 -0.11607609428E+03  0.17132391917E+03  0.12508816971E+03 0.  0.
          5    1    3    3  502    0  0.31374110493E+02 -0.52679022298E+02 -0.46006338449E+02  0.76768937579E+02  0.41800000000E+01 0. -1.
         -5    1    3    3    0  502 -0.18407110287E+02  0.60618312019E+02 -0.70069755836E+02  0.94554981592E+02  0.41800000000E+01 0. -1.
        -11    1    1    2    0    0  0.31530303912E+02  0.34884846861E+02 -0.55540620881E+02  0.72772750210E+02  0.00000000000E+00 0.  1.
         11    1    1    2    0    0 -0.44497304118E+02 -0.42824136581E+02 -0.10689980863E+03  0.12345641268E+03  0.00000000000E+00 0. -1.
</event>
<event>
 7    1  0.2733606E-009  0.8764549E+02  0.7561462E-02  0.1308656E+00
         -2   -1    0    0    0  501 -0.00000000000E+00  0.00000000000E+00  0.60641363765E+02  0.60641363765E+02  0.00000000000E+00 0.  1.
          2   -1    0    0  501    0  0.00000000000E+00 -0.00000000000E+00 -0.26959095769E+03  0.26959095769E+03  0.00000000000E+00 0. -1.
         25    2    1    2    0    0  0.17964181470E+02 -0.40455392294E+02 -0.18234233973E+03  0.22551226630E+03  0.12509077829E+03 0.  0.
          5    1    3    3  502    0  0.74736945973E+01 -0.68527704721E+02 -0.18263109381E+03  0.19525237835E+03  0.41800000000E+01 0.  1.
         -5    1    3    3    0  502  0.10490486873E+02  0.28072312427E+02  0.28875408025E+00  0.30259887950E+02  0.41800000000E+01 0.  1.
        -11    1    1    2    0    0 -0.40007401490E+02  0.35252495763E+02  0.16675539614E+02  0.55869528841E+02  0.00000000000E+00 0.  1.
         11    1    1    2    0    0  0.22043220020E+02  0.52028965313E+01 -0.43282793808E+02  0.48850526312E+02  0.00000000000E+00 0. -1.
</event>
<event>
 7    1  0.2733606E-009  0.8375733E+02  0.7561462E-02  0.1318715E+00
         -1   -1    0    0    0  501 -0.00000000000E+00  0.00000000000E+00  0.28600903136E+03  0.28600903136E+03  0.00000000000E+00 0.  1.
          1   -1    0    0  501    0  0.00000000000E+00 -0.00000000000E+00 -0.57590638225E+02  0.57590638225E+02  0.00000000000E+00 0. -1.
         25    2    1    2    0    0  0.59473579510E+01  0.65870128299E+02  0.14869873393E+03  0.20526298200E+03  0.12508930185E+03 0.  0.
          5    1    3    3  502    0  0.10072385416E+02 -0.13384584524E+02 -0.15270841495E+02  0.23049317795E+02  0.41800000000E+01 0. -1.
         -5    1    3    3    0  502 -0.41250274651E+01  0.79254712822E+02  0.16396957543E+03  0.18221366420E+03  0.41800000000E+01 0. -1.
        -11    1    1    2    0    0 -0.15910321981E+02 -0.39029163863E+02 -0.10706679371E+02  0.43486169762E+02  0.00000000000E+00 0. -1.
         11    1    1    2    0    0  0.99629640301E+01 -0.26840964435E+02  0.90426338576E+02  0.94850517828E+02  0.00000000000E+00 0.  1.
</event>
<event>
 7    1  0.2733606E-009  0.1940356E+03  0.7561462E-02  0.1154871E+00
          2   -1    0    0  501    0  0.00000000000E+00  0.00000000000E+00  0.13355247365E+04  0.13355247365E+04  0.00000000000E+00 0. -1.
         -2   -1    0    0    0  501 -0.00000000000E+00 -0.00000000000E+00 -0.37962613868E+02  0.37962613868E+02  0.00000000000E+00 0.  1.
         25    2    1    2    0    0  0.17368162483E+03  0.14358717195E+02  0.95176298743E+03  0.97563931336E+03  0.12509119058E+03 0.  0.
          5    1    3    3  502    0  0.72358891842E+02 -0.52350217935E+02  0.49574191121E+03  0.50373988276E+03  0.41800000000E+01 0.  1.
         -5    1    3    3    0  502  0.10132273299E+03  0.66708935129E+02  0.45602107622E+03  0.47189943060E+03  0.41800000000E+01 0.  1.
        -11    1    1    2    0    0 -0.96789419997E+02  0.82293010609E+01  0.10042443605E+03  0.13971750276E+03  0.00000000000E+00 0.  1.
         11    1    1    2    0    0 -0.76892204833E+02 -0.22588018255E+02  0.24537469910E+03  0.25813053421E+03  0.00000000000E+00 0. -1.
</event>
<event>
 7    1  0.2733606E-009  0.1115318E+03  0.7561462E-02  0.1257759E+00
         -1   -1    0    0    0  501 -0.00000000000E+00  0.00000000000E+00  0.13717839302E+03  0.13717839302E+03  0.00000000000E+00 0.  1.
          1   -1    0    0  501    0  0.00000000000E+00 -0.00000000000E+00 -0.96250177077E+02  0.96250177077E+02  0.00000000000E+00 0. -1.
         25    2    1    2    0    0 -0.39122964767E+02 -0.38118691158E+01  0.13458850932E+02  0.13180773995E+03  0.12508798073E+03 0.  0.
          5    1    3    3  502    0 -0.34578897284E+02 -0.59755945028E+02 -0.11714283910E+02  0.70151050962E+02  0.41800000000E+01 0.  1.
         -5    1    3    3    0  502 -0.45440674830E+01  0.55944075912E+02  0.25173134842E+02  0.61656688987E+02  0.41800000000E+01 0.  1.
        -11    1    1    2    0    0 -0.29163553462E+02 -0.76959632174E+00  0.11382531140E+02  0.31315605441E+02  0.00000000000E+00 0.  1.
         11    1    1    2    0    0  0.68286518228E+02  0.45814654376E+01  0.16086833874E+02  0.70305224709E+02  0.00000000000E+00 0. -1.
</event>
<event>
 7    1  0.2733606E-009  0.1493678E+03  0.7561462E-02  0.1201252E+00
         -1   -1    0    0    0  501 -0.00000000000E+00  0.00000000000E+00  0.55568523736E+02  0.55568523736E+02  0.00000000000E+00 0.  1.
          1   -1    0    0  501    0  0.00000000000E+00 -0.00000000000E+00 -0.80060785997E+03  0.80060785997E+03  0.00000000000E+00 0. -1.
         25    2    1    2    0    0  0.27979848309E+02 -0.10271577761E+03 -0.65053385277E+03  0.67095130875E+03  0.12509181519E+03 0.  0.
          5    1    3    3  502    0  0.67982632058E+01 -0.12563812066E+03 -0.42575152795E+03  0.44397408674E+03  0.41800000000E+01 0.  1.
         -5    1    3    3    0  502  0.21181585103E+02  0.22922343047E+02 -0.22478232482E+03  0.22697722201E+03  0.41800000000E+01 0.  1.
        -11    1    1    2    0    0  0.12879241608E+01 -0.17540918463E+02 -0.51141241987E+02  0.54081135353E+02  0.00000000000E+00 0. -1.
         11    1    1    2    0    0 -0.29267772470E+02  0.12025669607E+03 -0.43364241476E+02  0.13114393960E+03  0.00000000000E+00 0.  1.
</event>
<event>
 7    1  0.2733606E-009  0.1121803E+03  0.7561462E-02  0.1256585E+00
          1   -1    0    0  501    0  0.00000000000E+00  0.00000000000E+00  0.97961396028E+02  0.97961396028E+02  0.00000000000E+00 0.  1.
         -1   -1    0    0    0  501 -0.00000000000E+00 -0.00000000000E+00 -0.19277859700E+03  0.19277859700E+03  0.00000000000E+00 0. -1.
         25    2    1    2    0    0  0.19319624724E+02 -0.33776002351E+02 -0.13079272657E+03  0.18511299741E+03  0.12508404476E+03 0.  0.
          5    1    3    3  502    0  0.30266471096E+02  0.43321590699E+02 -0.53341847456E+02  0.75204019729E+02  0.41800000000E+01 0.  1.
         -5    1    3    3    0  502 -0.10946846372E+02 -0.77097593051E+02 -0.77450879113E+02  0.10990897768E+03  0.41800000000E+01 0.  1.
        -11    1    1    2    0    0 -0.50668737561E+02  0.51795779272E+01  0.37369692840E+02  0.63171535809E+02  0.00000000000E+00 0. -1.
         11    1    1    2    0    0  0.31349112837E+02  0.28596424424E+02 -0.13941672469E+01  0.42455459811E+02  0.00000000000E+00 0.  1.
</event>
<event>
 7    1  0.2733606E-009  0.1139514E+03  0.7561462E-02  0.1253423E+00
          2   -1    0    0  501    0  0.00000000000E+00  0.00000000000E+00  0.61301189477E+03  0.61301189477E+03  0.00000000000E+00 0.  1.
         -2   -1    0    0    0  501 -0.00000000000E+00 -0.00000000000E+00 -0.29805801457E+02  0.29805801457E+02  0.00000000000E+00 0. -1.
         25    2    1    2    0    0 -0.24124688891E+02 -0.71702951100E+02  0.38887446086E+03  0.41544429809E+03  0.12508918696E+03 0.  0.
          5    1    3    3  502    0 -0.55881285040E+02 -0.53427508944E+02  0.11219063750E+03  0.13631371271E+03  0.41800000000E+01 0. -1.
         -5    1    3    3    0  502  0.31756596149E+02 -0.18275442156E+02  0.27668382336E+03  0.27913058538E+03  0.41800000000E+01 0. -1.
        -11    1    1    2    0    0 -0.30237099321E+02  0.11155768887E+02  0.86326767009E+02  0.92146861352E+02  0.00000000000E+00 0.  1.
         11    1    1    2    0    0  0.54361788213E+02  0.60547182213E+02  0.10800486544E+03  0.13522653678E+03  0.00000000000E+00 0. -1.
</event>
<event>
 7    1  0.2733606E-009  0.1277183E+03  0.7561462E-02  0.1230881E+00
         -2   -1    0    0    0  501 -0.00000000000E+00  0.00000000000E+00  0.12631175672E+03  0.12631175672E+03  0.00000000000E+00 0.  1.
          2   -1    0    0  501    0  0.00000000000E+00 -0.00000000000E+00 -0.16146704368E+03  0.16146704368E+03  0.00000000000E+00 0. -1.
         25    2    1    2    0    0 -0.72881916378E+02  0.93027186245E+01  0.36485585544E+02  0.14959147777E+03  0.12509235772E+03 0.  0.
          5    1    3    3  502    0  0.28796537722E+02 -0.23719424592E+02  0.38569191219E+01  0.37738573276E+02  0.41800000000E+01 0. -1.
         -5    1    3    3    0  502 -0.10167845410E+03  0.33022143217E+02  0.32628666422E+02  0.11185290449E+03  0.41800000000E+01 0. -1.
        -11    1    1    2    0    0  0.26202888191E+02 -0.45047895779E+02 -0.10114978714E+02  0.53086882165E+02  0.00000000000E+00 0.  1.
         11    1    1    2    0    0  0.46679028187E+02  0.35745177155E+02 -0.61525893789E+02  0.85100440474E+02  0.00000000000E+00 0. -1.
</event>
<event>
 7    1  0.2733606E-009  0.1110399E+03  0.7561462E-02  0.1258656E+00
          2   -1    0    0  501    0  0.00000000000E+00  0.00000000000E+00  0.76545679937E+03  0.76545679937E+03  0.00000000000E+00 0. -1.
         -2   -1    0    0    0  501 -0.00000000000E+00 -0.00000000000E+00 -0.17396710306E+02  0.17396710306E+02  0.00000000000E+00 0.  1.
         25    2    1    2    0    0 -0.42585510193E+01 -0.28583821616E+02  0.40086969347E+03  0.42092658585E+03  0.12509000525E+03 0.  0.
          5    1    3    3  502    0 -0.31413114702E+02  0.39563680461E+02  0.21867676897E+03  0.22447509945E+03  0.41800000000E+01 0. -1.
         -5    1    3    3    0  502  0.27154563682E+02 -0.68147502076E+02  0.18219292450E+03  0.19645148639E+03  0.41800000000E+01 0. -1.
        -11    1    1    2    0    0 -0.41124666091E+02  0.32419742778E+02  0.23658549149E+03  0.24231172622E+03  0.00000000000E+00 0. -1.
         11    1    1    2    0    0  0.45383217110E+02 -0.38359211628E+01  0.11060490411E+03  0.11961519761E+03  0.00000000000E+00 0.  1.
</event>
<event>
 7    1  0.2733606E-009  0.9258048E+02  0.7561462E-02  0.1296720E+00
         -2   -1    0    0    0  501 -0.00000000000E+00  0.00000000000E+00  0.13389998784E+02  0.13389998784E+02  0.00000000000E+00 0.  1.
          2   -1    0    0  501    0  0.00000000000E+00 -0.00000000000E+00 -0.10514409568E+04  0.10514409568E+04  0.00000000000E+00 0. -1.
         25    2    1    2    0    0  0.60541466835E+01 -0.31442116566E+02 -0.73725987834E+03  0.74848121628E+03  0.12508694390E+03 0.  0.
          5    1    3    3  502    0  0.12839123257E+02 -0.59316727260E+02 -0.17133776283E+03  0.18181699203E+03  0.41800000000E+01 0.  1.
         -5    1    3    3    0  502 -0.67849765736E+01  0.27874610694E+02 -0.56592211551E+03  0.56666422425E+03  0.41800000000E+01 0.  1.
        -11    1    1    2    0    0 -0.37920910182E+02  0.46573202410E+02 -0.15202768077E+03  0.16346092601E+03  0.00000000000E+00 0.  1.
         11    1    1    2    0    0  0.31866763498E+02 -0.15131085844E+02 -0.14876339891E+03  0.15288881329E+03  0.00000000000E+00 0. -1.
</event>
<event>
 7    1  0.2733606E-009  0.9251468E+02  0.7561462E-02  0.1296874E+00
          1   -1    0    0  501    0  0.00000000000E+00  0.00000000000E+00  0.12260306284E+03  0.12260306284E+03  0.00000000000E+00 0. -1.
         -1   -1    0    0    0  501 -0.00000000000E+00 -0.00000000000E+00 -0.12516606184E+03  0.12516606184E+03  0.00000000000E+00 0.  1.
         25    2    1    2    0    0 -0.36816033733E+02 -0.14522222718E+02 -0.49358089656E+02  0.14016815779E+03  0.12507828009E+03 0.  0.
          5    1    3    3  502    0 -0.28677009193E+02  0.53752649544E+02 -0.32810419964E+02  0.69323259065E+02  0.41800000000E+01 0.  1.
         -5    1    3    3    0  502 -0.81390245407E+01 -0.68274872262E+02 -0.16547669692E+02  0.70844898723E+02  0.41800000000E+01 0.  1.
        -11    1    1    2    0    0  0.22615583131E+02 -0.11545648138E+02 -0.21411435946E+02  0.33214698261E+02  0.00000000000E+00 0.  1.
         11    1    1    2    0    0  0.14200450602E+02  0.26067870856E+02  0.68206526608E+02  0.74386268627E+02  0.00000000000E+00 0. -1.
</event>
<event>
 7    1  0.2733606E-009  0.1548895E+03  0.7561462E-02  0.1194590E+00
          1   -1    0    0  501    0  0.00000000000E+00  0.00000000000E+00  0.12621721637E+04  0.12621721637E+04  0.00000000000E+00 0. -1.
         -1   -1    0    0    0  501 -0.00000000000E+00 -0.00000000000E+00 -0.13880215477E+03  0.13880215477E+03  0.00000000000E+00 0.  1.
         25    2    1    2    0    0 -0.10558172708E+03 -0.36914891456E+02  0.12172278462E+04  0.12287400598E+04  0.12509314414E+03 0.  0.
          5    1    3    3  502    0 -0.11123908495E+03 -0.71213972232E+02  0.10034180924E+04  0.10120824593E+04  0.41800000000E+01 0.  1.
         -5    1    3    3    0  502  0.56573578616E+01  0.34299080776E+02  0.21380975378E+03  0.21665760049E+03  0.41800000000E+01 0.  1.
        -11    1    1    2    0    0  0.73310097634E+02  0.66395958899E+02 -0.52133458867E+02  0.11180649045E+03  0.00000000000E+00 0.  1.
         11    1    1    2    0    0  0.32271629449E+02 -0.29481067443E+02 -0.41724378470E+02  0.60427768150E+02  0.00000000000E+00 0. -1.
</event>
<event>
 7    1  0.2733606E-009  0.2043938E+03  0.7561462E-02  0.1146084E+00
          1   -1    0    0  501    0  0.00000000000E+00  0.00000000000E+00  0.20711535121E+03  0.20711535121E+03  0.00000000000E+00 0. -1.
         -1   -1    0    0    0  501 -0.00000000000E+00 -0.00000000000E+00 -0.22989312778E+03  0.22989312778E+03  0.00000000000E+00 0.  1.
         25    2    1    2    0    0  0.17935158220E+03 -0.23694713667E+02 -0.65415809728E+02  0.22946745246E+03  0.12509058350E+03 0.  0.
          5    1    3    3  502    0  0.10632831656E+03  0.44143111541E+02 -0.59177686202E+02  0.12951369095E+03  0.41800000000E+01 0.  1.
         -5    1    3    3    0  502  0.73023265641E+02 -0.67837825208E+02 -0.62381235259E+01  0.99953761505E+02  0.41800000000E+01 0.  1.
        -11    1    1    2    0    0 -0.88463428215E+02  0.46752743783E+02 -0.90580800874E+01  0.10046713889E+03  0.00000000000E+00 0.  1.
         11    1    1    2    0    0 -0.90888153989E+02 -0.23058030116E+02  0.51696113247E+02  0.10707388763E+03  0.00000000000E+00 0. -1.
</event>
<event>
 7    1  0.2770927E-009  0.1299199E+03  0.7561462E-02  0.1227575E+00
          1   -1    0    0  501    0  0.00000000000E+00  0.00000000000E+00  0.97807754949E+03  0.97807754949E+03  0.00000000000E+00 0. -1.
         -1   -1    0    0    0  501 -0.00000000000E+00 -0.00000000000E+00 -0.19011439986E+02  0.19011439986E+02  0.00000000000E+00 0.  1.
         25    2    1    2    0    0 -0.72628760838E+02 -0.25059333500E+02  0.63352525355E+03  0.65031150926E+03  0.12509158679E+03 0.  0.
          5    1    3    3  502    0 -0.78440431100E+02 -0.66686077443E+02  0.40407447999E+03  0.41700550588E+03  0.41800000000E+01 0.  1.
         -5    1    3    3    0  502  0.58116702626E+01  0.41626743943E+02  0.22945077356E+03  0.23330600338E+03  0.41800000000E+01 0.  1.
        -11    1    1    2    0    0  0.67738208749E+02 -0.18904141849E+02  0.14875353752E+03  0.16454010583E+03  0.00000000000E+00 0.  1.
         11    1    1    2    0    0  0.48905520887E+01  0.43963475349E+02  0.17678731843E+03  0.18223737439E+03  0.00000000000E+00 0. -1.
</event>
<event>
 7    1  0.2733606E-009  0.1974697E+03  0.7561462E-02  0.1151892E+00
         -1   -1    0    0    0  501 -0.00000000000E+00  0.00000000000E+00  0.21366074628E+03  0.21366074628E+03  0.00000000000E+00 0. -1.
          1   -1    0    0  501    0  0.00000000000E+00 -0.00000000000E+00 -0.21255219117E+03  0.21255219117E+03  0.00000000000E+00 0.  1.
         25    2    1    2    0    0 -0.15496047228E+03 -0.82704484675E+02 -0.53533640937E+02  0.22218278913E+03  0.12508621554E+03 0.  0.
          5    1    3    3  502    0 -0.13940789204E+03 -0.11801808464E+02 -0.52428012105E+02  0.14946575494E+03  0.41800000000E+01 0. -1.
         -5    1    3    3    0  502 -0.15552580243E+02 -0.70902676212E+02 -0.11056288312E+01  0.72717034189E+02  0.41800000000E+01 0. -1.
        -11    1    1    2    0    0  0.20573969900E+02 -0.57678052556E+01 -0.17579686747E+02  0.27669499472E+02  0.00000000000E+00 0.  1.
         11    1    1    2    0    0  0.13438650238E+03  0.88472289931E+02  0.72221882793E+02  0.17636064885E+03  0.00000000000E+00 0. -1.
</event>
<event>
 7    1  0.2733606E-009  0.6981945E+02  0.7561462E-02  0.1360708E+00
         -2   -1    0    0    0  501 -0.00000000000E+00  0.00000000000E+00  0.13509780151E+03  0.13509780151E+03  0.00000000000E+00 0.  1.
          2   -1    0    0  501    0  0.00000000000E+00 -0.00000000000E+00 -0.91411200308E+02  0.91411200308E+02  0.00000000000E+00 0. -1.
         25    2    1    2    0    0 -0.15891004776E+02 -0.11664304415E+02  0.38954071815E+02  0.13248998814E+03  0.12509035621E+03 0.  0.
          5    1    3    3  502    0 -0.25883356382E+02 -0.20996783322E+02  0.81209052955E+02  0.87881714420E+02  0.41800000000E+01 0.  1.
         -5    1    3    3    0  502  0.99923516058E+01  0.93324789071E+01 -0.42254981141E+02  0.44608273721E+02  0.41800000000E+01 0.  1.
        -11    1    1    2    0    0 -0.10776214400E+02  0.46583804671E+02  0.12451168397E+02  0.49408594888E+02  0.00000000000E+00 0.  1.
         11    1    1    2    0    0  0.26667219176E+02 -0.34919500256E+02 -0.77186390071E+01  0.44610418792E+02  0.00000000000E+00 0. -1.
</event>
<event>
 7    1  0.2733606E-009  0.9600664E+02  0.7561462E-02  0.1288925E+00
          1   -1    0    0  501    0  0.00000000000E+00  0.00000000000E+00  0.55165746952E+03  0.55165746952E+03  0.00000000000E+00 0. -1.
         -1   -1    0    0    0  501 -0.00000000000E+00 -0.00000000000E+00 -0.34027594895E+02  0.34027594895E+02  0.00000000000E+00 0.  1.
         25    2    1    2    0    0 -0.30350686202E+02 -0.61215640202E+01  0.45215474541E+03  0.47015937135E+03  0.12508910011E+03 0.  0.
          5    1    3    3  502    0 -0.21872932532E+02 -0.62574577267E+02  0.30750827785E+03  0.31459945366E+03  0.41800000000E+01 0.  1.
         -5    1    3    3    0  502 -0.84777536702E+01  0.56453013246E+02  0.14464646756E+03  0.15555991769E+03  0.41800000000E+01 0.  1.
        -11    1    1    2    0    0  0.33830619963E+02 -0.21781588832E+02  0.75598784661E+02  0.85639504326E+02  0.00000000000E+00 0. -1.
         11    1    1    2    0    0 -0.34799337609E+01  0.27903152852E+02 -0.10123655446E+02  0.29886188744E+02  0.00000000000E+00 0.  1.
</event>
<event>
 7    1  0.2733606E-009  0.1224097E+03  0.7561462E-02  0.1239174E+00
          2   -1    0    0  501    0  0.00000000000E+00  0.00000000000E+00  0.22469159570E+03  0.22469159570E+03  0.00000000000E+00 0. -1.
         -2   -1    0    0    0  501 -0.00000000000E+00 -0.00000000000E+00 -0.75114076189E+02  0.75114076189E+02  0.00000000000E+00 0.  1.
         25    2    1    2    0    0  0.28937054370E+02 -0.68570311612E+02  0.81806691718E+02  0.16697176384E+03  0.12509194362E+03 0.  0.
          5    1    3    3  502    0  0.34960229665E+02 -0.10309615258E+03  0.71087242082E+02  0.13008421396E+03  0.41800000000E+01 0.  1.
         -5    1    3    3    0  502 -0.60231752945E+01  0.34525840969E+02  0.10719449635E+02  0.36887549874E+02  0.41800000000E+01 0.  1.
        -11    1    1    2    0    0  0.18085861344E+02  0.43899724115E+02  0.95790296389E+00  0.47488964360E+02  0.00000000000E+00 0.  1.
         11    1    1    2    0    0 -0.47022915714E+02  0.24670587498E+02  0.66812924834E+02  0.85344943697E+02  0.00000000000E+00 0. -1.
</event>
<event>
 7    1  0.2733606E-009  0.9412035E+02  0.7561462E-02  0.1293170E+00
         -1   -1    0    0    0  501 -0.00000000000E+00  0.00000000000E+00  0.12601492698E+02  0.12601492698E+02  0.00000000000E+00 0.  1.
          1   -1    0    0  501    0  0.00000000000E+00 -0.00000000000E+00 -0.18757543592E+04  0.18757543592E+04  0.00000000000E+00 0. -1.
         25    2    1    2    0    0 -0.25517559953E+02 -0.52160008832E+02 -0.15528473324E+04  0.15589590570E+04  0.12508673445E+03 0.  0.
          5    1    3    3  502    0 -0.61568297560E+02 -0.37711106979E+02 -0.48160535086E+03  0.48700510185E+03  0.41800000000E+01 0.  1.
         -5    1    3    3    0  502  0.36050737607E+02 -0.14448901852E+02 -0.10712419815E+04  0.10719539551E+04  0.41800000000E+01 0.  1.
        -11    1    1    2    0    0 -0.15058743940E+02  0.86630341123E+01 -0.46189682095E+01  0.17976339905E+02  0.00000000000E+00 0.  1.
         11    1    1    2    0    0  0.40576303893E+02  0.43496974719E+02 -0.30568656586E+03  0.31142045500E+03  0.00000000000E+00 0. -1.
</event>
<event>
 7    1  0.2733606E-009  0.1051568E+03  0.7561462E-02  0.1269811E+00
         -2   -1    0    0    0  501 -0.00000000000E+00  0.00000000000E+00  0.12335953590E+02  0.12335953590E+02  0.00000000000E+00 0.  1.
          2   -1    0    0  501    0  0.00000000000E+00 -0.00000000000E+00 -0.10473375692E+04  0.10473375692E+04  0.00000000000E+00 0. -1.
         25    2    1    2    0    0  0.15924924646E+02 -0.98666197220E+01 -0.73463943789E+03  0.74544897648E+03  0.12509244350E+03 0.  0.
          5    1    3    3  502    0 -0.27019549373E+02 -0.53115527732E+02 -0.25335822292E+03  0.26030592935E+03  0.41800000000E+01 0. -1.
         -5    1    3    3    0  502  0.42944474019E+02  0.43248908010E+02 -0.48128121497E+03  0.48514304712E+03  0.41800000000E+01 0. -1.
        -11    1    1    2    0    0 -0.51510421132E+02  0.14708704198E+02 -0.14020929466E+03  0.15009435624E+03  0.00000000000E+00 0.  1.
         11    1    1    2    0    0  0.35585496486E+02 -0.48420844760E+01 -0.16015288306E+03  0.16413019008E+03  0.00000000000E+00 0. -1.
</event>
<event>
 7    1  0.2733606E-009  0.5610876E+02  0.7561462E-02  0.1414927E+00
          2   -1    0    0  501    0  0.00000000000E+00  0.00000000000E+00  0.19591790393E+04  0.19591790393E+04  0.00000000000E+00 0. -1.
         -2   -1    0    0    0  501 -0.00000000000E+00 -0.00000000000E+00 -0.78351963855E+01  0.78351963855E+01  0.00000000000E+00 0.  1.
         25    2    1    2    0    0 -0.15417973917E+02  0.77512253026E+01  0.15720426853E+04  0.15771057961E+04  0.12508673966E+03 0.  0.
          5    1    3    3  502    0 -0.10449595225E+01  0.64950958046E+01  0.35901999690E+01  0.85813836724E+01  0.41800000000E+01 0. -1.
         -5    1    3    3    0  502 -0.14373014394E+02  0.12561294979E+01  0.15684524853E+04  0.15685244124E+04  0.41800000000E+01 0. -1.
        -11    1    1    2    0    0  0.47797477851E+02  0.14692586751E+02  0.18403775313E+03  0.19071016117E+03  0.00000000000E+00 0.  1.
         11    1    1    2    0    0 -0.32379503934E+02 -0.22443812054E+02  0.19526340453E+03  0.19919827842E+03  0.00000000000E+00 0. -1.
</event>
<event>
 7    1  0.2733606E-009  0.7721724E+02  0.7561462E-02  0.1337139E+00
         -1   -1    0    0    0  501 -0.00000000000E+00  0.00000000000E+00  0.89604319473E+02  0.89604319473E+02  0.00000000000E+00 0.  1.
          1   -1    0    0  501    0  0.00000000000E+00 -0.00000000000E+00 -0.19288623250E+03  0.19288623250E+03  0.00000000000E+00 0. -1.
         25    2    1    2    0    0 -0.10080372041E+02  0.20884071115E+02 -0.13853567852E+03  0.18808966348E+03  0.12509128250E+03 0.  0.
          5    1    3    3  502    0 -0.44838859938E+02  0.51188654714E+02 -0.39574214407E+02  0.78831418723E+02  0.41800000000E+01 0.  1.
         -5    1    3    3    0  502  0.34758487896E+02 -0.30304583598E+02 -0.98961464117E+02  0.10925824476E+03  0.41800000000E+01 0.  1.
        -11    1    1    2    0    0  0.98916590331E+01  0.69684729712E+01  0.57496748667E+02  0.58756111522E+02  0.00000000000E+00 0.  1.
         11    1    1    2    0    0  0.18871300794E+00 -0.27852544087E+02 -0.22242983167E+02  0.35644776965E+02  0.00000000000E+00 0. -1.
</event>
<event>
 7    1  0.2733606E-009  0.1055666E+03  0.7561462E-02  0.1269007E+00
         -1   -1    0    0    0  501 -0.00000000000E+00  0.00000000000E+00  0.34647112888E+03  0.34647112888E+03  0.00000000000E+00 0.  1.
          1   -1    0    0  501    0  0.00000000000E+00 -0.00000000000E+00 -0.40580152779E+02  0.40580152779E+02  0.00000000000E+00 0. -1.
         25    2    1    2    0    0  0.21236244260E+01  0.39363177022E+02  0.12763418185E+03  0.18301011352E+03  0.12509295660E+03 0.  0.
          5    1    3    3  502    0 -0.21957844744E+01 -0.45581485528E+02  0.49210055475E+02  0.67242808182E+02  0.41800000000E+01 0. -1.
         -5    1    3    3    0  502  0.43194089004E+01  0.84944662550E+02  0.78424126370E+02  0.11576730534E+03  0.41800000000E+01 0. -1.
        -11    1    1    2    0    0 -0.20309268956E+02 -0.53429989491E+02  0.57360424219E+02  0.80978073879E+02  0.00000000000E+00 0. -1.
         11    1    1    2    0    0  0.18185644530E+02  0.14066812468E+02  0.12089637004E+03  0.12306309426E+03  0.00000000000E+00 0.  1.
</event>
<event>
 7    1  0.2733606E-009  0.1423291E+03  0.7561462E-02  0.1210229E+00
         -2   -1    0    0    0  501 -0.00000000000E+00  0.00000000000E+00  0.33482266156E+03  0.33482266156E+03  0.00000000000E+00 0.  1.
          2   -1    0    0  501    0  0.00000000000E+00 -0.00000000000E+00 -0.82582193958E+02  0.82582193958E+02  0.00000000000E+00 0. -1.
         25    2    1    2    0    0 -0.10685058255E+02  0.10957267316E+03  0.21254449228E+03  0.27007876311E+03  0.12508811260E+03 0.  0.
          5    1    3    3  502    0 -0.56931597855E+02  0.10380882519E+03  0.13598019556E+03  0.18034845441E+03  0.41800000000E+01 0.  1.
         -5    1    3    3    0  502  0.46246539600E+02  0.57638479681E+01  0.76564296723E+02  0.89730308709E+02  0.41800000000E+01 0.  1.
        -11    1    1    2    0    0  0.27033419124E+02 -0.42562398978E+02 -0.21785403441E+02  0.54926927453E+02  0.00000000000E+00 0. -1.
         11    1    1    2    0    0 -0.16348360870E+02 -0.67010274184E+02  0.61481378764E+02  0.92399164953E+02  0.00000000000E+00 0.  1.
</event>
<event>
 7    1  0.2733606E-009  0.1513476E+03  0.7561462E-02  0.1198827E+00
          4   -1    0    0  501    0  0.00000000000E+00  0.00000000000E+00  0.18540192655E+03  0.18540192655E+03  0.00000000000E+00 0. -1.
         -4   -1    0    0    0  501 -0.00000000000E+00 -0.00000000000E+00 -0.19531726176E+03  0.19531726176E+03  0.00000000000E+00 0.  1.
         25    2    1    2    0    0 -0.11004733331E+03 -0.10329900494E+03  0.35156892026E+02  0.19915905872E+03  0.12508886291E+03 0.  0.
          5    1    3    3  502    0 -0.40927889773E+02 -0.39846347673E+02  0.77308369701E+02  0.96212681129E+02  0.41800000000E+01 0.  1.
         -5    1    3    3    0  502 -0.69119443538E+02 -0.63452657263E+02 -0.42151477675E+02  0.10294637759E+03  0.41800000000E+01 0.  1.
        -11    1    1    2    0    0  0.72922631963E+02  0.59754252925E+02  0.18448609031E+02  0.96065770023E+02  0.00000000000E+00 0. -1.
         11    1    1    2    0    0  0.37124701349E+02  0.43544752011E+02 -0.63520836270E+02  0.85494359571E+02  0.00000000000E+00 0.  1.
</event>
<event>
 7    1  0.2733606E-009  0.1271507E+03  0.7561462E-02  0.1231746E+00
         -1   -1    0    0    0  501 -0.00000000000E+00  0.00000000000E+00  0.11545682670E+03  0.11545682670E+03  0.00000000000E+00 0.  1.
          1   -1    0    0  501    0  0.00000000000E+00 -0.00000000000E+00 -0.19621835291E+03  0.19621835291E+03  0.00000000000E+00 0. -1.
         25    2    1    2    0    0 -0.60818233369E+02 -0.81685536595E+02 -0.16713931978E+02  0.16216820610E+03  0.12509111538E+03 0.  0.
          5    1    3    3  502    0 -0.66177603985E+02 -0.10318525523E+03 -0.40715991619E+02  0.12923597231E+03  0.41800000000E+01 0.  1.
         -5    1    3    3    0  502  0.53593706160E+01  0.21499718637E+02  0.24002059640E+02  0.32932233782E+02  0.41800000000E+01 0.  1.
        -11    1    1    2    0    0  0.11274736469E+02  0.47710250859E+02  0.14030594586E+02  0.50992600482E+02  0.00000000000E+00 0.  1.
         11    1    1    2    0    0  0.49543496900E+02  0.33975285736E+02 -0.78078188814E+02  0.98514373035E+02  0.00000000000E+00 0. -1.
</event>
<event>
 7    1  0.2733606E-009  0.6948038E+02  0.7561462E-02  0.1361869E+00
         -3   -1    0    0    0  501 -0.00000000000E+00  0.00000000000E+00  0.75671256306E+02  0.75671256306E+02  0.00000000000E+00 0.  1.
          3   -1    0    0  501    0  0.00000000000E+00 -0.00000000000E+00 -0.19305280893E+03  0.19305280893E+03  0.00000000000E+00 0. -1.
         25    2    1    2    0    0  0.45412639379E+02 -0.85804966217E+01 -0.10174261835E+03  0.16773862535E+03  0.12509497714E+03 0.  0.
          5    1    3    3  502    0 -0.57219333441E+01  0.24948947549E+02  0.19121556799E+02  0.32222613790E+02  0.41800000000E+01 0.  1.
         -5    1    3    3    0  502  0.51134572723E+02 -0.33529444171E+02 -0.12086417515E+03  0.13551601156E+03  0.41800000000E+01 0.  1.
        -11    1    1    2    0    0 -0.29190821272E+02  0.16662424682E+02  0.34201008188E+02  0.47952574528E+02  0.00000000000E+00 0.  1.
         11    1    1    2    0    0 -0.16221818107E+02 -0.80819280600E+01 -0.49839942458E+02  0.53032865358E+02  0.00000000000E+00 0. -1.
</event>
<event>
 7    1  0.2733606E-009  0.1328408E+03  0.7561462E-02  0.1223300E+00
         -1   -1    0    0    0  501 -0.00000000000E+00  0.00000000000E+00  0.80020228390E+02  0.80020228390E+02  0.00000000000E+00 0.  1.
          1   -1    0    0  501    0  0.00000000000E+00 -0.00000000000E+00 -0.26383335585E+03  0.26383335585E+03  0.00000000000E+00 0. -1.
         25    2    1    2    0    0 -0.78576648386E+02 -0.14278828172E+02 -0.34898952635E+02  0.15245785168E+03  0.12508910839E+03 0.  0.
          5    1    3    3  502    0 -0.97246367269E+02  0.26123881078E+02 -0.37856858532E+02  0.10765652441E+03  0.41800000000E+01 0.  1.
         -5    1    3    3    0  502  0.18669718883E+02 -0.40402709249E+02  0.29579058971E+01  0.44801327270E+02  0.41800000000E+01 0.  1.
        -11    1    1    2    0    0 -0.17773766335E+02 -0.10589418259E+02 -0.27521115625E+02  0.34430427736E+02  0.00000000000E+00 0.  1.
         11    1    1    2    0    0  0.96350414721E+02  0.24868246431E+02 -0.12139305920E+03  0.15696530483E+03  0.00000000000E+00 0. -1.
</event>
<event>
 7    1  0.3206217E-009  0.1266941E+03  0.7561462E-02  0.1232445E+00
          2   -1    0    0  501    0  0.00000000000E+00  0.00000000000E+00  0.14915987549E+04  0.14915987549E+04  0.00000000000E+00 0.  1.
         -2   -1    0    0    0  501 -0.00000000000E+00 -0.00000000000E+00 -0.15569006458E+02  0.15569006458E+02  0.00000000000E+00 0. -1.
         25    2    1    2    0    0  0.12343422365E+02  0.10250151913E+03  0.92745942017E+03  0.94153474017E+03  0.12509104439E+03 0.  0.
          5    1    3    3  502    0  0.17193661610E+02 -0.20198095340E+02  0.35624576411E+03  0.35725635320E+03  0.41800000000E+01 0.  1.
         -5    1    3    3    0  502 -0.48502392447E+01  0.12269961447E+03  0.57121365606E+03  0.58427838697E+03  0.41800000000E+01 0.  1.
        -11    1    1    2    0    0 -0.79790994309E+01 -0.91290559717E+02  0.54559866587E+03  0.55324093894E+03  0.00000000000E+00 0.  1.
         11    1    1    2    0    0 -0.43643229339E+01 -0.11210959414E+02  0.29716624386E+01  0.12392082282E+02  0.00000000000E+00 0. -1.
</event>
<event>
 7    1  0.2733606E-009  0.1064685E+03  0.7561462E-02  0.1267253E+00
          1   -1    0    0  501    0  0.00000000000E+00  0.00000000000E+00  0.34802933078E+02  0.34802933078E+02  0.00000000000E+00 0. -1.
         -1   -1    0    0    0  501 -0.00000000000E+00 -0.00000000000E+00 -0.57970810284E+03  0.57970810284E+03  0.00000000000E+00 0.  1.
         25    2    1    2    0    0  0.88321271903E+02  0.21872827123E+02 -0.31985610872E+03  0.35529436201E+03  0.12508831184E+03 0.  0.
          5    1    3    3  502    0  0.64084586451E+02  0.52510420230E+01 -0.31916231676E+03  0.32560169610E+03  0.41800000000E+01 0.  1.
         -5    1    3    3    0  502  0.24236685453E+02  0.16621785100E+02 -0.69379195372E+00  0.29692665911E+02  0.41800000000E+01 0.  1.
        -11    1    1    2    0    0 -0.48535208636E+02 -0.50316159174E+02 -0.17848378001E+03  0.19168683334E+03  0.00000000000E+00 0.  1.
         11    1    1    2    0    0 -0.39786063268E+02  0.28443332051E+02 -0.46565281046E+02  0.67529840570E+02  0.00000000000E+00 0. -1.
</event>
<event>
 7    1  0.2733606E-009  0.2128670E+03  0.7561462E-02  0.1139316E+00
         -2   -1    0    0    0  501 -0.00000000000E+00  0.00000000000E+00  0.16075390257E+03  0.16075390257E+03  0.00000000000E+00 0. -1.
          2   -1    0    0  501    0  0.00000000000E+00 -0.00000000000E+00 -0.40731740778E+03  0.40731740778E+03  0.00000000000E+00 0.  1.
         25    2    1    2    0    0  0.11336485301E+03 -0.15786715301E+03  0.12558157809E+02  0.23147605846E+03  0.12509928224E+03 0.  0.
          5    1    3    3  502    0  0.54572779802E+02 -0.16194865959E+03 -0.59287233851E+00  0.17094847333E+03  0.41800000000E+01 0. -1.
         -5    1    3    3    0  502  0.58792073204E+02  0.40815065761E+01  0.13151030148E+02  0.60527585129E+02  0.41800000000E+01 0. -1.
        -11    1    1    2    0    0 -0.75984788024E+02  0.12305857897E+03 -0.24344663856E+03  0.28316667829E+03  0.00000000000E+00 0.  1.
         11    1    1    2    0    0 -0.37380064982E+02  0.34808574043E+02 -0.15675024460E+02  0.53428573598E+02  0.00000000000E+00 0. -1.
</event>
<event>
 7    1  0.2733606E-009  0.1304869E+03  0.7561462E-02  0.1226735E+00
          2   -1    0    0  501    0  0.00000000000E+00  0.00000000000E+00  0.10772402579E+04  0.10772402579E+04  0.00000000000E+00 0. -1.
         -2   -1    0    0    0  501 -0.00000000000E+00 -0.00000000000E+00 -0.19044843884E+02  0.19044843884E+02  0.00000000000E+00 0.  1.
         25    2    1    2    0    0 -0.59768557299E+02 -0.60477241009E+02  0.71491731207E+03  0.73074231112E+03  0.12509110698E+03 0.  0.
          5    1    3    3  502    0 -0.54289513121E+02  0.26099830487E+02  0.21418145693E+03  0.22253027048E+03  0.41800000000E+01 0.  1.
         -5    1    3    3    0  502 -0.54790441782E+01 -0.86577071496E+02  0.50073585513E+03  0.50821204064E+03  0.41800000000E+01 0.  1.
        -11    1    1    2    0    0  0.59158792070E+01  0.59587682932E+02  0.10157741762E+03  0.11791378780E+03  0.00000000000E+00 0.  1.
         11    1    1    2    0    0  0.53852678092E+02  0.88955807698E+00  0.24170068429E+03  0.24762900282E+03  0.00000000000E+00 0. -1.
</event>
<event>
 7    1  0.2733606E-009  0.1264760E+03  0.7561462E-02  0.1232780E+00
          3   -1    0    0  501    0  0.00000000000E+00  0.00000000000E+00  0.32401126898E+03  0.32401126898E+03  0.00000000000E+00 0. -1.
         -3   -1    0    0    0  501 -0.00000000000E+00 -0.00000000000E+00 -0.78252419266E+02  0.78252419266E+02  0.00000000000E+00 0.  1.
         25    2    1    2    0    0 -0.89861798737E+02  0.67186746456E+02  0.90400919348E+02  0.19081143159E+03  0.12508986543E+03 0.  0.
          5    1    3    3  502    0 -0.47150033297E+02  0.68278830709E+02  0.11458718744E+03  0.14153734591E+03  0.41800000000E+01 0.  1.
         -5    1    3    3    0  502 -0.42711765440E+02 -0.10920842530E+01 -0.24186268089E+02  0.49274085674E+02  0.41800000000E+01 0.  1.
        -11    1    1    2    0    0  0.18974420794E+02  0.10570841398E+02 -0.23698604964E+01  0.21849200697E+02  0.00000000000E+00 0.  1.
         11    1    1    2    0    0  0.70887377943E+02 -0.77757587854E+02  0.15772779086E+03  0.18960305596E+03  0.00000000000E+00 0. -1.
</event>
<event>
 7    1  0.2733606E-009  0.2551392E+03  0.7561462E-02  0.1110099E+00
         -1   -1    0    0    0  501 -0.00000000000E+00  0.00000000000E+00  0.91524929463E+02  0.91524929463E+02  0.00000000000E+00 0.  1.
          1   -1    0    0  501    0  0.00000000000E+00 -0.00000000000E+00 -0.76083949404E+03  0.76083949404E+03  0.00000000000E+00 0. -1.
         25    2    1    2    0    0 -0.83231659638E+02  0.22488169053E+03 -0.36053786383E+03  0.45070776106E+03  0.12510256082E+03 0.  0.
          5    1    3    3  502    0 -0.23465145769E+01  0.16753864477E+03 -0.18968717822E+03  0.25312724390E+03  0.41800000000E+01 0.  1.
         -5    1    3    3    0  502 -0.80885145061E+02  0.57343045753E+02 -0.17085068560E+03  0.19758051715E+03  0.41800000000E+01 0.  1.
        -11    1    1    2    0    0  0.48011362132E+02 -0.71944993370E+02 -0.52608353750E+02  0.10123641563E+03  0.00000000000E+00 0.  1.
         11    1    1    2    0    0  0.35220297506E+02 -0.15293669716E+03 -0.25616834700E+03  0.30042024682E+03  0.00000000000E+00 0. -1.
</event>
<event>
 7    1  0.2733606E-009  0.1019842E+03  0.7561462E-02  0.1276178E+00
         -2   -1    0    0    0  501 -0.00000000000E+00  0.00000000000E+00  0.14894420735E+02  0.14894420735E+02  0.00000000000E+00 0.  1.
          2   -1    0    0  501    0  0.00000000000E+00 -0.00000000000E+00 -0.91111870909E+03  0.91111870909E+03  0.00000000000E+00 0. -1.
         25    2    1    2    0    0  0.20851629132E+02  0.63448880660E+01 -0.65988923505E+03  0.67199574644E+03  0.12509769247E+03 0.  0.
          5    1    3    3  502    0  0.15816759551E+02 -0.52601631916E+02 -0.46582858452E+03  0.46907445477E+03  0.41800000000E+01 0.  1.
         -5    1    3    3    0  502  0.50348695803E+01  0.58946519982E+02 -0.19406065053E+03  0.20292129167E+03  0.41800000000E+01 0.  1.
        -11    1    1    2    0    0  0.32101693321E+02 -0.15804426393E+02 -0.62134744764E+02  0.71700942215E+02  0.00000000000E+00 0. -1.
         11    1    1    2    0    0 -0.52953322452E+02  0.94595383268E+01 -0.17420030855E+03  0.18231644117E+03  0.00000000000E+00 0.  1.
</event>
<event>
 7    1  0.2733606E-009  0.9869391E+02  0.7561462E-02  0.1283067E+00
          2   -1    0    0  501    0  0.00000000000E+00  0.00000000000E+00  0.46664405954E+02  0.46664405954E+02  0.00000000000E+00 0. -1.
         -2   -1    0    0    0  501 -0.00000000000E+00 -0.00000000000E+00 -0.27892978829E+03  0.27892978829E+03  0.00000000000E+00 0.  1.
         25    2    1    2    0    0  0.83490010945E+01  0.19775063913E+02 -0.90978378763E+02  0.15614940330E+03  0.12507922201E+03 0.  0.
          5    1    3    3  502    0 -0.35616714921E+02  0.54646638301E+02 -0.70827948449E+02  0.96378815830E+02  0.41800000000E+01 0. -1.
         -5    1    3    3    0  502  0.43965716015E+02 -0.34871574388E+02 -0.20150430314E+02  0.59770587473E+02  0.41800000000E+01 0. -1.
        -11    1    1    2    0    0  0.47473356938E+01  0.26879646711E+02 -0.10611107046E+03  0.10956555972E+03  0.00000000000E+00 0.  1.
         11    1    1    2    0    0 -0.13096336788E+02 -0.46654710624E+02 -0.35175933109E+02  0.59879231214E+02  0.00000000000E+00 0. -1.
</event>
<event>
 7    1  0.2733606E-009  0.1291101E+03  0.7561462E-02  0.1228782E+00
         -3   -1    0    0    0  501 -0.00000000000E+00  0.00000000000E+00  0.33488162144E+02  0.33488162144E+02  0.00000000000E+00 0.  1.
          3   -1    0    0  501    0  0.00000000000E+00 -0.00000000000E+00 -0.55199864144E+03  0.55199864144E+03  0.00000000000E+00 0. -1.
         25    2    1    2    0    0  0.72227433502E+02 -0.41337632129E+02 -0.29276850358E+03  0.32906928161E+03  0.12509034108E+03 0.  0.
          5    1    3    3  502    0  0.20991396203E+02  0.41800112634E+02 -0.57080749321E+02  0.73915982533E+02  0.41800000000E+01 0. -1.
         -5    1    3    3    0  502  0.51236037299E+02 -0.83137744763E+02 -0.23568775425E+03  0.25515329907E+03  0.41800000000E+01 0. -1.
        -11    1    1    2    0    0 -0.82770456912E+02  0.52611679373E+02 -0.15069557225E+03  0.17980014694E+03  0.00000000000E+00 0.  1.
         11    1    1    2    0    0  0.10543023409E+02 -0.11274047244E+02 -0.75046403472E+02  0.76617375040E+02  0.00000000000E+00 0. -1.
</event>
<event>
 7    1  0.2733606E-009  0.1969499E+03  0.7561462E-02  0.1152338E+00
         -2   -1    0    0    0  501 -0.00000000000E+00  0.00000000000E+00  0.31339374694E+02  0.31339374694E+02  0.00000000000E+00 0.  1.
          2   -1    0    0  501    0  0.00000000000E+00 -0.00000000000E+00 -0.15207572927E+04  0.15207572927E+04  0.00000000000E+00 0. -1.
         25    2    1    2    0    0  0.16045729024E+03 -0.66068141146E+02 -0.10430870720E+04  0.10647946720E+04  0.12508202362E+03 0.  0.
          5    1    3    3  502    0  0.14714384532E+03 -0.10127150573E+02 -0.59541064170E+03  0.61342087920E+03  0.41800000000E+01 0. -1.
         -5    1    3    3    0  502  0.13313444920E+02 -0.55940990573E+02 -0.44767643026E+03  0.45137379283E+03  0.41800000000E+01 0. -1.
        -11    1    1    2    0    0 -0.86862755450E+02  0.74737744192E+02 -0.33043863628E+03  0.34974356468E+03  0.00000000000E+00 0.  1.
         11    1    1    2    0    0 -0.73594534787E+02 -0.86696030460E+01 -0.11589220979E+03  0.13755843071E+03  0.00000000000E+00 0. -1.
</event>
<event>
 7    1  0.2733606E-009  0.1080349E+03  0.7561462E-02  0.1264253E+00
         -4   -1    0    0    0  501 -0.00000000000E+00  0.00000000000E+00  0.19954797314E+02  0.19954797314E+02  0.00000000000E+00 0.  1.
          4   -1    0    0  501    0  0.00000000000E+00 -0.00000000000E+00 -0.68614523511E+03  0.68614523511E+03  0.00000000000E+00 0. -1.
         25    2    1    2    0    0  0.32975018703E+02  0.71039457378E+00 -0.27795629733E+03  0.30658664803E+03  0.12509121873E+03 0.  0.
          5    1    3    3  502    0 -0.59649742038E+01  0.56641902151E+02 -0.89763061373E+02  0.10638968739E+03  0.41800000000E+01 0. -1.
         -5    1    3    3    0  502  0.38939992906E+02 -0.55931507577E+02 -0.18819323596E+03  0.20019696063E+03  0.41800000000E+01 0. -1.
        -11    1    1    2    0    0 -0.27865749443E+02  0.40497432883E+02 -0.15489601430E+03  0.16250943760E+03  0.00000000000E+00 0. -1.
         11    1    1    2    0    0 -0.51092692596E+01 -0.41207827457E+02 -0.23333812616E+03  0.23700394679E+03  0.00000000000E+00 0.  1.
</event>
<event>
 7    1  0.2733606E-009  0.6810631E+02  0.7561462E-02  0.1366654E+00
          1   -1    0    0  501    0  0.00000000000E+00  0.00000000000E+00  0.11724401171E+03  0.11724401171E+03  0.00000000000E+00 0. -1.
         -1   -1    0    0    0  501 -0.00000000000E+00 -0.00000000000E+00 -0.10343986291E+03  0.10343986291E+03  0.00000000000E+00 0.  1.
         25    2    1    2    0    0 -0.81676042703E+01  0.96365874993E+01  0.31579273987E+02  0.12963260110E+03  0.12509111537E+03 0.  0.
          5    1    3    3  502    0  0.27905589995E+02 -0.18232141336E+02  0.64855510725E+02  0.73040006859E+02  0.41800000000E+01 0.  1.
         -5    1    3    3    0  502 -0.36073194265E+02  0.27868728835E+02 -0.33276236738E+02  0.56592594240E+02  0.41800000000E+01 0.  1.
        -11    1    1    2    0    0 -0.16691286289E+02 -0.23156143057E+02 -0.44014638707E+02  0.52460408117E+02  0.00000000000E+00 0.  1.
         11    1    1    2    0    0  0.24858890560E+02  0.13519555558E+02  0.26239513528E+02  0.38590865403E+02  0.00000000000E+00 0. -1.
</event>
<event>
 7    1  0.2733606E-009  0.1501329E+03  0.7561462E-02  0.1200310E+00
          1   -1    0    0  501    0  0.00000000000E+00  0.00000000000E+00  0.22751357169E+03  0.22751357169E+03  0.00000000000E+00 0. -1.
         -1   -1    0    0    0  501 -0.00000000000E+00 -0.00000000000E+00 -0.12231988285E+03  0.12231988285E+03  0.00000000000E+00 0.  1.
         25    2    1    2    0    0  0.11311655375E+03 -0.37028908794E+02  0.14204652899E+02  0.17323711700E+03  0.12507130656E+03 0.  0.
          5    1    3    3  502    0  0.69002204902E+02 -0.78091543882E+02  0.33949491516E+02  0.10967968764E+03  0.41800000000E+01 0.  1.
         -5    1    3    3    0  502  0.44114348843E+02  0.41062635088E+02 -0.19744838617E+02  0.63557429355E+02  0.41800000000E+01 0.  1.
        -11    1    1    2    0    0 -0.75336845517E+02 -0.91562211082E+01  0.88904721694E+02  0.11689108699E+03  0.00000000000E+00 0. -1.
         11    1    1    2    0    0 -0.37779708228E+02  0.46185129902E+02  0.20843142474E+01  0.59705250555E+02  0.00000000000E+00 0.  1.
</event>
<event>
 7    1  0.2733606E-009  0.1127040E+03  0.7561462E-02  0.1255643E+00
          1   -1    0    0  501    0  0.00000000000E+00  0.00000000000E+00  0.35491786908E+03  0.35491786908E+03  0.00000000000E+00 0. -1.
         -1   -1    0    0    0  501 -0.00000000000E+00 -0.00000000000E+00 -0.65427886721E+02  0.65427886721E+02  0.00000000000E+00 0.  1.
         25    2    1    2    0    0  0.13404920808E+02  0.98511434157E+02  0.22527398983E+03  0.27618897174E+03  0.12509109902E+03 0.  0.
          5    1    3    3  502    0  0.18846367420E+02  0.71781584424E+02  0.31954120152E+02  0.80909329635E+02  0.41800000000E+01 0.  1.
         -5    1    3    3    0  502 -0.54414466120E+01  0.26729849734E+02  0.19331986968E+03  0.19527964210E+03  0.41800000000E+01 0.  1.
        -11    1    1    2    0    0 -0.27427842210E+02 -0.37463412565E+01 -0.19182026860E+01  0.27748893719E+02  0.00000000000E+00 0.  1.
         11    1    1    2    0    0  0.14022921401E+02 -0.94765092901E+02  0.66134195213E+02  0.11640789034E+03  0.00000000000E+00 0. -1.
</event>
<event>
 7    1  0.2733606E-009  0.9514425E+02  0.7561462E-02  0.1290852E+00
         -4   -1    0    0    0  501 -0.00000000000E+00  0.00000000000E+00  0.18535742248E+03  0.18535742248E+03  0.00000000000E+00 0.  1.
          4   -1    0    0  501    0  0.00000000000E+00 -0.00000000000E+00 -0.12702309213E+03  0.12702309213E+03  0.00000000000E+00 0. -1.
         25    2    1    2    0    0  0.39867939832E+02  0.16270848675E+02 -0.69389295456E+02  0.14938835368E+03  0.12509121771E+03 0.  0.
          5    1    3    3  502    0  0.24963497634E+02 -0.30581179436E+02 -0.88089267179E+02  0.96620785248E+02  0.41800000000E+01 0.  1.
         -5    1    3    3    0  502  0.14904442198E+02  0.46852028111E+02  0.18699971724E+02  0.52767568428E+02  0.41800000000E+01 0.  1.
        -11    1    1    2    0    0 -0.58288197349E+01 -0.51752247129E+02  0.64597799153E+02  0.82976779148E+02  0.00000000000E+00 0.  1.
         11    1    1    2    0    0 -0.34039120097E+02  0.35481398454E+02  0.63125826653E+02  0.80015381795E+02  0.00000000000E+00 0. -1.
</event>
<event>
 7    1  0.2733606E-009  0.1020035E+03  0.7561462E-02  0.1276138E+00
         -3   -1    0    0    0  501 -0.00000000000E+00  0.00000000000E+00  0.33483712049E+03  0.33483712049E+03  0.00000000000E+00 0.  1.
          3   -1    0    0  501    0  0.00000000000E+00 -0.00000000000E+00 -0.49309206943E+02  0.49309206943E+02  0.00000000000E+00 0. -1.
         25    2    1    2    0    0  0.29408034576E+02 -0.53996767605E+02  0.18764374797E+03  0.23374857722E+03  0.12509091809E+03 0.  0.
          5    1    3    3  502    0  0.65360372681E+02 -0.43435126248E+02  0.17837839479E+03  0.19492283765E+03  0.41800000000E+01 0. -1.
         -5    1    3    3    0  502 -0.35952338106E+02 -0.10561641358E+02  0.92653531826E+01  0.38825739568E+02  0.41800000000E+01 0. -1.
        -11    1    1    2    0    0  0.16068356078E+02 -0.12991013330E+01  0.72757906251E+02  0.74522430539E+02  0.00000000000E+00 0.  1.
         11    1    1    2    0    0 -0.45476390654E+02  0.55295868938E+02  0.25126259322E+02  0.75875319677E+02  0.00000000000E+00 0. -1.
</event>
<event>
 7    1  0.2733606E-009  0.1912693E+03  0.7561462E-02  0.1157321E+00
         -1   -1    0    0    0  501 -0.00000000000E+00  0.00000000000E+00  0.60743958272E+03  0.60743958272E+03  0.00000000000E+00 0.  1.
          1   -1    0    0  501    0  0.00000000000E+00 -0.00000000000E+00 -0.73790698745E+02  0.73790698745E+02  0.00000000000E+00 0. -1.
         25    2    1    2    0    0 -0.11949506217E+03 -0.11312013036E+03  0.40171651145E+03  0.45177333679E+03  0.12509100083E+03 0.  0.
          5    1    3    3  502    0 -0.11060835762E+03 -0.34986873245E+02  0.16087689273E+03  0.19838633292E+03  0.41800000000E+01 0. -1.
         -5    1    3    3    0  502 -0.88867045500E+01 -0.78133257110E+02  0.24083961873E+03  0.25338700387E+03  0.41800000000E+01 0. -1.
        -11    1    1    2    0    0  0.57008459411E+02  0.11146438932E+03  0.86080371667E+02  0.15193454155E+03  0.00000000000E+00 0. -1.
         11    1    1    2    0    0  0.62486602760E+02  0.16557410341E+01  0.45852000856E+02  0.77522403119E+02  0.00000000000E+00 0.  1.
</event>
<event>
 7    1  0.2733606E-009  0.1364639E+03  0.7561462E-02  0.1218168E+00
         -2   -1    0    0    0  501 -0.00000000000E+00  0.00000000000E+00  0.23202683789E+02  0.23202683789E+02  0.00000000000E+00 0.  1.
          2   -1    0    0  501    0  0.00000000000E+00 -0.00000000000E+00 -0.82235552873E+03  0.82235552873E+03  0.00000000000E+00 0. -1.
         25    2    1    2    0    0 -0.37163762671E+02  0.74622773609E+02 -0.49172541527E+03  0.51418967612E+03  0.12508970946E+03 0.  0.
          5    1    3    3  502    0  0.19347693851E+02  0.88816860209E+02 -0.27123369713E+03  0.28609082259E+03  0.41800000000E+01 0.  1.
         -5    1    3    3    0  502 -0.56511456522E+02 -0.14194086600E+02 -0.22049171814E+03  0.22809885352E+03  0.41800000000E+01 0.  1.
        -11    1    1    2    0    0 -0.27261631848E+02 -0.44982565629E+02 -0.12286716438E+03  0.13365241436E+03  0.00000000000E+00 0. -1.
         11    1    1    2    0    0  0.64425394519E+02 -0.29640207980E+02 -0.18456026529E+03  0.19771612203E+03  0.00000000000E+00 0.  1.
</event>
<event>
 7    1  0.2733606E-009  0.9132064E+02  0.7561462E-02  0.1299685E+00
         -3   -1    0    0    0  501 -0.00000000000E+00  0.00000000000E+00  0.14896919222E+03  0.14896919222E+03  0.00000000000E+00 0.  1.
          3   -1    0    0  501    0  0.00000000000E+00 -0.00000000000E+00 -0.13345384844E+03  0.13345384844E+03  0.00000000000E+00 0. -1.
         25    2    1    2    0    0 -0.47057868061E+02 -0.10450690702E+02  0.85554652807E+02  0.15902427469E+03  0.12508181898E+03 0.  0.
          5    1    3    3  502    0 -0.62339454920E+02  0.28234139320E+01 -0.81456664579E+01  0.63071416569E+02  0.41800000000E+01 0. -1.
         -5    1    3    3    0  502  0.15281586859E+02 -0.13274104634E+02  0.93700319265E+02  0.95952858119E+02  0.41800000000E+01 0. -1.
        -11    1    1    2    0    0 -0.13659369124E+02  0.32165615179E+02 -0.12928120065E+02  0.37260454279E+02  0.00000000000E+00 0. -1.
         11    1    1    2    0    0  0.60717237185E+02 -0.21714924477E+02 -0.57111188961E+02  0.86138311691E+02  0.00000000000E+00 0.  1.
</event>
<event>
 7    1  0.2733606E-009  0.6525630E+02  0.7561462E-02  0.1377010E+00
         -1   -1    0    0    0  501 -0.00000000000E+00  0.00000000000E+00  0.58484032584E+02  0.58484032584E+02  0.00000000000E+00 0.  1.
          1   -1    0    0  501    0  0.00000000000E+00 -0.00000000000E+00 -0.21021843116E+03  0.21021843116E+03  0.00000000000E+00 0. -1.
         25    2    1    2    0    0  0.35299847608E+01  0.68940293357E+01 -0.46448947325E+02  0.13365773688E+03  0.12508755929E+03 0.  0.
          5    1    3    3  502    0 -0.15734667009E+02  0.17296192963E+02  0.38827301316E+02  0.45516697643E+02  0.41800000000E+01 0.  1.
         -5    1    3    3    0  502  0.19264651770E+02 -0.10402163627E+02 -0.85276248641E+02  0.88141039239E+02  0.41800000000E+01 0.  1.
        -11    1    1    2    0    0 -0.16134824460E+02 -0.43159485813E+02 -0.54160114244E+02  0.71108310000E+02  0.00000000000E+00 0.  1.
         11    1    1    2    0    0  0.12604839699E+02  0.36265456478E+02 -0.51125337010E+02  0.63936416867E+02  0.00000000000E+00 0. -1.
</event>
<event>
 7    1  0.2733606E-009  0.1089106E+03  0.7561462E-02  0.1262601E+00
          2   -1    0    0  501    0  0.00000000000E+00  0.00000000000E+00  0.59769239661E+03  0.59769239661E+03  0.00000000000E+00 0.  1.
         -2   -1    0    0    0  501 -0.00000000000E+00 -0.00000000000E+00 -0.24554789141E+02  0.24554789141E+02  0.00000000000E+00 0. -1.
         25    2    1    2    0    0 -0.19042753364E+02  0.49461354556E+02  0.34811948741E+03  0.37369030081E+03  0.12509281095E+03 0.  0.
          5    1    3    3  502    0 -0.27605355477E+01 -0.32458456064E+02  0.20750116514E+03  0.21008421612E+03  0.41800000000E+01 0. -1.
         -5    1    3    3    0  502 -0.16282217817E+02  0.81919810621E+02  0.14061832227E+03  0.16360608469E+03  0.41800000000E+01 0. -1.
        -11    1    1    2    0    0 -0.30068448933E+02  0.21034255694E+01  0.38419056544E+02  0.48831955993E+02  0.00000000000E+00 0. -1.
         11    1    1    2    0    0  0.49111202297E+02 -0.51564780126E+02  0.18659906351E+03  0.19972492895E+03  0.00000000000E+00 0.  1.
</event>
<event>
 7    1  0.2733606E-009  0.1352688E+03  0.7561462E-02  0.1219841E+00
         -2   -1    0    0    0  501 -0.00000000000E+00  0.00000000000E+00  0.13139275096E+02  0.13139275096E+02  0.00000000000E+00 0.  1.
          2   -1    0    0  501    0  0.00000000000E+00 -0.00000000000E+00 -0.20197145999E+04  0.20197145999E+04  0.00000000000E+00 0. -1.
         25    2    1    2    0    0 -0.93583405973E+02  0.74380064864E+02 -0.12959111822E+04  0.13074093758E+04  0.12507292187E+03 0.  0.
          5    1    3    3  502    0 -0.80534130526E+02  0.44094860667E+02 -0.12315146507E+04  0.12349396383E+04  0.41800000000E+01 0.  1.
         -5    1    3    3    0  502 -0.13049275447E+02  0.30285204197E+02 -0.64396531537E+02  0.72469737525E+02  0.41800000000E+01 0.  1.
        -11    1    1    2    0    0 -0.97149591274E+01 -0.32499908194E+02 -0.14671135172E+03  0.15058168941E+03  0.00000000000E+00 0. -1.
         11    1    1    2    0    0  0.10329836510E+03 -0.41880156670E+02 -0.56395279089E+03  0.57486280981E+03  0.00000000000E+00 0.  1.
</event>
<event>
 7    1  0.2733606E-009  0.1066837E+03  0.7561462E-02  0.1266837E+00
          1   -1    0    0  501    0  0.00000000000E+00  0.00000000000E+00  0.57038446521E+03  0.57038446521E+03  0.00000000000E+00 0. -1.
         -1   -1    0    0    0  501 -0.00000000000E+00 -0.00000000000E+00 -0.29733049762E+02  0.29733049762E+02  0.00000000000E+00 0.  1.
         25    2    1    2    0    0 -0.11836408894E+02  0.68450327869E+02  0.36524083150E+03  0.39226790511E+03  0.12509075273E+03 0.  0.
          5    1    3    3  502    0  0.33200732899E+02  0.20496922277E+02  0.26926130379E+02  0.47590980081E+02  0.41800000000E+01 0. -1.
         -5    1    3    3    0  502 -0.45037141792E+02  0.47953405593E+02  0.33831470113E+03  0.34467692503E+03  0.41800000000E+01 0. -1.
        -11    1    1    2    0    0  0.28967470446E+02  0.78456656317E+01  0.28309617404E+02  0.41256554035E+02  0.00000000000E+00 0.  1.
         11    1    1    2    0    0 -0.17131061552E+02 -0.76295993501E+02  0.14710096654E+03  0.16659305583E+03  0.00000000000E+00 0. -1.
</event>
<event>
 7    1  0.2733606E-009  0.1705960E+03  0.7561462E-02  0.1177228E+00
         -2   -1    0    0    0  501 -0.00000000000E+00  0.00000000000E+00  0.31705771139E+02  0.31705771139E+02  0.00000000000E+00 0.  1.
          2   -1    0    0  501    0  0.00000000000E+00 -0.00000000000E+00 -0.10184908839E+04  0.10184908839E+04  0.00000000000E+00 0. -1.
         25    2    1    2    0    0 -0.83527861990E+02  0.10285829176E+03 -0.65064709421E+03  0.67568219408E+03  0.12509218313E+03 0.  0.
          5    1    3    3  502    0 -0.47645201020E+02 -0.21385785764E+02 -0.20947257521E+03  0.21592510086E+03  0.41800000000E+01 0.  1.
         -5    1    3    3    0  502 -0.35882660970E+02  0.12424407753E+03 -0.44117451900E+03  0.45975709323E+03  0.41800000000E+01 0.  1.
        -11    1    1    2    0    0  0.11819380604E+02 -0.84590271437E+02 -0.22807362834E+03  0.24354217648E+03  0.00000000000E+00 0. -1.
         11    1    1    2    0    0  0.71708481385E+02 -0.18268020327E+02 -0.10806439020E+03  0.13097228446E+03  0.00000000000E+00 0.  1.
</event>
<event>
 7    1  0.2733606E-009  0.1108684E+03  0.7561462E-02  0.1258970E+00
          1   -1    0    0  501    0  0.00000000000E+00  0.00000000000E+00  0.71634868742E+03  0.71634868742E+03  0.00000000000E+00 0. -1.
         -1   -1    0    0    0  501 -0.00000000000E+00 -0.00000000000E+00 -0.46032960092E+02  0.46032960092E+02  0.00000000000E+00 0.  1.
         25    2    1    2    0    0 -0.19991329772E+02  0.26280773108E+02  0.65093238128E+03  0.66366560467E+03  0.12509491406E+03 0.  0.
          5    1    3    3  502    0 -0.67448073773E+02 -0.58682572018E+01  0.43305963130E+03  0.43833981768E+03  0.41800000000E+01 0.  1.
         -5    1    3    3    0  502  0.47456744001E+02  0.32149030309E+02  0.21787274998E+03  0.22532578699E+03  0.41800000000E+01 0.  1.
        -11    1    1    2    0    0 -0.35296932053E+02 -0.20559928322E+02  0.12440240603E+02  0.42700628230E+02  0.00000000000E+00 0. -1.
         11    1    1    2    0    0  0.55288261825E+02 -0.57208447852E+01  0.69431054440E+01  0.56015414610E+02  0.00000000000E+00 0.  1.
</event>
<event>
 7    1  0.2733606E-009  0.1177916E+03  0.7561462E-02  0.1246785E+00
         -2   -1    0    0    0  501 -0.00000000000E+00  0.00000000000E+00  0.11899374418E+03  0.11899374418E+03  0.00000000000E+00 0.  1.
          2   -1    0    0  501    0  0.00000000000E+00 -0.00000000000E+00 -0.18440974794E+03  0.18440974794E+03  0.00000000000E+00 0. -1.
         25    2    1    2    0    0  0.72246747810E+02  0.43113429111E+02 -0.92431076731E+02  0.17683294291E+03  0.12509206774E+03 0.  0.
          5    1    3    3  502    0  0.19659240136E+02  0.60996228418E+02 -0.10178369102E+03  0.12035122667E+03  0.41800000000E+01 0.  1.
         -5    1    3    3    0  502  0.52587507675E+02 -0.17882799307E+02  0.93526142899E+01  0.56481716232E+02  0.41800000000E+01 0.  1.
        -11    1    1    2    0    0 -0.12242883678E+02 -0.53394915209E+02 -0.94748746312E+01  0.55593870347E+02  0.00000000000E+00 0. -1.
         11    1    1    2    0    0 -0.60003864132E+02  0.10281486098E+02  0.36489947599E+02  0.70976678866E+02  0.00000000000E+00 0.  1.
</event>
<event>
 7    1  0.2733606E-009  0.1673053E+03  0.7561462E-02  0.1180687E+00
          2   -1    0    0  501    0  0.00000000000E+00  0.00000000000E+00  0.30808617823E+03  0.30808617823E+03  0.00000000000E+00 0. -1.
         -2   -1    0    0    0  501 -0.00000000000E+00 -0.00000000000E+00 -0.13706483491E+03  0.13706483491E+03  0.00000000000E+00 0.  1.
         25    2    1    2    0    0  0.12648246811E+03 -0.84791832250E+02  0.17748837034E+03  0.26521099393E+03  0.12508908880E+03 0.  0.
          5    1    3    3  502    0  0.12371399351E+02 -0.25123557335E+02 -0.16173494384E+02  0.32608265450E+02  0.41800000000E+01 0. -1.
         -5    1    3    3    0  502  0.11411106876E+03 -0.59668274916E+02  0.19366186473E+03  0.23260272848E+03  0.41800000000E+01 0. -1.
        -11    1    1    2    0    0 -0.52942125442E+02 -0.13561565817E+02  0.11435087893E+02  0.55834988572E+02  0.00000000000E+00 0. -1.
         11    1    1    2    0    0 -0.73540342672E+02  0.98353398067E+02 -0.17902114920E+02  0.12410503064E+03  0.00000000000E+00 0.  1.
</event>
<event>
 7    1  0.2733606E-009  0.1395694E+03  0.7561462E-02  0.1213910E+00
          2   -1    0    0  501    0  0.00000000000E+00  0.00000000000E+00  0.71988047922E+03  0.71988047922E+03  0.00000000000E+00 0. -1.
         -2   -1    0    0    0  501 -0.00000000000E+00 -0.00000000000E+00 -0.33495155372E+02  0.33495155372E+02  0.00000000000E+00 0.  1.
         25    2    1    2    0    0  0.10866272793E+03  0.18756721983E+02  0.38419758118E+03  0.41882785034E+03  0.12509829644E+03 0.  0.
          5    1    3    3  502    0  0.22051975605E+02 -0.29738616071E+02  0.24496875110E+03  0.24778586790E+03  0.41800000000E+01 0.  1.
         -5    1    3    3    0  502  0.86610752327E+02  0.48495338053E+02  0.13922883008E+03  0.17104198244E+03  0.41800000000E+01 0.  1.
        -11    1    1    2    0    0  0.77661312085E+01 -0.24756714256E+02  0.71754290664E+02  0.76301283891E+02  0.00000000000E+00 0. -1.
         11    1    1    2    0    0 -0.11642885914E+03  0.59999922729E+01  0.23043345200E+03  0.25824650036E+03  0.00000000000E+00 0.  1.
</event>
<event>
 7    1  0.2733606E-009  0.1670810E+03  0.7561462E-02  0.1180927E+00
         -4   -1    0    0    0  501 -0.00000000000E+00  0.00000000000E+00  0.25381548585E+03  0.25381548585E+03  0.00000000000E+00 0.  1.
          4   -1    0    0  501    0  0.00000000000E+00 -0.00000000000E+00 -0.13027727003E+03  0.13027727003E+03  0.00000000000E+00 0. -1.
         25    2    1    2    0    0 -0.12353704742E+03  0.73369804002E+02  0.41951448657E+02  0.19506672292E+03  0.12508625873E+03 0.  0.
          5    1    3    3  502    0 -0.57597398861E+02  0.10016382608E+03  0.44080217948E+02  0.12373677879E+03  0.41800000000E+01 0. -1.
         -5    1    3    3    0  502 -0.65939648564E+02 -0.26794022078E+02 -0.21287692906E+01  0.71329944137E+02  0.41800000000E+01 0. -1.
        -11    1    1    2    0    0  0.80861053862E+02 -0.29586237417E+02 -0.11963523091E+01  0.86112059173E+02  0.00000000000E+00 0. -1.
         11    1    1    2    0    0  0.42675993562E+02 -0.43783566585E+02  0.82783119474E+02  0.10291397378E+03  0.00000000000E+00 0.  1.
</event>
<event>
 7    1  0.2733606E-009  0.8884627E+02  0.7561462E-02  0.1305670E+00
          2   -1    0    0  501    0  0.00000000000E+00  0.00000000000E+00  0.29538066808E+03  0.29538066808E+03  0.00000000000E+00 0. -1.
         -2   -1    0    0    0  501 -0.00000000000E+00 -0.00000000000E+00 -0.49813225735E+02  0.49813225735E+02  0.00000000000E+00 0.  1.
         25    2    1    2    0    0 -0.85904501488E+01  0.33521434801E+02  0.19934069813E+03  0.23786971403E+03  0.12509118472E+03 0.  0.
          5    1    3    3  502    0  0.29422161510E+02  0.69009496541E+02  0.94185693102E+02  0.12048398809E+03  0.41800000000E+01 0. -1.
         -5    1    3    3    0  502 -0.38012611658E+02 -0.35488061739E+02  0.10515500503E+03  0.11738572594E+03  0.41800000000E+01 0. -1.
        -11    1    1    2    0    0 -0.14470395212E+02 -0.14589151293E+02 -0.23658440351E+02  0.31336200677E+02  0.00000000000E+00 0.  1.
         11    1    1    2    0    0  0.23060845361E+02 -0.18932283509E+02  0.69885184558E+02  0.75987979104E+02  0.00000000000E+00 0. -1.
</event>
<event>
 7    1  0.2733606E-009  0.8174565E+02  0.7561462E-02  0.1324169E+00
          3   -1    0    0  501    0  0.00000000000E+00  0.00000000000E+00  0.18254185515E+03  0.18254185515E+03  0.00000000000E+00 0. -1.
         -3   -1    0    0    0  501 -0.00000000000E+00 -0.00000000000E+00 -0.12606878037E+03  0.12606878037E+03  0.00000000000E+00 0.  1.
         25    2    1    2    0    0 -0.53009252354E+02 -0.33995336602E+02  0.11705533278E+03  0.18252543990E+03  0.12509165253E+03 0.  0.
          5    1    3    3  502    0  0.13708006084E+02 -0.22900887893E+01  0.10685945005E+03  0.10784047664E+03  0.41800000000E+01 0. -1.
         -5    1    3    3    0  502 -0.66717258438E+02 -0.31705247812E+02  0.10195882732E+02  0.74684963259E+02  0.41800000000E+01 0. -1.
        -11    1    1    2    0    0  0.96647016459E+01 -0.95251402543E+01 -0.63166778757E+02  0.64607868664E+02  0.00000000000E+00 0.  1.
         11    1    1    2    0    0  0.43344550708E+02  0.43520476856E+02  0.25845207514E+01  0.61477326953E+02  0.00000000000E+00 0. -1.
</event>
<event>
 7    1  0.2733606E-009  0.1155641E+03  0.7561462E-02  0.1250600E+00
          2   -1    0    0  501    0  0.00000000000E+00  0.00000000000E+00  0.57469920280E+03  0.57469920280E+03  0.00000000000E+00 0. -1.
         -2   -1    0    0    0  501 -0.00000000000E+00 -0.00000000000E+00 -0.35486135683E+02  0.35486135683E+02  0.00000000000E+00 0.  1.
         25    2    1    2    0    0 -0.76953352630E+02 -0.53864203928E+02  0.27231976851E+03  0.31405380332E+03  0.12509422096E+03 0.  0.
          5    1    3    3  502    0  0.93758091608E+01 -0.82719154783E+01 -0.91872168955E+01  0.16068843685E+02  0.41800000000E+01 0.  1.
         -5    1    3    3    0  502 -0.86329161791E+02 -0.45592288450E+02  0.28150698540E+03  0.29798495964E+03  0.41800000000E+01 0.  1.
        -11    1    1    2    0    0 -0.14119525215E+02 -0.56078614501E+00  0.79870767939E+02  0.81111127749E+02  0.00000000000E+00 0. -1.
         11    1    1    2    0    0  0.91072877845E+02  0.54424990073E+02  0.18702253067E+03  0.21502040741E+03  0.00000000000E+00 0.  1.
</event>
<event>
 7    1  0.2733606E-009  0.1174310E+03  0.7561462E-02  0.1247396E+00
         -2   -1    0    0    0  501 -0.00000000000E+00  0.00000000000E+00  0.38812457031E+02  0.38812457031E+02  0.00000000000E+00 0.  1.
          2   -1    0    0  501    0  0.00000000000E+00 -0.00000000000E+00 -0.51580435120E+03  0.51580435120E+03  0.00000000000E+00 0. -1.
         25    2    1    2    0    0 -0.70241007966E+00  0.86738209016E+02 -0.31104710322E+03  0.34629275607E+03  0.12507742482E+03 0.  0.
          5    1    3    3  502    0 -0.42438134749E+02  0.21851487150E+02 -0.34207776772E+02  0.58873824093E+02  0.41800000000E+01 0. -1.
         -5    1    3    3    0  502  0.41735724670E+02  0.64886721866E+02 -0.27683932645E+03  0.28741893197E+03  0.41800000000E+01 0. -1.
        -11    1    1    2    0    0 -0.18255150759E+02  0.25244302505E+01  0.57710299857E+00  0.18437904577E+02  0.00000000000E+00 0.  1.
         11    1    1    2    0    0  0.18957560839E+02 -0.89262639267E+02 -0.16652189395E+03  0.18988614759E+03  0.00000000000E+00 0. -1.
</event>
<event>
 7    1  0.2733606E-009  0.1164988E+03  0.7561462E-02  0.1248987E+00
         -3   -1    0    0    0  501 -0.00000000000E+00  0.00000000000E+00  0.93784180273E+02  0.93784180273E+02  0.00000000000E+00 0.  1.
          3   -1    0    0  501    0  0.00000000000E+00 -0.00000000000E+00 -0.15590450034E+03  0.15590450034E+03  0.00000000000E+00 0. -1.
         25    2    1    2    0    0  0.30488851076E+02  0.42341934939E+02 -0.66522272700E+02  0.15098285544E+03  0.12509276709E+03 0.  0.
          5    1    3    3  502    0  0.64989498435E+02 -0.16498940588E+02 -0.34256088781E+02  0.75410887583E+02  0.41800000000E+01 0. -1.
         -5    1    3    3    0  502 -0.34500647359E+02  0.58840875528E+02 -0.32266183919E+02  0.75571967857E+02  0.41800000000E+01 0. -1.
        -11    1    1    2    0    0 -0.15494526297E+02 -0.66918677792E+02  0.98909256365E+01  0.69397551776E+02  0.00000000000E+00 0.  1.
         11    1    1    2    0    0 -0.14994324779E+02  0.24576742852E+02 -0.54889730010E+01  0.29308273395E+02  0.00000000000E+00 0. -1.
</event>
<event>
 7    1  0.2733606E-009  0.7286397E+02  0.7561462E-02  0.1350616E+00
         -3   -1    0    0    0  501 -0.00000000000E+00  0.00000000000E+00  0.12682447141E+03  0.12682447141E+03  0.00000000000E+00 0.  1.
          3   -1    0    0  501    0  0.00000000000E+00 -0.00000000000E+00 -0.14886171744E+03  0.14886171744E+03  0.00000000000E+00 0. -1.
         25    2    1    2    0    0  0.50105195797E+02  0.15116411025E+02  0.53845453405E+02  0.14589636602E+03  0.12508948891E+03 0.  0.
          5    1    3    3  502    0 -0.68453692960E+01  0.97133739797E+01  0.81324997844E+02  0.82294813865E+02  0.41800000000E+01 0.  1.
         -5    1    3    3    0  502  0.56950565093E+02  0.54030370448E+01 -0.27479544439E+02  0.63601552153E+02  0.41800000000E+01 0.  1.
        -11    1    1    2    0    0 -0.58238175963E+02 -0.24650730990E+02 -0.11598093733E+02  0.64295096672E+02  0.00000000000E+00 0.  1.
         11    1    1    2    0    0  0.81329801662E+01  0.95343199652E+01 -0.64284605709E+02  0.65494726160E+02  0.00000000000E+00 0. -1.
</event>
<event>
 7    1  0.2733606E-009  0.2808287E+03  0.7561462E-02  0.1095237E+00
          2   -1    0    0  501    0  0.00000000000E+00  0.00000000000E+00  0.20863367724E+04  0.20863367724E+04  0.00000000000E+00 0. -1.
         -2   -1    0    0    0  501 -0.00000000000E+00 -0.00000000000E+00 -0.44815821051E+02  0.44815821051E+02  0.00000000000E+00 0.  1.
         25    2    1    2    0    0  0.16136529506E+03 -0.21436816692E+03  0.13743477011E+04  0.14058703800E+04  0.12508977724E+03 0.  0.
          5    1    3    3  502    0  0.18173672421E+02 -0.76073565722E+02  0.20052152451E+03  0.21527615745E+03  0.41800000000E+01 0. -1.
         -5    1    3    3    0  502  0.14319162264E+03 -0.13829460120E+03  0.11738261766E+04  0.11905942225E+04  0.41800000000E+01 0. -1.
        -11    1    1    2    0    0 -0.16253925656E+03  0.15422867019E+03  0.51354883265E+03  0.56030161177E+03  0.00000000000E+00 0.  1.
         11    1    1    2    0    0  0.11739615021E+01  0.60139496734E+02  0.15362441759E+03  0.16498060169E+03  0.00000000000E+00 0. -1.
</event>
<event>
 7    1  0.2733606E-009  0.1196288E+03  0.7561462E-02  0.1243711E+00
          2   -1    0    0  501    0  0.00000000000E+00  0.00000000000E+00  0.29299323747E+03  0.29299323747E+03  0.00000000000E+00 0. -1.
         -2   -1    0    0    0  501 -0.00000000000E+00 -0.00000000000E+00 -0.77630627819E+02  0.77630627819E+02  0.00000000000E+00 0.  1.
         25    2    1    2    0    0  0.79832796526E+02 -0.66702994457E+02  0.10336246377E+03  0.19275322354E+03  0.12508973338E+03 0.  0.
          5    1    3    3  502    0  0.39819968407E+02  0.12095711153E+02  0.95102903580E+02  0.10389403631E+03  0.41800000000E+01 0.  1.
         -5    1    3    3    0  502  0.40012828119E+02 -0.78798705610E+02  0.82595601889E+01  0.88859187226E+02  0.41800000000E+01 0.  1.
        -11    1    1    2    0    0 -0.11736708863E+02  0.28625249446E+02 -0.10469275278E+02  0.32661306857E+02  0.00000000000E+00 0.  1.
         11    1    1    2    0    0 -0.68096087663E+02  0.38077745011E+02  0.12246942116E+03  0.14520933489E+03  0.00000000000E+00 0. -1.
</event>
<event>
 7    1  0.2733606E-009  0.1492345E+03  0.7561462E-02  0.1201417E+00
          2   -1    0    0  501    0  0.00000000000E+00  0.00000000000E+00  0.38222370212E+03  0.38222370212E+03  0.00000000000E+00 0. -1.
         -2   -1    0    0    0  501 -0.00000000000E+00 -0.00000000000E+00 -0.64238712571E+02  0.64238712571E+02  0.00000000000E+00 0.  1.
         25    2    1    2    0    0  0.73446894212E+02  0.86249244358E+02  0.18710099988E+03  0.25197140553E+03  0.12509766834E+03 0.  0.
          5    1    3    3  502    0  0.74078264184E+01  0.89860355489E+02  0.15250548747E+03  0.17721499793E+03  0.41800000000E+01 0. -1.
         -5    1    3    3    0  502  0.66039067793E+02 -0.36111111316E+01  0.34595512410E+02  0.74756407602E+02  0.41800000000E+01 0. -1.
        -11    1    1    2    0    0 -0.76350492612E+02 -0.24594155243E+02  0.58020418791E+02  0.98998177715E+02  0.00000000000E+00 0.  1.
         11    1    1    2    0    0  0.29035984000E+01 -0.61655089115E+02  0.72863570879E+02  0.95492831452E+02  0.00000000000E+00 0. -1.
</event>
<event>
 7    1  0.2733606E-009  0.1485784E+03  0.7561462E-02  0.1202231E+00
         -2   -1    0    0    0  501 -0.00000000000E+00  0.00000000000E+00  0.10273818390E+03  0.10273818390E+03  0.00000000000E+00 0.  1.
          2   -1    0    0  501    0  0.00000000000E+00 -0.00000000000E+00 -0.28574194943E+03  0.28574194943E+03  0.00000000000E+00 0. -1.
         25    2    1    2    0    0  0.10064250475E+03  0.75666350892E+02 -0.51500387708E+02  0.18481082173E+03  0.12509372277E+03 0.  0.
          5    1    3    3  502    0  0.89435626161E+02  0.16267770942E+02 -0.76871933580E+02  0.11912236637E+03  0.41800000000E+01 0.  1.
         -5    1    3    3    0  502  0.11206878588E+02  0.59398579950E+02  0.25371545872E+02  0.65688455361E+02  0.41800000000E+01 0.  1.
        -11    1    1    2    0    0 -0.89616385052E+02 -0.24052228538E+02 -0.46935977461E+02  0.10398361480E+03  0.00000000000E+00 0. -1.
         11    1    1    2    0    0 -0.11026119697E+02 -0.51614122355E+02 -0.84567400360E+02  0.99685696796E+02  0.00000000000E+00 0.  1.
</event>
<event>
 7    1  0.2733606E-009  0.1443621E+03  0.7561462E-02  0.1207577E+00
          2   -1    0    0  501    0  0.00000000000E+00  0.00000000000E+00  0.26660710254E+03  0.26660710254E+03  0.00000000000E+00 0. -1.
         -2   -1    0    0    0  501 -0.00000000000E+00 -0.00000000000E+00 -0.11676118015E+03  0.11676118015E+03  0.00000000000E+00 0.  1.
         25    2    1    2    0    0 -0.11471215823E+03 -0.27914985302E+02 -0.51783402745E+00  0.17200373288E+03  0.12508753064E+03 0.  0.
          5    1    3    3  502    0 -0.13635191617E+03 -0.18993705362E+02  0.21736952496E+02  0.13943662858E+03  0.41800000000E+01 0.  1.
         -5    1    3    3    0  502  0.21639757934E+02 -0.89212799392E+01 -0.22254786524E+02  0.32567104299E+02  0.41800000000E+01 0.  1.
        -11    1    1    2    0    0  0.86100218260E+01 -0.11205249570E+02  0.72985698969E+02  0.74341121512E+02  0.00000000000E+00 0. -1.
         11    1    1    2    0    0  0.10610213641E+03  0.39120234871E+02  0.77378057452E+02  0.13702342829E+03  0.00000000000E+00 0.  1.
</event>
<event>
 7    1  0.2733606E-009  0.7914105E+02  0.7561462E-02  0.1331507E+00
          1   -1    0    0  501    0  0.00000000000E+00  0.00000000000E+00  0.35348771426E+03  0.35348771426E+03  0.00000000000E+00 0. -1.
         -1   -1    0    0    0  501 -0.00000000000E+00 -0.00000000000E+00 -0.44773589492E+02  0.44773589492E+02  0.00000000000E+00 0.  1.
         25    2    1    2    0    0 -0.25435959693E+01 -0.23667013487E+02  0.26740553326E+03  0.29617541678E+03  0.12509021096E+03 0.  0.
          5    1    3    3  502    0  0.49049949958E+02 -0.32599548488E+02  0.21097398966E+03  0.21908017908E+03  0.41800000000E+01 0.  1.
         -5    1    3    3    0  502 -0.51593545927E+02  0.89325350013E+01  0.56431543597E+02  0.77095237698E+02  0.41800000000E+01 0.  1.
        -11    1    1    2    0    0 -0.18161818927E+02  0.50101432982E+01 -0.24331987047E+02  0.30773345549E+02  0.00000000000E+00 0.  1.
         11    1    1    2    0    0  0.20705414897E+02  0.18656870188E+02  0.65640578550E+02  0.71312541420E+02  0.00000000000E+00 0. -1.
</event>
<event>
 7    1  0.2733606E-009  0.1406153E+03  0.7561462E-02  0.1212503E+00
          2   -1    0    0  501    0  0.00000000000E+00  0.00000000000E+00  0.15036564458E+03  0.15036564458E+03  0.00000000000E+00 0. -1.
         -2   -1    0    0    0  501 -0.00000000000E+00 -0.00000000000E+00 -0.16185023384E+03  0.16185023384E+03  0.00000000000E+00 0.  1.
         25    2    1    2    0    0  0.67402903477E+02  0.85224539535E+02 -0.33030423814E+02  0.16895050223E+03  0.12508752844E+03 0.  0.
          5    1    3    3  502    0 -0.14320560278E+02  0.81940366137E+02 -0.10051635126E+02  0.83891655234E+02  0.41800000000E+01 0.  1.
         -5    1    3    3    0  502  0.81723463754E+02  0.32841733986E+01 -0.22978788688E+02  0.85058846997E+02  0.41800000000E+01 0.  1.
        -11    1    1    2    0    0 -0.10087117960E+01 -0.29077704411E+02 -0.30318152535E+02  0.42020480321E+02  0.00000000000E+00 0.  1.
         11    1    1    2    0    0 -0.66394191681E+02 -0.56146835124E+02  0.51863987083E+02  0.10124489587E+03  0.00000000000E+00 0. -1.
</event>
<event>
 7    1  0.2733606E-009  0.8657936E+02  0.7561462E-02  0.1311353E+00
          2   -1    0    0  501    0  0.00000000000E+00  0.00000000000E+00  0.20992376582E+03  0.20992376582E+03  0.00000000000E+00 0.  1.
         -2   -1    0    0    0  501 -0.00000000000E+00 -0.00000000000E+00 -0.70769450487E+02  0.70769450487E+02  0.00000000000E+00 0. -1.
         25    2    1    2    0    0 -0.12586200194E+02  0.58778449997E+02  0.92590571961E+02  0.16683337495E+03  0.12508813838E+03 0.  0.
          5    1    3    3  502    0 -0.32011090877E+02 -0.48828834067E+01  0.94638078049E+02  0.10011189093E+03  0.41800000000E+01 0. -1.
         -5    1    3    3    0  502  0.19424890683E+02  0.63661333404E+02 -0.20475060874E+01  0.66721484021E+02  0.41800000000E+01 0. -1.
        -11    1    1    2    0    0 -0.11202829391E+02 -0.44901562528E+02 -0.13142397662E+02  0.48107965246E+02  0.00000000000E+00 0. -1.
         11    1    1    2    0    0  0.23789029585E+02 -0.13876887469E+02  0.59706141031E+02  0.65751876105E+02  0.00000000000E+00 0.  1.
</event>
<event>
 7    1  0.2733606E-009  0.1247376E+03  0.7561462E-02  0.1235480E+00
          1   -1    0    0  501    0  0.00000000000E+00  0.00000000000E+00  0.11516319487E+03  0.11516319487E+03  0.00000000000E+00 0. -1.
         -1   -1    0    0    0  501 -0.00000000000E+00 -0.00000000000E+00 -0.18383248912E+03  0.18383248912E+03  0.00000000000E+00 0.  1.
         25    2    1    2    0    0  0.31330003407E+02  0.75549764467E+02  0.18031177866E+02  0.15053854753E+03  0.12508954749E+03 0.  0.
          5    1    3    3  502    0  0.69614467175E+02  0.75885907810E+02 -0.90436027204E+01  0.10346064080E+03  0.41800000000E+01 0. -1.
         -5    1    3    3    0  502 -0.38284463768E+02 -0.33614334259E+00  0.27074780586E+02  0.47077906731E+02  0.41800000000E+01 0. -1.
        -11    1    1    2    0    0  0.22600051997E+02 -0.28131109544E+02 -0.63417217387E+02  0.72964821220E+02  0.00000000000E+00 0.  1.
         11    1    1    2    0    0 -0.53930055404E+02 -0.47418654923E+02 -0.23283254727E+02  0.75492315247E+02  0.00000000000E+00 0. -1.
</event>
<event>
 7    1  0.2733606E-009  0.1457303E+03  0.7561462E-02  0.1205820E+00
          2   -1    0    0  501    0  0.00000000000E+00  0.00000000000E+00  0.22661976679E+04  0.22661976679E+04  0.00000000000E+00 0. -1.
         -2   -1    0    0    0  501 -0.00000000000E+00 -0.00000000000E+00 -0.99982618189E+01  0.99982618189E+01  0.00000000000E+00 0.  1.
         25    2    1    2    0    0 -0.98314771512E+02 -0.54836372257E+01  0.15080287198E+04  0.15164082301E+04  0.12508971275E+03 0.  0.
          5    1    3    3  502    0  0.17340120595E+02 -0.35359110945E+02  0.39482702256E+03  0.39680826182E+03  0.41800000000E+01 0.  1.
         -5    1    3    3    0  502 -0.11565489211E+03  0.29875473719E+02  0.11132016972E+04  0.11195999683E+04  0.41800000000E+01 0.  1.
        -11    1    1    2    0    0  0.11507153653E+03  0.81743854112E+01  0.64743561865E+03  0.65763299749E+03  0.00000000000E+00 0.  1.
         11    1    1    2    0    0 -0.16756765016E+02 -0.26907481855E+01  0.10073506763E+03  0.10215470205E+03  0.00000000000E+00 0. -1.
</event>
<event>
 7    1  0.2733606E-009  0.1532725E+03  0.7561462E-02  0.1196509E+00
         -1   -1    0    0    0  501 -0.00000000000E+00  0.00000000000E+00  0.32091488488E+03  0.32091488488E+03  0.00000000000E+00 0.  1.
          1   -1    0    0  501    0  0.00000000000E+00 -0.00000000000E+00 -0.17351453361E+03  0.17351453361E+03  0.00000000000E+00 0. -1.
         25    2    1    2    0    0 -0.10261966758E+02 -0.11242860317E+03 -0.10842144998E+03  0.20037093063E+03  0.12509116777E+03 0.  0.
          5    1    3    3  502    0 -0.56950709597E+02 -0.19892350928E+02 -0.18908334838E+02  0.63356818696E+02  0.41800000000E+01 0. -1.
         -5    1    3    3    0  502  0.46688742839E+02 -0.92536252243E+02 -0.89513115140E+02  0.13701411193E+03  0.41800000000E+01 0. -1.
        -11    1    1    2    0    0 -0.38437010084E+02  0.53967893469E+02  0.14735829267E+03  0.16156857271E+03  0.00000000000E+00 0.  1.
         11    1    1    2    0    0  0.48698976842E+02  0.58460709702E+02  0.10846350858E+03  0.13248991515E+03  0.00000000000E+00 0. -1.
</event>
<event>
 7    1  0.2733606E-009  0.1063143E+03  0.7561462E-02  0.1267551E+00
          1   -1    0    0  501    0  0.00000000000E+00  0.00000000000E+00  0.12207647612E+03  0.12207647612E+03  0.00000000000E+00 0. -1.
         -1   -1    0    0    0  501 -0.00000000000E+00 -0.00000000000E+00 -0.14618601377E+03  0.14618601377E+03  0.00000000000E+00 0.  1.
         25    2    1    2    0    0  0.49761085244E+02 -0.57490807439E+02 -0.26082910954E+00  0.14638586637E+03  0.12508954911E+03 0.  0.
          5    1    3    3  502    0 -0.25247907456E+02 -0.28258080483E+02 -0.41065694045E+02  0.56034271396E+02  0.41800000000E+01 0. -1.
         -5    1    3    3    0  502  0.75008992701E+02 -0.29232726956E+02  0.40804864935E+02  0.90351594970E+02  0.41800000000E+01 0. -1.
        -11    1    1    2    0    0  0.41847125323E+01  0.35321600857E+02 -0.47158021771E+02  0.59067811229E+02  0.00000000000E+00 0.  1.
         11    1    1    2    0    0 -0.53945797777E+02  0.22169206581E+02  0.23309313226E+02  0.62808812290E+02  0.00000000000E+00 0. -1.
</event>
<event>
 7    1  0.3363604E-009  0.2164342E+03  0.7561462E-02  0.1136570E+00
         -2   -1    0    0    0  501 -0.00000000000E+00  0.00000000000E+00  0.73186825875E+02  0.73186825875E+02  0.00000000000E+00 0. -1.
          2   -1    0    0  501    0  0.00000000000E+00 -0.00000000000E+00 -0.96280409254E+03  0.96280409254E+03  0.00000000000E+00 0.  1.
         25    2    1    2    0    0 -0.19939434346E+03  0.55510826822E+02 -0.21175171264E+03  0.32144428697E+03  0.12509230879E+03 0.  0.
          5    1    3    3  502    0 -0.61945836757E+02  0.42248700597E+02 -0.83472062089E+01  0.75560489974E+02  0.41800000000E+01 0. -1.
         -5    1    3    3    0  502 -0.13744850671E+03  0.13262126225E+02 -0.20340450643E+03  0.24588379699E+03  0.41800000000E+01 0. -1.
        -11    1    1    2    0    0  0.10991902059E+03 -0.68037795591E+02 -0.47867955469E+03  0.49582804357E+03  0.00000000000E+00 0. -1.
         11    1    1    2    0    0  0.89475322871E+02  0.12526968769E+02 -0.19918599933E+03  0.21871858787E+03  0.00000000000E+00 0.  1.
</event>
<event>
 7    1  0.2733606E-009  0.1314371E+03  0.7561462E-02  0.1225339E+00
          3   -1    0    0  501    0  0.00000000000E+00  0.00000000000E+00  0.38416904182E+02  0.38416904182E+02  0.00000000000E+00 0. -1.
         -3   -1    0    0    0  501 -0.00000000000E+00 -0.00000000000E+00 -0.59244147259E+03  0.59244147259E+03  0.00000000000E+00 0.  1.
         25    2    1    2    0    0 -0.89280077801E+02 -0.41739874775E+02 -0.38367007748E+03  0.41540957185E+03  0.12509690083E+03 0.  0.
          5    1    3    3  502    0 -0.72548258027E+02  0.13894484233E+02 -0.32276511967E+03  0.33113607672E+03  0.41800000000E+01 0. -1.
         -5    1    3    3    0  502 -0.16731819773E+02 -0.55634359008E+02 -0.60904957813E+02  0.84273495129E+02  0.41800000000E+01 0. -1.
        -11    1    1    2    0    0 -0.15300410672E+02 -0.49950225084E+01 -0.12332713875E+02  0.20276800737E+02  0.00000000000E+00 0. -1.
         11    1    1    2    0    0  0.10458048847E+03  0.46734897283E+02 -0.15802177705E+03  0.19517200418E+03  0.00000000000E+00 0.  1.
</event>
<event>
 7    1  0.2733606E-009  0.1098571E+03  0.7561462E-02  0.1260835E+00
         -1   -1    0    0    0  501 -0.00000000000E+00  0.00000000000E+00  0.18323127305E+03  0.18323127305E+03  0.00000000000E+00 0.  1.
          1   -1    0    0  501    0  0.00000000000E+00 -0.00000000000E+00 -0.82621791726E+02  0.82621791726E+02  0.00000000000E+00 0. -1.
         25    2    1    2    0    0 -0.24360710665E+02  0.39085028296E+02  0.14662130088E+02  0.13410172294E+03  0.12508880996E+03 0.  0.
          5    1    3    3  502    0  0.45286378842E+02  0.27054160674E+02 -0.18313989090E+02  0.55996949156E+02  0.41800000000E+01 0. -1.
         -5    1    3    3    0  502 -0.69647089507E+02  0.12030867622E+02  0.32976119178E+02  0.78104773788E+02  0.41800000000E+01 0. -1.
        -11    1    1    2    0    0  0.52858557695E+02 -0.73913100989E+01  0.65460631008E+02  0.84461546272E+02  0.00000000000E+00 0.  1.
         11    1    1    2    0    0 -0.28497847031E+02 -0.31693718197E+02  0.20486720230E+02  0.47289795562E+02  0.00000000000E+00 0. -1.
</event>
<event>
 7    1  0.2733606E-009  0.1161446E+03  0.7561462E-02  0.1249596E+00
          2   -1    0    0  501    0  0.00000000000E+00  0.00000000000E+00  0.74701751667E+03  0.74701751667E+03  0.00000000000E+00 0. -1.
         -2   -1    0    0    0  501 -0.00000000000E+00 -0.00000000000E+00 -0.36951067964E+02  0.36951067964E+02  0.00000000000E+00 0.  1.
         25    2    1    2    0    0 -0.17049569516E+02 -0.67220004848E+02  0.62382867896E+03  0.64001696591E+03  0.12510107547E+03 0.  0.
          5    1    3    3  502    0 -0.69409443447E+02 -0.45275282487E+02  0.30196224859E+03  0.31315522352E+03  0.41800000000E+01 0. -1.
         -5    1    3    3    0  502  0.52359873931E+02 -0.21944722361E+02  0.32186643037E+03  0.32686174238E+03  0.41800000000E+01 0. -1.
        -11    1    1    2    0    0  0.14990538190E+02  0.79009553686E+02  0.29018982586E+02  0.85494603100E+02  0.00000000000E+00 0.  1.
         11    1    1    2    0    0  0.20590313269E+01 -0.11789548839E+02  0.57218787163E+02  0.58457015629E+02  0.00000000000E+00 0. -1.
</event>
<event>
 7    1  0.2733606E-009  0.7786555E+02  0.7561462E-02  0.1335220E+00
          1   -1    0    0  501    0  0.00000000000E+00  0.00000000000E+00  0.90498207150E+02  0.90498207150E+02  0.00000000000E+00 0. -1.
         -1   -1    0    0    0  501 -0.00000000000E+00 -0.00000000000E+00 -0.11637212626E+03  0.11637212626E+03  0.00000000000E+00 0.  1.
         25    2    1    2    0    0 -0.65549890707E+01  0.25184545267E+02  0.99120652577E+01  0.12815165198E+03  0.12508943866E+03 0.  0.
          5    1    3    3  502    0 -0.69824352130E+01  0.57685551705E+02  0.49720198511E+02  0.76589475889E+02  0.41800000000E+01 0. -1.
         -5    1    3    3    0  502  0.42744614233E+00 -0.32501006438E+02 -0.39808133253E+02  0.51562176087E+02  0.41800000000E+01 0. -1.
        -11    1    1    2    0    0 -0.22102206288E+02 -0.28264960649E+02 -0.34640515718E+02  0.49873648879E+02  0.00000000000E+00 0.  1.
         11    1    1    2    0    0  0.28657195359E+02  0.30804153815E+01 -0.11454686516E+01  0.28845032557E+02  0.00000000000E+00 0. -1.
</event>
<event>
 7    1  0.2733606E-009  0.1436547E+03  0.7561462E-02  0.1208494E+00
          2   -1    0    0  501    0  0.00000000000E+00  0.00000000000E+00  0.28574637188E+02  0.28574637188E+02  0.00000000000E+00 0. -1.
         -2   -1    0    0    0  501 -0.00000000000E+00 -0.00000000000E+00 -0.10837456349E+04  0.10837456349E+04  0.00000000000E+00 0.  1.
         25    2    1    2    0    0 -0.26740174442E+02  0.12594605702E+03 -0.71572124350E+03  0.73788985239E+03  0.12508832744E+03 0.  0.
          5    1    3    3  502    0 -0.15672882532E+02  0.11025534777E+03 -0.27488865893E+03  0.29661950065E+03  0.41800000000E+01 0. -1.
         -5    1    3    3    0  502 -0.11067291910E+02  0.15690709241E+02 -0.44083258457E+03  0.44127035174E+03  0.41800000000E+01 0. -1.
        -11    1    1    2    0    0  0.49100821738E+02 -0.29650858029E+02 -0.15291938700E+03  0.16332300205E+03  0.00000000000E+00 0.  1.
         11    1    1    2    0    0 -0.22360647296E+02 -0.96295198987E+02 -0.18653036725E+03  0.21110741769E+03  0.00000000000E+00 0. -1.
</event>
<event>
 7    1  0.2733606E-009  0.9542303E+02  0.7561462E-02  0.1290226E+00
         -1   -1    0    0    0  501 -0.00000000000E+00  0.00000000000E+00  0.10115395202E+03  0.10115395202E+03  0.00000000000E+00 0.  1.
          1   -1    0    0  501    0  0.00000000000E+00 -0.00000000000E+00 -0.12936967471E+03  0.12936967471E+03  0.00000000000E+00 0. -1.
         25    2    1    2    0    0  0.15339560570E+02  0.69277997357E+01  0.15997876608E+02  0.12724362225E+03  0.12510679766E+03 0.  0.
          5    1    3    3  502    0 -0.38307563151E+02 -0.38097532059E+02 -0.38589205804E+01  0.54325454546E+02  0.41800000000E+01 0.  1.
         -5    1    3    3    0  502  0.53647123721E+02  0.45025331795E+02  0.19856797189E+02  0.72918167704E+02  0.41800000000E+01 0.  1.
        -11    1    1    2    0    0 -0.34187574324E+02  0.15212127238E+02 -0.59608156534E+02  0.70379907492E+02  0.00000000000E+00 0. -1.
         11    1    1    2    0    0  0.18848013754E+02 -0.22139926973E+02  0.15394557241E+02  0.32900096983E+02  0.00000000000E+00 0.  1.
</event>
<event>
 7    1  0.2733606E-009  0.1106669E+03  0.7561462E-02  0.1259340E+00
         -2   -1    0    0    0  501 -0.00000000000E+00  0.00000000000E+00  0.17862669303E+02  0.17862669303E+02  0.00000000000E+00 0.  1.
          2   -1    0    0  501    0  0.00000000000E+00 -0.00000000000E+00 -0.82032585785E+03  0.82032585785E+03  0.00000000000E+00 0. -1.
         25    2    1    2    0    0  0.31843062655E+02 -0.44752089602E+02 -0.44125120860E+03  0.46191604953E+03  0.12508827906E+03 0.  0.
          5    1    3    3  502    0 -0.43814781962E+02 -0.39201037572E+02 -0.22948534500E+03  0.23693343461E+03  0.41800000000E+01 0. -1.
         -5    1    3    3    0  502  0.75657844616E+02 -0.55510520302E+01 -0.21176586359E+03  0.22498261491E+03  0.41800000000E+01 0. -1.
        -11    1    1    2    0    0 -0.18981119186E+01  0.54799183591E+02 -0.31830631098E+03  0.32299452157E+03  0.00000000000E+00 0. -1.
         11    1    1    2    0    0 -0.29944950736E+02 -0.10047093990E+02 -0.42905668963E+02  0.53277956055E+02  0.00000000000E+00 0.  1.
</event>
<event>
 7    1  0.2733606E-009  0.2321292E+03  0.7561462E-02  0.1125150E+00
          1   -1    0    0  501    0  0.00000000000E+00  0.00000000000E+00  0.10111233422E+04  0.10111233422E+04  0.00000000000E+00 0. -1.
         -1   -1    0    0    0  501 -0.00000000000E+00 -0.00000000000E+00 -0.75431277356E+02  0.75431277356E+02  0.00000000000E+00 0.  1.
         25    2    1    2    0    0  0.29162876608E+02 -0.22045895315E+03  0.71723737354E+03  0.76126829140E+03  0.12508932041E+03 0.  0.
          5    1    3    3  502    0  0.31601888651E+01 -0.12491445740E+03  0.57156130916E+03  0.58507556007E+03  0.41800000000E+01 0. -1.
         -5    1    3    3    0  502  0.26002687743E+02 -0.95544495753E+02  0.14567606438E+03  0.17619273133E+03  0.41800000000E+01 0. -1.
        -11    1    1    2    0    0  0.26551876423E+02  0.13850709491E+03  0.11441071909E+03  0.18160129439E+03  0.00000000000E+00 0. -1.
         11    1    1    2    0    0 -0.55714753030E+02  0.81951858246E+02  0.10404397221E+03  0.14368503377E+03  0.00000000000E+00 0.  1.
</event>
<event>
 7    1  0.2733606E-009  0.1422904E+03  0.7561462E-02  0.1210280E+00
          2   -1    0    0  501    0  0.00000000000E+00  0.00000000000E+00  0.36145340443E+03  0.36145340443E+03  0.00000000000E+00 0.  1.
         -2   -1    0    0    0  501 -0.00000000000E+00 -0.00000000000E+00 -0.57277316110E+02  0.57277316110E+02  0.00000000000E+00 0. -1.
         25    2    1    2    0    0  0.25139846723E+02 -0.90817836975E+02  0.17754905749E+03  0.23675251127E+03  0.12509273509E+03 0.  0.
          5    1    3    3  502    0  0.65896769179E+02 -0.92901211172E+02  0.14470404441E+03  0.18420030427E+03  0.41800000000E+01 0.  1.
         -5    1    3    3    0  502 -0.40756922456E+02  0.20833741971E+01  0.32845013081E+02  0.52552206999E+02  0.41800000000E+01 0.  1.
        -11    1    1    2    0    0 -0.58628113223E+02  0.52580137545E+02  0.65136095464E+02  0.10219900908E+03  0.00000000000E+00 0. -1.
         11    1    1    2    0    0  0.33488266500E+02  0.38237699430E+02  0.61490935362E+02  0.79779200187E+02  0.00000000000E+00 0.  1.
</event>
<event>
 7    1  0.2733606E-009  0.1885974E+03  0.7561462E-02  0.1159733E+00
          2   -1    0    0  501    0  0.00000000000E+00  0.00000000000E+00  0.50557588826E+03  0.50557588826E+03  0.00000000000E+00 0. -1.
         -2   -1    0    0    0  501 -0.00000000000E+00 -0.00000000000E+00 -0.75651799732E+02  0.75651799732E+02  0.00000000000E+00 0.  1.
         25    2    1    2    0    0  0.42407001938E+02 -0.15899822404E+03  0.22953519042E+03  0.30888886484E+03  0.12508852112E+03 0.  0.
          5    1    3    3  502    0  0.61743598786E+02 -0.22901001447E+02  0.50305722672E+02  0.82975092600E+02  0.41800000000E+01 0. -1.
         -5    1    3    3    0  502 -0.19336596848E+02 -0.13609722260E+03  0.17922946775E+03  0.22591377224E+03  0.41800000000E+01 0. -1.
        -11    1    1    2    0    0 -0.52629660943E+02  0.15306666270E+03  0.15032985423E+03  0.22090348462E+03  0.00000000000E+00 0. -1.
         11    1    1    2    0    0  0.10222659005E+02  0.59315613404E+01  0.50059043873E+02  0.51435338538E+02  0.00000000000E+00 0.  1.
</event>
<event>
 7    1  0.2733606E-009  0.1996829E+03  0.7561462E-02  0.1150007E+00
          1   -1    0    0  501    0  0.00000000000E+00  0.00000000000E+00  0.33742629839E+03  0.33742629839E+03  0.00000000000E+00 0. -1.
         -1   -1    0    0    0  501 -0.00000000000E+00 -0.00000000000E+00 -0.12028834905E+03  0.12028834905E+03  0.00000000000E+00 0.  1.
         25    2    1    2    0    0 -0.13716640540E+03  0.99496455063E+02  0.10942825426E+03  0.23735272996E+03  0.12509040030E+03 0.  0.
          5    1    3    3  502    0  0.49328669701E+01  0.63694650077E+02  0.33556958608E+02  0.72283355594E+02  0.41800000000E+01 0.  1.
         -5    1    3    3    0  502 -0.14209927237E+03  0.35801804986E+02  0.75871295654E+02  0.16506937436E+03  0.41800000000E+01 0.  1.
        -11    1    1    2    0    0  0.14860011778E+03 -0.95454595485E+02  0.88262242819E+02  0.19744315210E+03  0.00000000000E+00 0.  1.
         11    1    1    2    0    0 -0.11433712385E+02 -0.40418595773E+01  0.19447452258E+02  0.22918765392E+02  0.00000000000E+00 0. -1.
</event>
<event>
 7    1  0.2733606E-009  0.2531143E+03  0.7561462E-02  0.1111352E+00
          1   -1    0    0  501    0  0.00000000000E+00  0.00000000000E+00  0.10121405598E+03  0.10121405598E+03  0.00000000000E+00 0. -1.
         -1   -1    0    0    0  501 -0.00000000000E+00 -0.00000000000E+00 -0.67821031130E+03  0.67821031130E+03  0.00000000000E+00 0.  1.
         25    2    1    2    0    0  0.61444296632E+02 -0.22932369756E+03 -0.28259035917E+03  0.38970460334E+03  0.12509039499E+03 0.  0.
          5    1    3    3  502    0  0.82442971343E+02 -0.10118782476E+03 -0.94854322507E+02  0.16140208890E+03  0.41800000000E+01 0. -1.
         -5    1    3    3    0  502 -0.20998674711E+02 -0.12813587279E+03 -0.18773603667E+03  0.22830251444E+03  0.41800000000E+01 0. -1.
        -11    1    1    2    0    0  0.73733528414E+01  0.90334159523E+02 -0.60159507615E+02  0.10878323890E+03  0.00000000000E+00 0. -1.
         11    1    1    2    0    0 -0.68817649473E+02  0.13898953804E+03 -0.23424638853E+03  0.28093652504E+03  0.00000000000E+00 0.  1.
</event>
<event>
 7    1  0.2733606E-009  0.1498055E+03  0.7561462E-02  0.1200712E+00
         -2   -1    0    0    0  501 -0.00000000000E+00  0.00000000000E+00  0.53861440537E+02  0.53861440537E+02  0.00000000000E+00 0.  1.
          2   -1    0    0  501    0  0.00000000000E+00 -0.00000000000E+00 -0.57150724771E+03  0.57150724771E+03  0.00000000000E+00 0. -1.
         25    2    1    2    0    0  0.30694391419E+02 -0.12073947559E+03 -0.17684372270E+03  0.24988317180E+03  0.12509088960E+03 0.  0.
          5    1    3    3  502    0 -0.58373502249E+01 -0.12176038238E+03 -0.78917046847E+02  0.14527573114E+03  0.41800000000E+01 0.  1.
         -5    1    3    3    0  502  0.36531741644E+02  0.10209067889E+01 -0.97926675855E+02  0.10460744066E+03  0.41800000000E+01 0.  1.
        -11    1    1    2    0    0 -0.37727785856E+02  0.25917060622E+02 -0.20278350971E+03  0.20788514056E+03  0.00000000000E+00 0.  1.
         11    1    1    2    0    0  0.70333944370E+01  0.94822414966E+02 -0.13801857476E+03  0.16760037588E+03  0.00000000000E+00 0. -1.
</event>
<event>
 7    1  0.2733606E-009  0.2693846E+03  0.7561462E-02  0.1101632E+00
          2   -1    0    0  501    0  0.00000000000E+00  0.00000000000E+00  0.13933331910E+04  0.13933331910E+04  0.00000000000E+00 0. -1.
         -2   -1    0    0    0  501 -0.00000000000E+00 -0.00000000000E+00 -0.57775030679E+02  0.57775030679E+02  0.00000000000E+00 0.  1.
         25    2    1    2    0    0 -0.20630029461E+03 -0.14835606312E+03  0.52066211712E+03  0.59271048316E+03  0.12508934253E+03 0.  0.
          5    1    3    3  502    0 -0.67040396141E+02  0.11505350985E+02  0.92272980624E+02  0.11471078053E+03  0.41800000000E+01 0. -1.
         -5    1    3    3    0  502 -0.13925989847E+03 -0.15986141410E+03  0.42838913650E+03  0.47799970263E+03  0.41800000000E+01 0. -1.
        -11    1    1    2    0    0  0.41416593401E+02  0.83247229334E+01  0.24912455518E+03  0.25268098309E+03  0.00000000000E+00 0.  1.
         11    1    1    2    0    0  0.16488370121E+03  0.14003134019E+03  0.56577148800E+03  0.60571675542E+03  0.00000000000E+00 0. -1.
</event>
<event>
 7    1  0.2733606E-009  0.6966292E+02  0.7561462E-02  0.1361243E+00
         -1   -1    0    0    0  501 -0.00000000000E+00  0.00000000000E+00  0.42185017084E+03  0.42185017084E+03  0.00000000000E+00 0.  1.
          1   -1    0    0  501    0  0.00000000000E+00 -0.00000000000E+00 -0.36426649748E+02  0.36426649748E+02  0.00000000000E+00 0. -1.
         25    2    1    2    0    0  0.93380855805E+01 -0.20633781226E+02  0.31990418165E+03  0.34423723972E+03  0.12509052323E+03 0.  0.
          5    1    3    3  502    0  0.39004601861E+02 -0.10563367562E+02  0.30767757715E+03  0.31034804266E+03  0.41800000000E+01 0.  1.
         -5    1    3    3    0  502 -0.29666516280E+02 -0.10070413664E+02  0.12226604493E+02  0.33889197055E+02  0.41800000000E+01 0.  1.
        -11    1    1    2    0    0 -0.11396021129E+02 -0.21805908480E+02 -0.10658236300E+02  0.26813521649E+02  0.00000000000E+00 0. -1.
         11    1    1    2    0    0  0.20579355485E+01  0.42439689706E+02  0.76177575748E+02  0.87226059225E+02  0.00000000000E+00 0.  1.
</event>
<event>
 7    1  0.2733606E-009  0.5758978E+02  0.7561462E-02  0.1408234E+00
         -2   -1    0    0    0  501 -0.00000000000E+00  0.00000000000E+00  0.63232128893E+02  0.63232128893E+02  0.00000000000E+00 0.  1.
          2   -1    0    0  501    0  0.00000000000E+00 -0.00000000000E+00 -0.19525688501E+03  0.19525688501E+03  0.00000000000E+00 0. -1.
         25    2    1    2    0    0 -0.93834384633E+00  0.31443406851E+02 -0.59925833631E+02  0.14222517374E+03  0.12508927287E+03 0.  0.
          5    1    3    3  502    0 -0.34488703056E+02  0.76144793355E+01  0.27862622933E+02  0.45180184713E+02  0.41800000000E+01 0. -1.
         -5    1    3    3    0  502  0.33550359209E+02  0.23828927515E+02 -0.87788456564E+02  0.97044989029E+02  0.41800000000E+01 0. -1.
        -11    1    1    2    0    0 -0.10298263314E+02 -0.12186886447E+02  0.17646687019E+02  0.23790333989E+02  0.00000000000E+00 0.  1.
         11    1    1    2    0    0  0.11236607160E+02 -0.19256520403E+02 -0.89745609502E+02  0.92473506170E+02  0.00000000000E+00 0. -1.
</event>
<event>
 7    1  0.2733606E-009  0.8711786E+02  0.7561462E-02  0.1309985E+00
         -2   -1    0    0    0  501 -0.00000000000E+00  0.00000000000E+00  0.20179792598E+03  0.20179792598E+03  0.00000000000E+00 0.  1.
          2   -1    0    0  501    0  0.00000000000E+00 -0.00000000000E+00 -0.93311043297E+02  0.93311043297E+02  0.00000000000E+00 0. -1.
         25    2    1    2    0    0  0.35802445170E+02 -0.15869843828E+02  0.13889473744E+03  0.19097927366E+03  0.12509063856E+03 0.  0.
          5    1    3    3  502    0  0.49651297564E+02  0.19682485311E+02  0.14268386321E+03  0.15241000229E+03  0.41800000000E+01 0. -1.
         -5    1    3    3    0  502 -0.13848852394E+02 -0.35552329139E+02 -0.37891257703E+01  0.38569271369E+02  0.41800000000E+01 0. -1.
        -11    1    1    2    0    0 -0.15013737954E+02 -0.29095662388E+02 -0.41999122747E+02  0.53253133323E+02  0.00000000000E+00 0. -1.
         11    1    1    2    0    0 -0.20788707216E+02  0.44965506216E+02  0.11591267986E+02  0.50876562290E+02  0.00000000000E+00 0.  1.
</event>
<event>
 7    1  0.2733606E-009  0.1247420E+03  0.7561462E-02  0.1235473E+00
         -1   -1    0    0    0  501 -0.00000000000E+00  0.00000000000E+00  0.33514014747E+03  0.33514014747E+03  0.00000000000E+00 0.  1.
          1   -1    0    0  501    0  0.00000000000E+00 -0.00000000000E+00 -0.55582426041E+02  0.55582426041E+02  0.00000000000E+00 0. -1.
         25    2    1    2    0    0  0.77282788475E+02 -0.23531882059E+02  0.15371021988E+03  0.21401070506E+03  0.12508945325E+03 0.  0.
          5    1    3    3  502    0  0.14340517191E+02 -0.59298206077E+02  0.11861378598E+03  0.13344898014E+03  0.41800000000E+01 0.  1.
         -5    1    3    3    0  502  0.62942271284E+02  0.35766324018E+02  0.35096433903E+02  0.80561724912E+02  0.41800000000E+01 0.  1.
        -11    1    1    2    0    0 -0.84136768312E+02  0.43492903607E+02  0.12326334873E+03  0.15544928944E+03  0.00000000000E+00 0.  1.
         11    1    1    2    0    0  0.68539798375E+01 -0.19961021548E+02  0.25841528187E+01  0.21262579021E+02  0.00000000000E+00 0. -1.
</event>
<event>
 7    1  0.2733606E-009  0.1405745E+03  0.7561462E-02  0.1212558E+00
         -2   -1    0    0    0  501 -0.00000000000E+00  0.00000000000E+00  0.24209956522E+02  0.24209956522E+02  0.00000000000E+00 0.  1.
          2   -1    0    0  501    0  0.00000000000E+00 -0.00000000000E+00 -0.17766260078E+04  0.17766260078E+04  0.00000000000E+00 0. -1.
         25    2    1    2    0    0  0.11210803815E+03 -0.18292015978E+01 -0.15098594561E+04  0.15191757247E+04  0.12509095512E+03 0.  0.
          5    1    3    3  502    0  0.95096246659E+02 -0.50134257635E+02 -0.12253285443E+04  0.12300423789E+04  0.41800000000E+01 0. -1.
         -5    1    3    3    0  502  0.17011791486E+02  0.48305056037E+02 -0.28453091183E+03  0.28913334583E+03  0.41800000000E+01 0. -1.
        -11    1    1    2    0    0 -0.75400800798E+02 -0.21846502349E+02 -0.75241618149E+02  0.10873753504E+03  0.00000000000E+00 0.  1.
         11    1    1    2    0    0 -0.36707237348E+02  0.23675703947E+02 -0.16731497701E+03  0.17292270459E+03  0.00000000000E+00 0. -1.
</event>
<event>
 7    1  0.2733606E-009  0.1422982E+03  0.7561462E-02  0.1210270E+00
         -2   -1    0    0    0  501 -0.00000000000E+00  0.00000000000E+00  0.21368677117E+02  0.21368677117E+02  0.00000000000E+00 0.  1.
          2   -1    0    0  501    0  0.00000000000E+00 -0.00000000000E+00 -0.10299231870E+04  0.10299231870E+04  0.00000000000E+00 0. -1.
         25    2    1    2    0    0  0.66922901477E+02  0.65611533322E+02 -0.41772525426E+03  0.44600807915E+03  0.12508105601E+03 0.  0.
          5    1    3    3  502    0  0.11712002538E+02  0.91834146464E+02 -0.21237716538E+03  0.23171580489E+03  0.41800000000E+01 0.  1.
         -5    1    3    3    0  502  0.55210898939E+02 -0.26222613142E+02 -0.20534808888E+03  0.21429227426E+03  0.41800000000E+01 0.  1.
        -11    1    1    2    0    0 -0.86043170495E+00 -0.64583372674E+02 -0.32603634745E+03  0.33237246009E+03  0.00000000000E+00 0. -1.
         11    1    1    2    0    0 -0.66062469773E+02 -0.10281606479E+01 -0.26479290818E+03  0.27291132488E+03  0.00000000000E+00 0.  1.
</event>
<event>
 7    1  0.2733606E-009  0.1334313E+03  0.7561462E-02  0.1222451E+00
         -1   -1    0    0    0  501 -0.00000000000E+00  0.00000000000E+00  0.19843267043E+03  0.19843267043E+03  0.00000000000E+00 0.  1.
          1   -1    0    0  501    0  0.00000000000E+00 -0.00000000000E+00 -0.12252731105E+03  0.12252731105E+03  0.00000000000E+00 0. -1.
         25    2    1    2    0    0 -0.73917800876E+02 -0.83803692730E+02  0.67346683178E+02  0.18074820874E+03  0.12508972390E+03 0.  0.
          5    1    3    3  502    0 -0.10806584088E+01 -0.43438141189E+02  0.84969832695E+02  0.95526879991E+02  0.41800000000E+01 0. -1.
         -5    1    3    3    0  502 -0.72837142467E+02 -0.40365551541E+02 -0.17623149517E+02  0.85221328744E+02  0.41800000000E+01 0. -1.
        -11    1    1    2    0    0  0.24004042495E+02  0.86574435472E+02  0.82693170173E+01  0.90220333281E+02  0.00000000000E+00 0.  1.
         11    1    1    2    0    0  0.49913758382E+02 -0.27707427425E+01  0.28935919240E+00  0.49991439466E+02  0.00000000000E+00 0. -1.
</event>
<event>
 7    1  0.2733606E-009  0.1241920E+03  0.7561462E-02  0.1236337E+00
          1   -1    0    0  501    0  0.00000000000E+00  0.00000000000E+00  0.16049590592E+03  0.16049590592E+03  0.00000000000E+00 0. -1.
         -1   -1    0    0    0  501 -0.00000000000E+00 -0.00000000000E+00 -0.16713909522E+03  0.16713909522E+03  0.00000000000E+00 0.  1.
         25    2    1    2    0    0 -0.99679089924E+02 -0.35380066284E+02 -0.64873553126E+02  0.17619125730E+03  0.12508841351E+03 0.  0.
          5    1    3    3  502    0 -0.50424779620E+02  0.64535489525E+01 -0.92622641556E+02  0.10573898440E+03  0.41800000000E+01 0.  1.
         -5    1    3    3    0  502 -0.49254310304E+02 -0.41833615237E+02  0.27749088430E+02  0.70452272895E+02  0.41800000000E+01 0.  1.
        -11    1    1    2    0    0 -0.11404705510E+02  0.16322942666E+02 -0.71372033020E+01  0.21152906089E+02  0.00000000000E+00 0. -1.
         11    1    1    2    0    0  0.11108379543E+03  0.19057123618E+02  0.65367567136E+02  0.13029083775E+03  0.00000000000E+00 0.  1.
</event>
<event>
 7    1  0.2733606E-009  0.1098829E+03  0.7561462E-02  0.1260787E+00
          1   -1    0    0  501    0  0.00000000000E+00  0.00000000000E+00  0.71814507913E+02  0.71814507913E+02  0.00000000000E+00 0. -1.
         -1   -1    0    0    0  501 -0.00000000000E+00 -0.00000000000E+00 -0.29236160416E+03  0.29236160416E+03  0.00000000000E+00 0.  1.
         25    2    1    2    0    0  0.80180455793E+02 -0.52526269732E+02 -0.95902144590E+02  0.18447848756E+03  0.12508867468E+03 0.  0.
          5    1    3    3  502    0  0.55673996937E+02 -0.43423646963E+02 -0.12593792935E+03  0.14444044274E+03  0.41800000000E+01 0.  1.
         -5    1    3    3    0  502  0.24506458855E+02 -0.91026227686E+01  0.30035784760E+02  0.40038044820E+02  0.41800000000E+01 0.  1.
        -11    1    1    2    0    0  0.14714737322E+02  0.13451357001E+02 -0.23908757330E+01  0.20079312398E+02  0.00000000000E+00 0. -1.
         11    1    1    2    0    0 -0.94895193115E+02  0.39074912731E+02 -0.12225407592E+03  0.15961831211E+03  0.00000000000E+00 0.  1.
</event>
<event>
 7    1  0.2733606E-009  0.1004294E+03  0.7561462E-02  0.1279396E+00
         -1   -1    0    0    0  501 -0.00000000000E+00  0.00000000000E+00  0.23225725487E+03  0.23225725487E+03  0.00000000000E+00 0.  1.
          1   -1    0    0  501    0  0.00000000000E+00 -0.00000000000E+00 -0.84858922275E+02  0.84858922275E+02  0.00000000000E+00 0. -1.
         25    2    1    2    0    0 -0.58737322012E+02 -0.18306238883E+02  0.15479272419E+03  0.20830997617E+03  0.12508823817E+03 0.  0.
          5    1    3    3  502    0 -0.78120745322E+02  0.14942662331E+02  0.44095216868E+02  0.91038423525E+02  0.41800000000E+01 0.  1.
         -5    1    3    3    0  502  0.19383423311E+02 -0.33248901214E+02  0.11069750732E+03  0.11727155264E+03  0.41800000000E+01 0.  1.
        -11    1    1    2    0    0 -0.10259607269E+02 -0.22535769121E+01 -0.31244953308E+02  0.32963392687E+02  0.00000000000E+00 0. -1.
         11    1    1    2    0    0  0.68996929281E+02  0.20559815795E+02  0.23850561711E+02  0.75842808292E+02  0.00000000000E+00 0.  1.
</event>
<event>
 7    1  0.2733606E-009  0.2011412E+03  0.7561462E-02  0.1148780E+00
         -1   -1    0    0    0  501 -0.00000000000E+00  0.00000000000E+00  0.64341337713E+03  0.64341337713E+03  0.00000000000E+00 0.  1.
          1   -1    0    0  501    0  0.00000000000E+00 -0.00000000000E+00 -0.64556821317E+02  0.64556821317E+02  0.00000000000E+00 0. -1.
         25    2    1    2    0    0 -0.16210022072E+03  0.55064778429E+02  0.29468682921E+03  0.36303644397E+03  0.12508605422E+03 0.  0.
          5    1    3    3  502    0 -0.18023055443E+03  0.45920115860E+02  0.28452904346E+03  0.33994993567E+03  0.41800000000E+01 0.  1.
         -5    1    3    3    0  502  0.18130333713E+02  0.91446625693E+01  0.10157785749E+02  0.23086508298E+02  0.41800000000E+01 0.  1.
        -11    1    1    2    0    0  0.70556653702E+02  0.24028540986E+02  0.10902948699E+03  0.13207210605E+03  0.00000000000E+00 0. -1.
         11    1    1    2    0    0  0.91543567018E+02 -0.79093319415E+02  0.17514023962E+03  0.21286164843E+03  0.00000000000E+00 0.  1.
</event>
<event>
 7    1  0.2733606E-009  0.1105227E+03  0.7561462E-02  0.1259605E+00
         -1   -1    0    0    0  501 -0.00000000000E+00  0.00000000000E+00  0.47209142213E+02  0.47209142213E+02  0.00000000000E+00 0.  1.
          1   -1    0    0  501    0  0.00000000000E+00 -0.00000000000E+00 -0.46498908452E+03  0.46498908452E+03  0.00000000000E+00 0. -1.
         25    2    1    2    0    0  0.40718637233E+02 -0.10165117967E+02 -0.38213108706E+03  0.40426858240E+03  0.12509029529E+03 0.  0.
          5    1    3    3  502    0  0.55421632268E+02  0.39084529952E+02 -0.29753457940E+03  0.30519412862E+03  0.41800000000E+01 0.  1.
         -5    1    3    3    0  502 -0.14702995035E+02 -0.49249647920E+02 -0.84596507658E+02  0.99074453777E+02  0.41800000000E+01 0.  1.
        -11    1    1    2    0    0  0.30142979623E+02  0.39006645964E+01 -0.14757065770E+02  0.33787355549E+02  0.00000000000E+00 0.  1.
         11    1    1    2    0    0 -0.70861616856E+02  0.62644533709E+01 -0.20891789481E+02  0.74142288791E+02  0.00000000000E+00 0. -1.
</event>
<event>
 7    1  0.2733606E-009  0.1247128E+03  0.7561462E-02  0.1235519E+00
          3   -1    0    0  501    0  0.00000000000E+00  0.00000000000E+00  0.28418231462E+03  0.28418231462E+03  0.00000000000E+00 0. -1.
         -3   -1    0    0    0  501 -0.00000000000E+00 -0.00000000000E+00 -0.59303108808E+02  0.59303108808E+02  0.00000000000E+00 0.  1.
         25    2    1    2    0    0 -0.45715678035E+02 -0.50296291968E+02  0.14945847260E+03  0.20640959513E+03  0.12508975069E+03 0.  0.
          5    1    3    3  502    0  0.25831331184E+02 -0.59410773232E+02  0.43426036150E+02  0.78103717341E+02  0.41800000000E+01 0. -1.
         -5    1    3    3    0  502 -0.71547009219E+02  0.91144812641E+01  0.10603243645E+03  0.12830587779E+03  0.41800000000E+01 0. -1.
        -11    1    1    2    0    0  0.68589555251E+02  0.56159583447E+02  0.69730815164E+02  0.11278657937E+03  0.00000000000E+00 0. -1.
         11    1    1    2    0    0 -0.22873877216E+02 -0.58632914786E+01  0.56899180472E+01  0.24289248923E+02  0.00000000000E+00 0.  1.
</event>
<event>
 7    1  0.2733606E-009  0.1781986E+03  0.7561462E-02  0.1169558E+00
          1   -1    0    0  501    0  0.00000000000E+00  0.00000000000E+00  0.19362274715E+03  0.19362274715E+03  0.00000000000E+00 0. -1.
         -1   -1    0    0    0  501 -0.00000000000E+00 -0.00000000000E+00 -0.21705060373E+03  0.21705060373E+03  0.00000000000E+00 0.  1.
         25    2    1    2    0    0  0.14919399734E+03 -0.71678159816E+02  0.39799218131E+02  0.21125422029E+03  0.12509100844E+03 0.  0.
          5    1    3    3  502    0  0.12472601017E+03 -0.44142728925E+02  0.81505193997E+02  0.15545329581E+03  0.41800000000E+01 0.  1.
         -5    1    3    3    0  502  0.24467987171E+02 -0.27535430890E+02 -0.41705975865E+02  0.55800924485E+02  0.41800000000E+01 0.  1.
        -11    1    1    2    0    0 -0.11145211039E+03  0.91609713416E+02 -0.61127517639E+02  0.15668594677E+03  0.00000000000E+00 0.  1.
         11    1    1    2    0    0 -0.37741886949E+02 -0.19931553600E+02 -0.20995570785E+01  0.42733183819E+02  0.00000000000E+00 0. -1.
</event>
<event>
 7    1  0.2733606E-009  0.1635983E+03  0.7561462E-02  0.1184693E+00
         -2   -1    0    0    0  501 -0.00000000000E+00  0.00000000000E+00  0.32859013084E+03  0.32859013084E+03  0.00000000000E+00 0.  1.
          2   -1    0    0  501    0  0.00000000000E+00 -0.00000000000E+00 -0.11674367936E+03  0.11674367936E+03  0.00000000000E+00 0. -1.
         25    2    1    2    0    0 -0.81808031103E+02 -0.10350489951E+03  0.34233897328E+01  0.18184467207E+03  0.12509974815E+03 0.  0.
          5    1    3    3  502    0 -0.45718822566E+02  0.11791358781E+02 -0.30408172922E+02  0.56314973667E+02  0.41800000000E+01 0. -1.
         -5    1    3    3    0  502 -0.36089208537E+02 -0.11529625829E+03  0.33831562655E+02  0.12552969840E+03  0.41800000000E+01 0. -1.
        -11    1    1    2    0    0  0.88018654239E+02  0.11561236946E+03  0.20090120060E+03  0.24794111372E+03  0.00000000000E+00 0.  1.
         11    1    1    2    0    0 -0.62106231368E+01 -0.12107469951E+02  0.75218611403E+01  0.15548024420E+02  0.00000000000E+00 0. -1.
</event>
<event>
 7    1  0.2733606E-009  0.1048768E+03  0.7561462E-02  0.1270362E+00
          1   -1    0    0  501    0  0.00000000000E+00  0.00000000000E+00  0.56022255513E+03  0.56022255513E+03  0.00000000000E+00 0. -1.
         -1   -1    0    0    0  501 -0.00000000000E+00 -0.00000000000E+00 -0.23377079777E+02  0.23377079777E+02  0.00000000000E+00 0.  1.
         25    2    1    2    0    0  0.42534465928E+01  0.33351168076E+02  0.33457786693E+03  0.35877752983E+03  0.12509426306E+03 0.  0.
          5    1    3    3  502    0 -0.46634193623E+02  0.48816841163E+02  0.12085200947E+03  0.13849372761E+03  0.41800000000E+01 0.  1.
         -5    1    3    3    0  502  0.50887640215E+02 -0.15465673087E+02  0.21372585746E+03  0.22028380222E+03  0.41800000000E+01 0.  1.
        -11    1    1    2    0    0  0.19229327175E+01 -0.60697337609E+02  0.86372913678E+02  0.10558477485E+03  0.00000000000E+00 0.  1.
         11    1    1    2    0    0 -0.61763793103E+01  0.27346169533E+02  0.11589469474E+03  0.11923733023E+03  0.00000000000E+00 0. -1.
</event>
<event>
 7    1  0.2733606E-009  0.8288667E+02  0.7561462E-02  0.1321053E+00
          1   -1    0    0  501    0  0.00000000000E+00  0.00000000000E+00  0.43129714627E+02  0.43129714627E+02  0.00000000000E+00 0. -1.
         -1   -1    0    0    0  501 -0.00000000000E+00 -0.00000000000E+00 -0.36376143953E+03  0.36376143953E+03  0.00000000000E+00 0.  1.
         25    2    1    2    0    0  0.35082057413E+02 -0.11378567873E+02 -0.26212224685E+03  0.29277275143E+03  0.12509032389E+03 0.  0.
          5    1    3    3  502    0  0.66119722558E+02  0.85279485337E+00 -0.24731202507E+03  0.25603369917E+03  0.41800000000E+01 0. -1.
         -5    1    3    3    0  502 -0.31037665145E+02 -0.12231362727E+02 -0.14810221783E+02  0.36739052261E+02  0.41800000000E+01 0. -1.
        -11    1    1    2    0    0 -0.47826601794E+02  0.18517992110E+02 -0.75776718187E+02  0.91500879177E+02  0.00000000000E+00 0.  1.
         11    1    1    2    0    0  0.12744544381E+02 -0.71394242366E+01  0.17267240127E+02  0.22617523550E+02  0.00000000000E+00 0. -1.
</event>
<event>
 7    1  0.2733606E-009  0.1230160E+03  0.7561462E-02  0.1238203E+00
          2   -1    0    0  501    0  0.00000000000E+00  0.00000000000E+00  0.63578946157E+03  0.63578946157E+03  0.00000000000E+00 0. -1.
         -2   -1    0    0    0  501 -0.00000000000E+00 -0.00000000000E+00 -0.70835961478E+02  0.70835961478E+02  0.00000000000E+00 0.  1.
         25    2    1    2    0    0 -0.97646953815E+02  0.25578907797E+02  0.41826929170E+02  0.16608905212E+03  0.12508746187E+03 0.  0.
          5    1    3    3  502    0 -0.94757937043E+02  0.35651984047E+02 -0.19963551836E+02  0.10327703714E+03  0.41800000000E+01 0.  1.
         -5    1    3    3    0  502 -0.28890167718E+01 -0.10073076250E+02  0.61790481006E+02  0.62812014981E+02  0.41800000000E+01 0.  1.
        -11    1    1    2    0    0  0.13333613758E+02  0.29731354542E+02  0.86929619510E+02  0.92835862935E+02  0.00000000000E+00 0. -1.
         11    1    1    2    0    0  0.84313340056E+02 -0.55310262340E+02  0.43619695141E+03  0.44770050799E+03  0.00000000000E+00 0.  1.
</event>
<event>
 7    1  0.2733606E-009  0.1079899E+03  0.7561462E-02  0.1264338E+00
         -4   -1    0    0    0  501 -0.00000000000E+00  0.00000000000E+00  0.44200279825E+03  0.44200279825E+03  0.00000000000E+00 0.  1.
          4   -1    0    0  501    0  0.00000000000E+00 -0.00000000000E+00 -0.48511045693E+02  0.48511045693E+02  0.00000000000E+00 0. -1.
         25    2    1    2    0    0  0.84321339143E+02 -0.46169038237E+02  0.17984091573E+03  0.23923045962E+03  0.12508712769E+03 0.  0.
          5    1    3    3  502    0  0.71443661786E+02 -0.30055091789E+02  0.19721409044E+03  0.21193955558E+03  0.41800000000E+01 0. -1.
         -5    1    3    3    0  502  0.12877677357E+02 -0.16113946448E+02 -0.17373174706E+02  0.27290904045E+02  0.41800000000E+01 0. -1.
        -11    1    1    2    0    0 -0.69721509130E+02  0.87887655707E+00  0.65457507191E+02  0.95637578948E+02  0.00000000000E+00 0. -1.
         11    1    1    2    0    0 -0.14599830013E+02  0.45290161680E+02  0.14819332963E+03  0.15564580537E+03  0.00000000000E+00 0.  1.
</event>
<event>
 7    1  0.2733606E-009  0.8513229E+02  0.7561462E-02  0.1315087E+00
         -2   -1    0    0    0  501 -0.00000000000E+00  0.00000000000E+00  0.21903605679E+03  0.21903605679E+03  0.00000000000E+00 0.  1.
          2   -1    0    0  501    0  0.00000000000E+00 -0.00000000000E+00 -0.55588628265E+02  0.55588628265E+02  0.00000000000E+00 0. -1.
         25    2    1    2    0    0 -0.17960642633E+02 -0.43682377021E+01  0.96084178707E+02  0.15881169103E+03  0.12508923865E+03 0.  0.
          5    1    3    3  502    0 -0.44675624854E+02  0.10847502880E+02  0.11399399718E+03  0.12298651783E+03  0.41800000000E+01 0. -1.
         -5    1    3    3    0  502  0.26714982221E+02 -0.15215740583E+02 -0.17909818477E+02  0.35825173195E+02  0.41800000000E+01 0. -1.
        -11    1    1    2    0    0  0.10364097531E+02  0.47836874440E+02  0.44323036888E+02  0.66032663681E+02  0.00000000000E+00 0.  1.
         11    1    1    2    0    0  0.75965451021E+01 -0.43468636738E+02  0.23040212929E+02  0.49780330344E+02  0.00000000000E+00 0. -1.
</event>
<event>
 7    1  0.2733606E-009  0.1093877E+03  0.7561462E-02  0.1261708E+00
          1   -1    0    0  501    0  0.00000000000E+00  0.00000000000E+00  0.13783165201E+03  0.13783165201E+03  0.00000000000E+00 0. -1.
         -1   -1    0    0    0  501 -0.00000000000E+00 -0.00000000000E+00 -0.89931938100E+02  0.89931938100E+02  0.00000000000E+00 0.  1.
         25    2    1    2    0    0 -0.10331288421E+02 -0.21090877284E+02  0.13449719354E+02  0.12798598453E+03  0.12509179294E+03 0.  0.
          5    1    3    3  502    0 -0.65830431919E+02 -0.22408615923E+02  0.18515954880E+02  0.72084012232E+02  0.41800000000E+01 0.  1.
         -5    1    3    3    0  502  0.55499143499E+02  0.13177386394E+01 -0.50662355266E+01  0.55901972296E+02  0.41800000000E+01 0.  1.
        -11    1    1    2    0    0 -0.36842243890E+01 -0.35218491943E+02  0.16264686047E+02  0.38967367069E+02  0.00000000000E+00 0. -1.
         11    1    1    2    0    0  0.14015512810E+02  0.56309369227E+02  0.18185308505E+02  0.60810238509E+02  0.00000000000E+00 0.  1.
</event>
<event>
 7    1  0.2733606E-009  0.1072939E+03  0.7561462E-02  0.1265665E+00
         -1   -1    0    0    0  501 -0.00000000000E+00  0.00000000000E+00  0.64265631668E+02  0.64265631668E+02  0.00000000000E+00 0.  1.
          1   -1    0    0  501    0  0.00000000000E+00 -0.00000000000E+00 -0.30740794582E+03  0.30740794582E+03  0.00000000000E+00 0. -1.
         25    2    1    2    0    0  0.60052835217E+02 -0.52131066041E+02 -0.80057429701E+02  0.16847917041E+03  0.12510814421E+03 0.  0.
          5    1    3    3  502    0  0.71215340776E+02 -0.68206427021E+02 -0.14280576673E+02  0.99725366477E+02  0.41800000000E+01 0. -1.
         -5    1    3    3    0  502 -0.11162505559E+02  0.16075360980E+02 -0.65776853028E+02  0.68753803933E+02  0.41800000000E+01 0. -1.
        -11    1    1    2    0    0 -0.33454847391E+02  0.59515477916E+02 -0.16173783416E+03  0.17555752882E+03  0.00000000000E+00 0. -1.
         11    1    1    2    0    0 -0.26597987826E+02 -0.73844118746E+01 -0.13470502821E+01  0.27636878253E+02  0.00000000000E+00 0.  1.
</event>
<event>
 7    1  0.2733606E-009  0.1199753E+03  0.7561462E-02  0.1243138E+00
         -2   -1    0    0    0  501 -0.00000000000E+00  0.00000000000E+00  0.15045887569E+02  0.15045887569E+02  0.00000000000E+00 0.  1.
          2   -1    0    0  501    0  0.00000000000E+00 -0.00000000000E+00 -0.11110494574E+04  0.11110494574E+04  0.00000000000E+00 0. -1.
         25    2    1    2    0    0  0.42566747622E+02  0.54227340445E+02 -0.58491202039E+03  0.60209785793E+03  0.12508887430E+03 0.  0.
          5    1    3    3  502    0 -0.38380200769E+02  0.77580304969E+01 -0.29206574997E+03  0.29470850268E+03  0.41800000000E+01 0.  1.
         -5    1    3    3    0  502  0.80946948391E+02  0.46469309948E+02 -0.29284627042E+03  0.30738935525E+03  0.41800000000E+01 0.  1.
        -11    1    1    2    0    0 -0.84473939128E+01 -0.69319825643E+02 -0.41651066370E+03  0.42232419972E+03  0.00000000000E+00 0. -1.
         11    1    1    2    0    0 -0.34119353710E+02  0.15092485198E+02 -0.94580885746E+02  0.10167328733E+03  0.00000000000E+00 0.  1.
</event>
<event>
 7    1  0.2733606E-009  0.8820538E+02  0.7561462E-02  0.1307257E+00
         -3   -1    0    0    0  501 -0.00000000000E+00  0.00000000000E+00  0.17872084398E+03  0.17872084398E+03  0.00000000000E+00 0.  1.
          3   -1    0    0  501    0  0.00000000000E+00 -0.00000000000E+00 -0.54851320785E+02  0.54851320785E+02  0.00000000000E+00 0. -1.
         25    2    1    2    0    0  0.56747848585E+01  0.56051618354E+01  0.63259837949E+02  0.14040436265E+03  0.12509179403E+03 0.  0.
          5    1    3    3  502    0 -0.45253837351E+02 -0.32822963358E+02  0.94781451936E+01  0.56855644881E+02  0.41800000000E+01 0.  1.
         -5    1    3    3    0  502  0.50928622209E+02  0.38428125193E+02  0.53781692756E+02  0.83548717774E+02  0.41800000000E+01 0.  1.
        -11    1    1    2    0    0 -0.20631700901E+02 -0.24684141417E+02  0.60953556323E+02  0.68922492323E+02  0.00000000000E+00 0.  1.
         11    1    1    2    0    0  0.14956916043E+02  0.19078979581E+02 -0.34387107611E+00  0.24245309788E+02  0.00000000000E+00 0. -1.
</event>
<event>
 7    1  0.2733606E-009  0.6696974E+02  0.7561462E-02  0.1370712E+00
          1   -1    0    0  501    0  0.00000000000E+00  0.00000000000E+00  0.26457654498E+02  0.26457654498E+02  0.00000000000E+00 0. -1.
         -1   -1    0    0    0  501 -0.00000000000E+00 -0.00000000000E+00 -0.55043185237E+03  0.55043185237E+03  0.00000000000E+00 0.  1.
         25    2    1    2    0    0  0.26810254455E+02 -0.24809573441E+01 -0.40604975645E+03  0.42573862099E+03  0.12510804850E+03 0.  0.
          5    1    3    3  502    0  0.17849577744E+02 -0.19321911117E+02 -0.40532182340E+03  0.40619600761E+03  0.41800000000E+01 0.  1.
         -5    1    3    3    0  502  0.89606767107E+01  0.16840953773E+02 -0.72793304370E+00  0.19542613377E+02  0.41800000000E+01 0.  1.
        -11    1    1    2    0    0  0.30444314389E+02 -0.42531690497E+00 -0.70340659544E+02  0.76647541110E+02  0.00000000000E+00 0.  1.
         11    1    1    2    0    0 -0.57254568844E+02  0.29062742490E+01 -0.47583781884E+02  0.74503344770E+02  0.00000000000E+00 0. -1.
</event>
<event>
 7    1  0.2733606E-009  0.1026649E+03  0.7561462E-02  0.1274790E+00
          1   -1    0    0  501    0  0.00000000000E+00  0.00000000000E+00  0.61599831450E+03  0.61599831450E+03  0.00000000000E+00 0. -1.
         -1   -1    0    0    0  501 -0.00000000000E+00 -0.00000000000E+00 -0.25962427753E+02  0.25962427753E+02  0.00000000000E+00 0.  1.
         25    2    1    2    0    0  0.47489355281E+02 -0.31611448103E+02  0.24349727740E+03  0.27963011446E+03  0.12509018465E+03 0.  0.
          5    1    3    3  502    0  0.31074997681E+02  0.25731438493E+02  0.14690501915E+02  0.43139838367E+02  0.41800000000E+01 0.  1.
         -5    1    3    3    0  502  0.16414357600E+02 -0.57342886596E+02  0.22880677549E+03  0.23649027610E+03  0.41800000000E+01 0.  1.
        -11    1    1    2    0    0 -0.28616371974E+02  0.62521742709E+02  0.24766958357E+03  0.25703713289E+03  0.00000000000E+00 0.  1.
         11    1    1    2    0    0 -0.18872983307E+02 -0.30910294606E+02  0.98869025771E+02  0.10529349490E+03  0.00000000000E+00 0. -1.
</event>
<event>
 7    1  0.2733606E-009  0.1141368E+03  0.7561462E-02  0.1253095E+00
          1   -1    0    0  501    0  0.00000000000E+00  0.00000000000E+00  0.10053180219E+04  0.10053180219E+04  0.00000000000E+00 0. -1.
         -1   -1    0    0    0  501 -0.00000000000E+00 -0.00000000000E+00 -0.17148140661E+02  0.17148140661E+02  0.00000000000E+00 0.  1.
         25    2    1    2    0    0  0.56452267872E+02 -0.13716770532E+02  0.73300060115E+03  0.74586296092E+03  0.12508663740E+03 0.  0.
          5    1    3    3  502    0 -0.18046375811E+01  0.45852354045E+02  0.14982576538E+03  0.15675116414E+03  0.41800000000E+01 0.  1.
         -5    1    3    3    0  502  0.58256905453E+02 -0.59569124577E+02  0.58317483577E+03  0.58911179678E+03  0.41800000000E+01 0.  1.
        -11    1    1    2    0    0 -0.76787458676E+02  0.15572289249E+02  0.14753453025E+03  0.16704863848E+03  0.00000000000E+00 0.  1.
         11    1    1    2    0    0  0.20335190804E+02 -0.18555187165E+01  0.10763474989E+03  0.10955456320E+03  0.00000000000E+00 0. -1.
</event>
<event>
 7    1  0.2733606E-009  0.5046409E+02  0.7561462E-02  0.1442854E+00
         -2   -1    0    0    0  501 -0.00000000000E+00  0.00000000000E+00  0.21250069643E+03  0.21250069643E+03  0.00000000000E+00 0.  1.
          2   -1    0    0  501    0  0.00000000000E+00 -0.00000000000E+00 -0.59885222604E+02  0.59885222604E+02  0.00000000000E+00 0. -1.
         25    2    1    2    0    0 -0.25053555286E+02 -0.16458991248E+02  0.69730399301E+02  0.14631072473E+03  0.12508365424E+03 0.  0.
          5    1    3    3  502    0 -0.69464744646E+01  0.64098153619E+01 -0.35530459010E+02  0.37003042549E+02  0.41800000000E+01 0.  1.
         -5    1    3    3    0  502 -0.18107080821E+02 -0.22868806610E+02  0.10526085831E+03  0.10930768218E+03  0.41800000000E+01 0.  1.
        -11    1    1    2    0    0  0.29015244290E+02 -0.12718750034E+02 -0.61723642343E+01  0.32276137995E+02  0.00000000000E+00 0. -1.
         11    1    1    2    0    0 -0.39616890042E+01  0.29177741283E+02  0.89057438761E+02  0.93799056311E+02  0.00000000000E+00 0.  1.
</event>
<event>
 7    1  0.2733606E-009  0.1327321E+03  0.7561462E-02  0.1223457E+00
          1   -1    0    0  501    0  0.00000000000E+00  0.00000000000E+00  0.80592336276E+03  0.80592336276E+03  0.00000000000E+00 0. -1.
         -1   -1    0    0    0  501 -0.00000000000E+00 -0.00000000000E+00 -0.28074403907E+02  0.28074403907E+02  0.00000000000E+00 0.  1.
         25    2    1    2    0    0  0.64802224341E+02  0.61180252604E+02  0.58773973772E+03  0.60747306537E+03  0.12507267595E+03 0.  0.
          5    1    3    3  502    0 -0.31697448707E+02  0.44664050416E+02  0.18490310739E+03  0.19288918367E+03  0.41800000000E+01 0.  1.
         -5    1    3    3    0  502  0.96499673048E+02  0.16516202188E+02  0.40283663033E+03  0.41458388171E+03  0.41800000000E+01 0.  1.
        -11    1    1    2    0    0 -0.35806879649E+02  0.87332445065E+01  0.23992512565E+02  0.43977754024E+02  0.00000000000E+00 0.  1.
         11    1    1    2    0    0 -0.28995344693E+02 -0.69913497111E+02  0.16611670857E+03  0.18254694727E+03  0.00000000000E+00 0. -1.
</event>
<event>
 7    1  0.2733606E-009  0.7519697E+02  0.7561462E-02  0.1343262E+00
         -1   -1    0    0    0  501 -0.00000000000E+00  0.00000000000E+00  0.72713040034E+02  0.72713040034E+02  0.00000000000E+00 0.  1.
          1   -1    0    0  501    0  0.00000000000E+00 -0.00000000000E+00 -0.20417761451E+03  0.20417761451E+03  0.00000000000E+00 0. -1.
         25    2    1    2    0    0 -0.34644156058E+02  0.17606472868E+02 -0.29423743723E+02  0.13424946597E+03  0.12508779710E+03 0.  0.
          5    1    3    3  502    0  0.10302332126E+00 -0.10359302300E+02 -0.71752120594E+02  0.72616561249E+02  0.41800000000E+01 0.  1.
         -5    1    3    3    0  502 -0.34747179380E+02  0.27965775169E+02  0.42328376870E+02  0.61632904719E+02  0.41800000000E+01 0.  1.
        -11    1    1    2    0    0  0.33404007894E+02 -0.51022652523E+02 -0.86323456600E+02  0.10569237424E+03  0.00000000000E+00 0. -1.
         11    1    1    2    0    0  0.12401481646E+01  0.33416179655E+02 -0.15717374149E+02  0.36948814329E+02  0.00000000000E+00 0.  1.
</event>
<event>
 7    1  0.2733606E-009  0.1123935E+03  0.7561462E-02  0.1256201E+00
         -1   -1    0    0    0  501 -0.00000000000E+00  0.00000000000E+00  0.62082502259E+02  0.62082502259E+02  0.00000000000E+00 0.  1.
          1   -1    0    0  501    0  0.00000000000E+00 -0.00000000000E+00 -0.22688412774E+03  0.22688412774E+03  0.00000000000E+00 0. -1.
         25    2    1    2    0    0 -0.28363179148E+02  0.85605580658E+01 -0.95389468388E+02  0.16007547352E+03  0.12508898216E+03 0.  0.
          5    1    3    3  502    0  0.16910896079E+02  0.51721968704E+02 -0.12224850551E+02  0.55929060637E+02  0.41800000000E+01 0.  1.
         -5    1    3    3    0  502 -0.45274075226E+02 -0.43161410638E+02 -0.83164617837E+02  0.10414641288E+03  0.41800000000E+01 0.  1.
        -11    1    1    2    0    0 -0.28989697318E+02  0.27347435507E+02 -0.34688932296E+02  0.52835658445E+02  0.00000000000E+00 0.  1.
         11    1    1    2    0    0  0.57352876466E+02 -0.35907993573E+02 -0.34723224798E+02  0.76055498037E+02  0.00000000000E+00 0. -1.
</event>
<event>
 7    1  0.2733606E-009  0.1249687E+03  0.7561462E-02  0.1235118E+00
          2   -1    0    0  501    0  0.00000000000E+00  0.00000000000E+00  0.14930757792E+04  0.14930757792E+04  0.00000000000E+00 0. -1.
         -2   -1    0    0    0  501 -0.00000000000E+00 -0.00000000000E+00 -0.14468860622E+02  0.14468860622E+02  0.00000000000E+00 0.  1.
         25    2    1    2    0    0  0.11283634923E+02  0.74474661705E+02  0.11230096280E+04  0.11324627124E+04  0.12508946676E+03 0.  0.
          5    1    3    3  502    0  0.57853611819E+02  0.19504796856E+02  0.29304372681E+03  0.29936528811E+03  0.41800000000E+01 0.  1.
         -5    1    3    3    0  502 -0.46569976896E+02  0.54969864850E+02  0.82996590121E+03  0.83309742429E+03  0.41800000000E+01 0.  1.
        -11    1    1    2    0    0  0.35833640170E+02 -0.10920900879E+02  0.15462682279E+03  0.15909987483E+03  0.00000000000E+00 0.  1.
         11    1    1    2    0    0 -0.47117275093E+02 -0.63553760827E+02  0.20097046772E+03  0.21598205255E+03  0.00000000000E+00 0. -1.
</event>
<event>
 7    1  0.2733606E-009  0.1244479E+03  0.7561462E-02  0.1235935E+00
          2   -1    0    0  501    0  0.00000000000E+00  0.00000000000E+00  0.15436810926E+03  0.15436810926E+03  0.00000000000E+00 0. -1.
         -2   -1    0    0    0  501 -0.00000000000E+00 -0.00000000000E+00 -0.11221290525E+03  0.11221290525E+03  0.00000000000E+00 0.  1.
         25    2    1    2    0    0 -0.55116233408E+02 -0.17051169089E+02  0.43354851505E+02  0.14441347971E+03  0.12508824254E+03 0.  0.
          5    1    3    3  502    0 -0.64764039735E+02 -0.59632459451E+02  0.87946607661E+01  0.88573300272E+02  0.41800000000E+01 0. -1.
         -5    1    3    3    0  502  0.96478063276E+01  0.42581290362E+02  0.34560190739E+02  0.55840179439E+02  0.41800000000E+01 0. -1.
        -11    1    1    2    0    0  0.65204057179E+02  0.50174693320E+02 -0.17153159814E+02  0.84043440041E+02  0.00000000000E+00 0.  1.
         11    1    1    2    0    0 -0.10087823771E+02 -0.33123524231E+02  0.15953512314E+02  0.38124094758E+02  0.00000000000E+00 0. -1.
</event>
<event>
 7    1  0.3013695E-009  0.3947801E+03  0.7561462E-02  0.1045602E+00
         -1   -1    0    0    0  501 -0.00000000000E+00  0.00000000000E+00  0.45891136678E+03  0.45891136678E+03  0.00000000000E+00 0.  1.
          1   -1    0    0  501    0  0.00000000000E+00 -0.00000000000E+00 -0.36238051801E+03  0.36238051801E+03  0.00000000000E+00 0. -1.
         25    2    1    2    0    0  0.11505075051E+03  0.36944930628E+03  0.11694029916E+03  0.42314666917E+03  0.12509438421E+03 0.  0.
          5    1    3    3  502    0  0.12365731672E+03  0.35840846351E+03  0.13264575918E+03  0.40169656275E+03  0.41800000000E+01 0. -1.
         -5    1    3    3    0  502 -0.86065662083E+01  0.11040842771E+02 -0.15705460027E+02  0.21450106425E+02  0.41800000000E+01 0. -1.
        -11    1    1    2    0    0 -0.41389608201E+02 -0.26359676502E+03 -0.31645596179E+02  0.26869647924E+03  0.00000000000E+00 0. -1.
         11    1    1    2    0    0 -0.73661142312E+02 -0.10585254126E+03  0.11236145791E+02  0.12944873638E+03  0.00000000000E+00 0.  1.
</event>
<event>
 7    1  0.3240086E-009  0.1142624E+03  0.7561462E-02  0.1252874E+00
         -2   -1    0    0    0  501 -0.00000000000E+00  0.00000000000E+00  0.76632094704E+02  0.76632094704E+02  0.00000000000E+00 0.  1.
          2   -1    0    0  501    0  0.00000000000E+00 -0.00000000000E+00 -0.23323735067E+03  0.23323735067E+03  0.00000000000E+00 0. -1.
         25    2    1    2    0    0  0.30466862522E+02 -0.70290387887E+02 -0.70377035863E+02  0.16269258013E+03  0.12508788955E+03 0.  0.
          5    1    3    3  502    0 -0.33307710812E+02 -0.66257251278E+02 -0.10486541568E+02  0.75012444970E+02  0.41800000000E+01 0. -1.
         -5    1    3    3    0  502  0.63774573334E+02 -0.40331366089E+01 -0.59890494295E+02  0.87680135160E+02  0.41800000000E+01 0. -1.
        -11    1    1    2    0    0 -0.25433124866E+02  0.65385958205E+01 -0.78482485646E+02  0.82759275184E+02  0.00000000000E+00 0. -1.
         11    1    1    2    0    0 -0.50337376559E+01  0.63751792066E+02 -0.77457344530E+01  0.64417590056E+02  0.00000000000E+00 0.  1.
</event>
<event>
 7    1  0.2826000E-009  0.9866004E+02  0.7561462E-02  0.1283139E+00
          1   -1    0    0  501    0  0.00000000000E+00  0.00000000000E+00  0.12610950841E+03  0.12610950841E+03  0.00000000000E+00 0. -1.
         -1   -1    0    0    0  501 -0.00000000000E+00 -0.00000000000E+00 -0.11632191008E+03  0.11632191008E+03  0.00000000000E+00 0.  1.
         25    2    1    2    0    0  0.46324681359E+02  0.18901860652E+02 -0.15671399275E+02  0.13563725308E+03  0.12509442525E+03 0.  0.
          5    1    3    3  502    0 -0.28816734497E+02 -0.27280377771E+02 -0.24622802927E+02  0.46886864071E+02  0.41800000000E+01 0.  1.
         -5    1    3    3    0  502  0.75141415857E+02  0.46182238423E+02  0.89514036521E+01  0.88750389014E+02  0.41800000000E+01 0.  1.
        -11    1    1    2    0    0 -0.34426630764E+02 -0.35006362211E+02 -0.23105965268E+02  0.54263467748E+02  0.00000000000E+00 0.  1.
         11    1    1    2    0    0 -0.11898050595E+02  0.16104501560E+02  0.48564962872E+02  0.52530697665E+02  0.00000000000E+00 0. -1.
</event>
<event>
 7    1  0.2733606E-009  0.6653404E+02  0.7561462E-02  0.1372292E+00
          1   -1    0    0  501    0  0.00000000000E+00  0.00000000000E+00  0.19576867960E+03  0.19576867960E+03  0.00000000000E+00 0. -1.
         -1   -1    0    0    0  501 -0.00000000000E+00 -0.00000000000E+00 -0.82988229361E+02  0.82988229361E+02  0.00000000000E+00 0.  1.
         25    2    1    2    0    0  0.40498520570E+01  0.28767201508E+02 -0.50143396691E+01  0.12851854949E+03  0.12509164950E+03 0.  0.
          5    1    3    3  502    0  0.25351890305E+02  0.20912806903E+02  0.55005717809E+02  0.64211877611E+02  0.41800000000E+01 0. -1.
         -5    1    3    3    0  502 -0.21302038248E+02  0.78543946052E+01 -0.60020057478E+02  0.64306671876E+02  0.41800000000E+01 0. -1.
        -11    1    1    2    0    0  0.32614697755E+02 -0.45924865891E+01  0.10932062040E+02  0.34703305652E+02  0.00000000000E+00 0.  1.
         11    1    1    2    0    0 -0.36664549812E+02 -0.24174714919E+02  0.10686272787E+03  0.11553505383E+03  0.00000000000E+00 0. -1.
</event>
<event>
 7    1  0.2733606E-009  0.9341644E+02  0.7561462E-02  0.1294783E+00
         -2   -1    0    0    0  501 -0.00000000000E+00  0.00000000000E+00  0.85809431196E+01  0.85809431196E+01  0.00000000000E+00 0.  1.
          2   -1    0    0  501    0  0.00000000000E+00 -0.00000000000E+00 -0.23767506229E+04  0.23767506229E+04  0.00000000000E+00 0. -1.
         25    2    1    2    0    0 -0.50209703167E+02 -0.42230534082E+02 -0.18302170635E+04  0.18356600409E+04  0.12509538013E+03 0.  0.
          5    1    3    3  502    0 -0.36275101315E+02 -0.66607078005E+01 -0.16860595102E+04  0.16864680230E+04  0.41800000000E+01 0. -1.
         -5    1    3    3    0  502 -0.13934601852E+02 -0.35569826282E+02 -0.14415755324E+03  0.14919201797E+03  0.41800000000E+01 0. -1.
        -11    1    1    2    0    0  0.58895506582E+02 -0.87748999935E+01 -0.33347310701E+03  0.33874768289E+03  0.00000000000E+00 0. -1.
         11    1    1    2    0    0 -0.86858034142E+01  0.51005434076E+02 -0.20447950930E+03  0.21092384220E+03  0.00000000000E+00 0.  1.
</event>
<event>
 7    1  0.2733606E-009  0.1185331E+03  0.7561462E-02  0.1245537E+00
         -3   -1    0    0    0  501 -0.00000000000E+00  0.00000000000E+00  0.24763844943E+02  0.24763844943E+02  0.00000000000E+00 0.  1.
          3   -1    0    0  501    0  0.00000000000E+00 -0.00000000000E+00 -0.75591624372E+03  0.75591624372E+03  0.00000000000E+00 0. -1.
         25    2    1    2    0    0  0.50132697038E+02  0.73880906788E+01 -0.58061951851E+03  0.59609924971E+03  0.12508964401E+03 0.  0.
          5    1    3    3  502    0 -0.84294351503E+00  0.58733608826E+02 -0.19381007336E+03  0.20255903904E+03  0.41800000000E+01 0.  1.
         -5    1    3    3    0  502  0.50975640553E+02 -0.51345518147E+02 -0.38680944514E+03  0.39354021067E+03  0.41800000000E+01 0.  1.
        -11    1    1    2    0    0 -0.59908748205E+02 -0.39751338987E+02 -0.11423740504E+03  0.13497930127E+03  0.00000000000E+00 0.  1.
         11    1    1    2    0    0  0.97760511665E+01  0.32363248308E+02 -0.36295475231E+02  0.49601537674E+02  0.00000000000E+00 0. -1.
</event>
<event>
 7    1  0.2733606E-009  0.1134992E+03  0.7561462E-02  0.1254224E+00
         -2   -1    0    0    0  501 -0.00000000000E+00  0.00000000000E+00  0.10862847448E+03  0.10862847448E+03  0.00000000000E+00 0.  1.
          2   -1    0    0  501    0  0.00000000000E+00 -0.00000000000E+00 -0.12388052271E+03  0.12388052271E+03  0.00000000000E+00 0. -1.
         25    2    1    2    0    0  0.46066375101E+00  0.44743844643E+02  0.10862256043E+02  0.13329403496E+03  0.12508831802E+03 0.  0.
          5    1    3    3  502    0  0.24301486260E+02  0.83127344001E+02  0.32187378854E+00  0.86708093958E+02  0.41800000000E+01 0. -1.
         -5    1    3    3    0  502 -0.23840822509E+02 -0.38383499357E+02  0.10540382255E+02  0.46585941000E+02  0.41800000000E+01 0. -1.
        -11    1    1    2    0    0 -0.40210638539E+02 -0.84554721616E+01 -0.17692340309E+02  0.44737113975E+02  0.00000000000E+00 0.  1.
         11    1    1    2    0    0  0.39749974788E+02 -0.36288372482E+02 -0.84219639636E+01  0.54477848251E+02  0.00000000000E+00 0. -1.
</event>
<event>
 7    1  0.2733606E-009  0.1384878E+03  0.7561462E-02  0.1215378E+00
          4   -1    0    0  501    0  0.00000000000E+00  0.00000000000E+00  0.99412490538E+02  0.99412490538E+02  0.00000000000E+00 0. -1.
         -4   -1    0    0    0  501 -0.00000000000E+00 -0.00000000000E+00 -0.26624628831E+03  0.26624628831E+03  0.00000000000E+00 0.  1.
         25    2    1    2    0    0  0.79509810780E+02  0.72139351433E+02 -0.27171478673E+02  0.16706442765E+03  0.12508532166E+03 0.  0.
          5    1    3    3  502    0 -0.27252190359E+02  0.16020888688E+02  0.19829124343E+02  0.37550197416E+02  0.41800000000E+01 0. -1.
         -5    1    3    3    0  502  0.10676200114E+03  0.56118462745E+02 -0.47000603017E+02  0.12951423023E+03  0.41800000000E+01 0. -1.
        -11    1    1    2    0    0 -0.29286718109E+02 -0.67965194320E+02 -0.12641743241E+03  0.14648667760E+03  0.00000000000E+00 0.  1.
         11    1    1    2    0    0 -0.50223092671E+02 -0.41741571125E+01 -0.13244886688E+02  0.52107673603E+02  0.00000000000E+00 0. -1.
</event>
<event>
 7    1  0.2733606E-009  0.1101261E+03  0.7561462E-02  0.1260337E+00
         -2   -1    0    0    0  501 -0.00000000000E+00  0.00000000000E+00  0.42970471723E+02  0.42970471723E+02  0.00000000000E+00 0.  1.
          2   -1    0    0  501    0  0.00000000000E+00 -0.00000000000E+00 -0.50486597289E+03  0.50486597289E+03  0.00000000000E+00 0. -1.
         25    2    1    2    0    0  0.12805764511E+02  0.45292266477E+02 -0.41236415740E+03  0.43348359629E+03  0.12509377655E+03 0.  0.
          5    1    3    3  502    0 -0.19653479798E+02 -0.31003539108E+02 -0.23209035111E+03  0.23501251496E+03  0.41800000000E+01 0.  1.
         -5    1    3    3    0  502  0.32459244309E+02  0.76295805585E+02 -0.18027380629E+03  0.19847108133E+03  0.41800000000E+01 0.  1.
        -11    1    1    2    0    0  0.27516326519E+02  0.12172006313E+02 -0.32356143739E+01  0.30261777264E+02  0.00000000000E+00 0.  1.
         11    1    1    2    0    0 -0.40322091030E+02 -0.57464272790E+02 -0.46295729384E+02  0.84091071057E+02  0.00000000000E+00 0. -1.
</event>
<event>
 7    1  0.2733606E-009  0.1266923E+03  0.7561462E-02  0.1232448E+00
         -2   -1    0    0    0  501 -0.00000000000E+00  0.00000000000E+00  0.10617460536E+03  0.10617460536E+03  0.00000000000E+00 0. -1.
          2   -1    0    0  501    0  0.00000000000E+00 -0.00000000000E+00 -0.22075478486E+03  0.22075478486E+03  0.00000000000E+00 0.  1.
         25    2    1    2    0    0 -0.82735888451E+02 -0.47752174061E+01 -0.13311474900E+03  0.20058483277E+03  0.12508680505E+03 0.  0.
          5    1    3    3  502    0 -0.16636019438E+02 -0.60586808723E+02 -0.63928478261E+02  0.89732052616E+02  0.41800000000E+01 0. -1.
         -5    1    3    3    0  502 -0.66099869013E+02  0.55811591317E+02 -0.69186270740E+02  0.11085278015E+03  0.41800000000E+01 0. -1.
        -11    1    1    2    0    0  0.89550521154E+02  0.15712155328E+02 -0.13406910962E+02  0.91901648111E+02  0.00000000000E+00 0.  1.
         11    1    1    2    0    0 -0.68146327030E+01 -0.10936937922E+02  0.31941480455E+02  0.34442909338E+02  0.00000000000E+00 0. -1.
</event>
<event>
 7    1  0.2733606E-009  0.9844725E+02  0.7561462E-02  0.1283595E+00
         -1   -1    0    0    0  501 -0.00000000000E+00  0.00000000000E+00  0.15087792819E+03  0.15087792819E+03  0.00000000000E+00 0.  1.
          1   -1    0    0  501    0  0.00000000000E+00 -0.00000000000E+00 -0.12578312131E+03  0.12578312131E+03  0.00000000000E+00 0. -1.
         25    2    1    2    0    0  0.23295069816E+02 -0.29587820299E-01  0.98744078255E+02  0.16106008672E+03  0.12508915776E+03 0.  0.
          5    1    3    3  502    0  0.20230900389E+02 -0.51993002835E+02  0.92990135458E+02  0.10852280575E+03  0.41800000000E+01 0. -1.
         -5    1    3    3    0  502  0.30641694272E+01  0.51963415015E+02  0.57539427973E+01  0.52537280972E+02  0.41800000000E+01 0. -1.
        -11    1    1    2    0    0  0.29361249146E+02  0.16340283508E+02 -0.22816015159E+02  0.40615986560E+02  0.00000000000E+00 0. -1.
         11    1    1    2    0    0 -0.52656318962E+02 -0.16310695688E+02 -0.50833256215E+02  0.74984976215E+02  0.00000000000E+00 0.  1.
</event>
<event>
 7    1  0.2733606E-009  0.1001758E+03  0.7561462E-02  0.1279927E+00
         -1   -1    0    0    0  501 -0.00000000000E+00  0.00000000000E+00  0.38628248879E+03  0.38628248879E+03  0.00000000000E+00 0.  1.
          1   -1    0    0  501    0  0.00000000000E+00 -0.00000000000E+00 -0.36791444081E+02  0.36791444081E+02  0.00000000000E+00 0. -1.
         25    2    1    2    0    0 -0.35460380943E+02 -0.39710694889E+02  0.15126247154E+03  0.20337872155E+03  0.12509273032E+03 0.  0.
          5    1    3    3  502    0 -0.49917280671E+02 -0.67701700610E+02  0.51592843833E+02  0.98765120917E+02  0.41800000000E+01 0.  1.
         -5    1    3    3    0  502  0.14456899728E+02  0.27991005721E+02  0.99669627705E+02  0.10461360064E+03  0.41800000000E+01 0.  1.
        -11    1    1    2    0    0  0.54266184636E+02  0.22115352775E+02  0.17658588721E+03  0.18605505418E+03  0.00000000000E+00 0.  1.
         11    1    1    2    0    0 -0.18805803693E+02  0.17595342114E+02  0.21642685955E+02  0.33640157134E+02  0.00000000000E+00 0. -1.
</event>
<event>
 7    1  0.2733606E-009  0.1024352E+03  0.7561462E-02  0.1275257E+00
         -2   -1    0    0    0  501 -0.00000000000E+00  0.00000000000E+00  0.76822290826E+02  0.76822290826E+02  0.00000000000E+00 0.  1.
          2   -1    0    0  501    0  0.00000000000E+00 -0.00000000000E+00 -0.16817511371E+03  0.16817511371E+03  0.00000000000E+00 0. -1.
         25    2    1    2    0    0  0.27576249856E+01 -0.31949211042E+02 -0.45889025909E+02  0.13704578836E+03  0.12508952325E+03 0.  0.
          5    1    3    3  502    0  0.58359994448E+02  0.60436952803E+01 -0.35703659947E+02  0.68808712662E+02  0.41800000000E+01 0. -1.
         -5    1    3    3    0  502 -0.55602369462E+02 -0.37992906322E+02 -0.10185365962E+02  0.68237075703E+02  0.41800000000E+01 0. -1.
        -11    1    1    2    0    0  0.20421426547E+02 -0.15587298952E+02  0.13270529919E+02  0.28915489191E+02  0.00000000000E+00 0.  1.
         11    1    1    2    0    0 -0.23179051533E+02  0.47536509994E+02 -0.58734326891E+02  0.79036126978E+02  0.00000000000E+00 0. -1.
</event>
<event>
 7    1  0.2733606E-009  0.1141469E+03  0.7561462E-02  0.1253078E+00
          1   -1    0    0  501    0  0.00000000000E+00  0.00000000000E+00  0.35634096491E+03  0.35634096491E+03  0.00000000000E+00 0. -1.
         -1   -1    0    0    0  501 -0.00000000000E+00 -0.00000000000E+00 -0.48543397651E+02  0.48543397651E+02  0.00000000000E+00 0.  1.
         25    2    1    2    0    0 -0.51981067184E+02 -0.34414640030E+02  0.23430423386E+03  0.27282296142E+03  0.12508994954E+03 0.  0.
          5    1    3    3  502    0 -0.60130882413E+02 -0.63968119113E+02  0.92167310022E+02  0.12735748395E+03  0.41800000000E+01 0.  1.
         -5    1    3    3    0  502  0.81498152292E+01  0.29553479083E+02  0.14213692384E+03  0.14546547746E+03  0.41800000000E+01 0.  1.
        -11    1    1    2    0    0  0.14897712125E+01  0.54937800895E+02  0.41451932305E+02  0.68837809939E+02  0.00000000000E+00 0.  1.
         11    1    1    2    0    0  0.50491295971E+02 -0.20523160864E+02  0.32041401088E+02  0.63223591201E+02  0.00000000000E+00 0. -1.
</event>
<event>
 7    1  0.2733606E-009  0.1118745E+03  0.7561462E-02  0.1257137E+00
         -2   -1    0    0    0  501 -0.00000000000E+00  0.00000000000E+00  0.81103654791E+02  0.81103654791E+02  0.00000000000E+00 0.  1.
          2   -1    0    0  501    0  0.00000000000E+00 -0.00000000000E+00 -0.17337795699E+03  0.17337795699E+03  0.00000000000E+00 0. -1.
         25    2    1    2    0    0  0.92086688755E+01 -0.46754442314E+02 -0.58341697044E+02  0.14602037945E+03  0.12508964842E+03 0.  0.
          5    1    3    3  502    0 -0.53280951236E+02 -0.20431563859E+02 -0.11699957253E+01  0.57228924997E+02  0.41800000000E+01 0. -1.
         -5    1    3    3    0  502  0.62489620111E+02 -0.26322878454E+02 -0.57171701319E+02  0.88791454450E+02  0.41800000000E+01 0. -1.
        -11    1    1    2    0    0 -0.37853040984E+02  0.56785844115E+02 -0.37553713912E+02  0.77895867876E+02  0.00000000000E+00 0. -1.
         11    1    1    2    0    0  0.28644372108E+02 -0.10031401802E+02  0.36211087606E+01  0.30565364455E+02  0.00000000000E+00 0.  1.
</event>
<event>
 7    1  0.2733606E-009  0.6551148E+02  0.7561462E-02  0.1376058E+00
         -1   -1    0    0    0  501 -0.00000000000E+00  0.00000000000E+00  0.15640568994E+03  0.15640568994E+03  0.00000000000E+00 0.  1.
          1   -1    0    0  501    0  0.00000000000E+00 -0.00000000000E+00 -0.98025320595E+02  0.98025320595E+02  0.00000000000E+00 0. -1.
         25    2    1    2    0    0  0.45975003413E+02  0.29852008264E+02  0.79554136241E+01  0.13680223817E+03  0.12508685153E+03 0.  0.
          5    1    3    3  502    0  0.40440943912E+02  0.37332707448E+02 -0.52090925593E+02  0.75895572460E+02  0.41800000000E+01 0. -1.
         -5    1    3    3    0  502  0.55340595009E+01 -0.74806991838E+01  0.60046339217E+02  0.60906665712E+02  0.41800000000E+01 0. -1.
        -11    1    1    2    0    0 -0.32482754716E+02  0.41700980008E+00  0.71376505271E+02  0.78421353953E+02  0.00000000000E+00 0.  1.
         11    1    1    2    0    0 -0.13492248697E+02 -0.30269018064E+02 -0.20951549553E+02  0.39207418407E+02  0.00000000000E+00 0. -1.
</event>
<event>
 7    1  0.2733606E-009  0.1803384E+03  0.7561462E-02  0.1167476E+00
         -1   -1    0    0    0  501 -0.00000000000E+00  0.00000000000E+00  0.30964129888E+03  0.30964129888E+03  0.00000000000E+00 0.  1.
          1   -1    0    0  501    0  0.00000000000E+00 -0.00000000000E+00 -0.12947694498E+03  0.12947694498E+03  0.00000000000E+00 0. -1.
         25    2    1    2    0    0 -0.93391140033E+02 -0.13431780645E+03  0.13364577955E+03  0.24550823268E+03  0.12509963930E+03 0.  0.
          5    1    3    3  502    0 -0.51781003463E+02 -0.12044038819E+03  0.32427659793E+02  0.13511545044E+03  0.41800000000E+01 0. -1.
         -5    1    3    3    0  502 -0.41610136570E+02 -0.13877418260E+02  0.10121811976E+03  0.11039278224E+03  0.41800000000E+01 0. -1.
        -11    1    1    2    0    0  0.22852950511E+02  0.10763167199E+03  0.42923410692E+02  0.11810695723E+03  0.00000000000E+00 0.  1.
         11    1    1    2    0    0  0.70538189522E+02  0.26686134468E+02  0.35951636513E+01  0.75503053948E+02  0.00000000000E+00 0. -1.
</event>
<event>
 7    1  0.2733606E-009  0.1899756E+03  0.7561462E-02  0.1158483E+00
          2   -1    0    0  501    0  0.00000000000E+00  0.00000000000E+00  0.16224592065E+03  0.16224592065E+03  0.00000000000E+00 0. -1.
         -2   -1    0    0    0  501 -0.00000000000E+00 -0.00000000000E+00 -0.25265269496E+03  0.25265269496E+03  0.00000000000E+00 0.  1.
         25    2    1    2    0    0 -0.12807219691E+03 -0.10789430491E+03 -0.10814107199E+03  0.23534070993E+03  0.12508832737E+03 0.  0.
          5    1    3    3  502    0 -0.12359344119E+03 -0.13381533618E+03 -0.91006835796E+02  0.20367032053E+03  0.41800000000E+01 0.  1.
         -5    1    3    3    0  502 -0.44787557196E+01  0.25921031269E+02 -0.17134236198E+02  0.31670389403E+02  0.41800000000E+01 0.  1.
        -11    1    1    2    0    0  0.75552110284E+01  0.21598779804E+02  0.21337556988E+02  0.31287055485E+02  0.00000000000E+00 0. -1.
         11    1    1    2    0    0  0.12051698589E+03  0.86295525104E+02 -0.36032593090E+01  0.14827085020E+03  0.00000000000E+00 0.  1.
</event>
<event>
 7    1  0.2733606E-009  0.3725975E+03  0.7561462E-02  0.1053704E+00
         -2   -1    0    0    0  501 -0.00000000000E+00  0.00000000000E+00  0.53632882541E+02  0.53632882541E+02  0.00000000000E+00 0.  1.
          2   -1    0    0  501    0  0.00000000000E+00 -0.00000000000E+00 -0.28321125188E+04  0.28321125188E+04  0.00000000000E+00 0. -1.
         25    2    1    2    0    0 -0.34978217699E+03 -0.74317097145E+02 -0.18138293961E+04  0.18529691024E+04  0.12508722687E+03 0.  0.
          5    1    3    3  502    0 -0.22564927086E+03 -0.10426375922E+03 -0.10942966285E+04  0.11221814062E+04  0.41800000000E+01 0.  1.
         -5    1    3    3    0  502 -0.12413290614E+03  0.29946662070E+02 -0.71953276760E+03  0.73078769626E+03  0.41800000000E+01 0.  1.
        -11    1    1    2    0    0  0.16896648612E+03  0.82068344471E+02 -0.50071518621E+03  0.53479022457E+03  0.00000000000E+00 0. -1.
         11    1    1    2    0    0  0.18081569088E+03 -0.77512473258E+01 -0.46393505395E+03  0.49798607429E+03  0.00000000000E+00 0.  1.
</event>
<event>
 7    1  0.2733606E-009  0.9883256E+02  0.7561462E-02  0.1282770E+00
          1   -1    0    0  501    0  0.00000000000E+00  0.00000000000E+00  0.66600906622E+02  0.66600906622E+02  0.00000000000E+00 0. -1.
         -1   -1    0    0    0  501 -0.00000000000E+00 -0.00000000000E+00 -0.30755478234E+03  0.30755478234E+03  0.00000000000E+00 0.  1.
         25    2    1    2    0    0 -0.12388247121E+02  0.27280193998E+01 -0.92807425700E+01  0.12607317845E+03  0.12508958144E+03 0.  0.
          5    1    3    3  502    0  0.32637804407E+02  0.42968618578E+02  0.21414935266E+02  0.58203095377E+02  0.41800000000E+01 0. -1.
         -5    1    3    3    0  502 -0.45026051528E+02 -0.40240599178E+02 -0.30695677836E+02  0.67870083073E+02  0.41800000000E+01 0. -1.
        -11    1    1    2    0    0  0.40236976496E+02 -0.24984762504E+02 -0.17355519130E+03  0.17990179839E+03  0.00000000000E+00 0.  1.
         11    1    1    2    0    0 -0.27848729375E+02  0.22256743105E+02 -0.58117941842E+02  0.68180712122E+02  0.00000000000E+00 0. -1.
</event>
<event>
 7    1  0.2733606E-009  0.1981799E+03  0.7561462E-02  0.1151284E+00
          3   -1    0    0  501    0  0.00000000000E+00  0.00000000000E+00  0.34135017342E+02  0.34135017342E+02  0.00000000000E+00 0. -1.
         -3   -1    0    0    0  501 -0.00000000000E+00 -0.00000000000E+00 -0.15342428675E+04  0.15342428675E+04  0.00000000000E+00 0.  1.
         25    2    1    2    0    0 -0.16587975563E+03  0.39365111762E+02 -0.11395861861E+04  0.11590384277E+04  0.12509075130E+03 0.  0.
          5    1    3    3  502    0 -0.74637755382E+02  0.74438734436E+02 -0.43068945010E+03  0.44342168930E+03  0.41800000000E+01 0. -1.
         -5    1    3    3    0  502 -0.91242000245E+02 -0.35073622674E+02 -0.70889673596E+03  0.71561673839E+03  0.41800000000E+01 0. -1.
        -11    1    1    2    0    0  0.10881952471E+03 -0.68874516119E+02 -0.25796016279E+03  0.28832071295E+03  0.00000000000E+00 0.  1.
         11    1    1    2    0    0  0.57060230919E+02  0.29509404357E+02 -0.10256150133E+03  0.12101874422E+03  0.00000000000E+00 0. -1.
</event>
<event>
 7    1  0.2733606E-009  0.1490844E+03  0.7561462E-02  0.1201603E+00
          4   -1    0    0  501    0  0.00000000000E+00  0.00000000000E+00  0.33093561764E+02  0.33093561764E+02  0.00000000000E+00 0. -1.
         -4   -1    0    0    0  501 -0.00000000000E+00 -0.00000000000E+00 -0.79107660239E+03  0.79107660239E+03  0.00000000000E+00 0.  1.
         25    2    1    2    0    0  0.69306830283E+02  0.89113498015E+02 -0.49895322371E+03  0.52663676218E+03  0.12508919844E+03 0.  0.
          5    1    3    3  502    0  0.40497864148E+02 -0.16547793539E+02 -0.61025380612E+02  0.75202898551E+02  0.41800000000E+01 0. -1.
         -5    1    3    3    0  502  0.28808966135E+02  0.10566129155E+03 -0.43792784310E+03  0.45143386362E+03  0.41800000000E+01 0. -1.
        -11    1    1    2    0    0 -0.47282067058E+02  0.53889667080E+01 -0.64613927793E+02  0.80247084011E+02  0.00000000000E+00 0.  1.
         11    1    1    2    0    0 -0.22024763224E+02 -0.94502464723E+02 -0.19441588912E+03  0.21728631796E+03  0.00000000000E+00 0. -1.
</event>
<event>
 7    1  0.2733606E-009  0.1256328E+03  0.7561462E-02  0.1234084E+00
         -1   -1    0    0    0  501 -0.00000000000E+00  0.00000000000E+00  0.11403245669E+03  0.11403245669E+03  0.00000000000E+00 0.  1.
          1   -1    0    0  501    0  0.00000000000E+00 -0.00000000000E+00 -0.19582390883E+03  0.19582390883E+03  0.00000000000E+00 0. -1.
         25    2    1    2    0    0  0.10052267661E+03 -0.40088353547E-01 -0.52555540676E+02  0.16886006935E+03  0.12508728170E+03 0.  0.
          5    1    3    3  502    0  0.64025865665E+02 -0.27621927406E+02  0.28697612821E+02  0.75520247148E+02  0.41800000000E+01 0.  1.
         -5    1    3    3    0  502  0.36496810948E+02  0.27581839052E+02 -0.81253153497E+02  0.93339822199E+02  0.41800000000E+01 0.  1.
        -11    1    1    2    0    0 -0.50145214741E+02  0.45429564496E+02 -0.13506618942E+01  0.67677264863E+02  0.00000000000E+00 0. -1.
         11    1    1    2    0    0 -0.50377461871E+02 -0.45389476143E+02 -0.27885249570E+02  0.73319031313E+02  0.00000000000E+00 0.  1.
</event>
<event>
 7    1  0.2733606E-009  0.6329407E+02  0.7561462E-02  0.1384506E+00
         -1   -1    0    0    0  501 -0.00000000000E+00  0.00000000000E+00  0.82374197957E+02  0.82374197957E+02  0.00000000000E+00 0.  1.
          1   -1    0    0  501    0  0.00000000000E+00 -0.00000000000E+00 -0.15275926120E+03  0.15275926120E+03  0.00000000000E+00 0. -1.
         25    2    1    2    0    0 -0.13208127592E+02 -0.19107960261E+02 -0.22762725060E+02  0.12925976823E+03  0.12510146782E+03 0.  0.
          5    1    3    3  502    0 -0.19838721711E+02 -0.86551816264E+01 -0.73568860915E+02  0.76800629844E+02  0.41800000000E+01 0. -1.
         -5    1    3    3    0  502  0.66305941194E+01 -0.10452778635E+02  0.50806135855E+02  0.52459138385E+02  0.41800000000E+01 0. -1.
        -11    1    1    2    0    0  0.11003311044E+02 -0.35325965825E+02 -0.63828489313E+01  0.37546470884E+02  0.00000000000E+00 0.  1.
         11    1    1    2    0    0  0.22048165476E+01  0.54433926086E+02 -0.41239489254E+02  0.68327220045E+02  0.00000000000E+00 0. -1.
</event>
<event>
 7    1  0.2733606E-009  0.7857961E+02  0.7561462E-02  0.1333131E+00
         -2   -1    0    0    0  501 -0.00000000000E+00  0.00000000000E+00  0.13598802035E+03  0.13598802035E+03  0.00000000000E+00 0.  1.
          2   -1    0    0  501    0  0.00000000000E+00 -0.00000000000E+00 -0.13203520595E+03  0.13203520595E+03  0.00000000000E+00 0. -1.
         25    2    1    2    0    0  0.17117310176E+02 -0.65652464514E+02  0.39846264042E+02  0.14777727517E+03  0.12508856820E+03 0.  0.
          5    1    3    3  502    0 -0.12122344044E+02 -0.18769971616E+01  0.70079161832E+02  0.71267353441E+02  0.41800000000E+01 0.  1.
         -5    1    3    3    0  502  0.29239654220E+02 -0.63775467352E+02 -0.30232897789E+02  0.76509921733E+02  0.41800000000E+01 0.  1.
        -11    1    1    2    0    0  0.74908967172E+01  0.27614808219E+02 -0.61768436160E+02  0.68073716456E+02  0.00000000000E+00 0. -1.
         11    1    1    2    0    0 -0.24608206893E+02  0.38037656295E+02  0.25874986520E+02  0.52172234669E+02  0.00000000000E+00 0.  1.
</event>
<event>
 7    1  0.2733606E-009  0.1347387E+03  0.7561462E-02  0.1220589E+00
          2   -1    0    0  501    0  0.00000000000E+00  0.00000000000E+00  0.63516677461E+03  0.63516677461E+03  0.00000000000E+00 0. -1.
         -2   -1    0    0    0  501 -0.00000000000E+00 -0.00000000000E+00 -0.46378080329E+02  0.46378080329E+02  0.00000000000E+00 0.  1.
         25    2    1    2    0    0  0.89283354603E+02  0.59073491952E+02  0.46504516518E+03  0.49333125825E+03  0.12509008695E+03 0.  0.
          5    1    3    3  502    0  0.25609222514E+02  0.88430301370E+02  0.30331740995E+03  0.31700894949E+03  0.41800000000E+01 0.  1.
         -5    1    3    3    0  502  0.63674132089E+02 -0.29356809417E+02  0.16172775522E+03  0.17632230876E+03  0.41800000000E+01 0.  1.
        -11    1    1    2    0    0 -0.24438171264E+02 -0.15031477328E+02  0.10329124161E+03  0.10720191285E+03  0.00000000000E+00 0. -1.
         11    1    1    2    0    0 -0.64845183339E+02 -0.44042014624E+02  0.20452287495E+02  0.81011683838E+02  0.00000000000E+00 0.  1.
</event>
<event>
 7    1  0.2733606E-009  0.1315688E+03  0.7561462E-02  0.1225146E+00
          1   -1    0    0  501    0  0.00000000000E+00  0.00000000000E+00  0.60381377344E+03  0.60381377344E+03  0.00000000000E+00 0. -1.
         -1   -1    0    0    0  501 -0.00000000000E+00 -0.00000000000E+00 -0.51555559571E+02  0.51555559571E+02  0.00000000000E+00 0.  1.
         25    2    1    2    0    0  0.92690868646E+02  0.54875163175E+02  0.13081807017E+03  0.21062288762E+03  0.12508298303E+03 0.  0.
          5    1    3    3  502    0 -0.38647713572E+01  0.41413450505E+02 -0.63553645758E+01  0.42283251995E+02  0.41800000000E+01 0.  1.
         -5    1    3    3    0  502  0.96555640003E+02  0.13461712669E+02  0.13717343474E+03  0.16833963563E+03  0.41800000000E+01 0.  1.
        -11    1    1    2    0    0 -0.40166956497E+02 -0.58661476109E+02  0.12621275647E+03  0.14485928714E+03  0.00000000000E+00 0.  1.
         11    1    1    2    0    0 -0.52523912149E+02  0.37863129342E+01  0.29522738723E+03  0.29988715825E+03  0.00000000000E+00 0. -1.
</event>
<event>
 7    1  0.2733606E-009  0.3827742E+03  0.7561462E-02  0.1049913E+00
          1   -1    0    0  501    0  0.00000000000E+00  0.00000000000E+00  0.29086969392E+03  0.29086969392E+03  0.00000000000E+00 0. -1.
         -1   -1    0    0    0  501 -0.00000000000E+00 -0.00000000000E+00 -0.52232052578E+03  0.52232052578E+03  0.00000000000E+00 0.  1.
         25    2    1    2    0    0  0.22916507416E+03 -0.29448567731E+03 -0.14253102970E+03  0.41856987355E+03  0.12508876553E+03 0.  0.
          5    1    3    3  502    0  0.71002032378E+02 -0.18141070956E+02 -0.11792326189E+02  0.74343247267E+02  0.41800000000E+01 0. -1.
         -5    1    3    3    0  502  0.15816304178E+03 -0.27634460635E+03 -0.13073870351E+03  0.34422662628E+03  0.41800000000E+01 0. -1.
        -11    1    1    2    0    0 -0.21607462992E+03  0.26875078857E+03 -0.10638248406E+03  0.36087735446E+03  0.00000000000E+00 0.  1.
         11    1    1    2    0    0 -0.13090444241E+02  0.25734888738E+02  0.17462681907E+02  0.33742991690E+02  0.00000000000E+00 0. -1.
</event>
<event>
 7    1  0.2733606E-009  0.6841126E+02  0.7561462E-02  0.1365581E+00
          2   -1    0    0  501    0  0.00000000000E+00  0.00000000000E+00  0.16485934594E+03  0.16485934594E+03  0.00000000000E+00 0. -1.
         -2   -1    0    0    0  501 -0.00000000000E+00 -0.00000000000E+00 -0.10585554338E+03  0.10585554338E+03  0.00000000000E+00 0.  1.
         25    2    1    2    0    0 -0.62885180764E+02 -0.85533346020E+01  0.64090979363E+02  0.15422274209E+03  0.12509714245E+03 0.  0.
          5    1    3    3  502    0 -0.64146841236E+02 -0.51321805431E+01  0.99396953569E+02  0.11848368367E+03  0.41800000000E+01 0.  1.
         -5    1    3    3    0  502  0.12616604715E+01 -0.34211540589E+01 -0.35305974205E+02  0.35739058421E+02  0.41800000000E+01 0.  1.
        -11    1    1    2    0    0  0.19748103786E+02  0.12657384038E+02 -0.49293755322E+02  0.54590029196E+02  0.00000000000E+00 0.  1.
         11    1    1    2    0    0  0.43137076978E+02 -0.41040494359E+01  0.44206578522E+02  0.61902118030E+02  0.00000000000E+00 0. -1.
</event>
<event>
 7    1  0.2733606E-009  0.1017555E+03  0.7561462E-02  0.1276647E+00
          2   -1    0    0  501    0  0.00000000000E+00  0.00000000000E+00  0.17238531219E+04  0.17238531219E+04  0.00000000000E+00 0. -1.
         -2   -1    0    0    0  501 -0.00000000000E+00 -0.00000000000E+00 -0.18608052779E+02  0.18608052779E+02  0.00000000000E+00 0.  1.
         25    2    1    2    0    0  0.25253065860E+02  0.17845596096E+01  0.15663874038E+04  0.15715779812E+04  0.12508776975E+03 0.  0.
          5    1    3    3  502    0 -0.24784989362E+02  0.35661935505E+02  0.24861900227E+03  0.25241820463E+03  0.41800000000E+01 0. -1.
         -5    1    3    3    0  502  0.50038055222E+02 -0.33877375895E+02  0.13177684015E+04  0.13191597765E+04  0.41800000000E+01 0. -1.
        -11    1    1    2    0    0 -0.24016324124E+02 -0.47685527818E+02  0.81095904433E+02  0.97093970480E+02  0.00000000000E+00 0. -1.
         11    1    1    2    0    0 -0.12367417362E+01  0.45900968209E+02  0.57761760859E+02  0.73789222994E+02  0.00000000000E+00 0.  1.
</event>
<event>
 7    1  0.2733606E-009  0.1381715E+03  0.7561462E-02  0.1215811E+00
          1   -1    0    0  501    0  0.00000000000E+00  0.00000000000E+00  0.43204803196E+02  0.43204803196E+02  0.00000000000E+00 0. -1.
         -1   -1    0    0    0  501 -0.00000000000E+00 -0.00000000000E+00 -0.52173132898E+03  0.52173132898E+03  0.00000000000E+00 0.  1.
         25    2    1    2    0    0  0.23026424281E+01  0.10056119645E+03 -0.21811778492E+03  0.27081526943E+03  0.12509070975E+03 0.  0.
          5    1    3    3  502    0  0.52290735402E+02  0.96793352993E+02 -0.15447692917E+03  0.18969414393E+03  0.41800000000E+01 0. -1.
         -5    1    3    3    0  502 -0.49988092974E+02  0.37678434541E+01 -0.63640855745E+02  0.81121125507E+02  0.41800000000E+01 0. -1.
        -11    1    1    2    0    0  0.22873130499E+02 -0.80697490524E+02 -0.99912411993E+02  0.13045211821E+03  0.00000000000E+00 0. -1.
         11    1    1    2    0    0 -0.25175772927E+02 -0.19863705924E+02 -0.16049632887E+03  0.16366874453E+03  0.00000000000E+00 0.  1.
</event>
<event>
 7    1  0.2733606E-009  0.6457671E+02  0.7561462E-02  0.1379571E+00
          1   -1    0    0  501    0  0.00000000000E+00  0.00000000000E+00  0.19848457811E+03  0.19848457811E+03  0.00000000000E+00 0. -1.
         -1   -1    0    0    0  501 -0.00000000000E+00 -0.00000000000E+00 -0.63132173338E+02  0.63132173338E+02  0.00000000000E+00 0.  1.
         25    2    1    2    0    0  0.92405723227E+01  0.40083462088E+02  0.96775361438E+02  0.16341611105E+03  0.12508909888E+03 0.  0.
          5    1    3    3  502    0 -0.26392606263E+02  0.34244620015E+02  0.11487266540E+03  0.12281068895E+03  0.41800000000E+01 0.  1.
         -5    1    3    3    0  502  0.35633178586E+02  0.58388420732E+01 -0.18097303961E+02  0.40605422095E+02  0.41800000000E+01 0.  1.
        -11    1    1    2    0    0  0.82502451081E+01 -0.24812348782E+02 -0.21462043098E+02  0.33828072519E+02  0.00000000000E+00 0.  1.
         11    1    1    2    0    0 -0.17490817431E+02 -0.15271113306E+02  0.60039086434E+02  0.64372567882E+02  0.00000000000E+00 0. -1.
</event>
<event>
 7    1  0.2733606E-009  0.4473811E+02  0.7561462E-02  0.1475983E+00
          2   -1    0    0  501    0  0.00000000000E+00  0.00000000000E+00  0.84614327985E+03  0.84614327985E+03  0.00000000000E+00 0. -1.
         -2   -1    0    0    0  501 -0.00000000000E+00 -0.00000000000E+00 -0.62082452781E+02  0.62082452781E+02  0.00000000000E+00 0.  1.
         25    2    1    2    0    0  0.11870737508E+02 -0.12222150972E+02  0.80389800119E+03  0.81375061910E+03  0.12509108042E+03 0.  0.
          5    1    3    3  502    0  0.92529781300E+01 -0.58135785746E+01  0.20697181873E+01  0.11881558546E+02  0.41800000000E+01 0.  1.
         -5    1    3    3    0  502  0.26177593781E+01 -0.64085723973E+01  0.80182828300E+03  0.80186906056E+03  0.41800000000E+01 0.  1.
        -11    1    1    2    0    0 -0.25602480267E+01  0.40159837088E+02 -0.41584267915E+02  0.57867250867E+02  0.00000000000E+00 0.  1.
         11    1    1    2    0    0 -0.93104894813E+01 -0.27937686116E+02  0.21747093803E+02  0.36607862663E+02  0.00000000000E+00 0. -1.
</event>
<event>
 7    1  0.2733606E-009  0.1866357E+03  0.7561462E-02  0.1161531E+00
         -2   -1    0    0    0  501 -0.00000000000E+00  0.00000000000E+00  0.39713762035E+03  0.39713762035E+03  0.00000000000E+00 0.  1.
          2   -1    0    0  501    0  0.00000000000E+00 -0.00000000000E+00 -0.16878781623E+03  0.16878781623E+03  0.00000000000E+00 0. -1.
         25    2    1    2    0    0  0.45611634026E+02  0.15063576596E+03 -0.71578668512E+02  0.21340746557E+03  0.12509070881E+03 0.  0.
          5    1    3    3  502    0 -0.22164135139E+02 -0.11120463242E+02 -0.13926087181E+02  0.28745815232E+02  0.41800000000E+01 0. -1.
         -5    1    3    3    0  502  0.67775769165E+02  0.16175622921E+03 -0.57652581330E+02  0.18466165034E+03  0.41800000000E+01 0. -1.
        -11    1    1    2    0    0 -0.19486714927E+02 -0.14456423306E+03  0.19097805469E+03  0.24031472471E+03  0.00000000000E+00 0. -1.
         11    1    1    2    0    0 -0.26124919099E+02 -0.60715329077E+01  0.10895041794E+03  0.11220324629E+03  0.00000000000E+00 0.  1.
</event>
<event>
 7    1  0.2733606E-009  0.9005465E+02  0.7561462E-02  0.1302719E+00
          2   -1    0    0  501    0  0.00000000000E+00  0.00000000000E+00  0.69267194810E+02  0.69267194810E+02  0.00000000000E+00 0. -1.
         -2   -1    0    0    0  501 -0.00000000000E+00 -0.00000000000E+00 -0.21420675475E+03  0.21420675475E+03  0.00000000000E+00 0.  1.
         25    2    1    2    0    0 -0.19876001000E+02  0.15869267581E+02 -0.13808647543E+03  0.18804770493E+03  0.12508867080E+03 0.  0.
          5    1    3    3  502    0  0.16209429084E+02 -0.27005820337E+02  0.69332340036E+01  0.32520794225E+02  0.41800000000E+01 0.  1.
         -5    1    3    3    0  502 -0.36085430084E+02  0.42875087918E+02 -0.14501970943E+03  0.15552691070E+03  0.41800000000E+01 0.  1.
        -11    1    1    2    0    0 -0.87426372053E+01 -0.48186670985E+02  0.83092137238E+01  0.49673252346E+02  0.00000000000E+00 0. -1.
         11    1    1    2    0    0  0.28618638206E+02  0.32317403404E+02 -0.15162298236E+02  0.45752992289E+02  0.00000000000E+00 0.  1.
</event>
<event>
 7    1  0.2733606E-009  0.1115575E+03  0.7561462E-02  0.1257712E+00
          1   -1    0    0  501    0  0.00000000000E+00  0.00000000000E+00  0.89803918864E+02  0.89803918864E+02  0.00000000000E+00 0. -1.
         -1   -1    0    0    0  501 -0.00000000000E+00 -0.00000000000E+00 -0.17704570252E+03  0.17704570252E+03  0.00000000000E+00 0.  1.
         25    2    1    2    0    0  0.26765102517E-01  0.71590332296E+02 -0.48036002794E+01  0.14420659392E+03  0.12508913127E+03 0.  0.
          5    1    3    3  502    0 -0.14615983959E+02  0.99846946401E+02 -0.27760711352E+02  0.10474334913E+03  0.41800000000E+01 0.  1.
         -5    1    3    3    0  502  0.14642749061E+02 -0.28256614105E+02  0.22957111073E+02  0.39463244792E+02  0.41800000000E+01 0.  1.
        -11    1    1    2    0    0  0.15245501700E+02 -0.73099404092E+02 -0.74005804437E+02  0.10513233228E+03  0.00000000000E+00 0. -1.
         11    1    1    2    0    0 -0.15272266802E+02  0.15090717963E+01 -0.84323789371E+01  0.17510695175E+02  0.00000000000E+00 0.  1.
</event>
<event>
 7    1  0.2733606E-009  0.8007722E+02  0.7561462E-02  0.1328832E+00
         -3   -1    0    0    0  501 -0.00000000000E+00  0.00000000000E+00  0.19948782472E+02  0.19948782472E+02  0.00000000000E+00 0.  1.
          3   -1    0    0  501    0  0.00000000000E+00 -0.00000000000E+00 -0.78687019423E+03  0.78687019423E+03  0.00000000000E+00 0. -1.
         25    2    1    2    0    0  0.38369916196E+02 -0.76713999427E+01 -0.26616201824E+03  0.29668260544E+03  0.12508895862E+03 0.  0.
          5    1    3    3  502    0  0.24133604741E+01 -0.23180803819E+02 -0.25451648854E+03  0.25561551070E+03  0.41800000000E+01 0. -1.
         -5    1    3    3    0  502  0.35956555722E+02  0.15509403876E+02 -0.11645529706E+02  0.41067094737E+02  0.41800000000E+01 0. -1.
        -11    1    1    2    0    0 -0.53052056692E+00  0.44375595128E+02 -0.24776061499E+03  0.25170378868E+03  0.00000000000E+00 0.  1.
         11    1    1    2    0    0 -0.37839395629E+02 -0.36704195185E+02 -0.25299877852E+03  0.25843258258E+03  0.00000000000E+00 0. -1.
</event>
<event>
 7    1  0.2733606E-009  0.8372656E+02  0.7561462E-02  0.1318797E+00
         -4   -1    0    0    0  501 -0.00000000000E+00  0.00000000000E+00  0.30264190392E+03  0.30264190392E+03  0.00000000000E+00 0. -1.
          4   -1    0    0  501    0  0.00000000000E+00 -0.00000000000E+00 -0.42341782754E+02  0.42341782754E+02  0.00000000000E+00 0.  1.
         25    2    1    2    0    0 -0.77820668249E+01  0.30941165463E+02  0.15602057133E+03  0.20250342513E+03  0.12508917709E+03 0.  0.
          5    1    3    3  502    0 -0.53491366521E+02  0.52719138701E+00  0.13188812414E+03  0.14238523067E+03  0.41800000000E+01 0.  1.
         -5    1    3    3    0  502  0.45709299696E+02  0.30413974076E+02  0.24132447196E+02  0.60118194463E+02  0.41800000000E+01 0.  1.
        -11    1    1    2    0    0 -0.37732788411E+01  0.12876715962E+02 -0.11800170148E+02  0.17868728625E+02  0.00000000000E+00 0.  1.
         11    1    1    2    0    0  0.11555345666E+02 -0.43817881424E+02  0.11607971998E+03  0.12461153292E+03  0.00000000000E+00 0. -1.
</event>
<event>
 7    1  0.2733606E-009  0.9706248E+02  0.7561462E-02  0.1286597E+00
         -1   -1    0    0    0  501 -0.00000000000E+00  0.00000000000E+00  0.35755041713E+03  0.35755041713E+03  0.00000000000E+00 0.  1.
          1   -1    0    0  501    0  0.00000000000E+00 -0.00000000000E+00 -0.37556031489E+02  0.37556031489E+02  0.00000000000E+00 0. -1.
         25    2    1    2    0    0  0.21875036499E+02  0.20032809321E+02  0.13026385163E+03  0.18301963313E+03  0.12509070469E+03 0.  0.
          5    1    3    3  502    0  0.34351474781E+02  0.67830507242E+02  0.96999168698E+02  0.12331793325E+03  0.41800000000E+01 0.  1.
         -5    1    3    3    0  502 -0.12476438282E+02 -0.47797697921E+02  0.33264682933E+02  0.59701699887E+02  0.41800000000E+01 0.  1.
        -11    1    1    2    0    0 -0.32663358483E+02  0.11847233685E+02  0.16905227112E+03  0.17258598525E+03  0.00000000000E+00 0.  1.
         11    1    1    2    0    0  0.10788321984E+02 -0.31880043006E+02  0.20678262893E+02  0.39500830239E+02  0.00000000000E+00 0. -1.
</event>
<event>
 7    1  0.3618065E-009  0.1552191E+03  0.7561462E-02  0.1194203E+00
          2   -1    0    0  501    0  0.00000000000E+00  0.00000000000E+00  0.48378822288E+03  0.48378822288E+03  0.00000000000E+00 0.  1.
         -2   -1    0    0    0  501 -0.00000000000E+00 -0.00000000000E+00 -0.76638271336E+02  0.76638271336E+02  0.00000000000E+00 0. -1.
         25    2    1    2    0    0 -0.10952636138E+03  0.56300907567E+02  0.68172177282E+02  0.18831047430E+03  0.12509025921E+03 0.  0.
          5    1    3    3  502    0 -0.34812380150E+02 -0.40066653542E+02  0.15813374123E+02  0.55540739452E+02  0.41800000000E+01 0.  1.
         -5    1    3    3    0  502 -0.74713981226E+02  0.96367561109E+02  0.52358803159E+02  0.13276973485E+03  0.41800000000E+01 0.  1.
        -11    1    1    2    0    0  0.73276977860E+02 -0.64951215187E+02  0.14748831411E+03  0.17703383472E+03  0.00000000000E+00 0. -1.
         11    1    1    2    0    0  0.36249383516E+02  0.86503076204E+01  0.19148946015E+03  0.19508218519E+03  0.00000000000E+00 0.  1.
</event>
<event>
 7    1  0.2733606E-009  0.1031162E+03  0.7561462E-02  0.1273876E+00
          2   -1    0    0  501    0  0.00000000000E+00  0.00000000000E+00  0.11140494123E+04  0.11140494123E+04  0.00000000000E+00 0. -1.
         -2   -1    0    0    0  501 -0.00000000000E+00 -0.00000000000E+00 -0.12359675991E+02  0.12359675991E+02  0.00000000000E+00 0.  1.
         25    2    1    2    0    0  0.10237106417E+02  0.37774076114E+02  0.91497259247E+03  0.92431271518E+03  0.12508985284E+03 0.  0.
          5    1    3    3  502    0 -0.49178854538E+02 -0.12572306159E+02  0.44609652237E+03  0.44899465730E+03  0.41800000000E+01 0. -1.
         -5    1    3    3    0  502  0.59415960955E+02  0.50346382273E+02  0.46887607011E+03  0.47531805788E+03  0.41800000000E+01 0. -1.
        -11    1    1    2    0    0 -0.38707477020E+02 -0.18293024275E+02  0.10120651459E+03  0.10988931754E+03  0.00000000000E+00 0. -1.
         11    1    1    2    0    0  0.28470370602E+02 -0.19481051839E+02  0.85510629195E+02  0.92207055524E+02  0.00000000000E+00 0.  1.
</event>
<event>
 7    1  0.2733606E-009  0.1184684E+03  0.7561462E-02  0.1245645E+00
         -2   -1    0    0    0  501 -0.00000000000E+00  0.00000000000E+00  0.11902805413E+03  0.11902805413E+03  0.00000000000E+00 0. -1.
          2   -1    0    0  501    0  0.00000000000E+00 -0.00000000000E+00 -0.20106018782E+03  0.20106018782E+03  0.00000000000E+00 0.  1.
         25    2    1    2    0    0 -0.96411424241E+02 -0.46796959826E+02 -0.17273966197E+02  0.16562317837E+03  0.12509008407E+03 0.  0.
          5    1    3    3  502    0 -0.19611184256E+02 -0.42148610170E+02  0.46288259285E+02  0.65735677032E+02  0.41800000000E+01 0. -1.
         -5    1    3    3    0  502 -0.76800239985E+02 -0.46483496562E+01 -0.63562225482E+02  0.99887501343E+02  0.41800000000E+01 0. -1.
        -11    1    1    2    0    0  0.37708174969E+02  0.38552816440E+02 -0.76929834861E+02  0.93949058573E+02  0.00000000000E+00 0.  1.
         11    1    1    2    0    0  0.58703249272E+02  0.82441433869E+01  0.12171667370E+02  0.60516005005E+02  0.00000000000E+00 0. -1.
</event>
<event>
 7    1  0.2733606E-009  0.1764525E+03  0.7561462E-02  0.1171281E+00
          2   -1    0    0  501    0  0.00000000000E+00  0.00000000000E+00  0.19246388471E+04  0.19246388471E+04  0.00000000000E+00 0. -1.
         -2   -1    0    0    0  501 -0.00000000000E+00 -0.00000000000E+00 -0.17716769356E+02  0.17716769356E+02  0.00000000000E+00 0.  1.
         25    2    1    2    0    0  0.12106569152E+03  0.68376703406E+02  0.12772049930E+04  0.12908261496E+04  0.12508908415E+03 0.  0.
          5    1    3    3  502    0 -0.52052688432E+01 -0.27382084429E+02  0.16745325294E+03  0.16980853244E+03  0.41800000000E+01 0. -1.
         -5    1    3    3    0  502  0.12627096036E+03  0.95758787835E+02  0.11097517401E+04  0.11210176171E+04  0.41800000000E+01 0. -1.
        -11    1    1    2    0    0 -0.29065601919E+02  0.22590235334E+02  0.17090386680E+03  0.17482350996E+03  0.00000000000E+00 0.  1.
         11    1    1    2    0    0 -0.92000089599E+02 -0.90966938741E+02  0.45881321786E+03  0.47670595687E+03  0.00000000000E+00 0. -1.
</event>
<event>
 7    1  0.2733606E-009  0.1158132E+03  0.7561462E-02  0.1250168E+00
         -1   -1    0    0    0  501 -0.00000000000E+00  0.00000000000E+00  0.16907231470E+03  0.16907231470E+03  0.00000000000E+00 0.  1.
          1   -1    0    0  501    0  0.00000000000E+00 -0.00000000000E+00 -0.92219283004E+02  0.92219283004E+02  0.00000000000E+00 0. -1.
         25    2    1    2    0    0 -0.58343418517E+02  0.86661972310E+01  0.51097051906E+02  0.14743317976E+03  0.12508627551E+03 0.  0.
          5    1    3    3  502    0  0.19009423425E+02  0.43539458282E+02  0.39030606975E+02  0.61627131098E+02  0.41800000000E+01 0. -1.
         -5    1    3    3    0  502 -0.77352841943E+02 -0.34873261051E+02  0.12066444931E+02  0.85806048658E+02  0.41800000000E+01 0. -1.
        -11    1    1    2    0    0  0.12262226794E+02  0.34022987637E+02  0.35044865510E+02  0.50359393288E+02  0.00000000000E+00 0.  1.
         11    1    1    2    0    0  0.46081191724E+02 -0.42689184868E+02 -0.92888857172E+01  0.63499024664E+02  0.00000000000E+00 0. -1.
</event>
<event>
 7    1  0.2733606E-009  0.9565845E+02  0.7561462E-02  0.1289700E+00
         -1   -1    0    0    0  501 -0.00000000000E+00  0.00000000000E+00  0.10426299850E+03  0.10426299850E+03  0.00000000000E+00 0.  1.
          1   -1    0    0  501    0  0.00000000000E+00 -0.00000000000E+00 -0.28804454271E+03  0.28804454271E+03  0.00000000000E+00 0. -1.
         25    2    1    2    0    0 -0.17790895815E+02 -0.58098223027E+00  0.53142212726E+02  0.13707340288E+03  0.12509264363E+03 0.  0.
          5    1    3    3  502    0  0.38692169669E+02 -0.12165249183E+02 -0.18701694065E+02  0.44858700853E+02  0.41800000000E+01 0. -1.
         -5    1    3    3    0  502 -0.56483065484E+02  0.11584266952E+02  0.71843906791E+02  0.92214702029E+02  0.41800000000E+01 0. -1.
        -11    1    1    2    0    0  0.44811091875E+02 -0.28444680882E+02 -0.10779962346E+03  0.12015778228E+03  0.00000000000E+00 0.  1.
         11    1    1    2    0    0 -0.27020196059E+02  0.29025663112E+02 -0.12912413348E+03  0.13507635604E+03  0.00000000000E+00 0. -1.
</event>
<event>
 7    1  0.2733606E-009  0.1640978E+03  0.7561462E-02  0.1184147E+00
          2   -1    0    0  501    0  0.00000000000E+00  0.00000000000E+00  0.12359662335E+04  0.12359662335E+04  0.00000000000E+00 0. -1.
         -2   -1    0    0    0  501 -0.00000000000E+00 -0.00000000000E+00 -0.56705828889E+02  0.56705828889E+02  0.00000000000E+00 0.  1.
         25    2    1    2    0    0  0.65682018600E+02  0.11621880074E+03  0.10952822899E+04  0.11104553157E+04  0.12508707465E+03 0.  0.
          5    1    3    3  502    0 -0.76018215918E+01 -0.19350754515E+02  0.57525477030E+02  0.61309805898E+02  0.41800000000E+01 0. -1.
         -5    1    3    3    0  502  0.73283840192E+02  0.13556955526E+03  0.10377568129E+04  0.10491455098E+04  0.41800000000E+01 0. -1.
        -11    1    1    2    0    0 -0.80710486204E+02 -0.80137896857E+02  0.33882328209E+02  0.11867719773E+03  0.00000000000E+00 0.  1.
         11    1    1    2    0    0  0.15028467604E+02 -0.36080903886E+02  0.50095786460E+02  0.63539548982E+02  0.00000000000E+00 0. -1.
</event>
<event>
 7    1  0.2733606E-009  0.7231805E+02  0.7561462E-02  0.1352383E+00
          2   -1    0    0  501    0  0.00000000000E+00  0.00000000000E+00  0.21280761142E+03  0.21280761142E+03  0.00000000000E+00 0. -1.
         -2   -1    0    0    0  501 -0.00000000000E+00 -0.00000000000E+00 -0.58967406351E+02  0.58967406351E+02  0.00000000000E+00 0.  1.
         25    2    1    2    0    0  0.21752620504E+02  0.17160166088E+02  0.74761711839E+02  0.14833456580E+03  0.12508469953E+03 0.  0.
          5    1    3    3  502    0  0.27217313909E+02 -0.41682024594E+01  0.10616365108E+03  0.10975586226E+03  0.41800000000E+01 0. -1.
         -5    1    3    3    0  502 -0.54646934054E+01  0.21328368548E+02 -0.31401939245E+02  0.38578703546E+02  0.41800000000E+01 0. -1.
        -11    1    1    2    0    0 -0.27267086063E+02  0.33625252371E+02  0.30592571164E+02  0.53009970664E+02  0.00000000000E+00 0.  1.
         11    1    1    2    0    0  0.55144655594E+01 -0.50785418459E+02  0.48485922069E+02  0.70430481308E+02  0.00000000000E+00 0. -1.
</event>
<event>
 7    1  0.2733606E-009  0.3123902E+03  0.7561462E-02  0.1079206E+00
          2   -1    0    0  501    0  0.00000000000E+00  0.00000000000E+00  0.38034383570E+04  0.38034383570E+04  0.00000000000E+00 0. -1.
         -2   -1    0    0    0  501 -0.00000000000E+00 -0.00000000000E+00 -0.37042459945E+02  0.37042459945E+02  0.00000000000E+00 0.  1.
         25    2    1    2    0    0  0.28631439536E+03  0.89189490828E+02  0.29170110260E+04  0.29350522426E+04  0.12509053789E+03 0.  0.
          5    1    3    3  502    0  0.15536252468E+03  0.11227431042E+03  0.16763762545E+04  0.16873049084E+04  0.41800000000E+01 0.  1.
         -5    1    3    3    0  502  0.13095187068E+03 -0.23084819590E+02  0.12406347715E+04  0.12477473342E+04  0.41800000000E+01 0.  1.
        -11    1    1    2    0    0 -0.22656716801E+03 -0.66810637966E+02  0.53795093995E+03  0.58752664345E+03  0.00000000000E+00 0.  1.
         11    1    1    2    0    0 -0.59747227346E+02 -0.22378852861E+02  0.31143393109E+03  0.31790193089E+03  0.00000000000E+00 0. -1.
</event>
<event>
 7    1  0.2733606E-009  0.1617289E+03  0.7561462E-02  0.1186759E+00
         -2   -1    0    0    0  501 -0.00000000000E+00  0.00000000000E+00  0.55349133439E+02  0.55349133439E+02  0.00000000000E+00 0.  1.
          2   -1    0    0  501    0  0.00000000000E+00 -0.00000000000E+00 -0.60889952938E+03  0.60889952938E+03  0.00000000000E+00 0. -1.
         25    2    1    2    0    0  0.11539215628E+03  0.69500389029E+02 -0.40016758851E+03  0.44037244302E+03  0.12509250925E+03 0.  0.
          5    1    3    3  502    0  0.18982020402E+02 -0.35956067520E+02 -0.91080516105E+02  0.99831301224E+02  0.41800000000E+01 0. -1.
         -5    1    3    3    0  502  0.96410135874E+02  0.10545645655E+03 -0.30908707240E+03  0.34054114179E+03  0.41800000000E+01 0. -1.
        -11    1    1    2    0    0 -0.10141438738E+03 -0.73326979190E+02 -0.16372176778E+03  0.20607411553E+03  0.00000000000E+00 0. -1.
         11    1    1    2    0    0 -0.13977768893E+02  0.38265901613E+01  0.10338960348E+02  0.17802104274E+02  0.00000000000E+00 0.  1.
</event>
<event>
 7    1  0.2733606E-009  0.9411152E+02  0.7561462E-02  0.1293190E+00
         -2   -1    0    0    0  501 -0.00000000000E+00  0.00000000000E+00  0.39430526824E+02  0.39430526824E+02  0.00000000000E+00 0.  1.
          2   -1    0    0  501    0  0.00000000000E+00 -0.00000000000E+00 -0.34150616572E+03  0.34150616572E+03  0.00000000000E+00 0. -1.
         25    2    1    2    0    0  0.20879056608E+02  0.29808719323E+02 -0.15194491465E+03  0.20014604064E+03  0.12508671289E+03 0.  0.
          5    1    3    3  502    0 -0.50679192131E+02 -0.29372434954E+01 -0.68608444548E+02  0.85449394250E+02  0.41800000000E+01 0. -1.
         -5    1    3    3    0  502  0.71558248739E+02  0.32745962819E+02 -0.83336470106E+02  0.11469664639E+03  0.41800000000E+01 0. -1.
        -11    1    1    2    0    0 -0.20747051537E+02  0.68299078631E+01  0.41379022376E+01  0.22230834978E+02  0.00000000000E+00 0.  1.
         11    1    1    2    0    0 -0.13200507118E+00 -0.36638627186E+02 -0.15426862648E+03  0.15855981693E+03  0.00000000000E+00 0. -1.
</event>
<event>
 7    1  0.2733606E-009  0.2174816E+03  0.7561462E-02  0.1135775E+00
          1   -1    0    0  501    0  0.00000000000E+00  0.00000000000E+00  0.16558663330E+04  0.16558663330E+04  0.00000000000E+00 0. -1.
         -1   -1    0    0    0  501 -0.00000000000E+00 -0.00000000000E+00 -0.32964297610E+02  0.32964297610E+02  0.00000000000E+00 0.  1.
         25    2    1    2    0    0  0.16796004789E+03 -0.12009689265E+03  0.88460831958E+03  0.91695823028E+03  0.12508667277E+03 0.  0.
          5    1    3    3  502    0  0.92200358355E+02 -0.90119499712E+02  0.73791758666E+03  0.74910764742E+03  0.41800000000E+01 0. -1.
         -5    1    3    3    0  502  0.75759689533E+02 -0.29977392934E+02  0.14669073291E+03  0.16785058287E+03  0.41800000000E+01 0. -1.
        -11    1    1    2    0    0 -0.13578026952E+03  0.45595790636E+02  0.43926343910E+03  0.46202556926E+03  0.00000000000E+00 0.  1.
         11    1    1    2    0    0 -0.32179778370E+02  0.74501102010E+02  0.29903027666E+03  0.30984683103E+03  0.00000000000E+00 0. -1.
</event>
<event>
 7    1  0.2733606E-009  0.1269149E+03  0.7561462E-02  0.1232107E+00
         -2   -1    0    0    0  501 -0.00000000000E+00  0.00000000000E+00  0.31058023424E+03  0.31058023424E+03  0.00000000000E+00 0.  1.
          2   -1    0    0  501    0  0.00000000000E+00 -0.00000000000E+00 -0.68632140191E+02  0.68632140191E+02  0.00000000000E+00 0. -1.
         25    2    1    2    0    0 -0.54467526269E+02 -0.70950792070E+02  0.83820659833E+02  0.17514563278E+03  0.12509741546E+03 0.  0.
          5    1    3    3  502    0 -0.60928565077E+02  0.92588598596E+01  0.70058906565E+02  0.93400959938E+02  0.41800000000E+01 0.  1.
         -5    1    3    3    0  502  0.64610388075E+01 -0.80209651930E+02  0.13761753268E+02  0.81744672843E+02  0.41800000000E+01 0.  1.
        -11    1    1    2    0    0  0.63465989798E+02  0.31190148582E+02  0.14485448801E+03  0.16119423044E+03  0.00000000000E+00 0.  1.
         11    1    1    2    0    0 -0.89984635282E+01  0.39760643488E+02  0.13272946200E+02  0.42872511208E+02  0.00000000000E+00 0. -1.
</event>
<event>
 7    1  0.2733606E-009  0.7869456E+02  0.7561462E-02  0.1332797E+00
          4   -1    0    0  501    0  0.00000000000E+00  0.00000000000E+00  0.36549477099E+03  0.36549477099E+03  0.00000000000E+00 0. -1.
         -4   -1    0    0    0  501 -0.00000000000E+00 -0.00000000000E+00 -0.32719811438E+02  0.32719811438E+02  0.00000000000E+00 0.  1.
         25    2    1    2    0    0 -0.77053919428E+01 -0.16685872769E+01  0.21174720241E+03  0.24606184452E+03  0.12508955331E+03 0.  0.
          5    1    3    3  502    0 -0.10825305826E+02  0.49740915164E+02  0.35004821126E+02  0.61920560314E+02  0.41800000000E+01 0.  1.
         -5    1    3    3    0  502  0.31199138828E+01 -0.51409502441E+02  0.17674238129E+03  0.18414128420E+03  0.41800000000E+01 0.  1.
        -11    1    1    2    0    0 -0.21853850906E+02 -0.83992398888E+01  0.11853681298E+03  0.12082679364E+03  0.00000000000E+00 0. -1.
         11    1    1    2    0    0  0.29559242849E+02  0.10067827166E+02  0.24909441579E+01  0.31325944271E+02  0.00000000000E+00 0.  1.
</event>
<event>
 7    1  0.2733606E-009  0.9725625E+02  0.7561462E-02  0.1286174E+00
          1   -1    0    0  501    0  0.00000000000E+00  0.00000000000E+00  0.83269572506E+02  0.83269572506E+02  0.00000000000E+00 0. -1.
         -1   -1    0    0    0  501 -0.00000000000E+00 -0.00000000000E+00 -0.16041049396E+03  0.16041049396E+03  0.00000000000E+00 0.  1.
         25    2    1    2    0    0  0.26065051430E+02 -0.12529934306E+02 -0.72513413448E+02  0.14745146609E+03  0.12508938229E+03 0.  0.
          5    1    3    3  502    0 -0.18467218635E+02 -0.44032133398E+02  0.95025130399E+01  0.48863453519E+02  0.41800000000E+01 0. -1.
         -5    1    3    3    0  502  0.44532270064E+02  0.31502199092E+02 -0.82015926488E+02  0.98588012570E+02  0.41800000000E+01 0. -1.
        -11    1    1    2    0    0  0.18164159563E+02  0.37078499392E+02  0.11972373003E+02  0.42989411779E+02  0.00000000000E+00 0. -1.
         11    1    1    2    0    0 -0.44229210993E+02 -0.24548565086E+02 -0.16599881003E+02  0.53239188594E+02  0.00000000000E+00 0.  1.
</event>
<event>
 7    1  0.2733606E-009  0.2080975E+03  0.7561462E-02  0.1143082E+00
          1   -1    0    0  501    0  0.00000000000E+00  0.00000000000E+00  0.61669740105E+03  0.61669740105E+03  0.00000000000E+00 0. -1.
         -1   -1    0    0    0  501 -0.00000000000E+00 -0.00000000000E+00 -0.86583261925E+02  0.86583261925E+02  0.00000000000E+00 0.  1.
         25    2    1    2    0    0  0.14231288949E+03  0.10861059616E+03  0.42509138277E+03  0.47791054468E+03  0.12508630981E+03 0.  0.
          5    1    3    3  502    0 -0.22560760643E+02  0.95307916478E+01  0.66034451967E+02  0.70553845798E+02  0.41800000000E+01 0.  1.
         -5    1    3    3    0  502  0.16487365013E+03  0.99079804513E+02  0.35905693080E+03  0.40735669888E+03  0.41800000000E+01 0.  1.
        -11    1    1    2    0    0 -0.25084297976E+02 -0.71834308033E+02  0.32834411573E+02  0.82870310720E+02  0.00000000000E+00 0. -1.
         11    1    1    2    0    0 -0.11722859151E+03 -0.36776288127E+02  0.72188344787E+02  0.14249980758E+03  0.00000000000E+00 0.  1.
</event>
<event>
 7    1  0.2733606E-009  0.1117793E+03  0.7561462E-02  0.1257310E+00
         -1   -1    0    0    0  501 -0.00000000000E+00  0.00000000000E+00  0.65773004284E+02  0.65773004284E+02  0.00000000000E+00 0.  1.
          1   -1    0    0  501    0  0.00000000000E+00 -0.00000000000E+00 -0.26822855949E+03  0.26822855949E+03  0.00000000000E+00 0. -1.
         25    2    1    2    0    0  0.71280587587E+02 -0.18514530620E+02 -0.93498804129E+02  0.17266511097E+03  0.12508998425E+03 0.  0.
          5    1    3    3  502    0 -0.31524181457E+02 -0.27111661673E+02 -0.30183745386E+02  0.51549462662E+02  0.41800000000E+01 0.  1.
         -5    1    3    3    0  502  0.10280476904E+03  0.85971310532E+01 -0.63315058743E+02  0.12111564830E+03  0.41800000000E+01 0.  1.
        -11    1    1    2    0    0 -0.36006090743E+02  0.23354187689E+02 -0.11718203130E+03  0.12479377033E+03  0.00000000000E+00 0. -1.
         11    1    1    2    0    0 -0.35274496844E+02 -0.48396570687E+01  0.82252802220E+01  0.36542682481E+02  0.00000000000E+00 0.  1.
</event>
<event>
 7    1  0.2733606E-009  0.9806987E+02  0.7561462E-02  0.1284408E+00
          2   -1    0    0  501    0  0.00000000000E+00  0.00000000000E+00  0.28453073217E+03  0.28453073217E+03  0.00000000000E+00 0. -1.
         -2   -1    0    0    0  501 -0.00000000000E+00 -0.00000000000E+00 -0.71185498135E+02  0.71185498135E+02  0.00000000000E+00 0.  1.
         25    2    1    2    0    0  0.82931640096E+02 -0.26393471163E+02  0.15321860500E+03  0.21609411113E+03  0.12508577735E+03 0.  0.
          5    1    3    3  502    0  0.71833640300E+00 -0.53309044165E+01 -0.21097921670E+02  0.22170458901E+02  0.41800000000E+01 0. -1.
         -5    1    3    3    0  502  0.82213303693E+02 -0.21062566746E+02  0.17431652667E+03  0.19392365223E+03  0.41800000000E+01 0. -1.
        -11    1    1    2    0    0  0.10141020270E+01 -0.12003096664E+02 -0.15960416909E+02  0.19995940597E+02  0.00000000000E+00 0.  1.
         11    1    1    2    0    0 -0.83945742123E+02  0.38396567827E+02  0.76087045939E+02  0.11962617858E+03  0.00000000000E+00 0. -1.
</event>
<event>
 7    1  0.2733606E-009  0.9139547E+02  0.7561462E-02  0.1299507E+00
         -1   -1    0    0    0  501 -0.00000000000E+00  0.00000000000E+00  0.24465043546E+02  0.24465043546E+02  0.00000000000E+00 0.  1.
          1   -1    0    0  501    0  0.00000000000E+00 -0.00000000000E+00 -0.55766987402E+03  0.55766987402E+03  0.00000000000E+00 0. -1.
         25    2    1    2    0    0  0.20268965803E+02 -0.57428186317E+01 -0.34204901184E+03  0.36481497558E+03  0.12509448016E+03 0.  0.
          5    1    3    3  502    0  0.51436443972E+02  0.22382350252E+02 -0.71393447876E+02  0.90891001595E+02  0.41800000000E+01 0.  1.
         -5    1    3    3    0  502 -0.31167478169E+02 -0.28125168884E+02 -0.27065556396E+03  0.27392397398E+03  0.41800000000E+01 0.  1.
        -11    1    1    2    0    0 -0.50247277161E+02  0.15893536970E+02 -0.49952621455E+02  0.72613068863E+02  0.00000000000E+00 0.  1.
         11    1    1    2    0    0  0.29978311358E+02 -0.10150718338E+02 -0.14120319719E+03  0.14470687313E+03  0.00000000000E+00 0. -1.
</event>
<event>
 7    1  0.2733606E-009  0.1851016E+03  0.7561462E-02  0.1162955E+00
          1   -1    0    0  501    0  0.00000000000E+00  0.00000000000E+00  0.13811276353E+04  0.13811276353E+04  0.00000000000E+00 0. -1.
         -1   -1    0    0    0  501 -0.00000000000E+00 -0.00000000000E+00 -0.30732267007E+02  0.30732267007E+02  0.00000000000E+00 0.  1.
         25    2    1    2    0    0 -0.57242306064E+02  0.14710322671E+03  0.96207381777E+03  0.98292911609E+03  0.12509026948E+03 0.  0.
          5    1    3    3  502    0  0.37348589605E+02  0.41838327689E+02  0.19723771648E+03  0.20509888350E+03  0.41800000000E+01 0. -1.
         -5    1    3    3    0  502 -0.94590895670E+02  0.10526489902E+03  0.76483610129E+03  0.77783023260E+03  0.41800000000E+01 0. -1.
        -11    1    1    2    0    0  0.23068609063E+02 -0.13369656987E+03  0.35220867556E+03  0.37743593451E+03  0.00000000000E+00 0. -1.
         11    1    1    2    0    0  0.34173697001E+02 -0.13406656836E+02  0.36112874981E+02  0.51494851720E+02  0.00000000000E+00 0.  1.
</event>
<event>
 7    1  0.2733606E-009  0.1540858E+03  0.7561462E-02  0.1195540E+00
         -2   -1    0    0    0  501 -0.00000000000E+00  0.00000000000E+00  0.69762851552E+02  0.69762851552E+02  0.00000000000E+00 0.  1.
          2   -1    0    0  501    0  0.00000000000E+00 -0.00000000000E+00 -0.65708561868E+03  0.65708561868E+03  0.00000000000E+00 0. -1.
         25    2    1    2    0    0  0.10367254167E+03 -0.54539280717E+02 -0.64019109070E+02  0.18294479424E+03  0.12509125619E+03 0.  0.
          5    1    3    3  502    0  0.11976335149E+03 -0.74208682226E+02 -0.68643576891E+02  0.15677883125E+03  0.41800000000E+01 0. -1.
         -5    1    3    3    0  502 -0.16090809824E+02  0.19669401509E+02  0.46244678206E+01  0.26165962989E+02  0.41800000000E+01 0. -1.
        -11    1    1    2    0    0 -0.83260230301E+02  0.31288121717E-01 -0.22355564136E+03  0.23855689408E+03  0.00000000000E+00 0.  1.
         11    1    1    2    0    0 -0.20412311370E+02  0.54507992595E+02 -0.29974801669E+03  0.30534678191E+03  0.00000000000E+00 0. -1.
</event>
<event>
 7    1  0.2733606E-009  0.9839552E+02  0.7561462E-02  0.1283707E+00
         -2   -1    0    0    0  501 -0.00000000000E+00  0.00000000000E+00  0.15265938489E+02  0.15265938489E+02  0.00000000000E+00 0.  1.
          2   -1    0    0  501    0  0.00000000000E+00 -0.00000000000E+00 -0.13211706384E+04  0.13211706384E+04  0.00000000000E+00 0. -1.
         25    2    1    2    0    0  0.75277121782E+02 -0.34381026192E+02 -0.91583714039E+03  0.92803792108E+03  0.12509202700E+03 0.  0.
          5    1    3    3  502    0  0.90039437253E+02 -0.25222691757E+02 -0.89773965085E+03  0.90260580408E+03  0.41800000000E+01 0. -1.
         -5    1    3    3    0  502 -0.14762315471E+02 -0.91583344346E+01 -0.18097489536E+02  0.25432117002E+02  0.41800000000E+01 0. -1.
        -11    1    1    2    0    0 -0.57344273254E+02  0.35350534186E+02 -0.38335075810E+03  0.38922465194E+03  0.00000000000E+00 0. -1.
         11    1    1    2    0    0 -0.17932848528E+02 -0.96950799391E+00 -0.67168013822E+01  0.19174003830E+02  0.00000000000E+00 0.  1.
</event>
<event>
 7    1  0.2733606E-009  0.1029751E+03  0.7561462E-02  0.1274161E+00
          2   -1    0    0  501    0  0.00000000000E+00  0.00000000000E+00  0.33192360616E+03  0.33192360616E+03  0.00000000000E+00 0. -1.
         -2   -1    0    0    0  501 -0.00000000000E+00 -0.00000000000E+00 -0.56247137191E+02  0.56247137191E+02  0.00000000000E+00 0.  1.
         25    2    1    2    0    0 -0.14449820333E+02  0.34089210438E+02  0.25799727726E+03  0.28910487038E+03  0.12509260343E+03 0.  0.
          5    1    3    3  502    0  0.45676324875E+02 -0.18629070834E+02  0.82707852429E+02  0.96392064962E+02  0.41800000000E+01 0.  1.
         -5    1    3    3    0  502 -0.60126145207E+02  0.52718281273E+02  0.17528942483E+03  0.19271280542E+03  0.41800000000E+01 0.  1.
        -11    1    1    2    0    0  0.22649484303E+01 -0.53447962173E+02  0.40237577416E+02  0.66939355301E+02  0.00000000000E+00 0. -1.
         11    1    1    2    0    0  0.12184871902E+02  0.19358751734E+02 -0.22558385701E+02  0.32126517667E+02  0.00000000000E+00 0.  1.
</event>
<event>
 7    1  0.2733606E-009  0.1203774E+03  0.7561462E-02  0.1242476E+00
          2   -1    0    0  501    0  0.00000000000E+00  0.00000000000E+00  0.89412082298E+03  0.89412082298E+03  0.00000000000E+00 0. -1.
         -2   -1    0    0    0  501 -0.00000000000E+00 -0.00000000000E+00 -0.36332343186E+02  0.36332343186E+02  0.00000000000E+00 0.  1.
         25    2    1    2    0    0 -0.59855123208E+02  0.87973033064E+02  0.70064930730E+03  0.71963788326E+03  0.12508933162E+03 0.  0.
          5    1    3    3  502    0  0.19192713022E+02  0.94114095212E+01  0.18933417772E+02  0.28859687643E+02  0.41800000000E+01 0.  1.
         -5    1    3    3    0  502 -0.79047836230E+02  0.78561623543E+02  0.68171588953E+03  0.69077819562E+03  0.41800000000E+01 0.  1.
        -11    1    1    2    0    0  0.11044229676E+02 -0.28149629515E+02  0.12252555591E+03  0.12620177694E+03  0.00000000000E+00 0. -1.
         11    1    1    2    0    0  0.48810893532E+02 -0.59823403549E+02  0.34613616588E+02  0.84613505972E+02  0.00000000000E+00 0.  1.
</event>
<event>
 7    1  0.2733606E-009  0.1392616E+03  0.7561462E-02  0.1214326E+00
         -1   -1    0    0    0  501 -0.00000000000E+00  0.00000000000E+00  0.11171902941E+03  0.11171902941E+03  0.00000000000E+00 0.  1.
          1   -1    0    0  501    0  0.00000000000E+00 -0.00000000000E+00 -0.27036173753E+03  0.27036173753E+03  0.00000000000E+00 0. -1.
         25    2    1    2    0    0  0.92805558033E+02 -0.69934681284E+02 -0.56557342964E+01  0.17083324213E+03  0.12509307749E+03 0.  0.
          5    1    3    3  502    0  0.30080457121E+02 -0.66137823992E+02  0.48760460213E+02  0.87601943718E+02  0.41800000000E+01 0. -1.
         -5    1    3    3    0  502  0.62725100912E+02 -0.37968572924E+01 -0.54416194509E+02  0.83231298407E+02  0.41800000000E+01 0. -1.
        -11    1    1    2    0    0 -0.55464021953E+02  0.85823571587E+02 -0.12721788809E+03  0.16317577707E+03  0.00000000000E+00 0. -1.
         11    1    1    2    0    0 -0.37341536080E+02 -0.15888890303E+02 -0.25769085739E+02  0.48071747749E+02  0.00000000000E+00 0.  1.
</event>
<event>
 7    1  0.2733606E-009  0.1844640E+03  0.7561462E-02  0.1163551E+00
          2   -1    0    0  501    0  0.00000000000E+00  0.00000000000E+00  0.84077768143E+03  0.84077768143E+03  0.00000000000E+00 0. -1.
         -2   -1    0    0    0  501 -0.00000000000E+00 -0.00000000000E+00 -0.47475369284E+02  0.47475369284E+02  0.00000000000E+00 0.  1.
         25    2    1    2    0    0  0.89511924280E+02  0.13240548436E+03  0.32406812189E+03  0.38237431352E+03  0.12508545534E+03 0.  0.
          5    1    3    3  502    0 -0.18946538191E+02  0.52070330052E+02  0.16288196109E+03  0.17209966946E+03  0.41800000000E+01 0.  1.
         -5    1    3    3    0  502  0.10845846247E+03  0.80335154312E+02  0.16118616080E+03  0.21027464406E+03  0.41800000000E+01 0.  1.
        -11    1    1    2    0    0 -0.43038369273E+02 -0.57599556752E+01  0.54073076756E+02  0.69349664375E+02  0.00000000000E+00 0.  1.
         11    1    1    2    0    0 -0.46473555007E+02 -0.12664552869E+03  0.41516111349E+03  0.43652907281E+03  0.00000000000E+00 0. -1.
</event>
<event>
 7    1  0.2733606E-009  0.1111445E+03  0.7561462E-02  0.1258465E+00
         -1   -1    0    0    0  501 -0.00000000000E+00  0.00000000000E+00  0.15767005050E+03  0.15767005050E+03  0.00000000000E+00 0.  1.
          1   -1    0    0  501    0  0.00000000000E+00 -0.00000000000E+00 -0.13399977428E+03  0.13399977428E+03  0.00000000000E+00 0. -1.
         25    2    1    2    0    0 -0.47615037978E+02 -0.34202579099E+01  0.97322805391E+02  0.16551800192E+03  0.12508233490E+03 0.  0.
          5    1    3    3  502    0 -0.17494919297E+02  0.52915992345E+02  0.92714824976E+01  0.56653395615E+02  0.41800000000E+01 0. -1.
         -5    1    3    3    0  502 -0.30120118681E+02 -0.56336250255E+02  0.88051322894E+02  0.10886460630E+03  0.41800000000E+01 0. -1.
        -11    1    1    2    0    0 -0.27252946192E+02  0.37622751542E+01 -0.21338120545E+02  0.34816564719E+02  0.00000000000E+00 0. -1.
         11    1    1    2    0    0  0.74867984170E+02 -0.34201724430E+00 -0.52314408627E+02  0.91335258140E+02  0.00000000000E+00 0.  1.
</event>
<event>
 7    1  0.2733606E-009  0.9814631E+02  0.7561462E-02  0.1284243E+00
         -2   -1    0    0    0  501 -0.00000000000E+00  0.00000000000E+00  0.44148863529E+03  0.44148863529E+03  0.00000000000E+00 0.  1.
          2   -1    0    0  501    0  0.00000000000E+00 -0.00000000000E+00 -0.34391099947E+02  0.34391099947E+02  0.00000000000E+00 0. -1.
         25    2    1    2    0    0  0.42485809135E+02  0.19044501384E+02  0.15978581545E+03  0.20819795451E+03  0.12508854637E+03 0.  0.
          5    1    3    3  502    0  0.20397439686E+02 -0.31953991976E+02 -0.87047961633E+00  0.38148961765E+02  0.41800000000E+01 0. -1.
         -5    1    3    3    0  502  0.22088369449E+02  0.50998493360E+02  0.16065629507E+03  0.17004899275E+03  0.41800000000E+01 0. -1.
        -11    1    1    2    0    0 -0.33228999892E+02 -0.55566054136E+02  0.15727589620E+03  0.17008074651E+03  0.00000000000E+00 0.  1.
         11    1    1    2    0    0 -0.92568092427E+01  0.36521552752E+02  0.90035823692E+02  0.97601034219E+02  0.00000000000E+00 0. -1.
</event>
<event>
 7    1  0.2733606E-009  0.2764007E+03  0.7561462E-02  0.1097671E+00
         -2   -1    0    0    0  501 -0.00000000000E+00  0.00000000000E+00  0.45858203143E+02  0.45858203143E+02  0.00000000000E+00 0.  1.
          2   -1    0    0  501    0  0.00000000000E+00 -0.00000000000E+00 -0.18681924366E+04  0.18681924366E+04  0.00000000000E+00 0. -1.
         25    2    1    2    0    0  0.42049737226E+02 -0.25651826878E+03 -0.68380304380E+03  0.74216066030E+03  0.12508413316E+03 0.  0.
          5    1    3    3  502    0  0.67695527783E+02 -0.22517220222E+03 -0.48221056983E+03  0.53649763391E+03  0.41800000000E+01 0.  1.
         -5    1    3    3    0  502 -0.25645790557E+02 -0.31346066554E+02 -0.20159247398E+03  0.20566302639E+03  0.41800000000E+01 0.  1.
        -11    1    1    2    0    0 -0.22459556228E+01  0.22786534775E+03 -0.90324804446E+03  0.93154961803E+03  0.00000000000E+00 0.  1.
         11    1    1    2    0    0 -0.39803781603E+02  0.28652921029E+02 -0.23528314520E+03  0.24034036143E+03  0.00000000000E+00 0. -1.
</event>
<event>
 7    1  0.3620064E-009  0.1140485E+03  0.7561462E-02  0.1253251E+00
         -1   -1    0    0    0  501 -0.00000000000E+00  0.00000000000E+00  0.56340635067E+02  0.56340635067E+02  0.00000000000E+00 0.  1.
          1   -1    0    0  501    0  0.00000000000E+00 -0.00000000000E+00 -0.43261215717E+03  0.43261215717E+03  0.00000000000E+00 0. -1.
         25    2    1    2    0    0 -0.95187270153E+02  0.10738461017E+02 -0.11143522145E+03  0.19297543447E+03  0.12508308752E+03 0.  0.
          5    1    3    3  502    0  0.17668466081E+01  0.29545239973E+02 -0.85796900609E+02  0.90854958621E+02  0.41800000000E+01 0.  1.
         -5    1    3    3    0  502 -0.96954116761E+02 -0.18806778956E+02 -0.25638320840E+02  0.10212047585E+03  0.41800000000E+01 0.  1.
        -11    1    1    2    0    0  0.53277659426E+02 -0.19141432420E+02 -0.23990507416E+03  0.24649411359E+03  0.00000000000E+00 0.  1.
         11    1    1    2    0    0  0.41909610727E+02  0.84029714034E+01 -0.24931226495E+02  0.49483244177E+02  0.00000000000E+00 0. -1.
</event>
<event>
 7    1  0.2733606E-009  0.8394573E+02  0.7561462E-02  0.1318213E+00
          3   -1    0    0  501    0  0.00000000000E+00  0.00000000000E+00  0.14924046236E+02  0.14924046236E+02  0.00000000000E+00 0. -1.
         -3   -1    0    0    0  501 -0.00000000000E+00 -0.00000000000E+00 -0.14995169730E+04  0.14995169730E+04  0.00000000000E+00 0.  1.
         25    2    1    2    0    0  0.18764749522E+02 -0.15595446480E+02 -0.13176668522E+04  0.13238158489E+04  0.12508850727E+03 0.  0.
          5    1    3    3  502    0 -0.35528086736E+02 -0.34377198244E+02 -0.26695018932E+03  0.27152147739E+03  0.41800000000E+01 0.  1.
         -5    1    3    3    0  502  0.54292836258E+02  0.18781751764E+02 -0.10507166628E+04  0.10522943715E+04  0.41800000000E+01 0.  1.
        -11    1    1    2    0    0 -0.30896400051E+02  0.29155865375E+02 -0.16711415158E+03  0.17242909174E+03  0.00000000000E+00 0.  1.
         11    1    1    2    0    0  0.12131650529E+02 -0.13560418895E+02  0.18807695446E+00  0.18196078646E+02  0.00000000000E+00 0. -1.
</event>
<event>
 7    1  0.2733606E-009  0.1888878E+03  0.7561462E-02  0.1159468E+00
          1   -1    0    0  501    0  0.00000000000E+00  0.00000000000E+00  0.15154304985E+04  0.15154304985E+04  0.00000000000E+00 0.  1.
         -1   -1    0    0    0  501 -0.00000000000E+00 -0.00000000000E+00 -0.29040653794E+02  0.29040653794E+02  0.00000000000E+00 0. -1.
         25    2    1    2    0    0 -0.14012797675E+03  0.10831027084E+03  0.67656165798E+03  0.71045901361E+03  0.12509743537E+03 0.  0.
          5    1    3    3  502    0 -0.35131602522E+02 -0.69290049908E+00  0.29953691546E+02  0.46361682930E+02  0.41800000000E+01 0.  1.
         -5    1    3    3    0  502 -0.10499637423E+03  0.10900317134E+03  0.64660796643E+03  0.66409733068E+03  0.41800000000E+01 0.  1.
        -11    1    1    2    0    0  0.48680904966E+02 -0.82792768335E+02  0.28729301792E+03  0.30292202155E+03  0.00000000000E+00 0.  1.
         11    1    1    2    0    0  0.91447071786E+02 -0.25517502502E+02  0.52253516884E+03  0.53109011716E+03  0.00000000000E+00 0. -1.
</event>
<event>
 7    1  0.2733606E-009  0.1432602E+03  0.7561462E-02  0.1209008E+00
         -2   -1    0    0    0  501 -0.00000000000E+00  0.00000000000E+00  0.85857974857E+02  0.85857974857E+02  0.00000000000E+00 0. -1.
          2   -1    0    0  501    0  0.00000000000E+00 -0.00000000000E+00 -0.29921279169E+03  0.29921279169E+03  0.00000000000E+00 0.  1.
         25    2    1    2    0    0 -0.10136578054E+03  0.51696661136E+02 -0.76761588035E+02  0.18570356139E+03  0.12508359237E+03 0.  0.
          5    1    3    3  502    0 -0.11885054664E+03  0.43440253498E+02 -0.23348210989E+02  0.12874439567E+03  0.41800000000E+01 0. -1.
         -5    1    3    3    0  502  0.17484766099E+02  0.82564076378E+01 -0.53413377046E+02  0.56959165725E+02  0.41800000000E+01 0. -1.
        -11    1    1    2    0    0  0.10939411476E+03 -0.24951034974E+02 -0.12785488264E+03  0.17010731174E+03  0.00000000000E+00 0.  1.
         11    1    1    2    0    0 -0.80283342283E+01 -0.26745626162E+02 -0.87383461567E+01  0.29259893418E+02  0.00000000000E+00 0. -1.
</event>
<event>
 7    1  0.2733606E-009  0.1319106E+03  0.7561462E-02  0.1224648E+00
          2   -1    0    0  501    0  0.00000000000E+00  0.00000000000E+00  0.80459788266E+03  0.80459788266E+03  0.00000000000E+00 0. -1.
         -2   -1    0    0    0  501 -0.00000000000E+00 -0.00000000000E+00 -0.26729504141E+02  0.26729504141E+02  0.00000000000E+00 0.  1.
         25    2    1    2    0    0  0.55230092696E+02 -0.59570802127E+02  0.26188095818E+03  0.30137653658E+03  0.12508851642E+03 0.  0.
          5    1    3    3  502    0  0.79341082412E+02 -0.82362485337E+02  0.18494547676E+03  0.21748767350E+03  0.41800000000E+01 0. -1.
         -5    1    3    3    0  502 -0.24110989716E+02  0.22791683210E+02  0.76935481414E+02  0.83888863081E+02  0.41800000000E+01 0. -1.
        -11    1    1    2    0    0 -0.75418725893E+02  0.32378834787E+02  0.42527272110E+03  0.43312037642E+03  0.00000000000E+00 0.  1.
         11    1    1    2    0    0  0.20188633197E+02  0.27191967340E+02  0.90714699239E+02  0.96830473799E+02  0.00000000000E+00 0. -1.
</event>
<event>
 7    1  0.2733606E-009  0.1767891E+03  0.7561462E-02  0.1170947E+00
         -1   -1    0    0    0  501 -0.00000000000E+00  0.00000000000E+00  0.28438827308E+03  0.28438827308E+03  0.00000000000E+00 0.  1.
          1   -1    0    0  501    0  0.00000000000E+00 -0.00000000000E+00 -0.15404964514E+03  0.15404964514E+03  0.00000000000E+00 0. -1.
         25    2    1    2    0    0 -0.71454410657E+01 -0.16119451022E+03  0.14721389995E+03  0.25170286875E+03  0.12509066449E+03 0.  0.
          5    1    3    3  502    0  0.19442826722E+02 -0.12783725483E+03  0.16112743490E+03  0.20663956521E+03  0.41800000000E+01 0. -1.
         -5    1    3    3    0  502 -0.26588267787E+02 -0.33357255389E+02 -0.13913534945E+02  0.45063303537E+02  0.41800000000E+01 0. -1.
        -11    1    1    2    0    0 -0.12363057506E+02  0.16135959373E+03 -0.14084649901E+01  0.16183864635E+03  0.00000000000E+00 0.  1.
         11    1    1    2    0    0  0.19508498572E+02 -0.16508350695E+00 -0.15466807022E+02  0.24896403125E+02  0.00000000000E+00 0. -1.
</event>
<event>
 7    1  0.2733606E-009  0.8193446E+02  0.7561462E-02  0.1323650E+00
          1   -1    0    0  501    0  0.00000000000E+00  0.00000000000E+00  0.13829629136E+03  0.13829629136E+03  0.00000000000E+00 0. -1.
         -1   -1    0    0    0  501 -0.00000000000E+00 -0.00000000000E+00 -0.12132784139E+03  0.12132784139E+03  0.00000000000E+00 0.  1.
         25    2    1    2    0    0  0.13668456635E+02  0.12077624400E+02  0.77328078391E+02  0.14819037389E+03  0.12509220395E+03 0.  0.
          5    1    3    3  502    0  0.33631163804E+02 -0.41490766714E+02  0.73216932558E+02  0.90723373584E+02  0.41800000000E+01 0. -1.
         -5    1    3    3    0  502 -0.19962707170E+02  0.53568391114E+02  0.41111458333E+01  0.57467000306E+02  0.41800000000E+01 0. -1.
        -11    1    1    2    0    0 -0.31209697114E+01 -0.31083740620E+02 -0.77624407529E+02  0.83674894843E+02  0.00000000000E+00 0.  1.
         11    1    1    2    0    0 -0.10547486923E+02  0.19006116220E+02  0.17264779108E+02  0.27758864022E+02  0.00000000000E+00 0. -1.
</event>
<event>
 7    1  0.2733606E-009  0.7877242E+02  0.7561462E-02  0.1332572E+00
          2   -1    0    0  501    0  0.00000000000E+00  0.00000000000E+00  0.19350677216E+03  0.19350677216E+03  0.00000000000E+00 0. -1.
         -2   -1    0    0    0  501 -0.00000000000E+00 -0.00000000000E+00 -0.68213291361E+02  0.68213291361E+02  0.00000000000E+00 0.  1.
         25    2    1    2    0    0 -0.30730835230E+02  0.14971325041E+01  0.43596534660E+02  0.13599497119E+03  0.12508936292E+03 0.  0.
          5    1    3    3  502    0  0.23824266441E+02 -0.28083483854E+01 -0.33464906180E+02  0.41386650478E+02  0.41800000000E+01 0.  1.
         -5    1    3    3    0  502 -0.54555101671E+02  0.43054808894E+01  0.77061440840E+02  0.94608320714E+02  0.41800000000E+01 0.  1.
        -11    1    1    2    0    0  0.48133865109E+02  0.18709527599E+02  0.14819127118E+02  0.53726361517E+02  0.00000000000E+00 0.  1.
         11    1    1    2    0    0 -0.17403029879E+02 -0.20206660104E+02  0.66877819024E+02  0.71998730815E+02  0.00000000000E+00 0. -1.
</event>
<event>
 7    1  0.2733606E-009  0.7944593E+02  0.7561462E-02  0.1330631E+00
          3   -1    0    0  501    0  0.00000000000E+00  0.00000000000E+00  0.92486184952E+03  0.92486184952E+03  0.00000000000E+00 0. -1.
         -3   -1    0    0    0  501 -0.00000000000E+00 -0.00000000000E+00 -0.21049906659E+02  0.21049906659E+02  0.00000000000E+00 0.  1.
         25    2    1    2    0    0  0.10610473754E+01 -0.76305380611E+02  0.63513245228E+03  0.65181625666E+03  0.12509022176E+03 0.  0.
          5    1    3    3  502    0  0.65456496216E+01 -0.67075769299E+02  0.12945083653E+03  0.14600341035E+03  0.41800000000E+01 0. -1.
         -5    1    3    3    0  502 -0.54846022463E+01 -0.92296113123E+01  0.50568161575E+03  0.50581284631E+03  0.41800000000E+01 0. -1.
        -11    1    1    2    0    0  0.11190041486E+02  0.39609578690E+02  0.24564697356E+03  0.24907141821E+03  0.00000000000E+00 0. -1.
         11    1    1    2    0    0 -0.12251088862E+02  0.36695801921E+02  0.23032517028E+02  0.45024081307E+02  0.00000000000E+00 0.  1.
</event>
<event>
 7    1  0.2733606E-009  0.3891499E+02  0.7561462E-02  0.1516351E+00
         -3   -1    0    0    0  501 -0.00000000000E+00  0.00000000000E+00  0.26471113515E+03  0.26471113515E+03  0.00000000000E+00 0.  1.
          3   -1    0    0  501    0  0.00000000000E+00 -0.00000000000E+00 -0.50329691486E+02  0.50329691486E+02  0.00000000000E+00 0. -1.
         25    2    1    2    0    0 -0.39777972471E+00 -0.58411197275E+01  0.72790284431E+02  0.14484688113E+03  0.12509163264E+03 0.  0.
          5    1    3    3  502    0  0.45884006434E+01 -0.20433765701E+01 -0.35600164334E+02  0.36194929326E+02  0.41800000000E+01 0.  1.
         -5    1    3    3    0  502 -0.49861803681E+01 -0.37977431574E+01  0.10839044877E+03  0.10865195181E+03  0.41800000000E+01 0.  1.
        -11    1    1    2    0    0  0.96585963680E+01 -0.27505980676E+02  0.13069976245E+03  0.13391152064E+03  0.00000000000E+00 0.  1.
         11    1    1    2    0    0 -0.92608166433E+01  0.33347100404E+02  0.10891396792E+02  0.36282424868E+02  0.00000000000E+00 0. -1.
</event>
<event>
 7    1  0.2733606E-009  0.7338940E+02  0.7561462E-02  0.1348932E+00
         -2   -1    0    0    0  501 -0.00000000000E+00  0.00000000000E+00  0.21344344406E+02  0.21344344406E+02  0.00000000000E+00 0.  1.
          2   -1    0    0  501    0  0.00000000000E+00 -0.00000000000E+00 -0.60890622276E+03  0.60890622276E+03  0.00000000000E+00 0. -1.
         25    2    1    2    0    0  0.34648369571E+02  0.12157771127E+02 -0.36505155639E+03  0.38763207233E+03  0.12509062221E+03 0.  0.
          5    1    3    3  502    0 -0.68393741834E+01  0.15829938996E+02 -0.33648908640E+03  0.33695658723E+03  0.41800000000E+01 0.  1.
         -5    1    3    3    0  502  0.41487743754E+02 -0.36721678689E+01 -0.28562469988E+02  0.50675485104E+02  0.41800000000E+01 0.  1.
        -11    1    1    2    0    0 -0.46110099567E+02 -0.37453571065E+02 -0.19369115136E+03  0.20259608432E+03  0.00000000000E+00 0. -1.
         11    1    1    2    0    0  0.11461729996E+02  0.25295799938E+02 -0.28819170604E+02  0.40022410513E+02  0.00000000000E+00 0.  1.
</event>
<event>
 7    1  0.2964376E-009  0.2542520E+03  0.7561462E-02  0.1110647E+00
         -1   -1    0    0    0  501 -0.00000000000E+00  0.00000000000E+00  0.30520391536E+03  0.30520391536E+03  0.00000000000E+00 0.  1.
          1   -1    0    0  501    0  0.00000000000E+00 -0.00000000000E+00 -0.25570925382E+03  0.25570925382E+03  0.00000000000E+00 0. -1.
         25    2    1    2    0    0 -0.88176549110E+02 -0.22725180500E+03 -0.56811209311E+02  0.27981255608E+03  0.12509622835E+03 0.  0.
          5    1    3    3  502    0 -0.11102120841E+03 -0.19990151219E+03 -0.73527759513E+02  0.24022932192E+03  0.41800000000E+01 0.  1.
         -5    1    3    3    0  502  0.22844659305E+02 -0.27350292812E+02  0.16716550202E+02  0.39583234157E+02  0.41800000000E+01 0.  1.
        -11    1    1    2    0    0  0.45394364774E+02  0.10463703227E+03  0.98999125849E+02  0.15103106897E+03  0.00000000000E+00 0.  1.
         11    1    1    2    0    0  0.42782184336E+02  0.12261477273E+03  0.73067449989E+01  0.13006954413E+03  0.00000000000E+00 0. -1.
</event>
<event>
 7    1  0.2733606E-009  0.1879919E+03  0.7561462E-02  0.1160285E+00
         -1   -1    0    0    0  501 -0.00000000000E+00  0.00000000000E+00  0.20194310689E+03  0.20194310689E+03  0.00000000000E+00 0.  1.
          1   -1    0    0  501    0  0.00000000000E+00 -0.00000000000E+00 -0.21401636140E+03  0.21401636140E+03  0.00000000000E+00 0. -1.
         25    2    1    2    0    0  0.16504358818E+03  0.35882159003E+02 -0.60584645480E+02  0.21873583987E+03  0.12509177846E+03 0.  0.
          5    1    3    3  502    0  0.48047797043E+02 -0.25592734198E+02  0.26211047869E+02  0.60564595885E+02  0.41800000000E+01 0. -1.
         -5    1    3    3    0  502  0.11699579114E+03  0.61474893200E+02 -0.86795693350E+02  0.15817124398E+03  0.41800000000E+01 0. -1.
        -11    1    1    2    0    0 -0.98097827099E+02 -0.63370100248E+02  0.15963304202E+02  0.11787188116E+03  0.00000000000E+00 0. -1.
         11    1    1    2    0    0 -0.66945761083E+02  0.27487941245E+02  0.32548086773E+02  0.79351747261E+02  0.00000000000E+00 0.  1.
</event>
<event>
 7    1  0.2733606E-009  0.9681831E+02  0.7561462E-02  0.1287133E+00
          2   -1    0    0  501    0  0.00000000000E+00  0.00000000000E+00  0.59417290976E+03  0.59417290976E+03  0.00000000000E+00 0. -1.
         -2   -1    0    0    0  501 -0.00000000000E+00 -0.00000000000E+00 -0.19986219020E+02  0.19986219020E+02  0.00000000000E+00 0.  1.
         25    2    1    2    0    0 -0.26196770785E+02 -0.24699955989E+00  0.35409285564E+03  0.37645119928E+03  0.12508966072E+03 0.  0.
          5    1    3    3  502    0 -0.50921017353E+02 -0.35313119263E+02  0.93056735204E+02  0.11187937597E+03  0.41800000000E+01 0. -1.
         -5    1    3    3    0  502  0.24724246568E+02  0.35066119704E+02  0.26103612043E+03  0.26457182331E+03  0.41800000000E+01 0. -1.
        -11    1    1    2    0    0 -0.28594007434E+02  0.14133267719E+02  0.60375310171E+02  0.68282827972E+02  0.00000000000E+00 0.  1.
         11    1    1    2    0    0  0.54790778219E+02 -0.13886268159E+02  0.15971852493E+03  0.16942510153E+03  0.00000000000E+00 0. -1.
</event>
<event>
 7    1  0.2733606E-009  0.2379124E+03  0.7561462E-02  0.1121191E+00
         -1   -1    0    0    0  501 -0.00000000000E+00  0.00000000000E+00  0.30247818121E+02  0.30247818121E+02  0.00000000000E+00 0.  1.
          1   -1    0    0  501    0  0.00000000000E+00 -0.00000000000E+00 -0.21347688355E+04  0.21347688355E+04  0.00000000000E+00 0. -1.
         25    2    1    2    0    0  0.18145691786E+03 -0.12685818871E+03 -0.13395241100E+04  0.13634484510E+04  0.12508886524E+03 0.  0.
          5    1    3    3  502    0  0.52118003024E+02 -0.95220057283E+02 -0.81786906617E+03  0.82505177253E+03  0.41800000000E+01 0. -1.
         -5    1    3    3    0  502  0.12933891483E+03 -0.31638131431E+02 -0.52165504382E+03  0.53839667847E+03  0.41800000000E+01 0. -1.
        -11    1    1    2    0    0 -0.83438585997E+02  0.10398857509E+03 -0.34983476360E+03  0.37437946419E+03  0.00000000000E+00 0.  1.
         11    1    1    2    0    0 -0.98018331860E+02  0.22869613623E+02 -0.41516214376E+03  0.42718873841E+03  0.00000000000E+00 0. -1.
</event>
<event>
 7    1  0.2733606E-009  0.1044844E+03  0.7561462E-02  0.1271139E+00
         -1   -1    0    0    0  501 -0.00000000000E+00  0.00000000000E+00  0.10197003520E+03  0.10197003520E+03  0.00000000000E+00 0.  1.
          1   -1    0    0  501    0  0.00000000000E+00 -0.00000000000E+00 -0.16683612960E+03  0.16683612960E+03  0.00000000000E+00 0. -1.
         25    2    1    2    0    0  0.44117914250E+02 -0.52801855282E+02 -0.61993130780E+02  0.15564639809E+03  0.12509287229E+03 0.  0.
          5    1    3    3  502    0  0.56218314454E+02  0.24681938403E+02 -0.12437668031E+02  0.62784273106E+02  0.41800000000E+01 0. -1.
         -5    1    3    3    0  502 -0.12100400205E+02 -0.77483793686E+02 -0.49555462748E+02  0.92862124988E+02  0.41800000000E+01 0. -1.
        -11    1    1    2    0    0 -0.15014679820E+02  0.20580791573E+02  0.43010711663E+02  0.49989307953E+02  0.00000000000E+00 0.  1.
         11    1    1    2    0    0 -0.29103234429E+02  0.32221063709E+02 -0.45883675289E+02  0.63170458751E+02  0.00000000000E+00 0. -1.
</event>
<event>
 7    1  0.2733606E-009  0.1423609E+03  0.7561462E-02  0.1210187E+00
         -2   -1    0    0    0  501 -0.00000000000E+00  0.00000000000E+00  0.22223346873E+03  0.22223346873E+03  0.00000000000E+00 0.  1.
          2   -1    0    0  501    0  0.00000000000E+00 -0.00000000000E+00 -0.11729184877E+03  0.11729184877E+03  0.00000000000E+00 0. -1.
         25    2    1    2    0    0 -0.53947327476E+02 -0.77764616394E+02 -0.20334040925E+02  0.15816924398E+03  0.12508551801E+03 0.  0.
          5    1    3    3  502    0  0.36819790530E+02 -0.42189517130E+02  0.76136920405E+01  0.56666507188E+02  0.41800000000E+01 0.  1.
         -5    1    3    3    0  502 -0.90767118007E+02 -0.35575099264E+02 -0.27947732965E+02  0.10150273679E+03  0.41800000000E+01 0.  1.
        -11    1    1    2    0    0  0.78195629700E+02  0.44971335785E+02  0.90152202115E+02  0.12753194538E+03  0.00000000000E+00 0. -1.
         11    1    1    2    0    0 -0.24248302224E+02  0.32793280609E+02  0.35123458764E+02  0.53824128134E+02  0.00000000000E+00 0.  1.
</event>
<event>
 7    1  0.2733606E-009  0.1040848E+03  0.7561462E-02  0.1271933E+00
          2   -1    0    0  501    0  0.00000000000E+00  0.00000000000E+00  0.20549653922E+03  0.20549653922E+03  0.00000000000E+00 0. -1.
         -2   -1    0    0    0  501 -0.00000000000E+00 -0.00000000000E+00 -0.94517905470E+02  0.94517905470E+02  0.00000000000E+00 0.  1.
         25    2    1    2    0    0 -0.33527345948E+02  0.81205212271E+02  0.55995502766E+02  0.16278960513E+03  0.12508632931E+03 0.  0.
          5    1    3    3  502    0 -0.14399742545E+02  0.45118540769E+02  0.94953572904E+02  0.10619175445E+03  0.41800000000E+01 0.  1.
         -5    1    3    3    0  502 -0.19127603404E+02  0.36086671502E+02 -0.38958070137E+02  0.56597850674E+02  0.41800000000E+01 0.  1.
        -11    1    1    2    0    0 -0.25824031533E+02 -0.12230714682E+02 -0.39015354029E+01  0.28839087447E+02  0.00000000000E+00 0.  1.
         11    1    1    2    0    0  0.59351377482E+02 -0.68974497590E+02  0.58884666389E+02  0.10838575212E+03  0.00000000000E+00 0. -1.
</event>
<event>
 7    1  0.2733606E-009  0.1218674E+03  0.7561462E-02  0.1240048E+00
         -2   -1    0    0    0  501 -0.00000000000E+00  0.00000000000E+00  0.10864528353E+02  0.10864528353E+02  0.00000000000E+00 0.  1.
          2   -1    0    0  501    0  0.00000000000E+00 -0.00000000000E+00 -0.14935841583E+04  0.14935841583E+04  0.00000000000E+00 0. -1.
         25    2    1    2    0    0 -0.18635266750E+02  0.55130306959E+02 -0.10104258342E+04  0.10198009512E+04  0.12508792798E+03 0.  0.
          5    1    3    3  502    0 -0.44173488833E+02  0.84827270715E+02 -0.80125526045E+03  0.80695379531E+03  0.41800000000E+01 0.  1.
         -5    1    3    3    0  502  0.25538222083E+02 -0.29696963755E+02 -0.20917057373E+03  0.21284715586E+03  0.41800000000E+01 0.  1.
        -11    1    1    2    0    0  0.44795128355E+02 -0.66426419091E+02 -0.33833043151E+03  0.34768743659E+03  0.00000000000E+00 0.  1.
         11    1    1    2    0    0 -0.26159861605E+02  0.11296112131E+02 -0.13396336427E+03  0.13696029890E+03  0.00000000000E+00 0. -1.
</event>
<event>
 7    1  0.2733606E-009  0.1770805E+03  0.7561462E-02  0.1170659E+00
         -2   -1    0    0    0  501 -0.00000000000E+00  0.00000000000E+00  0.11689479804E+03  0.11689479804E+03  0.00000000000E+00 0.  1.
          2   -1    0    0  501    0  0.00000000000E+00 -0.00000000000E+00 -0.27487391706E+03  0.27487391706E+03  0.00000000000E+00 0. -1.
         25    2    1    2    0    0  0.37991476235E+02  0.13496827132E+03 -0.57092987271E+02  0.19638214351E+03  0.12508617255E+03 0.  0.
          5    1    3    3  502    0 -0.40578756357E+02  0.13807121707E+02 -0.80153236896E+01  0.43806276847E+02  0.41800000000E+01 0. -1.
         -5    1    3    3    0  502  0.78570232592E+02  0.12116114961E+03 -0.49077663581E+02  0.15257586666E+03  0.41800000000E+01 0. -1.
        -11    1    1    2    0    0 -0.91795434983E+01 -0.13740593306E+03 -0.89880413502E+02  0.16444799540E+03  0.00000000000E+00 0. -1.
         11    1    1    2    0    0 -0.28811932737E+02  0.24376617432E+01 -0.11005718239E+02  0.30938576191E+02  0.00000000000E+00 0.  1.
</event>
<event>
 7    1  0.2733606E-009  0.1249589E+03  0.7561462E-02  0.1235134E+00
          2   -1    0    0  501    0  0.00000000000E+00  0.00000000000E+00  0.99369743120E+02  0.99369743120E+02  0.00000000000E+00 0. -1.
         -2   -1    0    0    0  501 -0.00000000000E+00 -0.00000000000E+00 -0.28282194873E+03  0.28282194873E+03  0.00000000000E+00 0.  1.
         25    2    1    2    0    0  0.52795520510E+02 -0.43402875001E+02 -0.21985001467E+03  0.26200914158E+03  0.12507431702E+03 0.  0.
          5    1    3    3  502    0 -0.36797274677E+02 -0.24175556930E+02 -0.37896570699E+02  0.58241904565E+02  0.41800000000E+01 0.  1.
         -5    1    3    3    0  502  0.89592795187E+02 -0.19227318070E+02 -0.18195344397E+03  0.20376723702E+03  0.41800000000E+01 0.  1.
        -11    1    1    2    0    0 -0.45079013966E+02 -0.20553266529E+02  0.21809627596E+02  0.54131452235E+02  0.00000000000E+00 0.  1.
         11    1    1    2    0    0 -0.77165065440E+01  0.63956141530E+02  0.14588181464E+02  0.66051098030E+02  0.00000000000E+00 0. -1.
</event>
<event>
 7    1  0.2733606E-009  0.1370646E+03  0.7561462E-02  0.1217334E+00
         -1   -1    0    0    0  501 -0.00000000000E+00  0.00000000000E+00  0.12699094263E+03  0.12699094263E+03  0.00000000000E+00 0.  1.
          1   -1    0    0  501    0  0.00000000000E+00 -0.00000000000E+00 -0.20997615482E+03  0.20997615482E+03  0.00000000000E+00 0. -1.
         25    2    1    2    0    0  0.88304677067E+02 -0.50988537164E+02 -0.11666170806E+03  0.19913385866E+03  0.12508714011E+03 0.  0.
          5    1    3    3  502    0  0.27591904118E+02 -0.71428192711E+02 -0.11069055687E+03  0.13465946556E+03  0.41800000000E+01 0. -1.
         -5    1    3    3    0  502  0.60712772949E+02  0.20439655546E+02 -0.59711511995E+01  0.64474393093E+02  0.41800000000E+01 0. -1.
        -11    1    1    2    0    0 -0.56062236227E+02 -0.16509159708E+02  0.94287256257E+01  0.59198205648E+02  0.00000000000E+00 0. -1.
         11    1    1    2    0    0 -0.32242440840E+02  0.67497696872E+02  0.24247770248E+02  0.78635033136E+02  0.00000000000E+00 0.  1.
</event>
<event>
 7    1  0.2733606E-009  0.1436047E+03  0.7561462E-02  0.1208559E+00
          2   -1    0    0  501    0  0.00000000000E+00  0.00000000000E+00  0.14538527720E+03  0.14538527720E+03  0.00000000000E+00 0. -1.
         -2   -1    0    0    0  501 -0.00000000000E+00 -0.00000000000E+00 -0.31615414665E+03  0.31615414665E+03  0.00000000000E+00 0.  1.
         25    2    1    2    0    0  0.10620374015E+03  0.58675490960E+02  0.60478518458E+02  0.18447443029E+03  0.12510442269E+03 0.  0.
          5    1    3    3  502    0  0.11551061172E+03  0.64050197202E+02  0.85175499264E+02  0.15721789738E+03  0.41800000000E+01 0. -1.
         -5    1    3    3    0  502 -0.93068715717E+01 -0.53747062421E+01 -0.24696980807E+02  0.27256532916E+02  0.41800000000E+01 0. -1.
        -11    1    1    2    0    0 -0.40388746357E+02 -0.65930412449E+02 -0.76594713021E+02  0.10883391099E+03  0.00000000000E+00 0. -1.
         11    1    1    2    0    0 -0.65814993790E+02  0.72549214887E+01 -0.15465267489E+03  0.16823108257E+03  0.00000000000E+00 0.  1.
</event>
<event>
 7    1  0.2733606E-009  0.9725839E+02  0.7561462E-02  0.1286169E+00
         -1   -1    0    0    0  501 -0.00000000000E+00  0.00000000000E+00  0.27209553585E+03  0.27209553585E+03  0.00000000000E+00 0.  1.
          1   -1    0    0  501    0  0.00000000000E+00 -0.00000000000E+00 -0.90645683035E+02  0.90645683035E+02  0.00000000000E+00 0. -1.
         25    2    1    2    0    0 -0.49706748427E+02  0.39492983479E+02 -0.93020137084E+01  0.14058326136E+03  0.12508664730E+03 0.  0.
          5    1    3    3  502    0 -0.77877081701E+01 -0.11496103182E+02  0.49809460579E+02  0.51877389584E+02  0.41800000000E+01 0. -1.
         -5    1    3    3    0  502 -0.41919040257E+02  0.50989086661E+02 -0.59111474288E+02  0.88705871773E+02  0.41800000000E+01 0. -1.
        -11    1    1    2    0    0  0.21150001344E+02  0.31165393042E+02  0.63610423096E+02  0.73924895717E+02  0.00000000000E+00 0.  1.
         11    1    1    2    0    0  0.28556747083E+02 -0.70658376522E+02  0.12714144342E+03  0.14823306181E+03  0.00000000000E+00 0. -1.
</event>
<event>
 7    1  0.2733606E-009  0.1136579E+03  0.7561462E-02  0.1253942E+00
         -1   -1    0    0    0  501 -0.00000000000E+00  0.00000000000E+00  0.22091896352E+02  0.22091896352E+02  0.00000000000E+00 0.  1.
          1   -1    0    0  501    0  0.00000000000E+00 -0.00000000000E+00 -0.65582308377E+03  0.65582308377E+03  0.00000000000E+00 0. -1.
         25    2    1    2    0    0  0.43514730670E+02  0.23829383022E+02 -0.32915492951E+03  0.35560084069E+03  0.12509044325E+03 0.  0.
          5    1    3    3  502    0  0.81959186968E+02  0.31124794885E+02 -0.16609355779E+03  0.18785793442E+03  0.41800000000E+01 0. -1.
         -5    1    3    3    0  502 -0.38444456298E+02 -0.72954118637E+01 -0.16306137172E+03  0.16774290627E+03  0.41800000000E+01 0. -1.
        -11    1    1    2    0    0 -0.65797097296E+02 -0.35792368023E+02 -0.26470491136E+03  0.27509824013E+03  0.00000000000E+00 0. -1.
         11    1    1    2    0    0  0.22282366626E+02  0.11962985001E+02 -0.39871346539E+02  0.47215899307E+02  0.00000000000E+00 0.  1.
</event>
<event>
 7    1  0.2733606E-009  0.1341647E+03  0.7561462E-02  0.1221404E+00
         -1   -1    0    0    0  501 -0.00000000000E+00  0.00000000000E+00  0.27988743579E+03  0.27988743579E+03  0.00000000000E+00 0.  1.
          1   -1    0    0  501    0  0.00000000000E+00 -0.00000000000E+00 -0.81486716130E+02  0.81486716130E+02  0.00000000000E+00 0. -1.
         25    2    1    2    0    0  0.54842484556E+02 -0.82152716945E+02  0.14137728735E+03  0.21305476261E+03  0.12509207600E+03 0.  0.
          5    1    3    3  502    0  0.91343700844E+02 -0.42487952983E+02  0.66828844321E+02  0.12096472488E+03  0.41800000000E+01 0. -1.
         -5    1    3    3    0  502 -0.36501216288E+02 -0.39664763962E+02  0.74548443029E+02  0.92090037728E+02  0.41800000000E+01 0. -1.
        -11    1    1    2    0    0 -0.90541103757E+01  0.63256201012E+02 -0.10311222166E+02  0.64727468541E+02  0.00000000000E+00 0. -1.
         11    1    1    2    0    0 -0.45788374180E+02  0.18896515932E+02  0.67334654479E+02  0.83591920772E+02  0.00000000000E+00 0.  1.
</event>
<event>
 7    1  0.2733606E-009  0.1101922E+03  0.7561462E-02  0.1260214E+00
         -2   -1    0    0    0  501 -0.00000000000E+00  0.00000000000E+00  0.26115712961E+03  0.26115712961E+03  0.00000000000E+00 0.  1.
          2   -1    0    0  501    0  0.00000000000E+00 -0.00000000000E+00 -0.56108580275E+02  0.56108580275E+02  0.00000000000E+00 0. -1.
         25    2    1    2    0    0 -0.19701766662E+02  0.41478067754E+02  0.15626125717E+03  0.20535940151E+03  0.12508522527E+03 0.  0.
          5    1    3    3  502    0  0.34342977646E+01  0.84192397580E+02  0.10326356751E+03  0.13334538232E+03  0.41800000000E+01 0.  1.
         -5    1    3    3    0  502 -0.23136064427E+02 -0.42714329826E+02  0.52997689661E+02  0.72014019184E+02  0.41800000000E+01 0.  1.
        -11    1    1    2    0    0 -0.12493319738E+02  0.16648094507E+02  0.39720581839E+02  0.44843803478E+02  0.00000000000E+00 0.  1.
         11    1    1    2    0    0  0.32195086399E+02 -0.58126162261E+02  0.90667103236E+01  0.67062504901E+02  0.00000000000E+00 0. -1.
</event>
<event>
 7    1  0.2733606E-009  0.9651235E+02  0.7561462E-02  0.1287806E+00
          1   -1    0    0  501    0  0.00000000000E+00  0.00000000000E+00  0.96504378183E+02  0.96504378183E+02  0.00000000000E+00 0. -1.
         -1   -1    0    0    0  501 -0.00000000000E+00 -0.00000000000E+00 -0.13436327277E+03  0.13436327277E+03  0.00000000000E+00 0.  1.
         25    2    1    2    0    0  0.19885646071E+02 -0.24527208321E+02  0.12265828483E+01  0.12901906517E+03  0.12508953515E+03 0.  0.
          5    1    3    3  502    0 -0.28782438616E+02  0.31639445043E+02  0.26404929585E+02  0.50439825155E+02  0.41800000000E+01 0.  1.
         -5    1    3    3    0  502  0.48668084687E+02 -0.56166653364E+02 -0.25178346736E+02  0.78579240016E+02  0.41800000000E+01 0.  1.
        -11    1    1    2    0    0 -0.43860489764E+02  0.27008720324E+02 -0.53090914489E+02  0.73972013202E+02  0.00000000000E+00 0.  1.
         11    1    1    2    0    0  0.23974843693E+02 -0.24815120037E+01  0.14005437051E+02  0.27876572582E+02  0.00000000000E+00 0. -1.
</event>
<event>
 7    1  0.2733606E-009  0.1103074E+03  0.7561462E-02  0.1260002E+00
          2   -1    0    0  501    0  0.00000000000E+00  0.00000000000E+00  0.68017612718E+02  0.68017612718E+02  0.00000000000E+00 0. -1.
         -2   -1    0    0    0  501 -0.00000000000E+00 -0.00000000000E+00 -0.30438381059E+03  0.30438381059E+03  0.00000000000E+00 0.  1.
         25    2    1    2    0    0 -0.75504538407E+02  0.55209358329E+02 -0.14593178673E+03  0.21375866894E+03  0.12509066154E+03 0.  0.
          5    1    3    3  502    0 -0.28788730582E+02  0.61526783624E+02 -0.15152112976E+03  0.16610376659E+03  0.41800000000E+01 0.  1.
         -5    1    3    3    0  502 -0.46715807825E+02 -0.63174252957E+01  0.55893430284E+01  0.47654902357E+02  0.41800000000E+01 0.  1.
        -11    1    1    2    0    0  0.39307111529E+02 -0.11178038211E+00 -0.83581905964E+02  0.92363393810E+02  0.00000000000E+00 0.  1.
         11    1    1    2    0    0  0.36197426878E+02 -0.55097577946E+02 -0.68525051793E+01  0.66279360554E+02  0.00000000000E+00 0. -1.
</event>
<event>
 7    1  0.2733606E-009  0.1031092E+03  0.7561462E-02  0.1273890E+00
         -1   -1    0    0    0  501 -0.00000000000E+00  0.00000000000E+00  0.17386811611E+03  0.17386811611E+03  0.00000000000E+00 0.  1.
          1   -1    0    0  501    0  0.00000000000E+00 -0.00000000000E+00 -0.80494155041E+02  0.80494155041E+02  0.00000000000E+00 0. -1.
         25    2    1    2    0    0 -0.10831582611E+02  0.45573550148E+02  0.47131061497E+02  0.14164140477E+03  0.12508668567E+03 0.  0.
          5    1    3    3  502    0 -0.20163008626E+02 -0.35794211278E+02  0.42868954289E+02  0.59523038563E+02  0.41800000000E+01 0.  1.
         -5    1    3    3    0  502  0.93314260154E+01  0.81367761426E+02  0.42621072072E+01  0.82118366208E+02  0.41800000000E+01 0.  1.
        -11    1    1    2    0    0 -0.13540634390E+02  0.13433562868E+02 -0.14990653629E+02  0.24259618448E+02  0.00000000000E+00 0. -1.
         11    1    1    2    0    0  0.24372217001E+02 -0.59007113016E+02  0.61233553204E+02  0.88461247934E+02  0.00000000000E+00 0.  1.
</event>
<event>
 7    1  0.2733606E-009  0.7967824E+02  0.7561462E-02  0.1329967E+00
         -2   -1    0    0    0  501 -0.00000000000E+00  0.00000000000E+00  0.97226627144E+02  0.97226627144E+02  0.00000000000E+00 0.  1.
          2   -1    0    0  501    0  0.00000000000E+00 -0.00000000000E+00 -0.12718568469E+03  0.12718568469E+03  0.00000000000E+00 0. -1.
         25    2    1    2    0    0  0.35736006963E+02  0.79591285154E+00  0.23088175464E+02  0.13212764591E+03  0.12508779035E+03 0.  0.
          5    1    3    3  502    0  0.76803001131E+02  0.78125560074E+01  0.39907324096E+02  0.87004620168E+02  0.41800000000E+01 0. -1.
         -5    1    3    3    0  502 -0.41066994168E+02 -0.70166431559E+01 -0.16819148633E+02  0.45123025739E+02  0.41800000000E+01 0. -1.
        -11    1    1    2    0    0 -0.18390029553E+02 -0.95731645582E+01 -0.65830495569E+02  0.69018061502E+02  0.00000000000E+00 0. -1.
         11    1    1    2    0    0 -0.17345977410E+02  0.87772517067E+01  0.12783262559E+02  0.23266604425E+02  0.00000000000E+00 0.  1.
</event>
<event>
 7    1  0.2733606E-009  0.1179655E+03  0.7561462E-02  0.1246492E+00
         -2   -1    0    0    0  501 -0.00000000000E+00  0.00000000000E+00  0.41270967624E+02  0.41270967624E+02  0.00000000000E+00 0.  1.
          2   -1    0    0  501    0  0.00000000000E+00 -0.00000000000E+00 -0.40938737746E+03  0.40938737746E+03  0.00000000000E+00 0. -1.
         25    2    1    2    0    0 -0.10585186976E+02 -0.68077265884E+02 -0.20952211844E+03  0.25356444430E+03  0.12509535958E+03 0.  0.
          5    1    3    3  502    0  0.41024757999E+02 -0.48240137791E+02 -0.17975836466E+03  0.19063232603E+03  0.41800000000E+01 0. -1.
         -5    1    3    3    0  502 -0.51609944975E+02 -0.19837128094E+02 -0.29763753776E+02  0.62932118272E+02  0.41800000000E+01 0. -1.
        -11    1    1    2    0    0  0.12540584931E+02 -0.22852816896E+02 -0.34840485988E+02  0.43512951800E+02  0.00000000000E+00 0. -1.
         11    1    1    2    0    0 -0.19553979546E+01  0.90930082781E+02 -0.12375380541E+03  0.15358094898E+03  0.00000000000E+00 0.  1.
</event>
<event>
 7    1  0.2733606E-009  0.8418655E+02  0.7561462E-02  0.1317574E+00
          2   -1    0    0  501    0  0.00000000000E+00  0.00000000000E+00  0.16498519718E+03  0.16498519718E+03  0.00000000000E+00 0. -1.
         -2   -1    0    0    0  501 -0.00000000000E+00 -0.00000000000E+00 -0.12549325809E+03  0.12549325809E+03  0.00000000000E+00 0.  1.
         25    2    1    2    0    0 -0.43503630560E+02 -0.38732305728E+02  0.95957264456E+02  0.16807156190E+03  0.12508995138E+03 0.  0.
          5    1    3    3  502    0 -0.48472400600E+02 -0.11506479464E+02 -0.16138147357E+02  0.52534606592E+02  0.41800000000E+01 0.  1.
         -5    1    3    3    0  502  0.49687700409E+01 -0.27225826264E+02  0.11209541181E+03  0.11553695530E+03  0.41800000000E+01 0.  1.
        -11    1    1    2    0    0  0.59674840014E+02  0.14761097709E+02 -0.29079383710E+01  0.61542120875E+02  0.00000000000E+00 0. -1.
         11    1    1    2    0    0 -0.16171209454E+02  0.23971208019E+02 -0.53557386997E+02  0.60864772496E+02  0.00000000000E+00 0.  1.
</event>
<event>
 7    1  0.2733606E-009  0.1011834E+03  0.7561462E-02  0.1277827E+00
         -1   -1    0    0    0  501 -0.00000000000E+00  0.00000000000E+00  0.22814421723E+02  0.22814421723E+02  0.00000000000E+00 0.  1.
          1   -1    0    0  501    0  0.00000000000E+00 -0.00000000000E+00 -0.65493964075E+03  0.65493964075E+03  0.00000000000E+00 0. -1.
         25    2    1    2    0    0 -0.36412662000E+02 -0.24388176543E+02 -0.25705096548E+03  0.28921209085E+03  0.12509104496E+03 0.  0.
          5    1    3    3  502    0 -0.40730103145E+02 -0.55924487292E+02 -0.24549527258E+03  0.25509192625E+03  0.41800000000E+01 0. -1.
         -5    1    3    3    0  502  0.43174411448E+01  0.31536310749E+02 -0.11555692903E+02  0.34120164597E+02  0.41800000000E+01 0. -1.
        -11    1    1    2    0    0 -0.26667693927E+02 -0.10741613659E+02 -0.90872368123E+02  0.95311780236E+02  0.00000000000E+00 0.  1.
         11    1    1    2    0    0  0.63080355926E+02  0.35129790201E+02 -0.28420188542E+03  0.29323019138E+03  0.00000000000E+00 0. -1.
</event>
<event>
 7    1  0.2733606E-009  0.1359828E+03  0.7561462E-02  0.1218839E+00
         -2   -1    0    0    0  501 -0.00000000000E+00  0.00000000000E+00  0.33536437571E+02  0.33536437571E+02  0.00000000000E+00 0. -1.
          2   -1    0    0  501    0  0.00000000000E+00 -0.00000000000E+00 -0.63356465771E+03  0.63356465771E+03  0.00000000000E+00 0.  1.
         25    2    1    2    0    0 -0.87842922450E+02 -0.23864650383E+02 -0.25533412195E+03  0.29854921191E+03  0.12510082949E+03 0.  0.
          5    1    3    3  502    0 -0.34352630544E+01  0.37515145468E+02 -0.12992329362E+03  0.13533928401E+03  0.41800000000E+01 0. -1.
         -5    1    3    3    0  502 -0.84407659395E+02 -0.61379795851E+02 -0.12541082833E+03  0.16320992790E+03  0.41800000000E+01 0. -1.
        -11    1    1    2    0    0  0.64321433418E+02  0.59032443510E+02 -0.25094168956E+03  0.26569495242E+03  0.00000000000E+00 0.  1.
         11    1    1    2    0    0  0.23521489031E+02 -0.35167793127E+02 -0.93752408633E+02  0.10285693095E+03  0.00000000000E+00 0. -1.
</event>
<event>
 7    1  0.2733606E-009  0.9764515E+02  0.7561462E-02  0.1285327E+00
          1   -1    0    0  501    0  0.00000000000E+00  0.00000000000E+00  0.15149417568E+03  0.15149417568E+03  0.00000000000E+00 0.  1.
         -1   -1    0    0    0  501 -0.00000000000E+00 -0.00000000000E+00 -0.10081604743E+03  0.10081604743E+03  0.00000000000E+00 0. -1.
         25    2    1    2    0    0  0.41450211830E+02  0.42503696767E+02  0.34838620183E+02  0.14278192829E+03  0.12509302655E+03 0.  0.
          5    1    3    3  502    0  0.77225001899E+01 -0.27743238471E+02  0.54964282978E+02  0.62192194794E+02  0.41800000000E+01 0.  1.
         -5    1    3    3    0  502  0.33727711640E+02  0.70246935238E+02 -0.20125662795E+02  0.80589733501E+02  0.41800000000E+01 0.  1.
        -11    1    1    2    0    0  0.12610429603E+02 -0.30177256274E+02  0.37714945682E+02  0.49921006188E+02  0.00000000000E+00 0.  1.
         11    1    1    2    0    0 -0.54060641433E+02 -0.12326440494E+02 -0.21875437612E+02  0.59607288633E+02  0.00000000000E+00 0. -1.
</event>
<event>
 7    1  0.2733606E-009  0.1749255E+03  0.7561462E-02  0.1172806E+00
          1   -1    0    0  501    0  0.00000000000E+00  0.00000000000E+00  0.59386376173E+02  0.59386376173E+02  0.00000000000E+00 0. -1.
         -1   -1    0    0    0  501 -0.00000000000E+00 -0.00000000000E+00 -0.66158250575E+03  0.66158250575E+03  0.00000000000E+00 0.  1.
         25    2    1    2    0    0 -0.15459583961E+03 -0.83524575388E+01 -0.20850390114E+03  0.28825525884E+03  0.12509028854E+03 0.  0.
          5    1    3    3  502    0 -0.16195594885E+02  0.43423188275E+02 -0.79192162926E+02  0.91851737286E+02  0.41800000000E+01 0. -1.
         -5    1    3    3    0  502 -0.13840024473E+03 -0.51775645813E+02 -0.12931173821E+03  0.19640352156E+03  0.41800000000E+01 0. -1.
        -11    1    1    2    0    0  0.77850974310E+02 -0.30113832784E+01 -0.88923574038E+02  0.11822539765E+03  0.00000000000E+00 0.  1.
         11    1    1    2    0    0  0.76744865303E+02  0.11363840817E+02 -0.30476865440E+03  0.31448822543E+03  0.00000000000E+00 0. -1.
</event>
<event>
 7    1  0.2733606E-009  0.2234581E+03  0.7561462E-02  0.1131331E+00
          2   -1    0    0  501    0  0.00000000000E+00  0.00000000000E+00  0.73549307992E+02  0.73549307992E+02  0.00000000000E+00 0. -1.
         -2   -1    0    0    0  501 -0.00000000000E+00 -0.00000000000E+00 -0.76485039964E+03  0.76485039964E+03  0.00000000000E+00 0.  1.
         25    2    1    2    0    0 -0.12187756515E+03 -0.15936452356E+03 -0.47107488474E+03  0.52707688885E+03  0.12508919806E+03 0.  0.
          5    1    3    3  502    0 -0.11115868655E+03 -0.58368456726E+02 -0.33075899603E+03  0.35381084804E+03  0.41800000000E+01 0. -1.
         -5    1    3    3    0  502 -0.10718878605E+02 -0.10099606683E+03 -0.14031588870E+03  0.17326604081E+03  0.41800000000E+01 0. -1.
        -11    1    1    2    0    0  0.57040072517E+02  0.11495809037E+02 -0.50199417184E+02  0.76848584788E+02  0.00000000000E+00 0.  1.
         11    1    1    2    0    0  0.64837492634E+02  0.14786871452E+03 -0.17002678973E+03  0.23447423400E+03  0.00000000000E+00 0. -1.
</event>
<event>
 7    1  0.2733606E-009  0.2011519E+03  0.7561462E-02  0.1148771E+00
          2   -1    0    0  501    0  0.00000000000E+00  0.00000000000E+00  0.46106828886E+02  0.46106828886E+02  0.00000000000E+00 0. -1.
         -2   -1    0    0    0  501 -0.00000000000E+00 -0.00000000000E+00 -0.95419699049E+03  0.95419699049E+03  0.00000000000E+00 0.  1.
         25    2    1    2    0    0 -0.87921293136E+02 -0.15616817397E+03 -0.48499781305E+03  0.53196590579E+03  0.12508474691E+03 0.  0.
          5    1    3    3  502    0 -0.91653896427E+02 -0.70721678594E+02 -0.37549144287E+03  0.39295456305E+03  0.41800000000E+01 0.  1.
         -5    1    3    3    0  502  0.37326032910E+01 -0.85446495379E+02 -0.10950637018E+03  0.13901134273E+03  0.41800000000E+01 0.  1.
        -11    1    1    2    0    0  0.10708409686E+03  0.13099639923E+03 -0.35621188278E+03  0.39435259077E+03  0.00000000000E+00 0.  1.
         11    1    1    2    0    0 -0.19162803728E+02  0.25171774743E+02 -0.66880465769E+02  0.73985322814E+02  0.00000000000E+00 0. -1.
</event>
<event>
 7    1  0.2733606E-009  0.1106966E+03  0.7561462E-02  0.1259285E+00
          2   -1    0    0  501    0  0.00000000000E+00  0.00000000000E+00  0.22218601577E+03  0.22218601577E+03  0.00000000000E+00 0. -1.
         -2   -1    0    0    0  501 -0.00000000000E+00 -0.00000000000E+00 -0.10821327894E+03  0.10821327894E+03  0.00000000000E+00 0.  1.
         25    2    1    2    0    0  0.65021472430E+02 -0.58229409065E+02 -0.11691672046E+02  0.15297839207E+03  0.12508891753E+03 0.  0.
          5    1    3    3  502    0  0.32632722584E+02  0.11675663135E+02  0.45202139826E+02  0.57113234348E+02  0.41800000000E+01 0. -1.
         -5    1    3    3    0  502  0.32388749847E+02 -0.69905072201E+02 -0.56893811872E+02  0.95865157723E+02  0.41800000000E+01 0. -1.
        -11    1    1    2    0    0 -0.69554947535E+02  0.68794706882E+02  0.69279893551E+02  0.11987621145E+03  0.00000000000E+00 0.  1.
         11    1    1    2    0    0  0.45334751045E+01 -0.10565297817E+02  0.56384515331E+02  0.57544691185E+02  0.00000000000E+00 0. -1.
</event>
<event>
 7    1  0.2733606E-009  0.1367178E+03  0.7561462E-02  0.1217815E+00
         -1   -1    0    0    0  501 -0.00000000000E+00  0.00000000000E+00  0.16746527551E+03  0.16746527551E+03  0.00000000000E+00 0.  1.
          1   -1    0    0  501    0  0.00000000000E+00 -0.00000000000E+00 -0.20830132549E+03  0.20830132549E+03  0.00000000000E+00 0. -1.
         25    2    1    2    0    0  0.79005366186E+02 -0.96913129401E+02 -0.11034536709E+03  0.20846637694E+03  0.12509247676E+03 0.  0.
          5    1    3    3  502    0  0.23949429556E+02 -0.87985855425E+02 -0.12095823281E+03  0.15153696716E+03  0.41800000000E+01 0.  1.
         -5    1    3    3    0  502  0.55055936630E+02 -0.89272739764E+01  0.10612865728E+02  0.56929409779E+02  0.41800000000E+01 0.  1.
        -11    1    1    2    0    0 -0.63315967288E+02  0.65452178764E+02  0.88804461415E+02  0.12719721611E+03  0.00000000000E+00 0.  1.
         11    1    1    2    0    0 -0.15689398898E+02  0.31460950637E+02 -0.19295144302E+02  0.40103007947E+02  0.00000000000E+00 0. -1.
</event>
<event>
 7    1  0.2733606E-009  0.1308931E+03  0.7561462E-02  0.1226136E+00
         -2   -1    0    0    0  501 -0.00000000000E+00  0.00000000000E+00  0.14719769586E+02  0.14719769586E+02  0.00000000000E+00 0.  1.
          2   -1    0    0  501    0  0.00000000000E+00 -0.00000000000E+00 -0.12806700694E+04  0.12806700694E+04  0.00000000000E+00 0. -1.
         25    2    1    2    0    0  0.64812917585E+02  0.44952888694E+02 -0.85205472643E+03  0.86479231760E+03  0.12508804599E+03 0.  0.
          5    1    3    3  502    0  0.17804431951E+01  0.73543391869E+02 -0.32827238156E+03  0.33644023148E+03  0.41800000000E+01 0.  1.
         -5    1    3    3    0  502  0.63032474390E+02 -0.28590503175E+02 -0.52378234487E+03  0.52835208611E+03  0.41800000000E+01 0.  1.
        -11    1    1    2    0    0 -0.28850195755E+02  0.26242669347E+02 -0.13573531134E+03  0.14122707331E+03  0.00000000000E+00 0.  1.
         11    1    1    2    0    0 -0.35962721830E+02 -0.71195558041E+02 -0.27816026203E+03  0.28937044807E+03  0.00000000000E+00 0. -1.
</event>
<event>
 7    1  0.4447618E-009  0.1724644E+03  0.7561462E-02  0.1175302E+00
          2   -1    0    0  501    0  0.00000000000E+00  0.00000000000E+00  0.83583808221E+03  0.83583808221E+03  0.00000000000E+00 0. -1.
         -2   -1    0    0    0  501 -0.00000000000E+00 -0.00000000000E+00 -0.42245741034E+02  0.42245741034E+02  0.00000000000E+00 0.  1.
         25    2    1    2    0    0  0.14025748127E+01  0.14949528647E+03  0.49156520704E+03  0.52880526077E+03  0.12509133922E+03 0.  0.
          5    1    3    3  502    0 -0.50905064314E+02  0.12815646818E+03  0.36201652838E+03  0.38741301621E+03  0.41800000000E+01 0.  1.
         -5    1    3    3    0  502  0.52307639127E+02  0.21338818284E+02  0.12954867866E+03  0.14139224456E+03  0.41800000000E+01 0.  1.
        -11    1    1    2    0    0 -0.80822139409E+01 -0.54971373222E+02  0.34348665578E+02  0.65322315354E+02  0.00000000000E+00 0.  1.
         11    1    1    2    0    0  0.66796391283E+01 -0.94523913243E+02  0.26767846855E+03  0.28395624712E+03  0.00000000000E+00 0. -1.
</event>
<event>
 7    1  0.2733606E-009  0.1140868E+03  0.7561462E-02  0.1253184E+00
          2   -1    0    0  501    0  0.00000000000E+00  0.00000000000E+00  0.48664262232E+03  0.48664262232E+03  0.00000000000E+00 0.  1.
         -2   -1    0    0    0  501 -0.00000000000E+00 -0.00000000000E+00 -0.37237033670E+02  0.37237033670E+02  0.00000000000E+00 0. -1.
         25    2    1    2    0    0  0.30295304186E+02  0.68233752540E+02  0.19974340984E+03  0.24722185500E+03  0.12509022893E+03 0.  0.
          5    1    3    3  502    0  0.62664361568E+02  0.64897859383E+02  0.19389671530E+03  0.21389708499E+03  0.41800000000E+01 0. -1.
         -5    1    3    3    0  502 -0.32369057383E+02  0.33358931570E+01  0.58466945392E+01  0.33324770007E+02  0.41800000000E+01 0. -1.
        -11    1    1    2    0    0  0.19733559809E+02 -0.46490700316E+02  0.18641813323E+03  0.19313860048E+03  0.00000000000E+00 0.  1.
         11    1    1    2    0    0 -0.50028863995E+02 -0.21743052224E+02  0.63244045581E+02  0.83519200511E+02  0.00000000000E+00 0. -1.
</event>
<event>
 7    1  0.2733606E-009  0.1104862E+03  0.7561462E-02  0.1259672E+00
          2   -1    0    0  501    0  0.00000000000E+00  0.00000000000E+00  0.92628799260E+03  0.92628799260E+03  0.00000000000E+00 0. -1.
         -2   -1    0    0    0  501 -0.00000000000E+00 -0.00000000000E+00 -0.18742023899E+02  0.18742023899E+02  0.00000000000E+00 0.  1.
         25    2    1    2    0    0 -0.12050287812E+01 -0.62856746975E+02  0.65315481687E+03  0.66799043579E+03  0.12509030642E+03 0.  0.
          5    1    3    3  502    0 -0.39831256224E+02  0.13151318196E+02  0.10363619075E+03  0.11188127000E+03  0.41800000000E+01 0. -1.
         -5    1    3    3    0  502  0.38626227443E+02 -0.76008065172E+02  0.54951862612E+03  0.55610916579E+03  0.41800000000E+01 0. -1.
        -11    1    1    2    0    0 -0.33633017739E+02  0.37464685312E+02  0.61947741188E+02  0.79826719625E+02  0.00000000000E+00 0. -1.
         11    1    1    2    0    0  0.34838046521E+02  0.25392061663E+02  0.19244341064E+03  0.19721286109E+03  0.00000000000E+00 0.  1.
</event>
<event>
 7    1  0.2733606E-009  0.1745475E+03  0.7561462E-02  0.1173187E+00
          1   -1    0    0  501    0  0.00000000000E+00  0.00000000000E+00  0.81026630474E+03  0.81026630474E+03  0.00000000000E+00 0. -1.
         -1   -1    0    0    0  501 -0.00000000000E+00 -0.00000000000E+00 -0.51630563813E+02  0.51630563813E+02  0.00000000000E+00 0.  1.
         25    2    1    2    0    0 -0.14893700637E+03 -0.85244851986E+02  0.44054794900E+03  0.48905954048E+03  0.12509125513E+03 0.  0.
          5    1    3    3  502    0 -0.10388607373E+03 -0.68742809889E+02  0.41742490422E+03  0.43563621669E+03  0.41800000000E+01 0.  1.
         -5    1    3    3    0  502 -0.45050932636E+02 -0.16502042097E+02  0.23123044776E+02  0.53423323787E+02  0.41800000000E+01 0.  1.
        -11    1    1    2    0    0  0.37644271020E+02  0.27186949160E+01  0.16987795189E+02  0.41389221158E+02  0.00000000000E+00 0. -1.
         11    1    1    2    0    0  0.11129273535E+03  0.82526157070E+02  0.30109999674E+03  0.33144810691E+03  0.00000000000E+00 0.  1.
</event>
<event>
 7    1  0.2733606E-009  0.1072567E+03  0.7561462E-02  0.1265736E+00
         -1   -1    0    0    0  501 -0.00000000000E+00  0.00000000000E+00  0.21630806150E+03  0.21630806150E+03  0.00000000000E+00 0.  1.
          1   -1    0    0  501    0  0.00000000000E+00 -0.00000000000E+00 -0.10501079085E+03  0.10501079085E+03  0.00000000000E+00 0. -1.
         25    2    1    2    0    0 -0.98486628572E+02  0.34353013356E+02  0.64539655508E+02  0.17520398406E+03  0.12510524915E+03 0.  0.
          5    1    3    3  502    0 -0.75263648537E+02  0.11119653410E+02  0.10063066174E+03  0.12622308016E+03  0.41800000000E+01 0.  1.
         -5    1    3    3    0  502 -0.23222980035E+02  0.23233359946E+02 -0.36091006234E+02  0.48980903902E+02  0.41800000000E+01 0.  1.
        -11    1    1    2    0    0  0.79092311114E+02 -0.33191150631E+02  0.73569682032E+02  0.11300329319E+03  0.00000000000E+00 0.  1.
         11    1    1    2    0    0  0.19394317458E+02 -0.11618627248E+01 -0.26812066889E+02  0.33111575099E+02  0.00000000000E+00 0. -1.
</event>
<event>
 7    1  0.2733606E-009  0.1280167E+03  0.7561462E-02  0.1230429E+00
          1   -1    0    0  501    0  0.00000000000E+00  0.00000000000E+00  0.50950720254E+03  0.50950720254E+03  0.00000000000E+00 0. -1.
         -1   -1    0    0    0  501 -0.00000000000E+00 -0.00000000000E+00 -0.44478178372E+02  0.44478178372E+02  0.00000000000E+00 0.  1.
         25    2    1    2    0    0  0.93674737194E+02  0.83734131648E+00  0.17255574225E+03  0.23280493215E+03  0.12508794794E+03 0.  0.
          5    1    3    3  502    0  0.91318598077E+02  0.40025866738E+02  0.16466339351E+03  0.19254262366E+03  0.41800000000E+01 0. -1.
         -5    1    3    3    0  502  0.23561391167E+01 -0.39188525422E+02  0.78923487428E+01  0.40262308490E+02  0.41800000000E+01 0. -1.
        -11    1    1    2    0    0 -0.36524063998E+02 -0.34658496815E+02  0.54868713900E+02  0.74470090757E+02  0.00000000000E+00 0.  1.
         11    1    1    2    0    0 -0.57150673196E+02  0.33821155499E+02  0.23760456801E+03  0.24671035800E+03  0.00000000000E+00 0. -1.
</event>
<event>
 7    1  0.2733606E-009  0.1137550E+03  0.7561462E-02  0.1253770E+00
         -1   -1    0    0    0  501 -0.00000000000E+00  0.00000000000E+00  0.30701966109E+02  0.30701966109E+02  0.00000000000E+00 0.  1.
          1   -1    0    0  501    0  0.00000000000E+00 -0.00000000000E+00 -0.50645327249E+03  0.50645327249E+03  0.00000000000E+00 0. -1.
         25    2    1    2    0    0  0.55420718826E+01 -0.56600758477E+02 -0.20219403738E+03  0.24446627552E+03  0.12508785191E+03 0.  0.
          5    1    3    3  502    0  0.59341970500E+02 -0.23955506476E+02 -0.14805596360E+03  0.16134861794E+03  0.41800000000E+01 0. -1.
         -5    1    3    3    0  502 -0.53799898617E+02 -0.32645252001E+02 -0.54138073780E+02  0.83117657583E+02  0.41800000000E+01 0. -1.
        -11    1    1    2    0    0  0.12186102301E+02 -0.19047851402E+02 -0.33886296993E+02  0.40738223528E+02  0.00000000000E+00 0.  1.
         11    1    1    2    0    0 -0.17728174183E+02  0.75648609878E+02 -0.23967097201E+03  0.25195073955E+03  0.00000000000E+00 0. -1.
</event>
<event>
 7    1  0.2733606E-009  0.9575676E+02  0.7561462E-02  0.1289481E+00
          1   -1    0    0  501    0  0.00000000000E+00  0.00000000000E+00  0.30314206925E+03  0.30314206925E+03  0.00000000000E+00 0.  1.
         -1   -1    0    0    0  501 -0.00000000000E+00 -0.00000000000E+00 -0.70062904196E+02  0.70062904196E+02  0.00000000000E+00 0. -1.
         25    2    1    2    0    0 -0.76809195090E+02 -0.11652127220E+02  0.19939498982E+03  0.24787419848E+03  0.12509129381E+03 0.  0.
          5    1    3    3  502    0 -0.28593261164E+02 -0.11805497785E+02 -0.10141039878E+02  0.32821600384E+02  0.41800000000E+01 0.  1.
         -5    1    3    3    0  502 -0.48215933926E+02  0.15337056471E+00  0.20953602969E+03  0.21505259809E+03  0.41800000000E+01 0.  1.
        -11    1    1    2    0    0  0.94035794380E+02  0.10787994300E+02  0.44894221563E+02  0.10475973738E+03  0.00000000000E+00 0.  1.
         11    1    1    2    0    0 -0.17226599289E+02  0.86413292050E+00 -0.11210046328E+02  0.20571037588E+02  0.00000000000E+00 0. -1.
</event>
<event>
 7    1  0.2733606E-009  0.6724447E+02  0.7561462E-02  0.1369722E+00
         -3   -1    0    0    0  501 -0.00000000000E+00  0.00000000000E+00  0.51954447843E+02  0.51954447843E+02  0.00000000000E+00 0.  1.
          3   -1    0    0  501    0  0.00000000000E+00 -0.00000000000E+00 -0.27115493385E+03  0.27115493385E+03  0.00000000000E+00 0. -1.
         25    2    1    2    0    0  0.14579336439E+02  0.37639242578E+02 -0.85373010169E+02  0.15673306835E+03  0.12508970468E+03 0.  0.
          5    1    3    3  502    0  0.14914957916E+02  0.34642225917E+02 -0.11787100702E+03  0.12382885965E+03  0.41800000000E+01 0. -1.
         -5    1    3    3    0  502 -0.33562147661E+00  0.29970166609E+01  0.32497996854E+02  0.32904208700E+02  0.41800000000E+01 0. -1.
        -11    1    1    2    0    0  0.34331090676E+02 -0.14231515269E+02 -0.87470865038E+02  0.95038476652E+02  0.00000000000E+00 0. -1.
         11    1    1    2    0    0 -0.48910427116E+02 -0.23407727309E+02 -0.46356610796E+02  0.71337836685E+02  0.00000000000E+00 0.  1.
</event>
<event>
 7    1  0.2733606E-009  0.8594320E+02  0.7561462E-02  0.1312984E+00
         -4   -1    0    0    0  501 -0.00000000000E+00  0.00000000000E+00  0.21746114807E+03  0.21746114807E+03  0.00000000000E+00 0.  1.
          4   -1    0    0  501    0  0.00000000000E+00 -0.00000000000E+00 -0.60655598075E+02  0.60655598075E+02  0.00000000000E+00 0. -1.
         25    2    1    2    0    0 -0.36118906852E+02  0.36161637267E+01  0.73191939020E+02  0.14940234524E+03  0.12508536587E+03 0.  0.
          5    1    3    3  502    0  0.18003801611E+02  0.18085500281E+02  0.87656246871E+02  0.91390985378E+02  0.41800000000E+01 0. -1.
         -5    1    3    3    0  502 -0.54122708463E+02 -0.14469336554E+02 -0.14464307851E+02  0.58011359864E+02  0.41800000000E+01 0. -1.
        -11    1    1    2    0    0  0.56425546191E+02  0.18919572226E+02  0.77592568055E+02  0.97787520132E+02  0.00000000000E+00 0.  1.
         11    1    1    2    0    0 -0.20306639339E+02 -0.22535735953E+02  0.60210429164E+01  0.30926880767E+02  0.00000000000E+00 0. -1.
</event>
<event>
 7    1  0.2733606E-009  0.7188993E+02  0.7561462E-02  0.1353782E+00
          2   -1    0    0  501    0  0.00000000000E+00  0.00000000000E+00  0.10322622330E+03  0.10322622330E+03  0.00000000000E+00 0. -1.
         -2   -1    0    0    0  501 -0.00000000000E+00 -0.00000000000E+00 -0.14060152275E+03  0.14060152275E+03  0.00000000000E+00 0.  1.
         25    2    1    2    0    0 -0.36042845366E+02 -0.24133134056E+02 -0.53040797474E+02  0.14262707594E+03  0.12509061409E+03 0.  0.
          5    1    3    3  502    0 -0.49661767065E+02  0.35413329301E+01  0.26968331813E+02  0.56776715894E+02  0.41800000000E+01 0.  1.
         -5    1    3    3    0  502  0.13618921699E+02 -0.27674466986E+02 -0.80009129287E+02  0.85850360048E+02  0.41800000000E+01 0.  1.
        -11    1    1    2    0    0  0.24818934094E+02 -0.10001483080E+02 -0.31869069088E+02  0.41613059463E+02  0.00000000000E+00 0.  1.
         11    1    1    2    0    0  0.11223911272E+02  0.34134617136E+02  0.47534567113E+02  0.59587610640E+02  0.00000000000E+00 0. -1.
</event>
<event>
 7    1  0.2733606E-009  0.1511301E+03  0.7561462E-02  0.1199091E+00
          3   -1    0    0  501    0  0.00000000000E+00  0.00000000000E+00  0.92871759920E+03  0.92871759920E+03  0.00000000000E+00 0. -1.
         -3   -1    0    0    0  501 -0.00000000000E+00 -0.00000000000E+00 -0.32342316132E+02  0.32342316132E+02  0.00000000000E+00 0.  1.
         25    2    1    2    0    0 -0.86937648857E+02 -0.10204036902E+03  0.44776171228E+03  0.48384915402E+03  0.12509620762E+03 0.  0.
          5    1    3    3  502    0 -0.67247916749E+02 -0.20565649400E+02  0.79834898404E+02  0.10647211675E+03  0.41800000000E+01 0.  1.
         -5    1    3    3    0  502 -0.19689732108E+02 -0.81474719624E+02  0.36792681388E+03  0.37737703727E+03  0.41800000000E+01 0.  1.
        -11    1    1    2    0    0 -0.87018579237E+01  0.20270338289E+02  0.17643963780E+02  0.28247449505E+02  0.00000000000E+00 0.  1.
         11    1    1    2    0    0  0.95639506781E+02  0.81770030735E+02  0.43096960700E+03  0.44896331180E+03  0.00000000000E+00 0. -1.
</event>
<event>
 7    1  0.2733606E-009  0.8038100E+02  0.7561462E-02  0.1327974E+00
         -1   -1    0    0    0  501 -0.00000000000E+00  0.00000000000E+00  0.16433072019E+02  0.16433072019E+02  0.00000000000E+00 0.  1.
          1   -1    0    0  501    0  0.00000000000E+00 -0.00000000000E+00 -0.74127254780E+03  0.74127254780E+03  0.00000000000E+00 0. -1.
         25    2    1    2    0    0 -0.25395381506E+01 -0.21403751105E+02 -0.40278283928E+03  0.42231022373E+03  0.12508932662E+03 0.  0.
          5    1    3    3  502    0  0.33842179067E+02 -0.91012785601E+01 -0.36989528520E+03  0.37157518858E+03  0.41800000000E+01 0. -1.
         -5    1    3    3    0  502 -0.36381717217E+02 -0.12302472545E+02 -0.32887554078E+02  0.50735035150E+02  0.41800000000E+01 0. -1.
        -11    1    1    2    0    0  0.42169040026E+02  0.21219082850E+02 -0.23568223209E+03  0.24036345799E+03  0.00000000000E+00 0. -1.
         11    1    1    2    0    0 -0.39629501875E+02  0.18466825471E+00 -0.86374404410E+02  0.95031938097E+02  0.00000000000E+00 0.  1.
</event>
<event>
 7    1  0.2733606E-009  0.1655984E+03  0.7561462E-02  0.1182517E+00
         -2   -1    0    0    0  501 -0.00000000000E+00  0.00000000000E+00  0.82302938632E+02  0.82302938632E+02  0.00000000000E+00 0.  1.
          2   -1    0    0  501    0  0.00000000000E+00 -0.00000000000E+00 -0.46624856252E+03  0.46624856252E+03  0.00000000000E+00 0. -1.
         25    2    1    2    0    0  0.13761449928E+03  0.70895903278E+02 -0.27052647755E+03  0.33585255675E+03  0.12509350623E+03 0.  0.
          5    1    3    3  502    0  0.11686678622E+03  0.34735838267E+02 -0.92861326462E+02  0.15331380412E+03  0.41800000000E+01 0.  1.
         -5    1    3    3    0  502  0.20747713064E+02  0.36160065011E+02 -0.17766515109E+03  0.18253875263E+03  0.41800000000E+01 0.  1.
        -11    1    1    2    0    0 -0.88725278849E+02 -0.10109315714E+02 -0.20955779943E+02  0.91725231448E+02  0.00000000000E+00 0.  1.
         11    1    1    2    0    0 -0.48889220435E+02 -0.60786587563E+02 -0.92463366396E+02  0.12097371296E+03  0.00000000000E+00 0. -1.
</event>
<event>
 7    1  0.2733606E-009  0.1689151E+03  0.7561462E-02  0.1178984E+00
         -2   -1    0    0    0  501 -0.00000000000E+00  0.00000000000E+00  0.46185411874E+02  0.46185411874E+02  0.00000000000E+00 0.  1.
          2   -1    0    0  501    0  0.00000000000E+00 -0.00000000000E+00 -0.74074360934E+03  0.74074360934E+03  0.00000000000E+00 0. -1.
         25    2    1    2    0    0  0.14400922353E+03 -0.32888595956E+02 -0.40347322691E+03  0.44750248019E+03  0.12509000253E+03 0.  0.
          5    1    3    3  502    0  0.90231917330E+02  0.39193230794E+02 -0.26113376861E+03  0.27908103796E+03  0.41800000000E+01 0. -1.
         -5    1    3    3    0  502  0.53777306198E+02 -0.72081826750E+02 -0.14233945831E+03  0.16842144222E+03  0.41800000000E+01 0.  1.
        -11    1    1    2    0    0 -0.41597817406E+02  0.19871406995E+02 -0.21728824387E+02  0.50964625360E+02  0.00000000000E+00 0.  1.
         11    1    1    2    0    0 -0.10241140612E+03  0.13017188961E+02 -0.26935614617E+03  0.28846191567E+03  0.00000000000E+00 0. -1.
</event>
<event>
 7    1  0.2733606E-009  0.1663342E+03  0.7561462E-02  0.1181725E+00
         -2   -1    0    0    0  501 -0.00000000000E+00  0.00000000000E+00  0.13246596948E+03  0.13246596948E+03  0.00000000000E+00 0.  1.
          2   -1    0    0  501    0  0.00000000000E+00 -0.00000000000E+00 -0.42393121885E+03  0.42393121885E+03  0.00000000000E+00 0. -1.
         25    2    1    2    0    0 -0.41306682983E+02  0.12833322267E+03 -0.33953990499E+03  0.38614839771E+03  0.12509028688E+03 0.  0.
          5    1    3    3  502    0 -0.34939521989E+02 -0.12501296694E+02 -0.38124104242E+02  0.53366397106E+02  0.41800000000E+01 0.  1.
         -5    1    3    3    0  502 -0.63671609941E+01  0.14083451936E+03 -0.30141580075E+03  0.33278200060E+03  0.41800000000E+01 0.  1.
        -11    1    1    2    0    0 -0.10197359867E+02 -0.88732350610E+02 -0.18638148174E+00  0.89316577023E+02  0.00000000000E+00 0. -1.
         11    1    1    2    0    0  0.51504042850E+02 -0.39600872059E+02  0.48261037097E+02  0.80932213608E+02  0.00000000000E+00 0.  1.
</event>
<event>
 7    1  0.2733606E-009  0.1988381E+03  0.7561462E-02  0.1150723E+00
         -1   -1    0    0    0  501 -0.00000000000E+00  0.00000000000E+00  0.16756162585E+03  0.16756162585E+03  0.00000000000E+00 0.  1.
          1   -1    0    0  501    0  0.00000000000E+00 -0.00000000000E+00 -0.24267017654E+03  0.24267017654E+03  0.00000000000E+00 0. -1.
         25    2    1    2    0    0  0.16566494779E+03 -0.18652784198E+02 -0.73292682517E+02  0.22093605076E+03  0.12509244554E+03 0.  0.
          5    1    3    3  502    0  0.11957598065E+03 -0.70515615254E+02 -0.46960999928E+02  0.14660721352E+03  0.41800000000E+01 0. -1.
         -5    1    3    3    0  502  0.46088967146E+02  0.51862831056E+02 -0.26331682589E+02  0.74328837242E+02  0.41800000000E+01 0. -1.
        -11    1    1    2    0    0 -0.23282739050E+02  0.39035385065E+02 -0.78005467125E+00  0.45458285385E+02  0.00000000000E+00 0. -1.
         11    1    1    2    0    0 -0.14238220874E+03 -0.20382600868E+02 -0.10358134992E+01  0.14383746624E+03  0.00000000000E+00 0.  1.
</event>
<event>
 7    1  0.2733606E-009  0.1143108E+03  0.7561462E-02  0.1252789E+00
          1   -1    0    0  501    0  0.00000000000E+00  0.00000000000E+00  0.12503063550E+04  0.12503063550E+04  0.00000000000E+00 0. -1.
         -1   -1    0    0    0  501 -0.00000000000E+00 -0.00000000000E+00 -0.16296106545E+02  0.16296106545E+02  0.00000000000E+00 0.  1.
         25    2    1    2    0    0 -0.78046364771E+02 -0.28033434175E+02  0.82643822531E+03  0.83995503370E+03  0.12508880801E+03 0.  0.
          5    1    3    3  502    0 -0.96155582935E+02 -0.32524514319E+02  0.38736841434E+03  0.40046910117E+03  0.41800000000E+01 0.  1.
         -5    1    3    3    0  502  0.18109218165E+02  0.44910801443E+01  0.43906981097E+03  0.43948593253E+03  0.41800000000E+01 0.  1.
        -11    1    1    2    0    0  0.15096361350E+02  0.40952170217E+02  0.66292924346E+02  0.79370852269E+02  0.00000000000E+00 0.  1.
         11    1    1    2    0    0  0.62950003420E+02 -0.12918736041E+02  0.34127909876E+03  0.34727657555E+03  0.00000000000E+00 0. -1.
</event>
<event>
 7    1  0.2733606E-009  0.9422123E+02  0.7561462E-02  0.1292940E+00
          1   -1    0    0  501    0  0.00000000000E+00  0.00000000000E+00  0.99475381903E+02  0.99475381903E+02  0.00000000000E+00 0. -1.
         -1   -1    0    0    0  501 -0.00000000000E+00 -0.00000000000E+00 -0.13473450303E+03  0.13473450303E+03  0.00000000000E+00 0.  1.
         25    2    1    2    0    0  0.23597915406E+02  0.20119976918E+02  0.62766165994E+01  0.12902857122E+03  0.12508917296E+03 0.  0.
          5    1    3    3  502    0  0.61367534528E+01 -0.47330729832E+02 -0.23235131246E+02  0.53246609783E+02  0.41800000000E+01 0. -1.
         -5    1    3    3    0  502  0.17461161953E+02  0.67450706750E+02  0.29511747845E+02  0.75781961433E+02  0.41800000000E+01 0. -1.
        -11    1    1    2    0    0 -0.44761567709E+02 -0.21229324701E+02  0.90273960885E+01  0.50356489663E+02  0.00000000000E+00 0. -1.
         11    1    1    2    0    0  0.21163652304E+02  0.11093477831E+01 -0.50563133814E+02  0.54824824053E+02  0.00000000000E+00 0.  1.
</event>
<event>
 7    1  0.2733606E-009  0.1051447E+03  0.7561462E-02  0.1269835E+00
         -1   -1    0    0    0  501 -0.00000000000E+00  0.00000000000E+00  0.13963105901E+03  0.13963105901E+03  0.00000000000E+00 0.  1.
          1   -1    0    0  501    0  0.00000000000E+00 -0.00000000000E+00 -0.17460513545E+03  0.17460513545E+03  0.00000000000E+00 0. -1.
         25    2    1    2    0    0 -0.36345718496E+02  0.82989385136E+02 -0.80410357361E+02  0.17412648517E+03  0.12508380378E+03 0.  0.
          5    1    3    3  502    0 -0.28514080466E+02  0.76177725102E+02 -0.11321409032E+03  0.13946684636E+03  0.41800000000E+01 0. -1.
         -5    1    3    3    0  502 -0.78316380304E+01  0.68116600336E+01  0.32803732955E+02  0.34659638810E+02  0.41800000000E+01 0. -1.
        -11    1    1    2    0    0  0.58364799347E+02 -0.44822269399E+02 -0.42339278197E+01  0.73711680089E+02  0.00000000000E+00 0. -1.
         11    1    1    2    0    0 -0.22019080850E+02 -0.38167115737E+02  0.49670208744E+02  0.66398029202E+02  0.00000000000E+00 0.  1.
</event>
<event>
 7    1  0.2733606E-009  0.1271773E+03  0.7561462E-02  0.1231705E+00
          1   -1    0    0  501    0  0.00000000000E+00  0.00000000000E+00  0.11377156220E+03  0.11377156220E+03  0.00000000000E+00 0. -1.
         -1   -1    0    0    0  501 -0.00000000000E+00 -0.00000000000E+00 -0.19679089371E+03  0.19679089371E+03  0.00000000000E+00 0.  1.
         25    2    1    2    0    0  0.43177777147E+02  0.71492349266E+02 -0.10346695817E+03  0.18256006670E+03  0.12508912853E+03 0.  0.
          5    1    3    3  502    0  0.44963508980E+02 -0.16545770398E+02 -0.76519432007E+02  0.90377959329E+02  0.41800000000E+01 0.  1.
         -5    1    3    3    0  502 -0.17857318333E+01  0.88038119664E+02 -0.26947526168E+02  0.92182107367E+02  0.41800000000E+01 0.  1.
        -11    1    1    2    0    0 -0.67197312770E+00  0.18535816760E+02  0.21556864371E+02  0.28438116188E+02  0.00000000000E+00 0. -1.
         11    1    1    2    0    0 -0.42505804019E+02 -0.90028166026E+02 -0.11092377076E+01  0.99564273018E+02  0.00000000000E+00 0.  1.
</event>
<event>
 7    1  0.2733606E-009  0.9171395E+02  0.7561462E-02  0.1298753E+00
         -1   -1    0    0    0  501 -0.00000000000E+00  0.00000000000E+00  0.65296931652E+03  0.65296931652E+03  0.00000000000E+00 0.  1.
          1   -1    0    0  501    0  0.00000000000E+00 -0.00000000000E+00 -0.19717041594E+02  0.19717041594E+02  0.00000000000E+00 0. -1.
         25    2    1    2    0    0 -0.10334773410E+02  0.70505123665E+01  0.46709415209E+03  0.48371497495E+03  0.12508682108E+03 0.  0.
          5    1    3    3  502    0  0.19775551208E+02  0.42810221298E+02  0.74127341449E+02  0.87955230790E+02  0.41800000000E+01 0. -1.
         -5    1    3    3    0  502 -0.30110324618E+02 -0.35759708931E+02  0.39296681064E+03  0.39575974416E+03  0.41800000000E+01 0. -1.
        -11    1    1    2    0    0  0.12219967294E+02  0.40121733032E+02  0.65270399530E+02  0.77584187286E+02  0.00000000000E+00 0.  1.
         11    1    1    2    0    0 -0.18851938842E+01 -0.47172245398E+02  0.10088772331E+03  0.11138719588E+03  0.00000000000E+00 0. -1.
</event>
<event>
 7    1  0.3859600E-009  0.1392646E+03  0.7561462E-02  0.1214322E+00
          1   -1    0    0  501    0  0.00000000000E+00  0.00000000000E+00  0.88574483474E+03  0.88574483474E+03  0.00000000000E+00 0. -1.
         -1   -1    0    0    0  501 -0.00000000000E+00 -0.00000000000E+00 -0.26759922238E+02  0.26759922238E+02  0.00000000000E+00 0.  1.
         25    2    1    2    0    0  0.84337499385E+02 -0.69189562353E+02  0.44300236859E+03  0.47307441396E+03  0.12509313819E+03 0.  0.
          5    1    3    3  502    0  0.21927697575E+02  0.36587556404E+02  0.12575668497E+03  0.13285966062E+03  0.41800000000E+01 0. -1.
         -5    1    3    3    0  502  0.62409801810E+02 -0.10577711876E+03  0.31724568362E+03  0.34021475334E+03  0.41800000000E+01 0. -1.
        -11    1    1    2    0    0 -0.25510283659E+02  0.39153699453E+02  0.53745573328E+02  0.71220596779E+02  0.00000000000E+00 0.  1.
         11    1    1    2    0    0 -0.58827215726E+02  0.30035862900E+02  0.36223697059E+03  0.36820974625E+03  0.00000000000E+00 0. -1.
</event>
<event>
 7    1  0.2733606E-009  0.7635447E+02  0.7561462E-02  0.1339727E+00
          1   -1    0    0  501    0  0.00000000000E+00  0.00000000000E+00  0.80449252658E+02  0.80449252658E+02  0.00000000000E+00 0. -1.
         -1   -1    0    0    0  501 -0.00000000000E+00 -0.00000000000E+00 -0.15611974884E+03  0.15611974884E+03  0.00000000000E+00 0.  1.
         25    2    1    2    0    0  0.98179527596E+01  0.19168477548E+01 -0.16028611599E+02  0.12651022399E+03  0.12509138213E+03 0.  0.
          5    1    3    3  502    0  0.23747330900E+02  0.50952721296E+02 -0.40892051449E+02  0.69640130701E+02  0.41800000000E+01 0.  1.
         -5    1    3    3    0  502 -0.13929378141E+02 -0.49035873542E+02  0.24863439850E+02  0.56870093288E+02  0.41800000000E+01 0.  1.
        -11    1    1    2    0    0 -0.52614589026E+01  0.21090879600E+02 -0.77556548211E+02  0.80545181870E+02  0.00000000000E+00 0.  1.
         11    1    1    2    0    0 -0.45564938570E+01 -0.23007727355E+02  0.17914663632E+02  0.29513595636E+02  0.00000000000E+00 0. -1.
</event>
<event>
 7    1  0.2733606E-009  0.9988735E+02  0.7561462E-02  0.1280533E+00
          2   -1    0    0  501    0  0.00000000000E+00  0.00000000000E+00  0.36966573751E+03  0.36966573751E+03  0.00000000000E+00 0. -1.
         -2   -1    0    0    0  501 -0.00000000000E+00 -0.00000000000E+00 -0.39271076692E+02  0.39271076692E+02  0.00000000000E+00 0.  1.
         25    2    1    2    0    0  0.20949102739E+02 -0.41150712248E+02  0.14639861640E+03  0.19801598009E+03  0.12508208291E+03 0.  0.
          5    1    3    3  502    0  0.40088889920E+02 -0.68567798971E+02  0.45483726589E+02  0.91623708368E+02  0.41800000000E+01 0. -1.
         -5    1    3    3    0  502 -0.19139787181E+02  0.27417086723E+02  0.10091488981E+03  0.10639227173E+03  0.41800000000E+01 0. -1.
        -11    1    1    2    0    0  0.17697110281E+02 -0.11591179728E+02  0.11068139193E+03  0.11268501976E+03  0.00000000000E+00 0. -1.
         11    1    1    2    0    0 -0.38646213020E+02  0.52741891976E+02  0.73314652491E+02  0.98235814345E+02  0.00000000000E+00 0.  1.
</event>
<event>
 7    1  0.2733606E-009  0.1296448E+03  0.7561462E-02  0.1227984E+00
          2   -1    0    0  501    0  0.00000000000E+00  0.00000000000E+00  0.48337116077E+03  0.48337116077E+03  0.00000000000E+00 0. -1.
         -2   -1    0    0    0  501 -0.00000000000E+00 -0.00000000000E+00 -0.38292732113E+02  0.38292732113E+02  0.00000000000E+00 0.  1.
         25    2    1    2    0    0  0.67736853277E+02  0.31094193805E+02  0.17990618555E+03  0.23145173676E+03  0.12509412724E+03 0.  0.
          5    1    3    3  502    0  0.94815837433E+02 -0.81116266090E+01  0.13904506912E+03  0.16854330352E+03  0.41800000000E+01 0. -1.
         -5    1    3    3    0  502 -0.27078984156E+02  0.39205820414E+02  0.40861116436E+02  0.62908433247E+02  0.41800000000E+01 0. -1.
        -11    1    1    2    0    0  0.61179731788E+01 -0.41208351385E+02  0.11988689973E+03  0.12691897630E+03  0.00000000000E+00 0. -1.
         11    1    1    2    0    0 -0.73854826456E+02  0.10114157580E+02  0.14528534338E+03  0.16329317982E+03  0.00000000000E+00 0.  1.
</event>
<event>
 7    1  0.2733606E-009  0.9162977E+02  0.7561462E-02  0.1298952E+00
          1   -1    0    0  501    0  0.00000000000E+00  0.00000000000E+00  0.38194445588E+02  0.38194445588E+02  0.00000000000E+00 0. -1.
         -1   -1    0    0    0  501 -0.00000000000E+00 -0.00000000000E+00 -0.44730579830E+03  0.44730579830E+03  0.00000000000E+00 0.  1.
         25    2    1    2    0    0 -0.30628884459E+02  0.57587453556E+02 -0.20889560402E+03  0.25206915113E+03  0.12508812974E+03 0.  0.
          5    1    3    3  502    0  0.14903701863E+02  0.27354660781E+01  0.12091081948E+02  0.19831030395E+02  0.41800000000E+01 0. -1.
         -5    1    3    3    0  502 -0.45532586321E+02  0.54851987478E+02 -0.22098668597E+03  0.23223812073E+03  0.41800000000E+01 0. -1.
        -11    1    1    2    0    0  0.29012681527E+01 -0.66837755794E+02 -0.19162091204E+03  0.20296373294E+03  0.00000000000E+00 0.  1.
         11    1    1    2    0    0  0.27727616306E+02  0.92503022378E+01 -0.85948366526E+01  0.30467359823E+02  0.00000000000E+00 0. -1.
</event>
<event>
 7    1  0.2733606E-009  0.8800890E+02  0.7561462E-02  0.1307746E+00
         -1   -1    0    0    0  501 -0.00000000000E+00  0.00000000000E+00  0.52486923623E+03  0.52486923623E+03  0.00000000000E+00 0.  1.
          1   -1    0    0  501    0  0.00000000000E+00 -0.00000000000E+00 -0.24910111229E+02  0.24910111229E+02  0.00000000000E+00 0. -1.
         25    2    1    2    0    0  0.25365711475E+02  0.12803157575E+02  0.22922968728E+03  0.26268245077E+03  0.12509388573E+03 0.  0.
          5    1    3    3  502    0  0.20678766593E+01 -0.31674843864E+02  0.20369781269E+03  0.20619855271E+03  0.41800000000E+01 0.  1.
         -5    1    3    3    0  502  0.23297834815E+02  0.44478001439E+02  0.25531874594E+02  0.56483898054E+02  0.41800000000E+01 0.  1.
        -11    1    1    2    0    0  0.25494545048E+02  0.20593164100E+02  0.68929803547E+02  0.76324098762E+02  0.00000000000E+00 0.  1.
         11    1    1    2    0    0 -0.50860256522E+02 -0.33396321675E+02  0.20179963417E+03  0.21077279793E+03  0.00000000000E+00 0. -1.
</event>
<event>
 7    1  0.2733606E-009  0.1008182E+03  0.7561462E-02  0.1278585E+00
          1   -1    0    0  501    0  0.00000000000E+00  0.00000000000E+00  0.40432452782E+03  0.40432452782E+03  0.00000000000E+00 0. -1.
         -1   -1    0    0    0  501 -0.00000000000E+00 -0.00000000000E+00 -0.38036525203E+02  0.38036525203E+02  0.00000000000E+00 0.  1.
         25    2    1    2    0    0 -0.50112555360E+02  0.36439369638E+02  0.18703476386E+03  0.23338393541E+03  0.12508781936E+03 0.  0.
          5    1    3    3  502    0 -0.61044819324E+01 -0.45706010380E+02  0.63125887285E+02  0.78285721112E+02  0.41800000000E+01 0.  1.
         -5    1    3    3    0  502 -0.44008073427E+02  0.82145380018E+02  0.12390887657E+03  0.15509821430E+03  0.41800000000E+01 0.  1.
        -11    1    1    2    0    0  0.37211848671E+02 -0.28827080026E+02  0.18649182425E+03  0.19234064244E+03  0.00000000000E+00 0. -1.
         11    1    1    2    0    0  0.12900706689E+02 -0.76122896113E+01 -0.72385854876E+01  0.16636475169E+02  0.00000000000E+00 0.  1.
</event>
<event>
 7    1  0.2733606E-009  0.1065613E+03  0.7561462E-02  0.1267074E+00
         -2   -1    0    0    0  501 -0.00000000000E+00  0.00000000000E+00  0.18932173239E+02  0.18932173239E+02  0.00000000000E+00 0.  1.
          2   -1    0    0  501    0  0.00000000000E+00 -0.00000000000E+00 -0.64478839276E+03  0.64478839276E+03  0.00000000000E+00 0. -1.
         25    2    1    2    0    0  0.53804106727E+01 -0.97968611237E+01 -0.36745425739E+03  0.38832600953E+03  0.12509808589E+03 0.  0.
          5    1    3    3  502    0  0.63226872807E+02  0.78127558152E+01 -0.16232188163E+03  0.17442632328E+03  0.41800000000E+01 0. -1.
         -5    1    3    3    0  502 -0.57846462134E+02 -0.17609616939E+02 -0.20513237577E+03  0.21389968625E+03  0.41800000000E+01 0. -1.
        -11    1    1    2    0    0 -0.17068645371E+02 -0.36831975893E+02 -0.69644164185E+02  0.80611678484E+02  0.00000000000E+00 0.  1.
         11    1    1    2    0    0  0.11688234698E+02  0.46628837016E+02 -0.18875779794E+03  0.19478287799E+03  0.00000000000E+00 0. -1.
</event>
<event>
 7    1  0.2733606E-009  0.1096620E+03  0.7561462E-02  0.1261197E+00
          1   -1    0    0  501    0  0.00000000000E+00  0.00000000000E+00  0.17257230076E+03  0.17257230076E+03  0.00000000000E+00 0. -1.
         -1   -1    0    0    0  501 -0.00000000000E+00 -0.00000000000E+00 -0.11994188154E+03  0.11994188154E+03  0.00000000000E+00 0.  1.
         25    2    1    2    0    0 -0.70003727631E+02  0.62279996813E+02  0.18372695140E+02  0.15736758743E+03  0.12509069415E+03 0.  0.
          5    1    3    3  502    0  0.49466144163E+01  0.53109849998E+01  0.55465170712E+02  0.56093966859E+02  0.41800000000E+01 0.  1.
         -5    1    3    3    0  502 -0.74950342047E+02  0.56969011813E+02 -0.37092475572E+02  0.10127362057E+03  0.41800000000E+01 0.  1.
        -11    1    1    2    0    0 -0.14033046512E+02 -0.13861909314E+02 -0.16467535108E+02  0.25695498376E+02  0.00000000000E+00 0.  1.
         11    1    1    2    0    0  0.84036774143E+02 -0.48418087499E+02  0.50725259186E+02  0.10945109650E+03  0.00000000000E+00 0. -1.
</event>
<event>
 7    1  0.2733606E-009  0.1087184E+03  0.7561462E-02  0.1262962E+00
          1   -1    0    0  501    0  0.00000000000E+00  0.00000000000E+00  0.62082857990E+03  0.62082857990E+03  0.00000000000E+00 0. -1.
         -1   -1    0    0    0  501 -0.00000000000E+00 -0.00000000000E+00 -0.26892022345E+02  0.26892022345E+02  0.00000000000E+00 0.  1.
         25    2    1    2    0    0  0.59048081122E+02  0.19085693246E+02  0.41709704696E+03  0.43985095310E+03  0.12509186540E+03 0.  0.
          5    1    3    3  502    0 -0.16191984076E+02  0.53350475562E+02  0.19379523956E+03  0.20169908494E+03  0.41800000000E+01 0. -1.
         -5    1    3    3    0  502  0.75240065197E+02 -0.34264782316E+02  0.22330180740E+03  0.23815186816E+03  0.41800000000E+01 0. -1.
        -11    1    1    2    0    0 -0.16016846281E+02 -0.30304254600E+02  0.15420985659E+03  0.15797331129E+03  0.00000000000E+00 0. -1.
         11    1    1    2    0    0 -0.43031234841E+02  0.11218561354E+02  0.22629654008E+02  0.49896337855E+02  0.00000000000E+00 0.  1.
</event>
<event>
 7    1  0.2733606E-009  0.1224678E+03  0.7561462E-02  0.1239081E+00
         -1   -1    0    0    0  501 -0.00000000000E+00  0.00000000000E+00  0.23048905155E+03  0.23048905155E+03  0.00000000000E+00 0.  1.
          1   -1    0    0  501    0  0.00000000000E+00 -0.00000000000E+00 -0.11598896021E+03  0.11598896021E+03  0.00000000000E+00 0. -1.
         25    2    1    2    0    0  0.43497219583E+02 -0.58985880748E+02 -0.42307687265E+02  0.15102392022E+03  0.12508773656E+03 0.  0.
          5    1    3    3  502    0  0.31020692791E+02 -0.98486507731E+02 -0.30453442717E+02  0.10773467482E+03  0.41800000000E+01 0.  1.
         -5    1    3    3    0  502  0.12476526792E+02  0.39500626983E+02 -0.11854244548E+02  0.43289245393E+02  0.41800000000E+01 0.  1.
        -11    1    1    2    0    0 -0.58439817094E+02  0.26429459174E+02  0.14360403485E+03  0.15727634075E+03  0.00000000000E+00 0.  1.
         11    1    1    2    0    0  0.14942597511E+02  0.32556421574E+02  0.13203743761E+02  0.38177750790E+02  0.00000000000E+00 0. -1.
</event>
<event>
 7    1  0.2733606E-009  0.7676303E+02  0.7561462E-02  0.1338497E+00
         -1   -1    0    0    0  501 -0.00000000000E+00  0.00000000000E+00  0.80714360164E+02  0.80714360164E+02  0.00000000000E+00 0.  1.
          1   -1    0    0  501    0  0.00000000000E+00 -0.00000000000E+00 -0.12528094281E+03  0.12528094281E+03  0.00000000000E+00 0. -1.
         25    2    1    2    0    0 -0.16061339815E+02  0.21082747018E+02 -0.37962668706E+02  0.13338332502E+03  0.12508996091E+03 0.  0.
          5    1    3    3  502    0 -0.34845531203E+01 -0.31907241625E+02 -0.64867314837E+02  0.72494517811E+02  0.41800000000E+01 0.  1.
         -5    1    3    3    0  502 -0.12576786695E+02  0.52989988643E+02  0.26904646131E+02  0.60888807209E+02  0.41800000000E+01 0.  1.
        -11    1    1    2    0    0  0.35324724861E+02 -0.29005065155E+02 -0.17696872343E+02  0.49013358198E+02  0.00000000000E+00 0.  1.
         11    1    1    2    0    0 -0.19263385045E+02  0.79223181369E+01  0.11092958406E+02  0.23598619753E+02  0.00000000000E+00 0. -1.
</event>
<event>
 7    1  0.2733606E-009  0.7245104E+02  0.7561462E-02  0.1351951E+00
          1   -1    0    0  501    0  0.00000000000E+00  0.00000000000E+00  0.19037629007E+03  0.19037629007E+03  0.00000000000E+00 0. -1.
         -1   -1    0    0    0  501 -0.00000000000E+00 -0.00000000000E+00 -0.89613721545E+02  0.89613721545E+02  0.00000000000E+00 0.  1.
         25    2    1    2    0    0  0.54322317240E+02 -0.99245804831E+01  0.96020315242E+01  0.13707226380E+03  0.12508874867E+03 0.  0.
          5    1    3    3  502    0  0.42216569465E+02 -0.39088712878E+02 -0.45470386577E+02  0.73451988859E+02  0.41800000000E+01 0. -1.
         -5    1    3    3    0  502  0.12105747775E+02  0.29164132395E+02  0.55072418101E+02  0.63620274937E+02  0.41800000000E+01 0. -1.
        -11    1    1    2    0    0 -0.25042057658E+02  0.25648817240E+01  0.10623205721E+03  0.10917386706E+03  0.00000000000E+00 0. -1.
         11    1    1    2    0    0 -0.29280259582E+02  0.73596987591E+01 -0.15071520210E+02  0.33743880755E+02  0.00000000000E+00 0.  1.
</event>
<event>
 7    1  0.2733606E-009  0.1092736E+03  0.7561462E-02  0.1261921E+00
         -2   -1    0    0    0  501 -0.00000000000E+00  0.00000000000E+00  0.32785364925E+02  0.32785364925E+02  0.00000000000E+00 0.  1.
          2   -1    0    0  501    0  0.00000000000E+00 -0.00000000000E+00 -0.51832746736E+03  0.51832746736E+03  0.00000000000E+00 0. -1.
         25    2    1    2    0    0 -0.37435030091E+02 -0.30249615605E+02 -0.15338536357E+03  0.20369245225E+03  0.12508846719E+03 0.  0.
          5    1    3    3  502    0 -0.46132093363E+02  0.30398961852E+02 -0.23817438013E+02  0.60307625332E+02  0.41800000000E+01 0.  1.
         -5    1    3    3    0  502  0.86970632718E+01 -0.60648577457E+02 -0.12956792555E+03  0.14338482691E+03  0.41800000000E+01 0.  1.
        -11    1    1    2    0    0 -0.18335005091E+01  0.55183991969E+02 -0.17196758756E+03  0.18061419065E+03  0.00000000000E+00 0. -1.
         11    1    1    2    0    0  0.39268530600E+02 -0.24934376364E+02 -0.16018915131E+03  0.16680618939E+03  0.00000000000E+00 0.  1.
</event>
<event>
 7    1  0.2733606E-009  0.6779608E+02  0.7561462E-02  0.1367752E+00
         -2   -1    0    0    0  501 -0.00000000000E+00  0.00000000000E+00  0.31418628705E+02  0.31418628705E+02  0.00000000000E+00 0.  1.
          2   -1    0    0  501    0  0.00000000000E+00 -0.00000000000E+00 -0.72267198692E+03  0.72267198692E+03  0.00000000000E+00 0. -1.
         25    2    1    2    0    0  0.39757375648E+02  0.23155903923E+02 -0.59618916351E+03  0.61090502139E+03  0.12508629686E+03 0.  0.
          5    1    3    3  502    0  0.44884740438E+02  0.11385563488E+02 -0.59557711246E+03  0.59738918660E+03  0.41800000000E+01 0. -1.
         -5    1    3    3    0  502 -0.51273647904E+01  0.11770340436E+02 -0.61205105732E+00  0.13515834794E+02  0.41800000000E+01 0. -1.
        -11    1    1    2    0    0 -0.52412250511E+02 -0.39046769284E+01 -0.80465468392E+01  0.53169892059E+02  0.00000000000E+00 0.  1.
         11    1    1    2    0    0  0.12654874864E+02 -0.19251226995E+02 -0.87017647860E+02  0.90015702173E+02  0.00000000000E+00 0. -1.
</event>
<event>
 7    1  0.2733606E-009  0.1062078E+03  0.7561462E-02  0.1267758E+00
          1   -1    0    0  501    0  0.00000000000E+00  0.00000000000E+00  0.79435095406E+02  0.79435095406E+02  0.00000000000E+00 0. -1.
         -1   -1    0    0    0  501 -0.00000000000E+00 -0.00000000000E+00 -0.16742909568E+03  0.16742909568E+03  0.00000000000E+00 0.  1.
         25    2    1    2    0    0 -0.53014585113E+01  0.23077900779E+02 -0.16669245058E+02  0.12839645959E+03  0.12508833734E+03 0.  0.
          5    1    3    3  502    0 -0.58815023875E+02 -0.99862421880E+01 -0.24975278038E+02  0.64808710676E+02  0.41800000000E+01 0. -1.
         -5    1    3    3    0  502  0.53513565364E+02  0.33064142967E+02  0.83060329805E+01  0.63587748914E+02  0.41800000000E+01 0. -1.
        -11    1    1    2    0    0 -0.10990339974E+02  0.31105475288E+02 -0.88003540496E+01  0.34143585005E+02  0.00000000000E+00 0. -1.
         11    1    1    2    0    0  0.16291798485E+02 -0.54183376067E+02 -0.62524401165E+02  0.84324146488E+02  0.00000000000E+00 0.  1.
</event>
<event>
 7    1  0.2733606E-009  0.2844338E+03  0.7561462E-02  0.1093292E+00
          2   -1    0    0  501    0  0.00000000000E+00  0.00000000000E+00  0.25543589124E+03  0.25543589124E+03  0.00000000000E+00 0. -1.
         -2   -1    0    0    0  501 -0.00000000000E+00 -0.00000000000E+00 -0.40742419439E+03  0.40742419439E+03  0.00000000000E+00 0.  1.
         25    2    1    2    0    0 -0.22755905285E+03  0.15245366707E+03 -0.20903398203E+03  0.36656491171E+03  0.12509750483E+03 0.  0.
          5    1    3    3  502    0 -0.10081167860E+03  0.13080307726E+03 -0.77147977779E+02  0.18232312645E+03  0.41800000000E+01 0. -1.
         -5    1    3    3    0  502 -0.12674737424E+03  0.21650589812E+02 -0.13188600425E+03  0.18424178525E+03  0.41800000000E+01 0. -1.
        -11    1    1    2    0    0  0.53550327630E+02 -0.48970117841E+02 -0.26537478295E+02  0.77265437195E+02  0.00000000000E+00 0.  1.
         11    1    1    2    0    0  0.17400872522E+03 -0.10348354923E+03  0.83583157172E+02  0.21902973674E+03  0.00000000000E+00 0. -1.
</event>
<event>
 7    1  0.2733606E-009  0.1232900E+03  0.7561462E-02  0.1237766E+00
          1   -1    0    0  501    0  0.00000000000E+00  0.00000000000E+00  0.49000214997E+03  0.49000214997E+03  0.00000000000E+00 0. -1.
         -1   -1    0    0    0  501 -0.00000000000E+00 -0.00000000000E+00 -0.40567517729E+02  0.40567517729E+02  0.00000000000E+00 0.  1.
         25    2    1    2    0    0 -0.37540303167E+02 -0.60994711733E+02  0.14541706467E+03  0.20475091117E+03  0.12508870335E+03 0.  0.
          5    1    3    3  502    0 -0.20160483583E+02 -0.92018701182E+02  0.13962087047E+03  0.16847951311E+03  0.41800000000E+01 0.  1.
         -5    1    3    3    0  502 -0.17379819584E+02  0.31023989449E+02  0.57961941994E+01  0.36271398061E+02  0.41800000000E+01 0.  1.
        -11    1    1    2    0    0 -0.23847007141E+02  0.48196661245E+02  0.15820915926E+03  0.16709798317E+03  0.00000000000E+00 0. -1.
         11    1    1    2    0    0  0.61387310308E+02  0.12798050488E+02  0.14580840831E+03  0.15872077336E+03  0.00000000000E+00 0.  1.
</event>
<event>
 7    1  0.2733606E-009  0.7971174E+02  0.7561462E-02  0.1329871E+00
         -3   -1    0    0    0  501 -0.00000000000E+00  0.00000000000E+00  0.48974515172E+02  0.48974515172E+02  0.00000000000E+00 0.  1.
          3   -1    0    0  501    0  0.00000000000E+00 -0.00000000000E+00 -0.28035811174E+03  0.28035811174E+03  0.00000000000E+00 0. -1.
         25    2    1    2    0    0 -0.12873630090E+02 -0.17460527079E+02 -0.73397625086E+02  0.14665172971E+03  0.12509563582E+03 0.  0.
          5    1    3    3  502    0 -0.23364943322E+02 -0.49161207512E+02 -0.92903062295E+02  0.10775526105E+03  0.41800000000E+01 0. -1.
         -5    1    3    3    0  502  0.10491313233E+02  0.31700680433E+02  0.19505437210E+02  0.38896468657E+02  0.41800000000E+01 0. -1.
        -11    1    1    2    0    0  0.40826993720E+02  0.75339736095E+01 -0.14403789482E+03  0.14990169886E+03  0.00000000000E+00 0. -1.
         11    1    1    2    0    0 -0.27953363630E+02  0.99265534697E+01 -0.13948076662E+02  0.32779198352E+02  0.00000000000E+00 0.  1.
</event>
<event>
 7    1  0.2733606E-009  0.1075367E+03  0.7561462E-02  0.1265201E+00
          1   -1    0    0  501    0  0.00000000000E+00  0.00000000000E+00  0.99975398484E+02  0.99975398484E+02  0.00000000000E+00 0. -1.
         -1   -1    0    0    0  501 -0.00000000000E+00 -0.00000000000E+00 -0.20264812802E+03  0.20264812802E+03  0.00000000000E+00 0.  1.
         25    2    1    2    0    0  0.24776021428E+02 -0.70332433300E+02 -0.11313832391E+03  0.18441330443E+03  0.12508990408E+03 0.  0.
          5    1    3    3  502    0 -0.16545996865E+02 -0.50791372287E+02 -0.12585309645E+03  0.13678453055E+03  0.41800000000E+01 0. -1.
         -5    1    3    3    0  502  0.41322018293E+02 -0.19541061013E+02  0.12714772535E+02  0.47628773887E+02  0.41800000000E+01 0. -1.
        -11    1    1    2    0    0  0.14403239574E+02 -0.15549186693E+02 -0.67767536246E+01  0.22252076459E+02  0.00000000000E+00 0.  1.
         11    1    1    2    0    0 -0.39179261002E+02  0.85881619993E+02  0.17242347999E+02  0.95958145615E+02  0.00000000000E+00 0. -1.
</event>
<event>
 7    1  0.3455504E-009  0.1812895E+03  0.7561462E-02  0.1166561E+00
          4   -1    0    0  501    0  0.00000000000E+00  0.00000000000E+00  0.85163786850E+03  0.85163786850E+03  0.00000000000E+00 0. -1.
         -4   -1    0    0    0  501 -0.00000000000E+00 -0.00000000000E+00 -0.62205496733E+02  0.62205496733E+02  0.00000000000E+00 0.  1.
         25    2    1    2    0    0 -0.15786118193E+03 -0.14356572192E+02  0.15777007080E+03  0.25625174331E+03  0.12508915534E+03 0.  0.
          5    1    3    3  502    0 -0.94438886112E+02  0.45214257379E+02  0.12516298322E+03  0.16323687405E+03  0.41800000000E+01 0. -1.
         -5    1    3    3    0  502 -0.63422295815E+02 -0.59570829572E+02  0.32607087576E+02  0.93014869255E+02  0.41800000000E+01 0. -1.
        -11    1    1    2    0    0  0.78375046974E+02 -0.24619766887E+02  0.18772253526E+03  0.20491103229E+03  0.00000000000E+00 0.  1.
         11    1    1    2    0    0  0.79486134953E+02  0.38976339079E+02  0.44393976571E+03  0.45268058964E+03  0.00000000000E+00 0. -1.
</event>
<event>
 7    1  0.2733606E-009  0.1070573E+03  0.7561462E-02  0.1266118E+00
          1   -1    0    0  501    0  0.00000000000E+00  0.00000000000E+00  0.14773216370E+03  0.14773216370E+03  0.00000000000E+00 0. -1.
         -1   -1    0    0    0  501 -0.00000000000E+00 -0.00000000000E+00 -0.11006849545E+03  0.11006849545E+03  0.00000000000E+00 0.  1.
         25    2    1    2    0    0 -0.11093488593E+02 -0.65068991939E+02  0.30442908414E+02  0.14466528549E+03  0.12507691614E+03 0.  0.
          5    1    3    3  502    0 -0.64613904375E+02 -0.40811383630E+02 -0.36081358004E+01  0.76622560100E+02  0.41800000000E+01 0.  1.
         -5    1    3    3    0  502  0.53520415782E+02 -0.24257608310E+02  0.34051044214E+02  0.68042725390E+02  0.41800000000E+01 0.  1.
        -11    1    1    2    0    0  0.27400681019E+02  0.46331322398E+02  0.43472407532E+02  0.69189876225E+02  0.00000000000E+00 0. -1.
         11    1    1    2    0    0 -0.16307192426E+02  0.18737669542E+02 -0.36251647697E+02  0.43945497441E+02  0.00000000000E+00 0.  1.
</event>
<event>
 7    1  0.2733606E-009  0.1077087E+03  0.7561462E-02  0.1264873E+00
          1   -1    0    0  501    0  0.00000000000E+00  0.00000000000E+00  0.35547556260E+03  0.35547556260E+03  0.00000000000E+00 0. -1.
         -1   -1    0    0    0  501 -0.00000000000E+00 -0.00000000000E+00 -0.55571363575E+02  0.55571363575E+02  0.00000000000E+00 0.  1.
         25    2    1    2    0    0  0.69878260363E+01  0.83704444403E+02  0.12493675428E+03  0.19573458379E+03  0.12509025141E+03 0.  0.
          5    1    3    3  502    0  0.21676346239E+02  0.27331803851E+02 -0.19325706052E+02  0.40097965066E+02  0.41800000000E+01 0. -1.
         -5    1    3    3    0  502 -0.14688520203E+02  0.56372640551E+02  0.14426246033E+03  0.15563661873E+03  0.41800000000E+01 0. -1.
        -11    1    1    2    0    0 -0.47649346835E+02 -0.40327426902E+02  0.63888659491E+02  0.89322575119E+02  0.00000000000E+00 0.  1.
         11    1    1    2    0    0  0.40661520799E+02 -0.43377017501E+02  0.11107878525E+03  0.12598976726E+03  0.00000000000E+00 0. -1.
</event>
<event>
 7    1  0.2733606E-009  0.1098695E+03  0.7561462E-02  0.1260812E+00
          2   -1    0    0  501    0  0.00000000000E+00  0.00000000000E+00  0.44165789097E+03  0.44165789097E+03  0.00000000000E+00 0.  1.
         -2   -1    0    0    0  501 -0.00000000000E+00 -0.00000000000E+00 -0.38254580803E+02  0.38254580803E+02  0.00000000000E+00 0. -1.
         25    2    1    2    0    0 -0.18969068797E+02 -0.64002895158E+02  0.22782405547E+03  0.26834235152E+03  0.12509045210E+03 0.  0.
          5    1    3    3  502    0 -0.46529037017E+02  0.17285779965E+02  0.48659692793E+02  0.69634672236E+02  0.41800000000E+01 0.  1.
         -5    1    3    3    0  502  0.27559968221E+02 -0.81288675123E+02  0.17916436268E+03  0.19870767928E+03  0.41800000000E+01 0.  1.
        -11    1    1    2    0    0 -0.17683668826E+02  0.22595848446E+02  0.14612644519E+03  0.14891683079E+03  0.00000000000E+00 0.  1.
         11    1    1    2    0    0  0.36652737623E+02  0.41407046713E+02  0.29452809509E+02  0.62653289464E+02  0.00000000000E+00 0. -1.
</event>
<event>
 7    1  0.2733606E-009  0.1423832E+03  0.7561462E-02  0.1210158E+00
          1   -1    0    0  501    0  0.00000000000E+00  0.00000000000E+00  0.31198082012E+03  0.31198082012E+03  0.00000000000E+00 0. -1.
         -1   -1    0    0    0  501 -0.00000000000E+00 -0.00000000000E+00 -0.79380064499E+02  0.79380064499E+02  0.00000000000E+00 0.  1.
         25    2    1    2    0    0  0.11024974382E+03  0.16050793737E+01  0.16198999600E+03  0.23247322753E+03  0.12508181491E+03 0.  0.
          5    1    3    3  502    0  0.87163664772E+02  0.46605780659E+02  0.15104128107E+03  0.18055620796E+03  0.41800000000E+01 0.  1.
         -5    1    3    3    0  502  0.23086079047E+02 -0.45000701285E+02  0.10948714931E+02  0.51917019566E+02  0.41800000000E+01 0.  1.
        -11    1    1    2    0    0  0.93177302550E+01 -0.11858137776E+02 -0.63073176998E+01  0.16346797398E+02  0.00000000000E+00 0.  1.
         11    1    1    2    0    0 -0.11956747407E+03  0.10253058402E+02  0.76918077322E+02  0.14254085969E+03  0.00000000000E+00 0. -1.
</event>
<event>
 7    1  0.2733606E-009  0.1242793E+03  0.7561462E-02  0.1236200E+00
          1   -1    0    0  501    0  0.00000000000E+00  0.00000000000E+00  0.78198857108E+03  0.78198857108E+03  0.00000000000E+00 0. -1.
         -1   -1    0    0    0  501 -0.00000000000E+00 -0.00000000000E+00 -0.29199404027E+02  0.29199404027E+02  0.00000000000E+00 0.  1.
         25    2    1    2    0    0  0.78996056809E+02  0.60098334242E+02  0.31126550976E+03  0.34983743078E+03  0.12509126124E+03 0.  0.
          5    1    3    3  502    0  0.64821185252E+02  0.71731210169E+02  0.10529221955E+03  0.14300726019E+03  0.41800000000E+01 0.  1.
         -5    1    3    3    0  502  0.14174871556E+02 -0.11632875927E+02  0.20597329021E+03  0.20683017059E+03  0.41800000000E+01 0.  1.
        -11    1    1    2    0    0 -0.83560979321E+02 -0.11710761038E+02  0.25493029167E+03  0.26853125107E+03  0.00000000000E+00 0.  1.
         11    1    1    2    0    0  0.45649225122E+01 -0.48387573204E+02  0.18659336562E+03  0.19281929325E+03  0.00000000000E+00 0. -1.
</event>
<event>
 7    1  0.2733606E-009  0.1486772E+03  0.7561462E-02  0.1202108E+00
         -2   -1    0    0    0  501 -0.00000000000E+00  0.00000000000E+00  0.10045047126E+03  0.10045047126E+03  0.00000000000E+00 0.  1.
          2   -1    0    0  501    0  0.00000000000E+00 -0.00000000000E+00 -0.30149671814E+03  0.30149671814E+03  0.00000000000E+00 0. -1.
         25    2    1    2    0    0 -0.10790405012E+03 -0.40999601993E+02 -0.24779585642E+02  0.17200410348E+03  0.12508849809E+03 0.  0.
          5    1    3    3  502    0 -0.60784557513E+01  0.26583819481E+02 -0.40195013145E+02  0.48752010874E+02  0.41800000000E+01 0. -1.
         -5    1    3    3    0  502 -0.10182559437E+03 -0.67583421474E+02  0.15415427504E+02  0.12325209260E+03  0.41800000000E+01 0. -1.
        -11    1    1    2    0    0  0.21293300948E+02  0.55700904563E+02 -0.65747018704E+02  0.88761849366E+02  0.00000000000E+00 0.  1.
         11    1    1    2    0    0  0.86610749170E+02 -0.14701302570E+02 -0.11051964253E+03  0.14118123655E+03  0.00000000000E+00 0. -1.
</event>
<event>
 7    1  0.2733606E-009  0.9085757E+02  0.7561462E-02  0.1300788E+00
         -1   -1    0    0    0  501 -0.00000000000E+00  0.00000000000E+00  0.10631781288E+03  0.10631781288E+03  0.00000000000E+00 0.  1.
          1   -1    0    0  501    0  0.00000000000E+00 -0.00000000000E+00 -0.12848503187E+03  0.12848503187E+03  0.00000000000E+00 0. -1.
         25    2    1    2    0    0 -0.79255319547E+01 -0.22498744332E+02  0.24449427639E+02  0.12967052249E+03  0.12509061651E+03 0.  0.
          5    1    3    3  502    0  0.56510203246E+02 -0.87598002451E+01 -0.46481573072E+01  0.57525776288E+02  0.41800000000E+01 0. -1.
         -5    1    3    3    0  502 -0.64435735201E+02 -0.13738944087E+02  0.29097584947E+02  0.72144746206E+02  0.41800000000E+01 0. -1.
        -11    1    1    2    0    0  0.13490315289E+02 -0.15159975351E+02  0.19945012693E+02  0.28453769355E+02  0.00000000000E+00 0.  1.
         11    1    1    2    0    0 -0.55647833339E+01  0.37658719682E+02 -0.66561659322E+02  0.76678552890E+02  0.00000000000E+00 0. -1.
</event>
<event>
 7    1  0.2733606E-009  0.8938471E+02  0.7561462E-02  0.1304349E+00
          2   -1    0    0  501    0  0.00000000000E+00  0.00000000000E+00  0.64589677905E+03  0.64589677905E+03  0.00000000000E+00 0. -1.
         -2   -1    0    0    0  501 -0.00000000000E+00 -0.00000000000E+00 -0.55127987439E+02  0.55127987439E+02  0.00000000000E+00 0.  1.
         25    2    1    2    0    0 -0.67717481883E+02 -0.16751867819E+01  0.58685732869E+03  0.60385210496E+03  0.12508947528E+03 0.  0.
          5    1    3    3  502    0  0.75268135595E+01 -0.22011883646E+01 -0.28626572239E+01  0.93362390157E+01  0.41800000000E+01 0. -1.
         -5    1    3    3    0  502 -0.75244295442E+02  0.52600158269E+00  0.58971998591E+03  0.59451586594E+03  0.41800000000E+01 0. -1.
        -11    1    1    2    0    0  0.74538156435E+02 -0.15418818395E+02 -0.58481832510E+01  0.76340539511E+02  0.00000000000E+00 0.  1.
         11    1    1    2    0    0 -0.68206745527E+01  0.17094005177E+02  0.97596461698E+01  0.20832122016E+02  0.00000000000E+00 0. -1.
</event>
<event>
 7    1  0.2733606E-009  0.1110463E+03  0.7561462E-02  0.1258644E+00
         -1   -1    0    0    0  501 -0.00000000000E+00  0.00000000000E+00  0.77615423187E+02  0.77615423187E+02  0.00000000000E+00 0.  1.
          1   -1    0    0  501    0  0.00000000000E+00 -0.00000000000E+00 -0.22268451654E+03  0.22268451654E+03  0.00000000000E+00 0. -1.
         25    2    1    2    0    0  0.43526416475E+01  0.57513698704E+01 -0.15517740556E+03  0.19944775412E+03  0.12508939077E+03 0.  0.
          5    1    3    3  502    0  0.59265689390E+02 -0.18812496342E+02 -0.99306506897E+02  0.11724157398E+03  0.41800000000E+01 0.  1.
         -5    1    3    3    0  502 -0.54913047743E+02  0.24563866213E+02 -0.55870898659E+02  0.82206180137E+02  0.41800000000E+01 0.  1.
        -11    1    1    2    0    0 -0.32330895897E+02  0.36522558333E+02 -0.16797726688E+01  0.48805796099E+02  0.00000000000E+00 0.  1.
         11    1    1    2    0    0  0.27978254249E+02 -0.42273928203E+02  0.11788084868E+02  0.52046389514E+02  0.00000000000E+00 0. -1.
</event>
<event>
 7    1  0.2916079E-009  0.1483385E+03  0.7561462E-02  0.1202530E+00
          1   -1    0    0  501    0  0.00000000000E+00  0.00000000000E+00  0.47651882388E+03  0.47651882388E+03  0.00000000000E+00 0. -1.
         -1   -1    0    0    0  501 -0.00000000000E+00 -0.00000000000E+00 -0.52142664559E+02  0.52142664559E+02  0.00000000000E+00 0.  1.
         25    2    1    2    0    0 -0.39431120896E+01  0.11348736146E+03  0.23638747505E+03  0.29055349822E+03  0.12508943851E+03 0.  0.
          5    1    3    3  502    0  0.54277270048E+02  0.39536155780E+02  0.14231098154E+03  0.15741352395E+03  0.41800000000E+01 0.  1.
         -5    1    3    3    0  502 -0.58220382137E+02  0.73951205677E+02  0.94076493513E+02  0.13313997427E+03  0.41800000000E+01 0.  1.
        -11    1    1    2    0    0 -0.34526230126E+02 -0.61254476305E+02  0.52047545863E+02  0.87482103681E+02  0.00000000000E+00 0. -1.
         11    1    1    2    0    0  0.38469342216E+02 -0.52232885153E+02  0.13594113841E+03  0.15062588653E+03  0.00000000000E+00 0.  1.
</event>
<event>
 7    1  0.2733606E-009  0.1236402E+03  0.7561462E-02  0.1237210E+00
         -1   -1    0    0    0  501 -0.00000000000E+00  0.00000000000E+00  0.33021851274E+03  0.33021851274E+03  0.00000000000E+00 0.  1.
          1   -1    0    0  501    0  0.00000000000E+00 -0.00000000000E+00 -0.88096094545E+02  0.88096094545E+02  0.00000000000E+00 0. -1.
         25    2    1    2    0    0 -0.73995167754E+02  0.13757426353E+02 -0.82115630961E+01  0.14621552975E+03  0.12508796801E+03 0.  0.
          5    1    3    3  502    0 -0.11579344306E+02  0.61058529473E+02  0.15681512654E+02  0.64230891906E+02  0.41800000000E+01 0. -1.
         -5    1    3    3    0  502 -0.62415823448E+02 -0.47301103120E+02 -0.23893075750E+02  0.81984637841E+02  0.41800000000E+01 0. -1.
        -11    1    1    2    0    0  0.74775051687E+02 -0.36919052118E+02  0.19977525518E+03  0.21648204856E+03  0.00000000000E+00 0.  1.
         11    1    1    2    0    0 -0.77988393353E+00  0.23161625765E+02  0.50558726103E+02  0.55617028976E+02  0.00000000000E+00 0. -1.
</event>
<event>
 7    1  0.2733606E-009  0.1732091E+03  0.7561462E-02  0.1174542E+00
          2   -1    0    0  501    0  0.00000000000E+00  0.00000000000E+00  0.92608803221E+02  0.92608803221E+02  0.00000000000E+00 0. -1.
         -2   -1    0    0    0  501 -0.00000000000E+00 -0.00000000000E+00 -0.58512329054E+03  0.58512329054E+03  0.00000000000E+00 0.  1.
         25    2    1    2    0    0 -0.46324370135E+02 -0.14390079471E+03 -0.51750465446E+02  0.20291828642E+03  0.12507731330E+03 0.  0.
          5    1    3    3  502    0  0.32694986416E+02 -0.88956869385E+02 -0.29136282836E+01  0.94911792615E+02  0.41800000000E+01 0. -1.
         -5    1    3    3    0  502 -0.79019356550E+02 -0.54943925325E+02 -0.48836837163E+02  0.10800649380E+03  0.41800000000E+01 0. -1.
        -11    1    1    2    0    0  0.11384013780E+02  0.91683598843E+02 -0.36437993666E+03  0.37590985130E+03  0.00000000000E+00 0.  1.
         11    1    1    2    0    0  0.34940356354E+02  0.52217195868E+02 -0.76384085215E+02  0.98903956041E+02  0.00000000000E+00 0. -1.
</event>
<event>
 7    1  0.2733606E-009  0.1103458E+03  0.7561462E-02  0.1259931E+00
         -1   -1    0    0    0  501 -0.00000000000E+00  0.00000000000E+00  0.52321135030E+02  0.52321135030E+02  0.00000000000E+00 0.  1.
          1   -1    0    0  501    0  0.00000000000E+00 -0.00000000000E+00 -0.42548366999E+03  0.42548366999E+03  0.00000000000E+00 0. -1.
         25    2    1    2    0    0  0.32978229927E+02 -0.81263233660E+02 -0.12205382000E+03  0.19554073141E+03  0.12509103033E+03 0.  0.
          5    1    3    3  502    0  0.19061143249E+02 -0.14062364394E+02 -0.12444199209E+03  0.12674525265E+03  0.41800000000E+01 0. -1.
         -5    1    3    3    0  502  0.13917086679E+02 -0.67200869266E+02  0.23881720864E+01  0.68795478759E+02  0.41800000000E+01 0. -1.
        -11    1    1    2    0    0  0.32624932213E+02  0.20968956868E+02 -0.60588249017E+02  0.71937606806E+02  0.00000000000E+00 0.  1.
         11    1    1    2    0    0 -0.65603162140E+02  0.60294276792E+02 -0.19052046595E+03  0.21032646681E+03  0.00000000000E+00 0. -1.
</event>
<event>
 7    1  0.2733606E-009  0.9210470E+02  0.7561462E-02  0.1297833E+00
          1   -1    0    0  501    0  0.00000000000E+00  0.00000000000E+00  0.15030434719E+03  0.15030434719E+03  0.00000000000E+00 0.  1.
         -1   -1    0    0    0  501 -0.00000000000E+00 -0.00000000000E+00 -0.24239357088E+03  0.24239357088E+03  0.00000000000E+00 0. -1.
         25    2    1    2    0    0  0.39121373150E+02  0.48729230874E+02  0.93055557812E+02  0.16796233257E+03  0.12508792326E+03 0.  0.
          5    1    3    3  502    0 -0.14403556285E+02  0.64591620960E+00  0.94689093855E+02  0.95871667016E+02  0.41800000000E+01 0. -1.
         -5    1    3    3    0  502  0.53524929435E+02  0.48083314665E+02 -0.16335360434E+01  0.72090665555E+02  0.41800000000E+01 0. -1.
        -11    1    1    2    0    0  0.12149149484E+02 -0.43989506230E+02 -0.16196091092E+03  0.16826768899E+03  0.00000000000E+00 0. -1.
         11    1    1    2    0    0 -0.51270522634E+02 -0.47397246447E+01 -0.23183870591E+02  0.56467896512E+02  0.00000000000E+00 0.  1.
</event>
<event>
 7    1  0.2733606E-009  0.1348164E+03  0.7561462E-02  0.1220479E+00
         -2   -1    0    0    0  501 -0.00000000000E+00  0.00000000000E+00  0.17945148572E+03  0.17945148572E+03  0.00000000000E+00 0.  1.
          2   -1    0    0  501    0  0.00000000000E+00 -0.00000000000E+00 -0.15317516871E+03  0.15317516871E+03  0.00000000000E+00 0. -1.
         25    2    1    2    0    0  0.89944367509E+02  0.69997374166E+02  0.26038153698E+02  0.17120580268E+03  0.12507525649E+03 0.  0.
          5    1    3    3  502    0  0.97046684857E+02  0.46676796326E+02 -0.28368647330E+02  0.11144072374E+03  0.41800000000E+01 0. -1.
         -5    1    3    3    0  502 -0.71023173482E+01  0.23320577840E+02  0.54406801028E+02  0.59765078939E+02  0.41800000000E+01 0. -1.
        -11    1    1    2    0    0 -0.34063358924E+02 -0.73632929441E+02 -0.41925815189E+02  0.91323023923E+02  0.00000000000E+00 0. -1.
         11    1    1    2    0    0 -0.55881008585E+02  0.36355552750E+01  0.42163978507E+02  0.70097827827E+02  0.00000000000E+00 0.  1.
</event>
<event>
 7    1  0.2733606E-009  0.2495043E+03  0.7561462E-02  0.1113618E+00
         -2   -1    0    0    0  501 -0.00000000000E+00  0.00000000000E+00  0.31426648385E+02  0.31426648385E+02  0.00000000000E+00 0.  1.
          2   -1    0    0  501    0  0.00000000000E+00 -0.00000000000E+00 -0.22127005659E+04  0.22127005659E+04  0.00000000000E+00 0. -1.
         25    2    1    2    0    0 -0.14972112053E+03  0.18634721076E+03 -0.10703651041E+04  0.11038434820E+04  0.12508908786E+03 0.  0.
          5    1    3    3  502    0 -0.15417833122E+03  0.19412634608E+03 -0.90995356990E+03  0.94312722781E+03  0.41800000000E+01 0. -1.
         -5    1    3    3    0  502  0.44572106895E+01 -0.77791353257E+01 -0.16041153417E+03  0.16071625421E+03  0.41800000000E+01 0. -1.
        -11    1    1    2    0    0  0.13167585453E+03 -0.17769649361E+03 -0.10861995901E+04  0.11084873134E+04  0.00000000000E+00 0. -1.
         11    1    1    2    0    0  0.18045265998E+02 -0.86507171444E+01 -0.24709223342E+02  0.31796418826E+02  0.00000000000E+00 0.  1.
</event>
<event>
 7    1  0.2733606E-009  0.1043043E+03  0.7561462E-02  0.1271496E+00
          2   -1    0    0  501    0  0.00000000000E+00  0.00000000000E+00  0.96050418748E+02  0.96050418748E+02  0.00000000000E+00 0. -1.
         -2   -1    0    0    0  501 -0.00000000000E+00 -0.00000000000E+00 -0.15644671222E+03  0.15644671222E+03  0.00000000000E+00 0.  1.
         25    2    1    2    0    0  0.40302661323E+01  0.56948782798E+02 -0.28091722248E+02  0.14034316508E+03  0.12509057606E+03 0.  0.
          5    1    3    3  502    0 -0.21279472131E+02 -0.16551709869E+02 -0.52156230388E+02  0.58860171611E+02  0.41800000000E+01 0.  1.
         -5    1    3    3    0  502  0.25309738264E+02  0.73500492666E+02  0.24064508140E+02  0.81482993472E+02  0.41800000000E+01 0.  1.
        -11    1    1    2    0    0 -0.33726506708E+02  0.56474444750E+01  0.31229879376E+01  0.34338374124E+02  0.00000000000E+00 0. -1.
         11    1    1    2    0    0  0.29696240576E+02 -0.62596227273E+02 -0.35427559165E+02  0.77815591763E+02  0.00000000000E+00 0.  1.
</event>
<event>
 7    1  0.2733606E-009  0.1678625E+03  0.7561462E-02  0.1180095E+00
         -2   -1    0    0    0  501 -0.00000000000E+00  0.00000000000E+00  0.65546386197E+02  0.65546386197E+02  0.00000000000E+00 0.  1.
          2   -1    0    0  501    0  0.00000000000E+00 -0.00000000000E+00 -0.44037213937E+03  0.44037213937E+03  0.00000000000E+00 0. -1.
         25    2    1    2    0    0 -0.12628184362E+03  0.17038534449E+02 -0.17183627932E+03  0.24781215770E+03  0.12508294419E+03 0.  0.
          5    1    3    3  502    0 -0.12601931106E+03  0.56160968399E+02 -0.14495123822E+03  0.20015807501E+03  0.41800000000E+01 0.  1.
         -5    1    3    3    0  502 -0.26253255808E+00 -0.39122433950E+02 -0.26885041107E+02  0.47654082688E+02  0.41800000000E+01 0.  1.
        -11    1    1    2    0    0  0.11783325727E+03 -0.47268242108E+02 -0.14998812722E+03  0.19650801902E+03  0.00000000000E+00 0.  1.
         11    1    1    2    0    0  0.84485863451E+01  0.30229707659E+02 -0.53001346626E+02  0.61598348846E+02  0.00000000000E+00 0. -1.
</event>
<event>
 7    1  0.2733606E-009  0.1028911E+03  0.7561462E-02  0.1274331E+00
          3   -1    0    0  501    0  0.00000000000E+00  0.00000000000E+00  0.30599461553E+03  0.30599461553E+03  0.00000000000E+00 0. -1.
         -3   -1    0    0    0  501 -0.00000000000E+00 -0.00000000000E+00 -0.21484697539E+03  0.21484697539E+03  0.00000000000E+00 0.  1.
         25    2    1    2    0    0  0.93259755418E+01 -0.85729008463E+02  0.26554716265E+03  0.30594014447E+03  0.12509052599E+03 0.  0.
          5    1    3    3  502    0  0.72159026322E+01  0.50294722064E+01  0.18271995131E+03  0.18297928256E+03  0.41800000000E+01 0. -1.
         -5    1    3    3    0  502  0.21100729096E+01 -0.90758480669E+02  0.82827211340E+02  0.12296086190E+03  0.41800000000E+01 0. -1.
        -11    1    1    2    0    0 -0.32463615665E+02  0.27637536728E+02 -0.13360113255E+03  0.14023901882E+03  0.00000000000E+00 0.  1.
         11    1    1    2    0    0  0.23137640123E+02  0.58091471734E+02 -0.40798389956E+02  0.74662427644E+02  0.00000000000E+00 0. -1.
</event>
<event>
 7    1  0.2733606E-009  0.1114795E+03  0.7561462E-02  0.1257854E+00
          4   -1    0    0  501    0  0.00000000000E+00  0.00000000000E+00  0.17960806526E+03  0.17960806526E+03  0.00000000000E+00 0. -1.
         -4   -1    0    0    0  501 -0.00000000000E+00 -0.00000000000E+00 -0.74336391936E+02  0.74336391936E+02  0.00000000000E+00 0.  1.
         25    2    1    2    0    0 -0.23940480402E+02 -0.22485683180E+02  0.80936338465E+02  0.15256668569E+03  0.12508856921E+03 0.  0.
          5    1    3    3  502    0  0.64476038114E+01 -0.68907012568E+02  0.64125974924E+02  0.94442368860E+02  0.41800000000E+01 0.  1.
         -5    1    3    3    0  502 -0.30388084213E+02  0.46421329388E+02  0.16810363541E+02  0.58124316828E+02  0.41800000000E+01 0.  1.
        -11    1    1    2    0    0  0.41997260315E+02  0.49860498795E+02  0.20620630167E+02  0.68374334384E+02  0.00000000000E+00 0.  1.
         11    1    1    2    0    0 -0.18056779913E+02 -0.27374815615E+02  0.37147046875E+01  0.33003437119E+02  0.00000000000E+00 0. -1.
</event>
<event>
 7    1  0.2733606E-009  0.1976326E+03  0.7561462E-02  0.1151752E+00
          2   -1    0    0  501    0  0.00000000000E+00  0.00000000000E+00  0.36943755376E+03  0.36943755376E+03  0.00000000000E+00 0.  1.
         -2   -1    0    0    0  501 -0.00000000000E+00 -0.00000000000E+00 -0.16244718054E+03  0.16244718054E+03  0.00000000000E+00 0. -1.
         25    2    1    2    0    0 -0.13487932057E+03  0.99008561504E+02 -0.44562729564E+02  0.21360873433E+03  0.12509087956E+03 0.  0.
          5    1    3    3  502    0 -0.37636470407E+02  0.95717988964E+02  0.74419829761E+01  0.10320510078E+03  0.41800000000E+01 0.  1.
         -5    1    3    3    0  502 -0.97242850164E+02  0.32905725396E+01 -0.52004712540E+02  0.11040363355E+03  0.41800000000E+01 0.  1.
        -11    1    1    2    0    0  0.85681832860E+00  0.17400224408E+02  0.20507603716E+02  0.26908432828E+02  0.00000000000E+00 0. -1.
         11    1    1    2    0    0  0.13402250224E+03 -0.11640878591E+03  0.23104549906E+03  0.29136756714E+03  0.00000000000E+00 0.  1.
</event>
<event>
 7    1  0.2733606E-009  0.2869815E+03  0.7561462E-02  0.1091936E+00
         -3   -1    0    0    0  501 -0.00000000000E+00  0.00000000000E+00  0.12549662745E+03  0.12549662745E+03  0.00000000000E+00 0.  1.
          3   -1    0    0  501    0  0.00000000000E+00 -0.00000000000E+00 -0.70656240415E+03  0.70656240415E+03  0.00000000000E+00 0. -1.
         25    2    1    2    0    0  0.30753490974E+02  0.27084365015E+03 -0.22740326998E+03  0.37638042996E+03  0.12509164971E+03 0.  0.
          5    1    3    3  502    0 -0.25186713573E+02  0.22087246528E+03 -0.14815391936E+03  0.26718172220E+03  0.41800000000E+01 0. -1.
         -5    1    3    3    0  502  0.55940204547E+02  0.49971184879E+02 -0.79249350623E+02  0.10919870776E+03  0.41800000000E+01 0. -1.
        -11    1    1    2    0    0 -0.23545456835E+02 -0.47321044653E+02 -0.25826443387E+02  0.58827501924E+02  0.00000000000E+00 0.  1.
         11    1    1    2    0    0 -0.72080341388E+01 -0.22352260550E+03 -0.32783606333E+03  0.39685109972E+03  0.00000000000E+00 0. -1.
</event>
<event>
 7    1  0.2733606E-009  0.1007077E+03  0.7561462E-02  0.1278815E+00
          1   -1    0    0  501    0  0.00000000000E+00  0.00000000000E+00  0.11629767735E+03  0.11629767735E+03  0.00000000000E+00 0. -1.
         -1   -1    0    0    0  501 -0.00000000000E+00 -0.00000000000E+00 -0.14443804712E+03  0.14443804712E+03  0.00000000000E+00 0.  1.
         25    2    1    2    0    0 -0.45894824307E+02  0.26900370693E+02 -0.58711718333E+02  0.14806882648E+03  0.12508935472E+03 0.  0.
          5    1    3    3  502    0  0.40026829662E+02  0.22859714294E+02 -0.49513208748E+01  0.46547842150E+02  0.41800000000E+01 0. -1.
         -5    1    3    3    0  502 -0.85921653969E+02  0.40406563995E+01 -0.53760397458E+02  0.10152098433E+03  0.41800000000E+01 0. -1.
        -11    1    1    2    0    0  0.35071652232E+01  0.11374156782E+02  0.50726216088E+02  0.52103940820E+02  0.00000000000E+00 0. -1.
         11    1    1    2    0    0  0.42387659084E+02 -0.38274527475E+02 -0.20154867529E+02  0.60562957170E+02  0.00000000000E+00 0.  1.
</event>
<event>
 7    1  0.2733606E-009  0.3631914E+03  0.7561462E-02  0.1057327E+00
          2   -1    0    0  501    0  0.00000000000E+00  0.00000000000E+00  0.18542180554E+04  0.18542180554E+04  0.00000000000E+00 0. -1.
         -2   -1    0    0    0  501 -0.00000000000E+00 -0.00000000000E+00 -0.81271602012E+02  0.81271602012E+02  0.00000000000E+00 0.  1.
         25    2    1    2    0    0  0.31958293340E+03  0.14299533380E+03  0.58052005195E+03  0.68936927141E+03  0.12508215236E+03 0.  0.
          5    1    3    3  502    0  0.16854003061E+03  0.19949806412E+02  0.33819766797E+03  0.37841626777E+03  0.41800000000E+01 0.  1.
         -5    1    3    3    0  502  0.15104290279E+03  0.12304552739E+03  0.24232238398E+03  0.31095300364E+03  0.41800000000E+01 0.  1.
        -11    1    1    2    0    0 -0.30278000943E+02  0.13136334969E+02  0.11741994595E+03  0.12197034207E+03  0.00000000000E+00 0. -1.
         11    1    1    2    0    0 -0.28930493245E+03 -0.15613166877E+03  0.10750064555E+04  0.11241500440E+04  0.00000000000E+00 0.  1.
</event>
<event>
 7    1  0.2733606E-009  0.1099933E+03  0.7561462E-02  0.1260582E+00
          3   -1    0    0  501    0  0.00000000000E+00  0.00000000000E+00  0.37624301957E+02  0.37624301957E+02  0.00000000000E+00 0. -1.
         -3   -1    0    0    0  501 -0.00000000000E+00 -0.00000000000E+00 -0.46552582500E+03  0.46552582500E+03  0.00000000000E+00 0.  1.
         25    2    1    2    0    0  0.35353979076E+02  0.59718119581E+02 -0.28990336129E+03  0.32327751430E+03  0.12509290435E+03 0.  0.
          5    1    3    3  502    0 -0.47172326695E+02  0.22137604328E+02 -0.10664025640E+03  0.11876413018E+03  0.41800000000E+01 0. -1.
         -5    1    3    3    0  502  0.82526305771E+02  0.37580515254E+02 -0.18326310489E+03  0.20451338412E+03  0.41800000000E+01 0. -1.
        -11    1    1    2    0    0 -0.33965971299E+02 -0.24965909346E+02 -0.50562102364E+01  0.42456437647E+02  0.00000000000E+00 0. -1.
         11    1    1    2    0    0 -0.13880077767E+01 -0.34752210236E+02 -0.13294195151E+03  0.13741617501E+03  0.00000000000E+00 0.  1.
</event>
<event>
 7    1  0.2733606E-009  0.1019265E+03  0.7561462E-02  0.1276296E+00
         -2   -1    0    0    0  501 -0.00000000000E+00  0.00000000000E+00  0.11288229648E+03  0.11288229648E+03  0.00000000000E+00 0.  1.
          2   -1    0    0  501    0  0.00000000000E+00 -0.00000000000E+00 -0.16001829586E+03  0.16001829586E+03  0.00000000000E+00 0. -1.
         25    2    1    2    0    0 -0.62178574783E+01  0.77871148700E+02 -0.29396430981E+02  0.15037763074E+03  0.12508678635E+03 0.  0.
          5    1    3    3  502    0  0.21704438772E+02  0.11637978227E+02 -0.65305543888E+02  0.69920037630E+02  0.41800000000E+01 0. -1.
         -5    1    3    3    0  502 -0.27922296251E+02  0.66233170473E+02  0.35909112907E+02  0.80457593107E+02  0.41800000000E+01 0. -1.
        -11    1    1    2    0    0 -0.33458643091E+02 -0.37844799938E+02  0.20393203853E+02  0.54475613289E+02  0.00000000000E+00 0. -1.
         11    1    1    2    0    0  0.39676500569E+02 -0.40026348762E+02 -0.38132772254E+02  0.68047348312E+02  0.00000000000E+00 0.  1.
</event>
<event>
 7    1  0.2733606E-009  0.7790019E+02  0.7561462E-02  0.1335118E+00
          1   -1    0    0  501    0  0.00000000000E+00  0.00000000000E+00  0.41127129892E+03  0.41127129892E+03  0.00000000000E+00 0. -1.
         -1   -1    0    0    0  501 -0.00000000000E+00 -0.00000000000E+00 -0.33299752678E+02  0.33299752678E+02  0.00000000000E+00 0.  1.
         25    2    1    2    0    0 -0.28117608505E+02  0.15445829402E+02  0.28751115613E+03  0.31518015187E+03  0.12508672864E+03 0.  0.
          5    1    3    3  502    0  0.18948623542E+02  0.18314604463E+02  0.25804335793E+03  0.25941920137E+03  0.41800000000E+01 0.  1.
         -5    1    3    3    0  502 -0.47066232047E+02 -0.28687750602E+01  0.29467798199E+02  0.55760950495E+02  0.41800000000E+01 0.  1.
        -11    1    1    2    0    0 -0.21052509035E+02  0.13224266429E+02  0.30016685194E+01  0.25041952264E+02  0.00000000000E+00 0.  1.
         11    1    1    2    0    0  0.49170117540E+02 -0.28670095831E+02  0.87458721597E+02  0.10434894747E+03  0.00000000000E+00 0. -1.
</event>
<event>
 7    1  0.2733606E-009  0.9542102E+02  0.7561462E-02  0.1290231E+00
          1   -1    0    0  501    0  0.00000000000E+00  0.00000000000E+00  0.45884149246E+02  0.45884149246E+02  0.00000000000E+00 0. -1.
         -1   -1    0    0    0  501 -0.00000000000E+00 -0.00000000000E+00 -0.34320778046E+03  0.34320778046E+03  0.00000000000E+00 0.  1.
         25    2    1    2    0    0  0.89701766745E+01 -0.45622087571E+02 -0.23475578727E+03  0.27003705634E+03  0.12509153928E+03 0.  0.
          5    1    3    3  502    0 -0.56778163258E+02 -0.84359085863E+01 -0.93332808683E+02  0.10965131077E+03  0.41800000000E+01 0.  1.
         -5    1    3    3    0  502  0.65748339933E+02 -0.37186178985E+02 -0.14142297858E+03  0.16038574557E+03  0.41800000000E+01 0.  1.
        -11    1    1    2    0    0  0.11262283444E+02  0.30095591009E+02  0.16395702226E+02  0.36074959155E+02  0.00000000000E+00 0. -1.
         11    1    1    2    0    0 -0.20232460119E+02  0.15526496563E+02 -0.78963546170E+02  0.82979914207E+02  0.00000000000E+00 0.  1.
</event>
<event>
 7    1  0.2733606E-009  0.1907503E+03  0.7561462E-02  0.1157786E+00
         -1   -1    0    0    0  501 -0.00000000000E+00  0.00000000000E+00  0.20142491048E+02  0.20142491048E+02  0.00000000000E+00 0.  1.
          1   -1    0    0  501    0  0.00000000000E+00 -0.00000000000E+00 -0.19226854360E+04  0.19226854360E+04  0.00000000000E+00 0. -1.
         25    2    1    2    0    0  0.15233522837E+03 -0.60683535257E+02 -0.11820433476E+04  0.11999011750E+04  0.12509133043E+03 0.  0.
          5    1    3    3  502    0  0.11764336607E+03 -0.97026663288E+02 -0.97159150654E+03  0.98349461766E+03  0.41800000000E+01 0. -1.
         -5    1    3    3    0  502  0.34691862298E+02  0.36343128031E+02 -0.21045184101E+03  0.21640655731E+03  0.41800000000E+01 0. -1.
        -11    1    1    2    0    0 -0.66544615422E+02 -0.10106433789E+02 -0.21299562827E+03  0.22337740152E+03  0.00000000000E+00 0.  1.
         11    1    1    2    0    0 -0.85790612949E+02  0.70789969046E+02 -0.50750396915E+03  0.51954935058E+03  0.00000000000E+00 0. -1.
</event>
<event>
 7    1  0.2733606E-009  0.1181376E+03  0.7561462E-02  0.1246201E+00
          1   -1    0    0  501    0  0.00000000000E+00  0.00000000000E+00  0.69355537621E+03  0.69355537621E+03  0.00000000000E+00 0. -1.
         -1   -1    0    0    0  501 -0.00000000000E+00 -0.00000000000E+00 -0.37237570780E+02  0.37237570780E+02  0.00000000000E+00 0.  1.
         25    2    1    2    0    0  0.30705051290E+02  0.64194188669E+02  0.56116049008E+03  0.57932005953E+03  0.12508773609E+03 0.  0.
          5    1    3    3  502    0  0.33244986784E+02 -0.30893401243E+02  0.12956628757E+03  0.13734819497E+03  0.41800000000E+01 0. -1.
         -5    1    3    3    0  502 -0.25399354932E+01  0.95087589912E+02  0.43159420251E+03  0.44197186456E+03  0.41800000000E+01 0. -1.
        -11    1    1    2    0    0  0.19987532633E+02 -0.18797264325E+02 -0.73770141122E+01  0.28412302689E+02  0.00000000000E+00 0.  1.
         11    1    1    2    0    0 -0.50692583924E+02 -0.45396924344E+02  0.10253432946E+03  0.12306058476E+03  0.00000000000E+00 0. -1.
</event>
<event>
 7    1  0.2733606E-009  0.1192152E+03  0.7561462E-02  0.1244397E+00
          3   -1    0    0  501    0  0.00000000000E+00  0.00000000000E+00  0.20133271299E+03  0.20133271299E+03  0.00000000000E+00 0. -1.
         -3   -1    0    0    0  501 -0.00000000000E+00 -0.00000000000E+00 -0.15768041732E+03  0.15768041732E+03  0.00000000000E+00 0.  1.
         25    2    1    2    0    0  0.14978076204E+02  0.81123801652E+02  0.13705893554E+03  0.20307500297E+03  0.12509552773E+03 0.  0.
          5    1    3    3  502    0  0.13142216311E+02 -0.13223024443E+02 -0.14846863728E+02  0.24196445763E+02  0.41800000000E+01 0.  1.
         -5    1    3    3    0  502  0.18358598930E+01  0.94346826096E+02  0.15190579927E+03  0.17887855720E+03  0.41800000000E+01 0.  1.
        -11    1    1    2    0    0 -0.35723354094E+02 -0.93925721970E+02 -0.75020785026E+02  0.12540461499E+03  0.00000000000E+00 0.  1.
         11    1    1    2    0    0  0.20745277890E+02  0.12801920318E+02 -0.18385854845E+02  0.30533512358E+02  0.00000000000E+00 0. -1.
</event>
<event>
 7    1  0.2733606E-009  0.5031650E+02  0.7561462E-02  0.1443642E+00
         -1   -1    0    0    0  501 -0.00000000000E+00  0.00000000000E+00  0.26311811989E+03  0.26311811989E+03  0.00000000000E+00 0.  1.
          1   -1    0    0  501    0  0.00000000000E+00 -0.00000000000E+00 -0.51978866331E+02  0.51978866331E+02  0.00000000000E+00 0. -1.
         25    2    1    2    0    0  0.41700031326E+02 -0.10304324555E+02  0.10073877245E+03  0.16625670288E+03  0.12509164345E+03 0.  0.
          5    1    3    3  502    0  0.22914318986E+02  0.14367349145E+01 -0.27490903079E+02  0.36060398970E+02  0.41800000000E+01 0. -1.
         -5    1    3    3    0  502  0.18785712340E+02 -0.11741059470E+02  0.12822967553E+03  0.13019630391E+03  0.41800000000E+01 0. -1.
        -11    1    1    2    0    0 -0.37879118226E+02  0.21058753396E+02  0.12384232529E+03  0.13120678422E+03  0.00000000000E+00 0.  1.
         11    1    1    2    0    0 -0.38209131001E+01 -0.10754428841E+02 -0.13441844175E+02  0.17633499126E+02  0.00000000000E+00 0. -1.
</event>
<event>
 7    1  0.2733606E-009  0.1274570E+03  0.7561462E-02  0.1231279E+00
         -2   -1    0    0    0  501 -0.00000000000E+00  0.00000000000E+00  0.97185404736E+02  0.97185404736E+02  0.00000000000E+00 0.  1.
          2   -1    0    0  501    0  0.00000000000E+00 -0.00000000000E+00 -0.24888927255E+03  0.24888927255E+03  0.00000000000E+00 0. -1.
         25    2    1    2    0    0 -0.68068559557E+02 -0.55732035687E+02 -0.59174856233E+01  0.15304331058E+03  0.12509136531E+03 0.  0.
          5    1    3    3  502    0 -0.10863836034E+02 -0.78106803710E+02  0.26711279332E+02  0.83364624168E+02  0.41800000000E+01 0. -1.
         -5    1    3    3    0  502 -0.57204723523E+02  0.22374768022E+02 -0.32628764956E+02  0.69678686411E+02  0.41800000000E+01 0. -1.
        -11    1    1    2    0    0  0.83821268352E+02  0.50077127411E+02 -0.14675210278E+03  0.17626656912E+03  0.00000000000E+00 0. -1.
         11    1    1    2    0    0 -0.15752708794E+02  0.56549082765E+01  0.96572058929E+00  0.16764797590E+02  0.00000000000E+00 0.  1.
</event>
<event>
 7    1  0.2733606E-009  0.1724919E+03  0.7561462E-02  0.1175274E+00
         -2   -1    0    0    0  501 -0.00000000000E+00  0.00000000000E+00  0.32738277991E+02  0.32738277991E+02  0.00000000000E+00 0.  1.
          2   -1    0    0  501    0  0.00000000000E+00 -0.00000000000E+00 -0.11481866540E+04  0.11481866540E+04  0.00000000000E+00 0. -1.
         25    2    1    2    0    0  0.14607582853E+03 -0.35050010672E+02 -0.41491065820E+03  0.45865154490E+03  0.12507491525E+03 0.  0.
          5    1    3    3  502    0  0.46379128971E+02  0.40696893907E+02 -0.80279867182E+02  0.10133898683E+03  0.41800000000E+01 0.  1.
         -5    1    3    3    0  502  0.99696699555E+02 -0.75746904579E+02 -0.33463079101E+03  0.35731255806E+03  0.41800000000E+01 0.  1.
        -11    1    1    2    0    0 -0.13508808455E+03  0.45651491208E+02 -0.68769276811E+03  0.70232057676E+03  0.00000000000E+00 0. -1.
         11    1    1    2    0    0 -0.10987743980E+02 -0.10601480535E+02 -0.12844949711E+02  0.19952810338E+02  0.00000000000E+00 0.  1.
</event>
<event>
 7    1  0.2733606E-009  0.1557280E+03  0.7561462E-02  0.1193606E+00
         -1   -1    0    0    0  501 -0.00000000000E+00  0.00000000000E+00  0.16661596027E+02  0.16661596027E+02  0.00000000000E+00 0.  1.
          1   -1    0    0  501    0  0.00000000000E+00 -0.00000000000E+00 -0.32827320892E+04  0.32827320892E+04  0.00000000000E+00 0. -1.
         25    2    1    2    0    0 -0.11025587853E+03  0.47084857307E+02 -0.28852329482E+04  0.28904307404E+04  0.12508939713E+03 0.  0.
          5    1    3    3  502    0 -0.21019156724E+02 -0.40120662911E+02 -0.55753217702E+03  0.55938454872E+03  0.41800000000E+01 0. -1.
         -5    1    3    3    0  502 -0.89236721810E+02  0.87205520218E+02 -0.23277007712E+04  0.23310461917E+04  0.41800000000E+01 0. -1.
        -11    1    1    2    0    0  0.99552014108E+02 -0.71771769560E+01 -0.32165007602E+03  0.33678017576E+03  0.00000000000E+00 0. -1.
         11    1    1    2    0    0  0.10703864425E+02 -0.39907680351E+02 -0.59187468926E+02  0.72182769013E+02  0.00000000000E+00 0.  1.
</event>
<event>
 7    1  0.2733606E-009  0.1055991E+03  0.7561462E-02  0.1268944E+00
         -1   -1    0    0    0  501 -0.00000000000E+00  0.00000000000E+00  0.77591090870E+02  0.77591090870E+02  0.00000000000E+00 0.  1.
          1   -1    0    0  501    0  0.00000000000E+00 -0.00000000000E+00 -0.27735830802E+03  0.27735830802E+03  0.00000000000E+00 0. -1.
         25    2    1    2    0    0 -0.63807798629E+02 -0.64248446642E+02 -0.15018959453E+03  0.21541450803E+03  0.12508876009E+03 0.  0.
          5    1    3    3  502    0 -0.48305601073E+02 -0.22609872888E+02 -0.16086563552E+03  0.16952835320E+03  0.41800000000E+01 0. -1.
         -5    1    3    3    0  502 -0.15502197556E+02 -0.41638573755E+02  0.10676040991E+02  0.45886154825E+02  0.41800000000E+01 0. -1.
        -11    1    1    2    0    0  0.38899642810E+02 -0.52435295666E+01  0.14438687238E+02  0.41822870564E+02  0.00000000000E+00 0.  1.
         11    1    1    2    0    0  0.24908155819E+02  0.69491976209E+02 -0.64016309859E+02  0.97712020303E+02  0.00000000000E+00 0. -1.
</event>
<event>
 7    1  0.2733606E-009  0.6103471E+02  0.7561462E-02  0.1393540E+00
          2   -1    0    0  501    0  0.00000000000E+00  0.00000000000E+00  0.23385577929E+02  0.23385577929E+02  0.00000000000E+00 0. -1.
         -2   -1    0    0    0  501 -0.00000000000E+00 -0.00000000000E+00 -0.64225929218E+03  0.64225929218E+03  0.00000000000E+00 0.  1.
         25    2    1    2    0    0 -0.61075437240E+01 -0.49875983863E+02 -0.41682561687E+03  0.43808171005E+03  0.12508826461E+03 0.  0.
          5    1    3    3  502    0 -0.72984811252E+01 -0.28878286032E+02 -0.11519247223E+02  0.32208518865E+02  0.41800000000E+01 0.  1.
         -5    1    3    3    0  502  0.11909374013E+01 -0.20997697831E+02 -0.40530636965E+03  0.40587319119E+03  0.41800000000E+01 0.  1.
        -11    1    1    2    0    0  0.15657842907E+02  0.56692509250E+02 -0.20672730987E+03  0.21493112687E+03  0.00000000000E+00 0.  1.
         11    1    1    2    0    0 -0.95502991828E+01 -0.68165253867E+01  0.46792124969E+01  0.12632033186E+02  0.00000000000E+00 0. -1.
</event>
<event>
 7    1  0.2733606E-009  0.8753728E+02  0.7561462E-02  0.1308928E+00
          2   -1    0    0  501    0  0.00000000000E+00  0.00000000000E+00  0.27679341786E+03  0.27679341786E+03  0.00000000000E+00 0. -1.
         -2   -1    0    0    0  501 -0.00000000000E+00 -0.00000000000E+00 -0.85001959331E+02  0.85001959331E+02  0.00000000000E+00 0.  1.
         25    2    1    2    0    0  0.74623443367E+02  0.24260030115E+02  0.14783595686E+02  0.14840291900E+03  0.12509062437E+03 0.  0.
          5    1    3    3  502    0  0.31281446709E+02 -0.17173418779E+02  0.62209371909E+02  0.71839637903E+02  0.41800000000E+01 0.  1.
         -5    1    3    3    0  502  0.43341996658E+02  0.41433448894E+02 -0.47425776223E+02  0.76563281094E+02  0.41800000000E+01 0.  1.
        -11    1    1    2    0    0 -0.31690031286E+02 -0.54043179859E+01  0.16048793036E+03  0.16367602306E+03  0.00000000000E+00 0. -1.
         11    1    1    2    0    0 -0.42933412081E+02 -0.18855712129E+02  0.16519932489E+02  0.49716435132E+02  0.00000000000E+00 0.  1.
</event>
<event>
 7    1  0.2733606E-009  0.8203698E+02  0.7561462E-02  0.1323368E+00
          4   -1    0    0  501    0  0.00000000000E+00  0.00000000000E+00  0.18233100717E+03  0.18233100717E+03  0.00000000000E+00 0.  1.
         -4   -1    0    0    0  501 -0.00000000000E+00 -0.00000000000E+00 -0.80612425183E+02  0.80612425183E+02  0.00000000000E+00 0. -1.
         25    2    1    2    0    0 -0.28597388499E+02  0.30688029794E+01  0.10981874790E+03  0.16892111526E+03  0.12508779960E+03 0.  0.
          5    1    3    3  502    0 -0.35191610522E+02  0.53742455517E+02  0.23513656543E+02  0.68535140039E+02  0.41800000000E+01 0. -1.
         -5    1    3    3    0  502  0.65942220229E+01 -0.50673652538E+02  0.86305091360E+02  0.10038597522E+03  0.41800000000E+01 0. -1.
        -11    1    1    2    0    0 -0.63555252695E+01 -0.10890865566E+02  0.35455436977E+02  0.37630993416E+02  0.00000000000E+00 0.  1.
         11    1    1    2    0    0  0.34952913768E+02  0.78220625863E+01 -0.43555602889E+02  0.56391323685E+02  0.00000000000E+00 0. -1.
</event>
<event>
 7    1  0.2733606E-009  0.9507536E+02  0.7561462E-02  0.1291006E+00
          3   -1    0    0  501    0  0.00000000000E+00  0.00000000000E+00  0.45007748013E+02  0.45007748013E+02  0.00000000000E+00 0. -1.
         -3   -1    0    0    0  501 -0.00000000000E+00 -0.00000000000E+00 -0.29135149670E+03  0.29135149670E+03  0.00000000000E+00 0.  1.
         25    2    1    2    0    0 -0.72541031847E+01  0.18162572392E+02 -0.20031181470E+03  0.23697394839E+03  0.12509727439E+03 0.  0.
          5    1    3    3  502    0  0.22450444139E+02  0.57970345940E+02 -0.16361726748E+03  0.17507902807E+03  0.41800000000E+01 0. -1.
         -5    1    3    3    0  502 -0.29704547323E+02 -0.39807773548E+02 -0.36694547220E+02  0.61894920327E+02  0.41800000000E+01 0. -1.
        -11    1    1    2    0    0 -0.34299214176E+02 -0.78515421993E+01 -0.44250366065E+02  0.56534747766E+02  0.00000000000E+00 0.  1.
         11    1    1    2    0    0  0.41553317361E+02 -0.10311030193E+02 -0.17815679225E+01  0.42850548557E+02  0.00000000000E+00 0. -1.
</event>
<event>
 7    1  0.2733606E-009  0.1642843E+03  0.7561462E-02  0.1183943E+00
          1   -1    0    0  501    0  0.00000000000E+00  0.00000000000E+00  0.40757175812E+03  0.40757175812E+03  0.00000000000E+00 0. -1.
         -1   -1    0    0    0  501 -0.00000000000E+00 -0.00000000000E+00 -0.81521535338E+02  0.81521535338E+02  0.00000000000E+00 0.  1.
         25    2    1    2    0    0  0.43345989304E+02  0.13309045866E+03  0.11671818563E+03  0.22105096528E+03  0.12509376252E+03 0.  0.
          5    1    3    3  502    0  0.19579665528E+02 -0.19540029319E+02  0.39233122854E+02  0.48185956220E+02  0.41800000000E+01 0.  1.
         -5    1    3    3    0  502  0.23766323777E+02  0.15263048798E+03  0.77485062774E+02  0.17286500906E+03  0.41800000000E+01 0.  1.
        -11    1    1    2    0    0  0.11531812618E+01 -0.63209471673E+02  0.28926192071E+02  0.69523317843E+02  0.00000000000E+00 0.  1.
         11    1    1    2    0    0 -0.44499170566E+02 -0.69880986983E+02  0.18040584508E+03  0.19851901033E+03  0.00000000000E+00 0. -1.
</event>
<event>
 7    1  0.2733606E-009  0.1497649E+03  0.7561462E-02  0.1200762E+00
          1   -1    0    0  501    0  0.00000000000E+00  0.00000000000E+00  0.46743308450E+03  0.46743308450E+03  0.00000000000E+00 0. -1.
         -1   -1    0    0    0  501 -0.00000000000E+00 -0.00000000000E+00 -0.53735118623E+02  0.53735118623E+02  0.00000000000E+00 0.  1.
         25    2    1    2    0    0 -0.75585977147E+02 -0.69531094700E+02  0.25985214767E+03  0.30613351454E+03  0.12508707769E+03 0.  0.
          5    1    3    3  502    0 -0.12586934334E+02  0.34640904358E+02  0.87908682755E+02  0.95414003555E+02  0.41800000000E+01 0.  1.
         -5    1    3    3    0  502 -0.62999042812E+02 -0.10417199906E+03  0.17194346492E+03  0.21071951099E+03  0.41800000000E+01 0.  1.
        -11    1    1    2    0    0  0.80727741324E+02  0.10543255594E+02  0.12498932146E+03  0.14916587726E+03  0.00000000000E+00 0.  1.
         11    1    1    2    0    0 -0.51417641768E+01  0.58987839106E+02  0.28856496743E+02  0.65868811326E+02  0.00000000000E+00 0. -1.
</event>
<event>
 7    1  0.2733606E-009  0.8698180E+02  0.7561462E-02  0.1310330E+00
          1   -1    0    0  501    0  0.00000000000E+00  0.00000000000E+00  0.40230552801E+03  0.40230552801E+03  0.00000000000E+00 0. -1.
         -1   -1    0    0    0  501 -0.00000000000E+00 -0.00000000000E+00 -0.67701674652E+02  0.67701674652E+02  0.00000000000E+00 0.  1.
         25    2    1    2    0    0  0.66546566119E+02 -0.40924470051E+02  0.32186672481E+03  0.35404618921E+03  0.12508899969E+03 0.  0.
          5    1    3    3  502    0  0.89851551359E+01 -0.11787483145E+02  0.27190268899E+03  0.27233843367E+03  0.41800000000E+01 0.  1.
         -5    1    3    3    0  502  0.57561410983E+02 -0.29136986907E+02  0.49964035815E+02  0.81707755539E+02  0.41800000000E+01 0.  1.
        -11    1    1    2    0    0 -0.57329206898E+02  0.58261862084E+01 -0.25703960473E+02  0.63097353299E+02  0.00000000000E+00 0.  1.
         11    1    1    2    0    0 -0.92173592210E+01  0.35098283843E+02  0.38441089024E+02  0.52863660156E+02  0.00000000000E+00 0. -1.
</event>
<event>
 7    1  0.2733606E-009  0.1179414E+03  0.7561462E-02  0.1246532E+00
         -2   -1    0    0    0  501 -0.00000000000E+00  0.00000000000E+00  0.13778652300E+03  0.13778652300E+03  0.00000000000E+00 0.  1.
          2   -1    0    0  501    0  0.00000000000E+00 -0.00000000000E+00 -0.14965299678E+03  0.14965299678E+03  0.00000000000E+00 0. -1.
         25    2    1    2    0    0  0.53265411080E+02  0.73011932660E+02  0.20712247305E+02  0.15571002860E+03  0.12509464213E+03 0.  0.
          5    1    3    3  502    0  0.26367174693E+02 -0.89373768093E+01  0.55801400621E+02  0.62500986527E+02  0.41800000000E+01 0. -1.
         -5    1    3    3    0  502  0.26898236387E+02  0.81949309470E+02 -0.35089153317E+02  0.93209042071E+02  0.41800000000E+01 0. -1.
        -11    1    1    2    0    0 -0.53086532341E+02 -0.89945695610E+02 -0.12078834079E+02  0.10513946123E+03  0.00000000000E+00 0.  1.
         11    1    1    2    0    0 -0.17887873903E+00  0.16933762950E+02 -0.20499887005E+02  0.26590029945E+02  0.00000000000E+00 0. -1.
</event>
<event>
 7    1  0.2733606E-009  0.1208858E+03  0.7561462E-02  0.1241643E+00
          2   -1    0    0  501    0  0.00000000000E+00  0.00000000000E+00  0.30239885540E+03  0.30239885540E+03  0.00000000000E+00 0. -1.
         -2   -1    0    0    0  501 -0.00000000000E+00 -0.00000000000E+00 -0.78359279073E+02  0.78359279073E+02  0.00000000000E+00 0.  1.
         25    2    1    2    0    0 -0.26082205640E+02  0.92619021845E+02  0.58928420272E+02  0.16845576808E+03  0.12508486090E+03 0.  0.
          5    1    3    3  502    0  0.29026693290E+02  0.34252975482E+00  0.53192265211E+02  0.60741713248E+02  0.41800000000E+01 0. -1.
         -5    1    3    3    0  502 -0.55108898930E+02  0.92276492090E+02  0.57361550611E+01  0.10771405483E+03  0.41800000000E+01 0. -1.
        -11    1    1    2    0    0 -0.11561283799E+02 -0.20921453722E+02  0.11414273041E+03  0.11661875241E+03  0.00000000000E+00 0.  1.
         11    1    1    2    0    0  0.37643489439E+02 -0.71697568123E+02  0.50968425649E+02  0.95683613983E+02  0.00000000000E+00 0. -1.
</event>
<event>
 7    1  0.2733606E-009  0.1100824E+03  0.7561462E-02  0.1260417E+00
          2   -1    0    0  501    0  0.00000000000E+00  0.00000000000E+00  0.70068670266E+03  0.70068670266E+03  0.00000000000E+00 0. -1.
         -2   -1    0    0    0  501 -0.00000000000E+00 -0.00000000000E+00 -0.31484724719E+02  0.31484724719E+02  0.00000000000E+00 0.  1.
         25    2    1    2    0    0 -0.28626164479E+02 -0.42413583656E+02  0.14795551038E+03  0.20039040808E+03  0.12508842164E+03 0.  0.
          5    1    3    3  502    0 -0.53295932815E+02  0.13135577350E+02  0.19820986723E+02  0.58509347643E+02  0.41800000000E+01 0.  1.
         -5    1    3    3    0  502  0.24669768336E+02 -0.55549161007E+02  0.12813452366E+03  0.14188106044E+03  0.41800000000E+01 0.  1.
        -11    1    1    2    0    0  0.48895304574E+02 -0.82832987136E+01  0.20950748577E+03  0.21529688906E+03  0.00000000000E+00 0. -1.
         11    1    1    2    0    0 -0.20269140095E+02  0.50696882370E+02  0.31173898179E+03  0.31648413023E+03  0.00000000000E+00 0.  1.
</event>
<event>
 7    1  0.2733606E-009  0.1242314E+03  0.7561462E-02  0.1236275E+00
          2   -1    0    0  501    0  0.00000000000E+00  0.00000000000E+00  0.12268478661E+04  0.12268478661E+04  0.00000000000E+00 0. -1.
         -2   -1    0    0    0  501 -0.00000000000E+00 -0.00000000000E+00 -0.23756257395E+02  0.23756257395E+02  0.00000000000E+00 0.  1.
         25    2    1    2    0    0  0.63752728247E+02 -0.65489767752E+02  0.94989181850E+03  0.96244187182E+03  0.12508624924E+03 0.  0.
          5    1    3    3  502    0  0.46039597396E+02  0.28490313740E+02  0.46754399815E+03  0.47068695022E+03  0.41800000000E+01 0. -1.
         -5    1    3    3    0  502  0.17713130851E+02 -0.93980081493E+02  0.48234782035E+03  0.49175492160E+03  0.41800000000E+01 0. -1.
        -11    1    1    2    0    0 -0.25265912187E+02  0.51713341331E+02  0.37662963964E+02  0.68783245379E+02  0.00000000000E+00 0.  1.
         11    1    1    2    0    0 -0.38486816060E+02  0.13776426421E+02  0.21553682628E+03  0.21937900633E+03  0.00000000000E+00 0. -1.
</event>
<event>
 7    1  0.2733606E-009  0.2827102E+03  0.7561462E-02  0.1094218E+00
          2   -1    0    0  501    0  0.00000000000E+00  0.00000000000E+00  0.87581509137E+03  0.87581509137E+03  0.00000000000E+00 0. -1.
         -2   -1    0    0    0  501 -0.00000000000E+00 -0.00000000000E+00 -0.10328353844E+03  0.10328353844E+03  0.00000000000E+00 0.  1.
         25    2    1    2    0    0 -0.27450459171E+03 -0.35873024188E+02  0.38476786157E+03  0.49023677566E+03  0.12508454814E+03 0.  0.
          5    1    3    3  502    0 -0.31408294802E+02 -0.20020412451E+01 -0.23632778063E+01  0.31836247164E+02  0.41800000000E+01 0. -1.
         -5    1    3    3    0  502 -0.24309629690E+03 -0.33870982942E+02  0.38713113937E+03  0.45840052850E+03  0.41800000000E+01 0. -1.
        -11    1    1    2    0    0  0.92233183400E+01  0.20483746093E+02  0.75838394870E+02  0.79095610445E+02  0.00000000000E+00 0. -1.
         11    1    1    2    0    0  0.26528127337E+03  0.15389278094E+02  0.31192529649E+03  0.40976624370E+03  0.00000000000E+00 0.  1.
</event>
<event>
 7    1  0.2733606E-009  0.9814829E+02  0.7561462E-02  0.1284239E+00
          1   -1    0    0  501    0  0.00000000000E+00  0.00000000000E+00  0.90100965604E+03  0.90100965604E+03  0.00000000000E+00 0. -1.
         -1   -1    0    0    0  501 -0.00000000000E+00 -0.00000000000E+00 -0.16290409986E+02  0.16290409986E+02  0.00000000000E+00 0.  1.
         25    2    1    2    0    0  0.40223300904E+00 -0.39835941587E+02  0.35579051740E+03  0.37923800903E+03  0.12509001234E+03 0.  0.
          5    1    3    3  502    0  0.26420924720E+02 -0.59513506848E+02  0.88613062692E+02  0.11004394595E+03  0.41800000000E+01 0.  1.
         -5    1    3    3    0  502 -0.26018691711E+02  0.19677565261E+02  0.26717745470E+03  0.26919406308E+03  0.41800000000E+01 0.  1.
        -11    1    1    2    0    0  0.66559908003E+01 -0.28598038154E+02  0.13322417541E+03  0.13642151924E+03  0.00000000000E+00 0. -1.
         11    1    1    2    0    0 -0.70582238094E+01  0.68433979741E+02  0.39570455325E+03  0.40164053776E+03  0.00000000000E+00 0.  1.
</event>
<event>
 7    1  0.2733606E-009  0.1072980E+03  0.7561462E-02  0.1265657E+00
         -1   -1    0    0    0  501 -0.00000000000E+00  0.00000000000E+00  0.28116599812E+02  0.28116599812E+02  0.00000000000E+00 0.  1.
          1   -1    0    0  501    0  0.00000000000E+00 -0.00000000000E+00 -0.77445092802E+03  0.77445092802E+03  0.00000000000E+00 0. -1.
         25    2    1    2    0    0  0.76283514705E+02  0.45423886568E+02 -0.54755372217E+03  0.56863414944E+03  0.12508882109E+03 0.  0.
          5    1    3    3  502    0  0.80636364150E+02  0.36992482786E+02 -0.17792821473E+03  0.19886324196E+03  0.41800000000E+01 0.  1.
         -5    1    3    3    0  502 -0.43528494449E+01  0.84314037815E+01 -0.36962550745E+03  0.36977090748E+03  0.41800000000E+01 0.  1.
        -11    1    1    2    0    0  0.10644968102E+02 -0.23444475803E+02 -0.86462444985E+02  0.90214816878E+02  0.00000000000E+00 0.  1.
         11    1    1    2    0    0 -0.86928482807E+02 -0.21979410765E+02 -0.11231816105E+03  0.14371856151E+03  0.00000000000E+00 0. -1.
</event>
<event>
 7    1  0.2733606E-009  0.1846024E+03  0.7561462E-02  0.1163422E+00
         -2   -1    0    0    0  501 -0.00000000000E+00  0.00000000000E+00  0.22003062870E+03  0.22003062870E+03  0.00000000000E+00 0.  1.
          2   -1    0    0  501    0  0.00000000000E+00 -0.00000000000E+00 -0.69818771478E+03  0.69818771478E+03  0.00000000000E+00 0. -1.
         25    2    1    2    0    0  0.15703643879E+03 -0.56962688657E+02  0.15310211715E+03  0.25882870093E+03  0.12508735806E+03 0.  0.
          5    1    3    3  502    0  0.16537889733E+03 -0.34173134378E+02  0.90679861783E+02  0.19172452250E+03  0.41800000000E+01 0.  1.
         -5    1    3    3    0  502 -0.83424585387E+01 -0.22789554279E+02  0.62422255364E+02  0.67104178435E+02  0.41800000000E+01 0.  1.
        -11    1    1    2    0    0 -0.11444964286E+03  0.14241015295E+02 -0.27731165980E+03  0.30033861545E+03  0.00000000000E+00 0. -1.
         11    1    1    2    0    0 -0.42586795928E+02  0.42721673362E+02 -0.35394754343E+03  0.35905102710E+03  0.00000000000E+00 0.  1.
</event>
<event>
 7    1  0.2733606E-009  0.8777391E+02  0.7561462E-02  0.1308334E+00
          2   -1    0    0  501    0  0.00000000000E+00  0.00000000000E+00  0.50347656480E+03  0.50347656480E+03  0.00000000000E+00 0. -1.
         -2   -1    0    0    0  501 -0.00000000000E+00 -0.00000000000E+00 -0.42539458503E+02  0.42539458503E+02  0.00000000000E+00 0.  1.
         25    2    1    2    0    0 -0.94082772424E+01 -0.63391696689E+02  0.38743320182E+03  0.41213824709E+03  0.12508567445E+03 0.  0.
          5    1    3    3  502    0 -0.72981279302E+01 -0.47019591957E+02  0.34810329189E+02  0.59104450910E+02  0.41800000000E+01 0. -1.
         -5    1    3    3    0  502 -0.21101493122E+01 -0.16372104732E+02  0.35262287263E+03  0.35303379618E+03  0.41800000000E+01 0. -1.
        -11    1    1    2    0    0  0.42164239621E+02  0.32740728601E+01  0.37515538059E+02  0.56532806862E+02  0.00000000000E+00 0. -1.
         11    1    1    2    0    0 -0.32755962378E+02  0.60117623829E+02  0.35988366417E+02  0.77344969348E+02  0.00000000000E+00 0.  1.
</event>
<event>
 7    1  0.2733606E-009  0.1509785E+03  0.7561462E-02  0.1199276E+00
         -1   -1    0    0    0  501 -0.00000000000E+00  0.00000000000E+00  0.44973103233E+02  0.44973103233E+02  0.00000000000E+00 0.  1.
          1   -1    0    0  501    0  0.00000000000E+00 -0.00000000000E+00 -0.61458372983E+03  0.61458372983E+03  0.00000000000E+00 0. -1.
         25    2    1    2    0    0 -0.10286156177E+03 -0.69409874945E+02 -0.34913773623E+03  0.39107970527E+03  0.12509174787E+03 0.  0.
          5    1    3    3  502    0 -0.19065798660E+02 -0.61666734925E+02 -0.26200935456E+03  0.26987527703E+03  0.41800000000E+01 0.  1.
         -5    1    3    3    0  502 -0.83795763112E+02 -0.77431400199E+01 -0.87128381667E+02  0.12120442824E+03  0.41800000000E+01 0.  1.
        -11    1    1    2    0    0  0.10529883346E+02  0.59194126048E+02 -0.80221954654E+02  0.10025160852E+03  0.00000000000E+00 0.  1.
         11    1    1    2    0    0  0.92331678426E+02  0.10215748896E+02 -0.14025093571E+03  0.16822551927E+03  0.00000000000E+00 0. -1.
</event>
<event>
 7    1  0.2733606E-009  0.1058039E+03  0.7561462E-02  0.1268544E+00
          2   -1    0    0  501    0  0.00000000000E+00  0.00000000000E+00  0.20506645182E+03  0.20506645182E+03  0.00000000000E+00 0. -1.
         -2   -1    0    0    0  501 -0.00000000000E+00 -0.00000000000E+00 -0.85022058391E+02  0.85022058391E+02  0.00000000000E+00 0.  1.
         25    2    1    2    0    0  0.36454094080E+02 -0.10810993021E+02  0.13862344950E+03  0.19055101605E+03  0.12508976944E+03 0.  0.
          5    1    3    3  502    0  0.66763788814E+02  0.30147234420E+02  0.10920825490E+03  0.13156813663E+03  0.41800000000E+01 0. -1.
         -5    1    3    3    0  502 -0.30309694734E+02 -0.40958227441E+02  0.29415194605E+02  0.58982879411E+02  0.41800000000E+01 0. -1.
        -11    1    1    2    0    0  0.77191503800E+01 -0.27545871199E+02 -0.28292048231E+02  0.40234317390E+02  0.00000000000E+00 0.  1.
         11    1    1    2    0    0 -0.44173244460E+02  0.38356864221E+02  0.97129921584E+01  0.59303176775E+02  0.00000000000E+00 0. -1.
</event>
<event>
 7    1  0.2733606E-009  0.1608270E+03  0.7561462E-02  0.1187766E+00
         -1   -1    0    0    0  501 -0.00000000000E+00  0.00000000000E+00  0.27072237479E+03  0.27072237479E+03  0.00000000000E+00 0.  1.
          1   -1    0    0  501    0  0.00000000000E+00 -0.00000000000E+00 -0.16058046488E+03  0.16058046488E+03  0.00000000000E+00 0. -1.
         25    2    1    2    0    0  0.82025271543E+02 -0.10866934180E+03 -0.62160732104E+02  0.19506009133E+03  0.12508921455E+03 0.  0.
          5    1    3    3  502    0  0.29273468175E+02  0.26412337630E+02 -0.16756937217E+02  0.43044336015E+02  0.41800000000E+01 0.  1.
         -5    1    3    3    0  502  0.52751803368E+02 -0.13508167943E+03 -0.45403794887E+02  0.15201575532E+03  0.41800000000E+01 0.  1.
        -11    1    1    2    0    0 -0.57340889673E+02  0.64290322291E+02  0.16335519967E+03  0.18467848935E+03  0.00000000000E+00 0.  1.
         11    1    1    2    0    0 -0.24684381869E+02  0.44379019505E+02  0.89474423486E+01  0.51564258989E+02  0.00000000000E+00 0. -1.
</event>
<event>
 7    1  0.2733606E-009  0.1401945E+03  0.7561462E-02  0.1213068E+00
         -2   -1    0    0    0  501 -0.00000000000E+00  0.00000000000E+00  0.24311347156E+03  0.24311347156E+03  0.00000000000E+00 0.  1.
          2   -1    0    0  501    0  0.00000000000E+00 -0.00000000000E+00 -0.97225038868E+02  0.97225038868E+02  0.00000000000E+00 0. -1.
         25    2    1    2    0    0 -0.99486983344E+02 -0.29235666540E+02  0.11623080648E+03  0.19977373962E+03  0.12509021789E+03 0.  0.
          5    1    3    3  502    0 -0.18458143634E+02 -0.67457004803E+02  0.69315358654E+02  0.98555780697E+02  0.41800000000E+01 0. -1.
         -5    1    3    3    0  502 -0.81028839711E+02  0.38221338264E+02  0.46915447829E+02  0.10121795892E+03  0.41800000000E+01 0. -1.
        -11    1    1    2    0    0  0.54445809297E+02 -0.16055861231E+02 -0.19440052093E+02  0.60000437126E+02  0.00000000000E+00 0. -1.
         11    1    1    2    0    0  0.45041174047E+02  0.45291527770E+02  0.49097678305E+02  0.80564333686E+02  0.00000000000E+00 0.  1.
</event>
<event>
 7    1  0.2733606E-009  0.8466979E+02  0.7561462E-02  0.1316298E+00
         -1   -1    0    0    0  501 -0.00000000000E+00  0.00000000000E+00  0.10425022879E+02  0.10425022879E+02  0.00000000000E+00 0.  1.
          1   -1    0    0  501    0  0.00000000000E+00 -0.00000000000E+00 -0.11591455159E+04  0.11591455159E+04  0.00000000000E+00 0. -1.
         25    2    1    2    0    0  0.17260826940E+02  0.22871419590E+02 -0.70078250977E+03  0.71243620804E+03  0.12509271175E+03 0.  0.
          5    1    3    3  502    0 -0.94332180032E+01  0.43981421266E+02 -0.90092105809E+02  0.10078398160E+03  0.41800000000E+01 0.  1.
         -5    1    3    3    0  502  0.26694044943E+02 -0.21110001675E+02 -0.61069040397E+03  0.61165222643E+03  0.41800000000E+01 0.  1.
        -11    1    1    2    0    0 -0.51619588021E+01 -0.55156905982E+02 -0.31278408361E+03  0.31765203141E+03  0.00000000000E+00 0. -1.
         11    1    1    2    0    0 -0.12098868137E+02  0.32285486392E+02 -0.13515389965E+03  0.13948229935E+03  0.00000000000E+00 0.  1.
</event>
<event>
 7    1  0.2733606E-009  0.1285621E+03  0.7561462E-02  0.1229605E+00
         -4   -1    0    0    0  501 -0.00000000000E+00  0.00000000000E+00  0.73101992735E+02  0.73101992735E+02  0.00000000000E+00 0.  1.
          4   -1    0    0  501    0  0.00000000000E+00 -0.00000000000E+00 -0.34571832694E+03  0.34571832694E+03  0.00000000000E+00 0. -1.
         25    2    1    2    0    0  0.30680248127E+02  0.78352597975E+02 -0.25129700990E+03  0.29305114689E+03  0.12509348613E+03 0.  0.
          5    1    3    3  502    0  0.54337692794E+02 -0.11816797052E+02 -0.73568503415E+02  0.92314780211E+02  0.41800000000E+01 0. -1.
         -5    1    3    3    0  502 -0.23657444667E+02  0.90169395027E+02 -0.17772850649E+03  0.20073636668E+03  0.41800000000E+01 0. -1.
        -11    1    1    2    0    0 -0.38467867124E+02 -0.10676394476E+02  0.21463638765E+02  0.45326040960E+02  0.00000000000E+00 0.  1.
         11    1    1    2    0    0  0.77876189970E+01 -0.67676203499E+02 -0.42782963071E+02  0.80443131831E+02  0.00000000000E+00 0. -1.
</event>
<event>
 7    1  0.2733606E-009  0.1223469E+03  0.7561462E-02  0.1239275E+00
         -2   -1    0    0    0  501 -0.00000000000E+00  0.00000000000E+00  0.98491127452E+01  0.98491127452E+01  0.00000000000E+00 0.  1.
          2   -1    0    0  501    0  0.00000000000E+00 -0.00000000000E+00 -0.19433109584E+04  0.19433109584E+04  0.00000000000E+00 0. -1.
         25    2    1    2    0    0  0.22301901707E+02  0.70583524171E+02 -0.13520927515E+04  0.13598836296E+04  0.12509703654E+03 0.  0.
          5    1    3    3  502    0 -0.16912215899E+02 -0.21536405881E+02 -0.65927444455E+03  0.65985612482E+03  0.41800000000E+01 0. -1.
         -5    1    3    3    0  502  0.39214117606E+02  0.92119930052E+02 -0.69281830695E+03  0.70002750473E+03  0.41800000000E+01 0. -1.
        -11    1    1    2    0    0  0.11283377618E+02  0.18451626027E+02 -0.75584418376E+02  0.78617945882E+02  0.00000000000E+00 0. -1.
         11    1    1    2    0    0 -0.33585279326E+02 -0.89035150198E+02 -0.50578467576E+03  0.51465849570E+03  0.00000000000E+00 0.  1.
</event>
<event>
 7    1  0.2733606E-009  0.1808482E+03  0.7561462E-02  0.1166985E+00
         -2   -1    0    0    0  501 -0.00000000000E+00  0.00000000000E+00  0.86059355296E+03  0.86059355296E+03  0.00000000000E+00 0. -1.
          2   -1    0    0  501    0  0.00000000000E+00 -0.00000000000E+00 -0.47777250221E+02  0.47777250221E+02  0.00000000000E+00 0.  1.
         25    2    1    2    0    0  0.91916946233E+02 -0.85543524740E+01  0.24877954670E+03  0.29336115095E+03  0.12509036764E+03 0.  0.
          5    1    3    3  502    0 -0.35903563113E+01 -0.19696537933E+02 -0.57473651361E+01  0.21244972841E+02  0.41800000000E+01 0. -1.
         -5    1    3    3    0  502  0.95507302544E+02  0.11142185459E+02  0.25452691184E+03  0.27211617811E+03  0.41800000000E+01 0. -1.
        -11    1    1    2    0    0 -0.25948129192E+02 -0.10799785913E+03  0.24489283884E+03  0.26890397078E+03  0.00000000000E+00 0. -1.
         11    1    1    2    0    0 -0.65968817041E+02  0.11655221161E+03  0.31914391719E+03  0.34610568145E+03  0.00000000000E+00 0.  1.
</event>
<event>
 7    1  0.2733606E-009  0.1245063E+03  0.7561462E-02  0.1235843E+00
          2   -1    0    0  501    0  0.00000000000E+00  0.00000000000E+00  0.81909260082E+02  0.81909260082E+02  0.00000000000E+00 0. -1.
         -2   -1    0    0    0  501 -0.00000000000E+00 -0.00000000000E+00 -0.24798624230E+03  0.24798624230E+03  0.00000000000E+00 0.  1.
         25    2    1    2    0    0 -0.31796375964E+02  0.71860697009E+02 -0.34998848607E+02  0.15182498734E+03  0.12510370929E+03 0.  0.
          5    1    3    3  502    0  0.26822623691E+02  0.63586441328E+02  0.18878260714E+02  0.71669727152E+02  0.41800000000E+01 0.  1.
         -5    1    3    3    0  502 -0.58618999655E+02  0.82742556815E+01 -0.53877109321E+02  0.80155260192E+02  0.41800000000E+01 0.  1.
        -11    1    1    2    0    0  0.64172368387E+02 -0.51480615682E+02 -0.88774286819E+02  0.12103396488E+03  0.00000000000E+00 0. -1.
         11    1    1    2    0    0 -0.32375992423E+02 -0.20380081328E+02 -0.42303846795E+02  0.57036550158E+02  0.00000000000E+00 0.  1.
</event>
<event>
 7    1  0.2733606E-009  0.9606977E+02  0.7561462E-02  0.1288785E+00
          2   -1    0    0  501    0  0.00000000000E+00  0.00000000000E+00  0.42089155141E+03  0.42089155141E+03  0.00000000000E+00 0. -1.
         -2   -1    0    0    0  501 -0.00000000000E+00 -0.00000000000E+00 -0.31514126926E+02  0.31514126926E+02  0.00000000000E+00 0.  1.
         25    2    1    2    0    0 -0.19012606046E+02  0.35764741479E+02  0.22054636945E+03  0.25676687973E+03  0.12509170047E+03 0.  0.
          5    1    3    3  502    0 -0.11788256960E+02 -0.30127903374E+02  0.73156963606E+01  0.33431203644E+02  0.41800000000E+01 0. -1.
         -5    1    3    3    0  502 -0.72243490863E+01  0.65892644853E+02  0.21323067309E+03  0.22333567608E+03  0.41800000000E+01 0. -1.
        -11    1    1    2    0    0  0.47534798834E+02 -0.23209033993E+00  0.11886260601E+03  0.12801535093E+03  0.00000000000E+00 0.  1.
         11    1    1    2    0    0 -0.28522192788E+02 -0.35532651139E+02  0.49968449029E+02  0.67623447684E+02  0.00000000000E+00 0. -1.
</event>
<event>
 7    1  0.2733606E-009  0.1852045E+03  0.7561462E-02  0.1162859E+00
          1   -1    0    0  501    0  0.00000000000E+00  0.00000000000E+00  0.57209688572E+03  0.57209688572E+03  0.00000000000E+00 0. -1.
         -1   -1    0    0    0  501 -0.00000000000E+00 -0.00000000000E+00 -0.79044480640E+02  0.79044480640E+02  0.00000000000E+00 0.  1.
         25    2    1    2    0    0 -0.17723644924E+03  0.29997766677E+02  0.30699178694E+03  0.37710030150E+03  0.12509218682E+03 0.  0.
          5    1    3    3  502    0 -0.62650760088E+02 -0.82259770993E+01  0.21798802499E+03  0.22700007903E+03  0.41800000000E+01 0.  1.
         -5    1    3    3    0  502 -0.11458568915E+03  0.38223743776E+02  0.89003761943E+02  0.15010022247E+03  0.41800000000E+01 0.  1.
        -11    1    1    2    0    0  0.57814818584E+01  0.87032667566E+01  0.51848259257E+02  0.52890588697E+02  0.00000000000E+00 0.  1.
         11    1    1    2    0    0  0.17145496738E+03 -0.38701033433E+02  0.13421235889E+03  0.22115047616E+03  0.00000000000E+00 0. -1.
</event>
<event>
 7    1  0.2733606E-009  0.9501687E+02  0.7561462E-02  0.1291138E+00
          2   -1    0    0  501    0  0.00000000000E+00  0.00000000000E+00  0.22717644559E+03  0.22717644559E+03  0.00000000000E+00 0. -1.
         -2   -1    0    0    0  501 -0.00000000000E+00 -0.00000000000E+00 -0.58547069890E+02  0.58547069890E+02  0.00000000000E+00 0.  1.
         25    2    1    2    0    0  0.10459511987E+02 -0.37860466411E+02  0.92901458225E+02  0.16069098324E+03  0.12509234528E+03 0.  0.
          5    1    3    3  502    0 -0.34803123321E+02  0.27891243839E+02  0.10748043490E+02  0.46067035010E+02  0.41800000000E+01 0. -1.
         -5    1    3    3    0  502  0.45262635307E+02 -0.65751710250E+02  0.82153414735E+02  0.11462394823E+03  0.41800000000E+01 0. -1.
        -11    1    1    2    0    0 -0.15621550866E+02  0.49855351987E+02  0.91004539831E+02  0.10493529074E+03  0.00000000000E+00 0. -1.
         11    1    1    2    0    0  0.51620388791E+01 -0.11994885577E+02 -0.15276622352E+02  0.20097241499E+02  0.00000000000E+00 0.  1.
</event>
<event>
 7    1  0.2733606E-009  0.1709542E+03  0.7561462E-02  0.1176856E+00
          1   -1    0    0  501    0  0.00000000000E+00  0.00000000000E+00  0.79383958825E+03  0.79383958825E+03  0.00000000000E+00 0. -1.
         -1   -1    0    0    0  501 -0.00000000000E+00 -0.00000000000E+00 -0.42314907256E+02  0.42314907256E+02  0.00000000000E+00 0.  1.
         25    2    1    2    0    0 -0.93267420329E+02  0.11454960508E+03  0.39433636075E+03  0.43928368270E+03  0.12509422353E+03 0.  0.
          5    1    3    3  502    0 -0.37413978433E+01  0.10028071574E+03  0.24120082885E+03  0.26127673499E+03  0.41800000000E+01 0.  1.
         -5    1    3    3    0  502 -0.89526022486E+02  0.14268889345E+02  0.15313553190E+03  0.17800694771E+03  0.41800000000E+01 0.  1.
        -11    1    1    2    0    0  0.39345530706E+02 -0.71927514817E+02  0.28761417299E+03  0.29907114652E+03  0.00000000000E+00 0. -1.
         11    1    1    2    0    0  0.53921889624E+02 -0.42622090267E+02  0.69574147249E+02  0.97799666281E+02  0.00000000000E+00 0.  1.
</event>
<event>
 7    1  0.2733606E-009  0.1058417E+03  0.7561462E-02  0.1268470E+00
          1   -1    0    0  501    0  0.00000000000E+00  0.00000000000E+00  0.80635253783E+03  0.80635253783E+03  0.00000000000E+00 0. -1.
         -1   -1    0    0    0  501 -0.00000000000E+00 -0.00000000000E+00 -0.31126571260E+02  0.31126571260E+02  0.00000000000E+00 0.  1.
         25    2    1    2    0    0 -0.26985710848E+02 -0.83393922533E+02  0.60248647937E+03  0.62154617313E+03  0.12508761972E+03 0.  0.
          5    1    3    3  502    0 -0.21465543322E+02 -0.96667871646E+02  0.59765109863E+03  0.60581330050E+03  0.41800000000E+01 0.  1.
         -5    1    3    3    0  502 -0.55201675265E+01  0.13273949114E+02  0.48353807367E+01  0.15732872638E+02  0.41800000000E+01 0.  1.
        -11    1    1    2    0    0 -0.20905957228E+01  0.60650802320E+02  0.16811098367E+03  0.17872938551E+03  0.00000000000E+00 0. -1.
         11    1    1    2    0    0  0.29076306571E+02  0.22743120213E+02  0.46285035232E+01  0.37203550445E+02  0.00000000000E+00 0.  1.
</event>
<event>
 7    1  0.2733606E-009  0.2921249E+03  0.7561462E-02  0.1089245E+00
         -1   -1    0    0    0  501 -0.00000000000E+00  0.00000000000E+00  0.45531247621E+02  0.45531247621E+02  0.00000000000E+00 0.  1.
          1   -1    0    0  501    0  0.00000000000E+00 -0.00000000000E+00 -0.19984706619E+04  0.19984706619E+04  0.00000000000E+00 0. -1.
         25    2    1    2    0    0  0.21010598120E+03  0.18010279845E+03 -0.11645668287E+04  0.12035134866E+04  0.12508905800E+03 0.  0.
          5    1    3    3  502    0  0.19365211291E+03  0.97469597318E+02 -0.76494770672E+03  0.79508737234E+03  0.41800000000E+01 0.  1.
         -5    1    3    3    0  502  0.16453868294E+02  0.82633201128E+02 -0.39961912202E+03  0.40842611424E+03  0.41800000000E+01 0.  1.
        -11    1    1    2    0    0 -0.44491770433E+02 -0.99168025113E+01 -0.67010810721E+02  0.81045106958E+02  0.00000000000E+00 0.  1.
         11    1    1    2    0    0 -0.16561421077E+03 -0.17018599593E+03 -0.72136177478E+03  0.75944331594E+03  0.00000000000E+00 0. -1.
</event>
<event>
 7    1  0.2733606E-009  0.3733764E+03  0.7561462E-02  0.1053409E+00
          2   -1    0    0  501    0  0.00000000000E+00  0.00000000000E+00  0.17730234271E+04  0.17730234271E+04  0.00000000000E+00 0. -1.
         -2   -1    0    0    0  501 -0.00000000000E+00 -0.00000000000E+00 -0.85923068482E+02  0.85923068482E+02  0.00000000000E+00 0.  1.
         25    2    1    2    0    0  0.31162926123E+03  0.19472610529E+03  0.10312038186E+04  0.11018430840E+04  0.12508322754E+03 0.  0.
          5    1    3    3  502    0  0.69762791998E+02  0.30118087992E+02  0.99444357750E+02  0.12522219875E+03  0.41800000000E+01 0.  1.
         -5    1    3    3    0  502  0.24186646923E+03  0.16460801730E+03  0.93175946085E+03  0.97662088528E+03  0.41800000000E+01 0.  1.
        -11    1    1    2    0    0 -0.13040138042E+03 -0.13386516012E+03  0.31528757500E+03  0.36651146784E+03  0.00000000000E+00 0.  1.
         11    1    1    2    0    0 -0.18122788082E+03 -0.60860945167E+02  0.34060896498E+03  0.39059194367E+03  0.00000000000E+00 0. -1.
</event>
<event>
 7    1  0.2733606E-009  0.1128191E+03  0.7561462E-02  0.1255437E+00
         -2   -1    0    0    0  501 -0.00000000000E+00  0.00000000000E+00  0.74832198927E+03  0.74832198927E+03  0.00000000000E+00 0.  1.
          2   -1    0    0  501    0  0.00000000000E+00 -0.00000000000E+00 -0.22784089803E+02  0.22784089803E+02  0.00000000000E+00 0. -1.
         25    2    1    2    0    0 -0.63452611767E+02  0.83821863186E+01  0.37629175778E+03  0.40167147036E+03  0.12509191875E+03 0.  0.
          5    1    3    3  502    0 -0.39918076850E+02 -0.48815649378E+02  0.98378920917E+02  0.11692863193E+03  0.41800000000E+01 0.  1.
         -5    1    3    3    0  502 -0.23534534917E+02  0.57197835697E+02  0.27791283687E+03  0.28474283843E+03  0.41800000000E+01 0.  1.
        -11    1    1    2    0    0  0.39386042797E+02  0.33789413308E+02  0.28056056474E+03  0.28531949689E+03  0.00000000000E+00 0.  1.
         11    1    1    2    0    0  0.24066568971E+02 -0.42171599627E+02  0.68685576938E+02  0.84115111820E+02  0.00000000000E+00 0. -1.
</event>
<event>
 7    1  0.2733606E-009  0.1402618E+03  0.7561462E-02  0.1212977E+00
          1   -1    0    0  501    0  0.00000000000E+00  0.00000000000E+00  0.17956795273E+04  0.17956795273E+04  0.00000000000E+00 0. -1.
         -1   -1    0    0    0  501 -0.00000000000E+00 -0.00000000000E+00 -0.13869751277E+02  0.13869751277E+02  0.00000000000E+00 0.  1.
         25    2    1    2    0    0  0.23147892558E+02  0.99218269694E+02  0.12506107057E+04  0.12609754573E+04  0.12510746011E+03 0.  0.
          5    1    3    3  502    0  0.61231123134E+02  0.81229613660E+02  0.56786370114E+03  0.57691780701E+03  0.41800000000E+01 0. -1.
         -5    1    3    3    0  502 -0.38083230577E+02  0.17988656033E+02  0.68274700461E+03  0.68405765027E+03  0.41800000000E+01 0. -1.
        -11    1    1    2    0    0 -0.51465932772E+02 -0.94606385013E+02  0.43874857946E+03  0.45177364498E+03  0.00000000000E+00 0.  1.
         11    1    1    2    0    0  0.28318040215E+02 -0.46118846803E+01  0.92450490841E+02  0.96800176335E+02  0.00000000000E+00 0. -1.
</event>
<event>
 7    1  0.2733606E-009  0.1065059E+03  0.7561462E-02  0.1267181E+00
         -1   -1    0    0    0  501 -0.00000000000E+00  0.00000000000E+00  0.85388194947E+02  0.85388194947E+02  0.00000000000E+00 0.  1.
          1   -1    0    0  501    0  0.00000000000E+00 -0.00000000000E+00 -0.16512366405E+03  0.16512366405E+03  0.00000000000E+00 0. -1.
         25    2    1    2    0    0  0.24094743398E+02 -0.43594951563E+01 -0.88730284139E+02  0.15530656833E+03  0.12508998756E+03 0.  0.
          5    1    3    3  502    0 -0.47224334313E+02 -0.16196614995E+01 -0.63985218142E+02  0.79651375352E+02  0.41800000000E+01 0.  1.
         -5    1    3    3    0  502  0.71319077711E+02 -0.27398336568E+01 -0.24745065997E+02  0.75655192982E+02  0.41800000000E+01 0.  1.
        -11    1    1    2    0    0  0.32666056991E+02 -0.12333292149E+02 -0.22199701315E+01  0.34987278287E+02  0.00000000000E+00 0.  1.
         11    1    1    2    0    0 -0.56760800389E+02  0.16692787306E+02  0.11214785163E+02  0.60218012380E+02  0.00000000000E+00 0. -1.
</event>
<event>
 7    1  0.2733606E-009  0.1021203E+03  0.7561462E-02  0.1275899E+00
          2   -1    0    0  501    0  0.00000000000E+00  0.00000000000E+00  0.16064036471E+02  0.16064036471E+02  0.00000000000E+00 0. -1.
         -2   -1    0    0    0  501 -0.00000000000E+00 -0.00000000000E+00 -0.10211827961E+04  0.10211827961E+04  0.00000000000E+00 0.  1.
         25    2    1    2    0    0 -0.61289179247E+02  0.33084525063E+02 -0.60364949505E+03  0.62039751136E+03  0.12509760163E+03 0.  0.
          5    1    3    3  502    0  0.98192548880E+01 -0.45325303124E+01 -0.41633533769E+03  0.41649675558E+03  0.41800000000E+01 0. -1.
         -5    1    3    3    0  502 -0.71108434135E+02  0.37617055376E+02 -0.18731415736E+03  0.20390075578E+03  0.41800000000E+01 0. -1.
        -11    1    1    2    0    0  0.30848975357E+02  0.29382749676E+02 -0.14437727981E+03  0.15053173813E+03  0.00000000000E+00 0.  1.
         11    1    1    2    0    0  0.30440203890E+02 -0.62467274739E+02 -0.25709198479E+03  0.26631758310E+03  0.00000000000E+00 0. -1.
</event>
<event>
 7    1  0.2733606E-009  0.6738813E+02  0.7561462E-02  0.1369207E+00
          2   -1    0    0  501    0  0.00000000000E+00  0.00000000000E+00  0.18239652671E+03  0.18239652671E+03  0.00000000000E+00 0. -1.
         -2   -1    0    0    0  501 -0.00000000000E+00 -0.00000000000E+00 -0.36795957023E+02  0.36795957023E+02  0.00000000000E+00 0.  1.
         25    2    1    2    0    0  0.57810357679E+01  0.31155517687E+02  0.10007730258E+03  0.16331405431E+03  0.12510766239E+03 0.  0.
          5    1    3    3  502    0 -0.16580777686E+02  0.62086341496E+02  0.97072879184E+01  0.65125569692E+02  0.41800000000E+01 0. -1.
         -5    1    3    3    0  502  0.22361813453E+02 -0.30930823809E+02  0.90370014658E+02  0.98188484619E+02  0.41800000000E+01 0. -1.
        -11    1    1    2    0    0 -0.55164573947E+01 -0.18049061654E+02  0.22336217221E+02  0.29242204577E+02  0.00000000000E+00 0. -1.
         11    1    1    2    0    0 -0.26457837322E+00 -0.13106456033E+02  0.23187049893E+02  0.26636224849E+02  0.00000000000E+00 0.  1.
</event>
<event>
 7    1  0.2733606E-009  0.7063577E+02  0.7561462E-02  0.1357944E+00
          1   -1    0    0  501    0  0.00000000000E+00  0.00000000000E+00  0.96689777490E+02  0.96689777490E+02  0.00000000000E+00 0. -1.
         -1   -1    0    0    0  501 -0.00000000000E+00 -0.00000000000E+00 -0.15150648904E+03  0.15150648904E+03  0.00000000000E+00 0.  1.
         25    2    1    2    0    0  0.45797170326E+02 -0.11710429302E+02 -0.18055933609E+01  0.13373997031E+03  0.12509438247E+03 0.  0.
          5    1    3    3  502    0  0.68333150779E+02 -0.16724800763E+02 -0.45681616843E+02  0.83984647248E+02  0.41800000000E+01 0.  1.
         -5    1    3    3    0  502 -0.22535980453E+02  0.50143714612E+01  0.43876023482E+02  0.49755323059E+02  0.41800000000E+01 0.  1.
        -11    1    1    2    0    0 -0.24247199898E+02  0.74690841422E+01  0.23665914953E+02  0.34695669058E+02  0.00000000000E+00 0. -1.
         11    1    1    2    0    0 -0.21549970428E+02  0.42413451598E+01 -0.76677033143E+02  0.79760627165E+02  0.00000000000E+00 0.  1.
</event>
<event>
 7    1  0.2733606E-009  0.1259345E+03  0.7561462E-02  0.1233616E+00
         -2   -1    0    0    0  501 -0.00000000000E+00  0.00000000000E+00  0.12248484015E+03  0.12248484015E+03  0.00000000000E+00 0.  1.
          2   -1    0    0  501    0  0.00000000000E+00 -0.00000000000E+00 -0.18361698401E+03  0.18361698401E+03  0.00000000000E+00 0. -1.
         25    2    1    2    0    0  0.58587488884E+02  0.62357729976E+02  0.24026435846E+02  0.15344919183E+03  0.12509358302E+03 0.  0.
          5    1    3    3  502    0 -0.18025738189E+01  0.74871433337E+02 -0.19914639789E+02  0.77608286157E+02  0.41800000000E+01 0.  1.
         -5    1    3    3    0  502  0.60390062703E+02 -0.12513703361E+02  0.43941075635E+02  0.75840905671E+02  0.41800000000E+01 0.  1.
        -11    1    1    2    0    0 -0.56538416845E+02 -0.79625174891E+02 -0.91808664212E+02  0.13403578582E+03  0.00000000000E+00 0. -1.
         11    1    1    2    0    0 -0.20490720386E+01  0.17267444915E+02  0.66500845052E+01  0.18616846512E+02  0.00000000000E+00 0.  1.
</event>
<event>
 7    1  0.3688449E-009  0.1876693E+03  0.7561462E-02  0.1160580E+00
         -1   -1    0    0    0  501 -0.00000000000E+00  0.00000000000E+00  0.27436076626E+03  0.27436076626E+03  0.00000000000E+00 0.  1.
          1   -1    0    0  501    0  0.00000000000E+00 -0.00000000000E+00 -0.16275493939E+03  0.16275493939E+03  0.00000000000E+00 0. -1.
         25    2    1    2    0    0 -0.55337752361E+02  0.14666075367E+03  0.15143632761E+03  0.25130302582E+03  0.12509438822E+03 0.  0.
          5    1    3    3  502    0 -0.67828825546E+02  0.17752251598E+02  0.63642536209E+02  0.94782576600E+02  0.41800000000E+01 0. -1.
         -5    1    3    3    0  502  0.12491073186E+02  0.12890850207E+03  0.87793791402E+02  0.15652044922E+03  0.41800000000E+01 0. -1.
        -11    1    1    2    0    0  0.67597028535E+02 -0.67897465312E+02  0.19210832912E+01  0.95828568932E+02  0.00000000000E+00 0.  1.
         11    1    1    2    0    0 -0.12259276174E+02 -0.78763288355E+02 -0.41751584039E+02  0.89984110901E+02  0.00000000000E+00 0. -1.
</event>
<event>
 7    1  0.2733606E-009  0.2852082E+03  0.7561462E-02  0.1092878E+00
          1   -1    0    0  501    0  0.00000000000E+00  0.00000000000E+00  0.84224367480E+02  0.84224367480E+02  0.00000000000E+00 0. -1.
         -1   -1    0    0    0  501 -0.00000000000E+00 -0.00000000000E+00 -0.11350687668E+04  0.11350687668E+04  0.00000000000E+00 0.  1.
         25    2    1    2    0    0  0.16438113794E+03  0.22428919434E+03 -0.37975659634E+03  0.48702023463E+03  0.12508731057E+03 0.  0.
          5    1    3    3  502    0  0.11369467623E+03  0.18663535303E+03 -0.35921318986E+03  0.42048879007E+03  0.41800000000E+01 0.  1.
         -5    1    3    3    0  502  0.50686461704E+02  0.37653841309E+02 -0.20543406484E+02  0.66531444561E+02  0.41800000000E+01 0.  1.
        -11    1    1    2    0    0 -0.11623331929E+03 -0.20699706743E+03 -0.59473667125E+03  0.64036683126E+03  0.00000000000E+00 0.  1.
         11    1    1    2    0    0 -0.48147818644E+02 -0.17292126908E+02 -0.76351131769E+02  0.91906068437E+02  0.00000000000E+00 0. -1.
</event>
<event>
 7    1  0.2733606E-009  0.9103681E+02  0.7561462E-02  0.1300360E+00
         -1   -1    0    0    0  501 -0.00000000000E+00  0.00000000000E+00  0.63350831248E+02  0.63350831248E+02  0.00000000000E+00 0.  1.
          1   -1    0    0  501    0  0.00000000000E+00 -0.00000000000E+00 -0.18281588475E+03  0.18281588475E+03  0.00000000000E+00 0. -1.
         25    2    1    2    0    0  0.40062092071E+02  0.13684677294E+02 -0.62027799542E+02  0.14590682075E+03  0.12509640607E+03 0.  0.
          5    1    3    3  502    0  0.38424106751E+02 -0.51705957522E+02 -0.43325192095E+02  0.77746142624E+02  0.41800000000E+01 0. -1.
         -5    1    3    3    0  502  0.16379853198E+01  0.65390634816E+02 -0.18702607448E+02  0.68160678128E+02  0.41800000000E+01 0. -1.
        -11    1    1    2    0    0 -0.13286636727E+02 -0.20421892729E+02  0.10798788686E+02  0.26649620171E+02  0.00000000000E+00 0.  1.
         11    1    1    2    0    0 -0.26775455343E+02  0.67372154350E+01 -0.68236042648E+02  0.73610275077E+02  0.00000000000E+00 0. -1.
</event>
<event>
 7    1  0.2733606E-009  0.1158314E+03  0.7561462E-02  0.1250137E+00
         -1   -1    0    0    0  501 -0.00000000000E+00  0.00000000000E+00  0.71256720885E+02  0.71256720885E+02  0.00000000000E+00 0.  1.
          1   -1    0    0  501    0  0.00000000000E+00 -0.00000000000E+00 -0.28982742613E+03  0.28982742613E+03  0.00000000000E+00 0. -1.
         25    2    1    2    0    0 -0.53833027544E+02  0.46106407015E+02 -0.19689251919E+03  0.24379933522E+03  0.12509059165E+03 0.  0.
          5    1    3    3  502    0 -0.86471615098E+02  0.15348106748E+02 -0.16986357043E+03  0.19126946844E+03  0.41800000000E+01 0.  1.
         -5    1    3    3    0  502  0.32638587555E+02  0.30758300267E+02 -0.27028948762E+02  0.52529866781E+02  0.41800000000E+01 0.  1.
        -11    1    1    2    0    0  0.98621767837E+01 -0.53245514194E+02  0.18572075318E+02  0.57247439194E+02  0.00000000000E+00 0.  1.
         11    1    1    2    0    0  0.43970850760E+02  0.71391071790E+01 -0.40250261371E+02  0.60037372596E+02  0.00000000000E+00 0. -1.
</event>
<event>
 7    1  0.2733606E-009  0.1158757E+03  0.7561462E-02  0.1250060E+00
          2   -1    0    0  501    0  0.00000000000E+00  0.00000000000E+00  0.49808995694E+03  0.49808995694E+03  0.00000000000E+00 0. -1.
         -2   -1    0    0    0  501 -0.00000000000E+00 -0.00000000000E+00 -0.48181481452E+02  0.48181481452E+02  0.00000000000E+00 0.  1.
         25    2    1    2    0    0 -0.44857735289E+02 -0.49673306852E+02  0.39623462006E+03  0.42086798342E+03  0.12509329120E+03 0.  0.
          5    1    3    3  502    0  0.24334014057E+02 -0.60295805712E+02  0.12814190667E+03  0.14375517059E+03  0.41800000000E+01 0.  1.
         -5    1    3    3    0  502 -0.69191749346E+02  0.10622498859E+02  0.26809271339E+03  0.27711281282E+03  0.41800000000E+01 0.  1.
        -11    1    1    2    0    0  0.29006706014E+01 -0.17243928011E+02  0.42087097382E+02  0.45575110634E+02  0.00000000000E+00 0. -1.
         11    1    1    2    0    0  0.41957064687E+02  0.66917234863E+02  0.11586758049E+02  0.79828344346E+02  0.00000000000E+00 0.  1.
</event>
<event>
 7    1  0.2733606E-009  0.8889684E+02  0.7561462E-02  0.1305545E+00
         -1   -1    0    0    0  501 -0.00000000000E+00  0.00000000000E+00  0.48725916706E+02  0.48725916706E+02  0.00000000000E+00 0.  1.
          1   -1    0    0  501    0  0.00000000000E+00 -0.00000000000E+00 -0.30286930038E+03  0.30286930038E+03  0.00000000000E+00 0. -1.
         25    2    1    2    0    0  0.34425193823E+02  0.22999099705E+02 -0.91811636809E+02  0.16059775930E+03  0.12509280987E+03 0.  0.
          5    1    3    3  502    0 -0.43051379108E+01  0.39413042391E+02 -0.10816077167E+03  0.11527422544E+03  0.41800000000E+01 0. -1.
         -5    1    3    3    0  502  0.38730331734E+02 -0.16413942686E+02  0.16349134859E+02  0.45323533858E+02  0.41800000000E+01 0. -1.
        -11    1    1    2    0    0 -0.73210907191E+01 -0.53989467751E+02 -0.61946029664E+02  0.82497100485E+02  0.00000000000E+00 0.  1.
         11    1    1    2    0    0 -0.27104103104E+02  0.30990368046E+02 -0.10038571720E+03  0.10850035731E+03  0.00000000000E+00 0. -1.
</event>
<event>
 7    1  0.2733606E-009  0.2115773E+03  0.7561462E-02  0.1140323E+00
         -3   -1    0    0    0  501 -0.00000000000E+00  0.00000000000E+00  0.48156123734E+03  0.48156123734E+03  0.00000000000E+00 0.  1.
          3   -1    0    0  501    0  0.00000000000E+00 -0.00000000000E+00 -0.11373805416E+03  0.11373805416E+03  0.00000000000E+00 0. -1.
         25    2    1    2    0    0  0.19969397065E+03  0.23093215473E+02  0.24958040802E+03  0.34401975343E+03  0.12509289416E+03 0.  0.
          5    1    3    3  502    0  0.90703923869E+02  0.28018800269E+02  0.31456068295E+02  0.10009601194E+03  0.41800000000E+01 0.  1.
         -5    1    3    3    0  502  0.10899004678E+03 -0.49255847961E+01  0.21812433972E+03  0.24392374149E+03  0.41800000000E+01 0.  1.
        -11    1    1    2    0    0 -0.18424913838E+03 -0.47309582556E+02  0.88077765691E+02  0.20962737036E+03  0.00000000000E+00 0.  1.
         11    1    1    2    0    0 -0.15444832265E+02  0.24216367083E+02  0.30165009466E+02  0.41652167704E+02  0.00000000000E+00 0. -1.
</event>
<event>
 7    1  0.2733606E-009  0.1376818E+03  0.7561462E-02  0.1216483E+00
         -1   -1    0    0    0  501 -0.00000000000E+00  0.00000000000E+00  0.84528377316E+02  0.84528377316E+02  0.00000000000E+00 0.  1.
          1   -1    0    0  501    0  0.00000000000E+00 -0.00000000000E+00 -0.40053328193E+03  0.40053328193E+03  0.00000000000E+00 0. -1.
         25    2    1    2    0    0 -0.10836540213E+03  0.56934304910E+02 -0.60374140149E+02  0.18513209753E+03  0.12507710135E+03 0.  0.
          5    1    3    3  502    0 -0.11294610197E+03  0.32291695378E+02  0.22303001817E+01  0.11756709650E+03  0.41800000000E+01 0.  1.
         -5    1    3    3    0  502  0.45806998354E+01  0.24642609531E+02 -0.62604440331E+02  0.67565001033E+02  0.41800000000E+01 0.  1.
        -11    1    1    2    0    0  0.73048040199E+02 -0.10091483772E+02 -0.58125494315E+02  0.93895832234E+02  0.00000000000E+00 0.  1.
         11    1    1    2    0    0  0.35317361935E+02 -0.46842821137E+02 -0.19750527015E+03  0.20603372948E+03  0.00000000000E+00 0. -1.
</event>
<event>
 7    1  0.3231303E-009  0.1484549E+03  0.7561462E-02  0.1202385E+00
         -4   -1    0    0    0  501 -0.00000000000E+00  0.00000000000E+00  0.59556501151E+02  0.59556501151E+02  0.00000000000E+00 0.  1.
          4   -1    0    0  501    0  0.00000000000E+00 -0.00000000000E+00 -0.46801794510E+03  0.46801794510E+03  0.00000000000E+00 0. -1.
         25    2    1    2    0    0 -0.11630513440E+03 -0.38784386428E+02 -0.16815870739E+03  0.24280701218E+03  0.12508709515E+03 0.  0.
          5    1    3    3  502    0  0.13338361741E+02 -0.26674051555E+02 -0.32312082035E-01  0.30114620442E+02  0.41800000000E+01 0.  1.
         -5    1    3    3    0  502 -0.12964349614E+03 -0.12110334873E+02 -0.16812639531E+03  0.21269239174E+03  0.41800000000E+01 0.  1.
        -11    1    1    2    0    0  0.62716342321E+02  0.51835591186E+02 -0.75566140303E+02  0.11104282808E+03  0.00000000000E+00 0.  1.
         11    1    1    2    0    0  0.53588792079E+02 -0.13051204758E+02 -0.16473659625E+03  0.17372460599E+03  0.00000000000E+00 0. -1.
</event>
<event>
 7    1  0.2733606E-009  0.5250358E+02  0.7561462E-02  0.1432287E+00
          2   -1    0    0  501    0  0.00000000000E+00  0.00000000000E+00  0.39315859934E+02  0.39315859934E+02  0.00000000000E+00 0. -1.
         -2   -1    0    0    0  501 -0.00000000000E+00 -0.00000000000E+00 -0.39136066259E+03  0.39136066259E+03  0.00000000000E+00 0.  1.
         25    2    1    2    0    0 -0.27032253587E+02 -0.18083013485E+01 -0.29465741167E+03  0.32125481619E+03  0.12509058311E+03 0.  0.
          5    1    3    3  502    0 -0.15941830984E+02  0.11493500535E+01 -0.30487937658E+03  0.30532666055E+03  0.41800000000E+01 0. -1.
         -5    1    3    3    0  502 -0.11090422603E+02 -0.29576514020E+01  0.10221964909E+02  0.15928155635E+02  0.41800000000E+01 0. -1.
        -11    1    1    2    0    0 -0.18517670751E+02 -0.18699926198E+02 -0.53125185274E+02  0.59286395406E+02  0.00000000000E+00 0.  1.
         11    1    1    2    0    0  0.45549924338E+02  0.20508227547E+02 -0.42622057065E+01  0.50135310927E+02  0.00000000000E+00 0. -1.
</event>
<event>
 7    1  0.2733606E-009  0.9275869E+02  0.7561462E-02  0.1296305E+00
         -1   -1    0    0    0  501 -0.00000000000E+00  0.00000000000E+00  0.34766817419E+03  0.34766817419E+03  0.00000000000E+00 0.  1.
          1   -1    0    0  501    0  0.00000000000E+00 -0.00000000000E+00 -0.51420322591E+02  0.51420322591E+02  0.00000000000E+00 0. -1.
         25    2    1    2    0    0  0.75780951937E+02 -0.55766304844E+01  0.14005469064E+03  0.20257510860E+03  0.12508999469E+03 0.  0.
          5    1    3    3  502    0  0.82405968437E+02  0.21609646892E+01  0.15986201032E+03  0.17991316835E+03  0.41800000000E+01 0.  1.
         -5    1    3    3    0  502 -0.66250165002E+01 -0.77375951736E+01 -0.19807319684E+02  0.22661940247E+02  0.41800000000E+01 0.  1.
        -11    1    1    2    0    0 -0.18726499784E+02 -0.21753870372E+02  0.12050953750E+03  0.12388083508E+03  0.00000000000E+00 0.  1.
         11    1    1    2    0    0 -0.57054452153E+02  0.27330500857E+02  0.35683623462E+02  0.72632553107E+02  0.00000000000E+00 0. -1.
</event>
<event>
 7    1  0.2733606E-009  0.1333646E+03  0.7561462E-02  0.1222547E+00
         -1   -1    0    0    0  501 -0.00000000000E+00  0.00000000000E+00  0.54835136773E+02  0.54835136773E+02  0.00000000000E+00 0.  1.
          1   -1    0    0  501    0  0.00000000000E+00 -0.00000000000E+00 -0.42825799078E+03  0.42825799078E+03  0.00000000000E+00 0. -1.
         25    2    1    2    0    0  0.78980019667E+02 -0.55513325699E+02 -0.12762472937E+03  0.20310961992E+03  0.12508346543E+03 0.  0.
          5    1    3    3  502    0 -0.18271684772E+02 -0.47341343630E+02 -0.13083227586E+02  0.52570909495E+02  0.41800000000E+01 0.  1.
         -5    1    3    3    0  502  0.97251704439E+02 -0.81719820690E+01 -0.11454150178E+03  0.15053871043E+03  0.41800000000E+01 0.  1.
        -11    1    1    2    0    0 -0.58045251182E+02 -0.79891577552E+00 -0.18745716020E+03  0.19623984397E+03  0.00000000000E+00 0. -1.
         11    1    1    2    0    0 -0.20934768485E+02  0.56312241474E+02 -0.58340964446E+02  0.83743663664E+02  0.00000000000E+00 0.  1.
</event>
<event>
 7    1  0.2733606E-009  0.1090227E+03  0.7561462E-02  0.1262390E+00
          2   -1    0    0  501    0  0.00000000000E+00  0.00000000000E+00  0.35379549853E+03  0.35379549853E+03  0.00000000000E+00 0. -1.
         -2   -1    0    0    0  501 -0.00000000000E+00 -0.00000000000E+00 -0.34654508521E+02  0.34654508521E+02  0.00000000000E+00 0.  1.
         25    2    1    2    0    0 -0.10808439078E+02 -0.19755595483E+02  0.18797791507E+03  0.22691373094E+03  0.12508812426E+03 0.  0.
          5    1    3    3  502    0 -0.53217652564E+02  0.27602191064E+02  0.65730431966E+02  0.89061560633E+02  0.41800000000E+01 0.  1.
         -5    1    3    3    0  502  0.42409213486E+02 -0.47357786547E+02  0.12224748310E+03  0.13785217031E+03  0.41800000000E+01 0.  1.
        -11    1    1    2    0    0 -0.38931748970E+02 -0.39678854865E+01  0.51975511704E+02  0.65060579539E+02  0.00000000000E+00 0. -1.
         11    1    1    2    0    0  0.49740188048E+02  0.23723480970E+02  0.79187563239E+02  0.96475696567E+02  0.00000000000E+00 0.  1.
</event>
<event>
 7    1  0.2733606E-009  0.8413709E+02  0.7561462E-02  0.1317705E+00
         -1   -1    0    0    0  501 -0.00000000000E+00  0.00000000000E+00  0.80084201271E+02  0.80084201271E+02  0.00000000000E+00 0.  1.
          1   -1    0    0  501    0  0.00000000000E+00 -0.00000000000E+00 -0.22611049351E+03  0.22611049351E+03  0.00000000000E+00 0. -1.
         25    2    1    2    0    0 -0.34755114909E+02  0.67586673423E+02 -0.56672971601E+02  0.15695110347E+03  0.12508375887E+03 0.  0.
          5    1    3    3  502    0 -0.16120025320E+02  0.62369024506E+02 -0.94390200379E+02  0.11435354285E+03  0.41800000000E+01 0. -1.
         -5    1    3    3    0  502 -0.18635089589E+02  0.52176489173E+01  0.37717228778E+02  0.42597560621E+02  0.41800000000E+01 0. -1.
        -11    1    1    2    0    0  0.36106202973E+02 -0.31810200321E+02 -0.10076635177E+03  0.11166648730E+03  0.00000000000E+00 0. -1.
         11    1    1    2    0    0 -0.13510880639E+01 -0.35776473102E+02  0.11413031127E+02  0.37577104014E+02  0.00000000000E+00 0.  1.
</event>
<event>
 7    1  0.2733606E-009  0.1839613E+03  0.7561462E-02  0.1164023E+00
          2   -1    0    0  501    0  0.00000000000E+00  0.00000000000E+00  0.16077389721E+03  0.16077389721E+03  0.00000000000E+00 0. -1.
         -2   -1    0    0    0  501 -0.00000000000E+00 -0.00000000000E+00 -0.27976911382E+03  0.27976911382E+03  0.00000000000E+00 0.  1.
         25    2    1    2    0    0 -0.12424477362E+03  0.11935439491E+03  0.85253422226E+00  0.21290837880E+03  0.12508803138E+03 0.  0.
          5    1    3    3  502    0 -0.11766870388E+03  0.65008580693E+02  0.45666949662E+02  0.14203866420E+03  0.41800000000E+01 0.  1.
         -5    1    3    3    0  502 -0.65760697364E+01  0.54345814219E+02 -0.44814415439E+02  0.70869714600E+02  0.41800000000E+01 0.  1.
        -11    1    1    2    0    0  0.77757241498E+02 -0.42263222598E+02 -0.10343236781E+03  0.13612723203E+03  0.00000000000E+00 0.  1.
         11    1    1    2    0    0  0.46487532122E+02 -0.77091172314E+02 -0.16415383019E+02  0.91507400199E+02  0.00000000000E+00 0. -1.
</event>
<event>
 7    1  0.2733606E-009  0.6459603E+02  0.7561462E-02  0.1379498E+00
          4   -1    0    0  501    0  0.00000000000E+00  0.00000000000E+00  0.23283366399E+02  0.23283366399E+02  0.00000000000E+00 0. -1.
         -4   -1    0    0    0  501 -0.00000000000E+00 -0.00000000000E+00 -0.56618546850E+03  0.56618546850E+03  0.00000000000E+00 0.  1.
         25    2    1    2    0    0  0.19252602360E+02 -0.28941901773E+02 -0.29643816890E+03  0.32362303478E+03  0.12509190335E+03 0.  0.
          5    1    3    3  502    0  0.15001185844E+02 -0.24421290973E+02 -0.30826795968E+03  0.30962564880E+03  0.41800000000E+01 0.  1.
         -5    1    3    3    0  502  0.42514165153E+01 -0.45206107999E+01  0.11829790780E+02  0.13997385981E+02  0.41800000000E+01 0.  1.
        -11    1    1    2    0    0  0.15605447574E+01  0.57437560005E+02 -0.10136517262E+03  0.11651783906E+03  0.00000000000E+00 0. -1.
         11    1    1    2    0    0 -0.20813147117E+02 -0.28495658233E+02 -0.14509876058E+03  0.14932796105E+03  0.00000000000E+00 0.  1.
</event>
<event>
 7    1  0.4293400E-009  0.2873129E+03  0.7561462E-02  0.1091761E+00
          2   -1    0    0  501    0  0.00000000000E+00  0.00000000000E+00  0.14290393097E+04  0.14290393097E+04  0.00000000000E+00 0. -1.
         -2   -1    0    0    0  501 -0.00000000000E+00 -0.00000000000E+00 -0.65761729905E+02  0.65761729905E+02  0.00000000000E+00 0.  1.
         25    2    1    2    0    0 -0.15469605017E+03  0.23604831294E+03  0.81277084015E+03  0.86942138068E+03  0.12508966626E+03 0.  0.
          5    1    3    3  502    0 -0.77744463669E+02  0.15675065076E+03  0.64624834392E+03  0.66952920964E+03  0.41800000000E+01 0.  1.
         -5    1    3    3    0  502 -0.76951586499E+02  0.79297662175E+02  0.16652249623E+03  0.19989217104E+03  0.41800000000E+01 0.  1.
        -11    1    1    2    0    0  0.87045982905E+02 -0.77096937124E+02  0.29366476549E+03  0.31584796239E+03  0.00000000000E+00 0. -1.
         11    1    1    2    0    0  0.67650067263E+02 -0.15895137581E+03  0.25684197414E+03  0.30953169652E+03  0.00000000000E+00 0.  1.
</event>
<event>
 7    1  0.2733606E-009  0.1129332E+03  0.7561462E-02  0.1255232E+00
         -3   -1    0    0    0  501 -0.00000000000E+00  0.00000000000E+00  0.30830348832E+02  0.30830348832E+02  0.00000000000E+00 0.  1.
          3   -1    0    0  501    0  0.00000000000E+00 -0.00000000000E+00 -0.49829718074E+03  0.49829718074E+03  0.00000000000E+00 0. -1.
         25    2    1    2    0    0 -0.15332140790E+02 -0.53575792324E+02 -0.31956706494E+03  0.34767191587E+03  0.12508881654E+03 0.  0.
          5    1    3    3  502    0  0.42287981184E+02  0.77600560846E+01 -0.54547112273E+02  0.69579822365E+02  0.41800000000E+01 0. -1.
         -5    1    3    3    0  502 -0.57620121975E+02 -0.61335848409E+02 -0.26501995267E+03  0.27809209350E+03  0.41800000000E+01 0. -1.
        -11    1    1    2    0    0  0.24893090551E+02  0.72800779224E+02 -0.83366697980E+02  0.11344437291E+03  0.00000000000E+00 0.  1.
         11    1    1    2    0    0 -0.95609497606E+01 -0.19224986899E+02 -0.64533068987E+02  0.68011240795E+02  0.00000000000E+00 0. -1.
</event>
<event>
 7    1  0.2733606E-009  0.1356535E+03  0.7561462E-02  0.1219300E+00
         -2   -1    0    0    0  501 -0.00000000000E+00  0.00000000000E+00  0.78475911582E+02  0.78475911582E+02  0.00000000000E+00 0.  1.
          2   -1    0    0  501    0  0.00000000000E+00 -0.00000000000E+00 -0.45452363264E+03  0.45452363264E+03  0.00000000000E+00 0. -1.
         25    2    1    2    0    0  0.53724676169E+02 -0.86628214296E+02 -0.36205878902E+03  0.39638904745E+03  0.12508765684E+03 0.  0.
          5    1    3    3  502    0  0.58302350485E+02 -0.11181081843E+03 -0.33888554073E+03  0.36160987999E+03  0.41800000000E+01 0. -1.
         -5    1    3    3    0  502 -0.45776743162E+01  0.25182604134E+02 -0.23173248287E+02  0.34779167461E+02  0.41800000000E+01 0. -1.
        -11    1    1    2    0    0  0.30398783603E+01  0.53285566296E+02 -0.39088660294E+02  0.66155240151E+02  0.00000000000E+00 0.  1.
         11    1    1    2    0    0 -0.56764554529E+02  0.33342648001E+02  0.25099728256E+02  0.70455256618E+02  0.00000000000E+00 0. -1.
</event>
<event>
 7    1  0.2733606E-009  0.1502485E+03  0.7561462E-02  0.1200168E+00
          2   -1    0    0  501    0  0.00000000000E+00  0.00000000000E+00  0.12395226934E+04  0.12395226934E+04  0.00000000000E+00 0. -1.
         -2   -1    0    0    0  501 -0.00000000000E+00 -0.00000000000E+00 -0.22509025968E+02  0.22509025968E+02  0.00000000000E+00 0.  1.
         25    2    1    2    0    0  0.79720178022E+02 -0.10272261673E+03  0.68462475126E+03  0.70799993075E+03  0.12508240935E+03 0.  0.
          5    1    3    3  502    0 -0.12602305903E+02  0.13580043581E+02  0.22634554971E+02  0.29547100983E+02  0.41800000000E+01 0. -1.
         -5    1    3    3    0  502  0.92322483925E+02 -0.11630266031E+03  0.66199019629E+03  0.67845282976E+03  0.41800000000E+01 0. -1.
        -11    1    1    2    0    0 -0.28377655182E+02  0.59187847347E+02  0.12566638492E+03  0.14177634812E+03  0.00000000000E+00 0.  1.
         11    1    1    2    0    0 -0.51342522840E+02  0.43534769378E+02  0.40672253128E+03  0.41225544053E+03  0.00000000000E+00 0. -1.
</event>
<event>
 7    1  0.4131660E-009  0.1284057E+03  0.7561462E-02  0.1229841E+00
         -1   -1    0    0    0  501 -0.00000000000E+00  0.00000000000E+00  0.75376822383E+02  0.75376822383E+02  0.00000000000E+00 0.  1.
          1   -1    0    0  501    0  0.00000000000E+00 -0.00000000000E+00 -0.31331414646E+03  0.31331414646E+03  0.00000000000E+00 0. -1.
         25    2    1    2    0    0  0.43520055725E+02  0.91283630336E+02 -0.17724743558E+03  0.23936033127E+03  0.12510003337E+03 0.  0.
          5    1    3    3  502    0  0.52051427717E+02 -0.10445523404E+02 -0.91975680879E+02  0.10628009390E+03  0.41800000000E+01 0.  1.
         -5    1    3    3    0  502 -0.85313719917E+01  0.10172915374E+03 -0.85271754706E+02  0.13308023737E+03  0.41800000000E+01 0.  1.
        -11    1    1    2    0    0 -0.24580557652E+02 -0.43146304917E+02  0.19958675670E+02  0.53517811773E+02  0.00000000000E+00 0.  1.
         11    1    1    2    0    0 -0.18939498073E+02 -0.48137325419E+02 -0.80648564164E+02  0.95812825799E+02  0.00000000000E+00 0. -1.
</event>
<event>
 7    1  0.2733606E-009  0.1381664E+03  0.7561462E-02  0.1215818E+00
          2   -1    0    0  501    0  0.00000000000E+00  0.00000000000E+00  0.23522947540E+03  0.23522947540E+03  0.00000000000E+00 0. -1.
         -2   -1    0    0    0  501 -0.00000000000E+00 -0.00000000000E+00 -0.10386762590E+03  0.10386762590E+03  0.00000000000E+00 0.  1.
         25    2    1    2    0    0 -0.81613257999E+02 -0.74237149186E+02  0.93367715480E+02  0.19114471358E+03  0.12508754149E+03 0.  0.
          5    1    3    3  502    0 -0.50986508787E+02  0.25171444813E+02  0.10247041423E+02  0.57928403829E+02  0.41800000000E+01 0.  1.
         -5    1    3    3    0  502 -0.30626749213E+02 -0.99408593999E+02  0.83120674058E+02  0.13321630975E+03  0.41800000000E+01 0.  1.
        -11    1    1    2    0    0  0.36817900504E+02  0.55625348510E+02 -0.22511723135E+02  0.70402520359E+02  0.00000000000E+00 0.  1.
         11    1    1    2    0    0  0.44795357495E+02  0.18611800676E+02  0.60505857159E+02  0.77549867363E+02  0.00000000000E+00 0. -1.
</event>
<event>
 7    1  0.2733606E-009  0.1921270E+03  0.7561462E-02  0.1156557E+00
         -2   -1    0    0    0  501 -0.00000000000E+00  0.00000000000E+00  0.34225103763E+02  0.34225103763E+02  0.00000000000E+00 0.  1.
          2   -1    0    0  501    0  0.00000000000E+00 -0.00000000000E+00 -0.12621243019E+04  0.12621243019E+04  0.00000000000E+00 0. -1.
         25    2    1    2    0    0  0.55714886041E+02 -0.16692619980E+03 -0.57985198264E+03  0.61874530735E+03  0.12509567898E+03 0.  0.
          5    1    3    3  502    0 -0.21190681075E+02 -0.10796726901E+02 -0.19325309084E+03  0.19475585690E+03  0.41800000000E+01 0. -1.
         -5    1    3    3    0  502  0.76905567116E+02 -0.15612947290E+03 -0.38659889180E+03  0.42398945046E+03  0.41800000000E+01 0. -1.
        -11    1    1    2    0    0  0.12315767053E+02  0.14048917845E+02 -0.18863006252E+02  0.26549260170E+02  0.00000000000E+00 0.  1.
         11    1    1    2    0    0 -0.68030653094E+02  0.15287728195E+03 -0.62918420924E+03  0.65105483813E+03  0.00000000000E+00 0. -1.
</event>
<event>
 7    1  0.2733606E-009  0.1124263E+03  0.7561462E-02  0.1256142E+00
         -1   -1    0    0    0  501 -0.00000000000E+00  0.00000000000E+00  0.25236496884E+03  0.25236496884E+03  0.00000000000E+00 0.  1.
          1   -1    0    0  501    0  0.00000000000E+00 -0.00000000000E+00 -0.53062689836E+02  0.53062689836E+02  0.00000000000E+00 0. -1.
         25    2    1    2    0    0  0.41365324369E+02 -0.12409944956E+02  0.11051473406E+03  0.17241387655E+03  0.12509173269E+03 0.  0.
          5    1    3    3  502    0  0.84746762623E+02 -0.18820083480E+02  0.61247060575E+02  0.10632442874E+03  0.41800000000E+01 0.  1.
         -5    1    3    3    0  502 -0.43381438254E+02  0.64101385244E+01  0.49267673487E+02  0.66089447809E+02  0.41800000000E+01 0.  1.
        -11    1    1    2    0    0 -0.10139296279E+02 -0.35378986349E+02  0.15051205690E+02  0.39762001922E+02  0.00000000000E+00 0. -1.
         11    1    1    2    0    0 -0.31226028089E+02  0.47788931305E+02  0.73736339248E+02  0.93251780204E+02  0.00000000000E+00 0.  1.
</event>
<event>
 7    1  0.2733606E-009  0.1110611E+03  0.7561462E-02  0.1258617E+00
          1   -1    0    0  501    0  0.00000000000E+00  0.00000000000E+00  0.13123983557E+03  0.13123983557E+03  0.00000000000E+00 0. -1.
         -1   -1    0    0    0  501 -0.00000000000E+00 -0.00000000000E+00 -0.14038212696E+03  0.14038212696E+03  0.00000000000E+00 0.  1.
         25    2    1    2    0    0 -0.28322292997E+02  0.75774779906E+02 -0.20445779986E+02  0.15036185462E+03  0.12508672134E+03 0.  0.
          5    1    3    3  502    0  0.35424149852E+02  0.37454226165E+02 -0.48359863818E+02  0.70808461915E+02  0.41800000000E+01 0.  1.
         -5    1    3    3    0  502 -0.63746442848E+02  0.38320553741E+02  0.27914083831E+02  0.79553392705E+02  0.41800000000E+01 0.  1.
        -11    1    1    2    0    0 -0.53463741595E+01 -0.57205992608E+02  0.42728712250E+02  0.71602040176E+02  0.00000000000E+00 0. -1.
         11    1    1    2    0    0  0.33668667156E+02 -0.18568787298E+02 -0.31425223655E+02  0.49658067739E+02  0.00000000000E+00 0.  1.
</event>
<event>
 7    1  0.2733606E-009  0.1110760E+03  0.7561462E-02  0.1258590E+00
         -2   -1    0    0    0  501 -0.00000000000E+00  0.00000000000E+00  0.24687749974E+03  0.24687749974E+03  0.00000000000E+00 0.  1.
          2   -1    0    0  501    0  0.00000000000E+00 -0.00000000000E+00 -0.61776817878E+02  0.61776817878E+02  0.00000000000E+00 0. -1.
         25    2    1    2    0    0  0.19667469911E+02  0.41414282867E+02  0.57020460660E+02  0.14492045173E+03  0.12509457302E+03 0.  0.
          5    1    3    3  502    0 -0.23060288996E+02 -0.30261310633E+02  0.47240941750E+02  0.60800516669E+02  0.41800000000E+01 0.  1.
         -5    1    3    3    0  502  0.42727758907E+02  0.71675593499E+02  0.97795189100E+01  0.84119935062E+02  0.41800000000E+01 0.  1.
        -11    1    1    2    0    0  0.41790619286E+00 -0.67446098057E+02  0.71489809587E+02  0.98285012405E+02  0.00000000000E+00 0. -1.
         11    1    1    2    0    0 -0.20085376104E+02  0.26031815190E+02  0.56590411612E+02  0.65448853479E+02  0.00000000000E+00 0.  1.
</event>
<event>
 7    1  0.2733606E-009  0.1114449E+03  0.7561462E-02  0.1257917E+00
         -1   -1    0    0    0  501 -0.00000000000E+00  0.00000000000E+00  0.24090339370E+03  0.24090339370E+03  0.00000000000E+00 0.  1.
          1   -1    0    0  501    0  0.00000000000E+00 -0.00000000000E+00 -0.58139742828E+02  0.58139742828E+02  0.00000000000E+00 0. -1.
         25    2    1    2    0    0  0.32353033839E+02 -0.33763976656E+02  0.12170993822E+03  0.18068738477E+03  0.12509155462E+03 0.  0.
          5    1    3    3  502    0 -0.39827214992E+02 -0.32887104267E+02  0.19242233650E+02  0.55276619261E+02  0.41800000000E+01 0.  1.
         -5    1    3    3    0  502  0.72180248831E+02 -0.87687238859E+00  0.10246770457E+03  0.12541076551E+03  0.41800000000E+01 0.  1.
        -11    1    1    2    0    0 -0.73337488792E+01 -0.29676003089E+02  0.31924455177E+02  0.44199772289E+02  0.00000000000E+00 0.  1.
         11    1    1    2    0    0 -0.25019284960E+02  0.63439979745E+02  0.29129257480E+02  0.74155979471E+02  0.00000000000E+00 0. -1.
</event>
<event>
 7    1  0.2733606E-009  0.2057269E+03  0.7561462E-02  0.1144995E+00
          2   -1    0    0  501    0  0.00000000000E+00  0.00000000000E+00  0.63158596901E+03  0.63158596901E+03  0.00000000000E+00 0.  1.
         -2   -1    0    0    0  501 -0.00000000000E+00 -0.00000000000E+00 -0.17333631078E+03  0.17333631078E+03  0.00000000000E+00 0. -1.
         25    2    1    2    0    0 -0.11555736731E+03 -0.13596847657E+03  0.54481084398E+03  0.58677729365E+03  0.12509118620E+03 0.  0.
          5    1    3    3  502    0 -0.13692663173E+03 -0.13732417502E+03  0.51060187147E+03  0.54620378530E+03  0.41800000000E+01 0.  1.
         -5    1    3    3    0  502  0.21369264416E+02  0.13556984538E+01  0.34208972503E+02  0.40573508349E+02  0.41800000000E+01 0.  1.
        -11    1    1    2    0    0  0.80287492823E+02  0.32962553285E+02 -0.15591228606E+02  0.88179917398E+02  0.00000000000E+00 0.  1.
         11    1    1    2    0    0  0.35269874490E+02  0.10300592328E+03 -0.70969957144E+02  0.12996506875E+03  0.00000000000E+00 0. -1.
</event>
<event>
 7    1  0.2733606E-009  0.9307753E+02  0.7561462E-02  0.1295566E+00
          1   -1    0    0  501    0  0.00000000000E+00  0.00000000000E+00  0.15715685498E+03  0.15715685498E+03  0.00000000000E+00 0. -1.
         -1   -1    0    0    0  501 -0.00000000000E+00 -0.00000000000E+00 -0.75122084674E+02  0.75122084674E+02  0.00000000000E+00 0.  1.
         25    2    1    2    0    0  0.49076627113E+02 -0.24062943397E+02  0.79420480940E+02  0.15793010058E+03  0.12508702292E+03 0.  0.
          5    1    3    3  502    0  0.55282437499E+01 -0.68019417553E+02  0.18124338897E+02  0.70733066551E+02  0.41800000000E+01 0. -1.
         -5    1    3    3    0  502  0.43548383363E+02  0.43956474156E+02  0.61296142044E+02  0.87197034028E+02  0.41800000000E+01 0. -1.
        -11    1    1    2    0    0 -0.23314507188E+02  0.53367269457E+01 -0.23223446389E+02  0.33337296863E+02  0.00000000000E+00 0.  1.
         11    1    1    2    0    0 -0.25762119925E+02  0.18726216451E+02  0.25837735751E+02  0.41011542209E+02  0.00000000000E+00 0. -1.
</event>
<event>
 7    1  0.2733606E-009  0.9017503E+02  0.7561462E-02  0.1302428E+00
         -1   -1    0    0    0  501 -0.00000000000E+00  0.00000000000E+00  0.16764982626E+02  0.16764982626E+02  0.00000000000E+00 0.  1.
          1   -1    0    0  501    0  0.00000000000E+00 -0.00000000000E+00 -0.81020864313E+03  0.81020864313E+03  0.00000000000E+00 0. -1.
         25    2    1    2    0    0  0.18006029596E+01  0.26307457612E+02 -0.55871493594E+03  0.57315266738E+03  0.12508507499E+03 0.  0.
          5    1    3    3  502    0  0.30119781666E+02 -0.16376356397E+02 -0.44279292972E+02  0.56156161572E+02  0.41800000000E+01 0. -1.
         -5    1    3    3    0  502 -0.28319178706E+02  0.42683814008E+02 -0.51443564297E+03  0.51699650581E+03  0.41800000000E+01 0. -1.
        -11    1    1    2    0    0 -0.26022728532E+02 -0.52590062926E+02 -0.11867879962E+03  0.13239167118E+03  0.00000000000E+00 0.  1.
         11    1    1    2    0    0  0.24222125572E+02  0.26282605315E+02 -0.11604992494E+03  0.12142928720E+03  0.00000000000E+00 0. -1.
</event>
<event>
 7    1  0.2733606E-009  0.1042260E+03  0.7561462E-02  0.1271652E+00
          2   -1    0    0  501    0  0.00000000000E+00  0.00000000000E+00  0.99944423331E+02  0.99944423331E+02  0.00000000000E+00 0. -1.
         -2   -1    0    0    0  501 -0.00000000000E+00 -0.00000000000E+00 -0.20053708200E+03  0.20053708200E+03  0.00000000000E+00 0.  1.
         25    2    1    2    0    0 -0.48408049413E+02 -0.58200461771E+02 -0.10205433359E+03  0.17830324971E+03  0.12508528632E+03 0.  0.
          5    1    3    3  502    0 -0.69565662014E+02 -0.72883871187E+02 -0.11170139025E+03  0.15048625517E+03  0.41800000000E+01 0. -1.
         -5    1    3    3    0  502  0.21157612601E+02  0.14683409416E+02  0.96470566626E+01  0.27816994541E+02  0.41800000000E+01 0. -1.
        -11    1    1    2    0    0  0.37007614542E+02  0.59474999748E+02  0.40893449627E+02  0.81111733747E+02  0.00000000000E+00 0. -1.
         11    1    1    2    0    0  0.11400434871E+02 -0.12745379771E+01 -0.39431774709E+02  0.41066521877E+02  0.00000000000E+00 0.  1.
</event>
<event>
 7    1  0.2733606E-009  0.1362592E+03  0.7561462E-02  0.1218453E+00
          1   -1    0    0  501    0  0.00000000000E+00  0.00000000000E+00  0.44583788836E+03  0.44583788836E+03  0.00000000000E+00 0. -1.
         -1   -1    0    0    0  501 -0.00000000000E+00 -0.00000000000E+00 -0.68264661302E+02  0.68264661302E+02  0.00000000000E+00 0.  1.
         25    2    1    2    0    0 -0.10461792657E+03  0.85395004571E+02  0.19252877391E+03  0.26636833180E+03  0.12509013565E+03 0.  0.
          5    1    3    3  502    0 -0.22776931166E+02  0.23669680285E+02 -0.13851781568E+02  0.35894102729E+02  0.41800000000E+01 0. -1.
         -5    1    3    3    0  502 -0.81840995408E+02  0.61725324286E+02  0.20638055548E+03  0.23047422907E+03  0.41800000000E+01 0. -1.
        -11    1    1    2    0    0  0.91501700399E+02 -0.63811107735E+02  0.74031879355E+02  0.13388479304E+03  0.00000000000E+00 0.  1.
         11    1    1    2    0    0  0.13116226175E+02 -0.21583896836E+02  0.11101257379E+03  0.11384942482E+03  0.00000000000E+00 0. -1.
</event>
<event>
 7    1  0.2733606E-009  0.2285276E+03  0.7561462E-02  0.1127680E+00
         -2   -1    0    0    0  501 -0.00000000000E+00  0.00000000000E+00  0.72764084366E+02  0.72764084366E+02  0.00000000000E+00 0.  1.
          2   -1    0    0  501    0  0.00000000000E+00 -0.00000000000E+00 -0.10546702280E+04  0.10546702280E+04  0.00000000000E+00 0. -1.
         25    2    1    2    0    0 -0.91662541131E+02  0.20228668051E+03 -0.75425031861E+03  0.79615539133E+03  0.12509173217E+03 0.  0.
          5    1    3    3  502    0 -0.84896194565E+02  0.98600363110E+02 -0.56910779332E+03  0.58380694435E+03  0.41800000000E+01 0. -1.
         -5    1    3    3    0  502 -0.67663465657E+01  0.10368631740E+03 -0.18514252529E+03  0.21234844698E+03  0.41800000000E+01 0. -1.
        -11    1    1    2    0    0  0.64999648371E+02 -0.16220812748E+03 -0.11615127284E+03  0.20982742693E+03  0.00000000000E+00 0.  1.
         11    1    1    2    0    0  0.26662892760E+02 -0.40078553030E+02 -0.11150455217E+03  0.12145149409E+03  0.00000000000E+00 0. -1.
</event>
<event>
 7    1  0.2733606E-009  0.1128833E+03  0.7561462E-02  0.1255322E+00
          2   -1    0    0  501    0  0.00000000000E+00  0.00000000000E+00  0.30813619197E+02  0.30813619197E+02  0.00000000000E+00 0. -1.
         -2   -1    0    0    0  501 -0.00000000000E+00 -0.00000000000E+00 -0.55206443352E+03  0.55206443352E+03  0.00000000000E+00 0.  1.
         25    2    1    2    0    0 -0.69452581743E+02 -0.14836277680E+02 -0.26168530611E+03  0.29861307845E+03  0.12508714938E+03 0.  0.
          5    1    3    3  502    0 -0.21588078925E+02 -0.50630298424E+02 -0.21689159513E+03  0.22380551537E+03  0.41800000000E+01 0. -1.
         -5    1    3    3    0  502 -0.47864502817E+02  0.35794020744E+02 -0.44793710978E+02  0.74807563081E+02  0.41800000000E+01 0. -1.
        -11    1    1    2    0    0 -0.10426309726E+02 -0.20737689705E+02 -0.25925062764E+02  0.34797537099E+02  0.00000000000E+00 0.  1.
         11    1    1    2    0    0  0.79878891469E+02  0.35573967385E+02 -0.23364044545E+03  0.24946743717E+03  0.00000000000E+00 0. -1.
</event>
<event>
 7    1  0.2733606E-009  0.1164956E+03  0.7561462E-02  0.1248993E+00
          2   -1    0    0  501    0  0.00000000000E+00  0.00000000000E+00  0.27310325613E+04  0.27310325613E+04  0.00000000000E+00 0. -1.
         -2   -1    0    0    0  501 -0.00000000000E+00 -0.00000000000E+00 -0.99552494991E+01  0.99552494991E+01  0.00000000000E+00 0.  1.
         25    2    1    2    0    0  0.23047288256E+02  0.82247515587E+02  0.21800686667E+04  0.21853240599E+04  0.12508406786E+03 0.  0.
          5    1    3    3  502    0  0.16936431462E+02  0.95822283323E+02  0.91648693174E+03  0.92164772074E+03  0.41800000000E+01 0. -1.
         -5    1    3    3    0  502  0.61108567932E+01 -0.13574767736E+02  0.12635817349E+04  0.12636763391E+04  0.41800000000E+01 0. -1.
        -11    1    1    2    0    0  0.19907967785E+02  0.69851934909E+01  0.42918825498E+02  0.47824112031E+02  0.00000000000E+00 0.  1.
         11    1    1    2    0    0 -0.42955256040E+02 -0.89232709078E+02  0.49808981961E+03  0.50783963886E+03  0.00000000000E+00 0. -1.
</event>
<event>
 7    1  0.2733606E-009  0.1874670E+03  0.7561462E-02  0.1160766E+00
         -1   -1    0    0    0  501 -0.00000000000E+00  0.00000000000E+00  0.24736241189E+03  0.24736241189E+03  0.00000000000E+00 0. -1.
          1   -1    0    0  501    0  0.00000000000E+00 -0.00000000000E+00 -0.16129665897E+03  0.16129665897E+03  0.00000000000E+00 0.  1.
         25    2    1    2    0    0  0.12073125919E+03  0.11477071890E+03  0.63250081265E+02  0.21770014078E+03  0.12507767048E+03 0.  0.
          5    1    3    3  502    0  0.14036173776E+03  0.65228767895E+02  0.45636957812E+02  0.16141999227E+03  0.41800000000E+01 0. -1.
         -5    1    3    3    0  502 -0.19630478563E+02  0.49541951007E+02  0.17613123453E+02  0.56280148507E+02  0.41800000000E+01 0. -1.
        -11    1    1    2    0    0 -0.82965009330E+02 -0.81883624026E+02  0.57563034674E+02  0.13000624453E+03  0.00000000000E+00 0. -1.
         11    1    1    2    0    0 -0.37766249865E+02 -0.32887094877E+02 -0.34747363016E+02  0.60952685543E+02  0.00000000000E+00 0.  1.
</event>
<event>
 7    1  0.4072952E-009  0.1305116E+03  0.7561462E-02  0.1226699E+00
          1   -1    0    0  501    0  0.00000000000E+00  0.00000000000E+00  0.46371403998E+03  0.46371403998E+03  0.00000000000E+00 0. -1.
         -1   -1    0    0    0  501 -0.00000000000E+00 -0.00000000000E+00 -0.49703669646E+02  0.49703669646E+02  0.00000000000E+00 0.  1.
         25    2    1    2    0    0 -0.99876219481E+02 -0.20270991113E+02  0.27380721043E+03  0.31781047638E+03  0.12508772168E+03 0.  0.
          5    1    3    3  502    0 -0.11580679602E+03  0.17447063868E+02  0.17330308093E+03  0.20920574634E+03  0.41800000000E+01 0. -1.
         -5    1    3    3    0  502  0.15930576541E+02 -0.37718054981E+02  0.10050412950E+03  0.10860473004E+03  0.41800000000E+01 0. -1.
        -11    1    1    2    0    0  0.43308352572E+02  0.24841027375E+01 -0.17370395598E-03  0.43379536293E+02  0.00000000000E+00 0.  1.
         11    1    1    2    0    0  0.56567866908E+02  0.17786888375E+02  0.14020333361E+03  0.15222769696E+03  0.00000000000E+00 0. -1.
</event>
<event>
 7    1  0.2733606E-009  0.2333173E+03  0.7561462E-02  0.1124326E+00
         -1   -1    0    0    0  501 -0.00000000000E+00  0.00000000000E+00  0.53744891835E+02  0.53744891835E+02  0.00000000000E+00 0.  1.
          1   -1    0    0  501    0  0.00000000000E+00 -0.00000000000E+00 -0.11868809276E+04  0.11868809276E+04  0.00000000000E+00 0. -1.
         25    2    1    2    0    0 -0.64709392935E+02 -0.20911205750E+03 -0.74119154114E+03  0.78289686431E+03  0.12508973329E+03 0.  0.
          5    1    3    3  502    0 -0.16531885981E+02 -0.18168966924E+03 -0.43545510884E+03  0.47214728992E+03  0.41800000000E+01 0. -1.
         -5    1    3    3    0  502 -0.48177506953E+02 -0.27422388263E+02 -0.30573643229E+03  0.31074957439E+03  0.41800000000E+01 0. -1.
        -11    1    1    2    0    0  0.22005040679E+02  0.16746269823E+03 -0.23159260843E+03  0.28664108811E+03  0.00000000000E+00 0. -1.
         11    1    1    2    0    0  0.42704352256E+02  0.41649359271E+02 -0.16035188615E+03  0.17108786696E+03  0.00000000000E+00 0.  1.
</event>
<event>
 7    1  0.2733606E-009  0.1414135E+03  0.7561462E-02  0.1211440E+00
          2   -1    0    0  501    0  0.00000000000E+00  0.00000000000E+00  0.66056128697E+03  0.66056128697E+03  0.00000000000E+00 0. -1.
         -2   -1    0    0    0  501 -0.00000000000E+00 -0.00000000000E+00 -0.35093762274E+02  0.35093762274E+02  0.00000000000E+00 0.  1.
         25    2    1    2    0    0 -0.10519202363E+03  0.13547788643E+01  0.37003475251E+03  0.40452497753E+03  0.12509013600E+03 0.  0.
          5    1    3    3  502    0 -0.35144076512E+02 -0.49459473086E+02  0.24480417371E+03  0.25224571643E+03  0.41800000000E+01 0. -1.
         -5    1    3    3    0  502 -0.70047947116E+02  0.50814251950E+02  0.12523057880E+03  0.15227926111E+03  0.41800000000E+01 0. -1.
        -11    1    1    2    0    0 -0.11358159778E+02 -0.14122032834E+02  0.14597131789E+02  0.23270493364E+02  0.00000000000E+00 0.  1.
         11    1    1    2    0    0  0.11655018341E+03  0.12767253970E+02  0.24083564040E+03  0.26785957835E+03  0.00000000000E+00 0. -1.
</event>
<event>
 7    1  0.2733606E-009  0.1082688E+03  0.7561462E-02  0.1263810E+00
         -2   -1    0    0    0  501 -0.00000000000E+00  0.00000000000E+00  0.41487606382E+02  0.41487606382E+02  0.00000000000E+00 0.  1.
          2   -1    0    0  501    0  0.00000000000E+00 -0.00000000000E+00 -0.48745328771E+03  0.48745328771E+03  0.00000000000E+00 0. -1.
         25    2    1    2    0    0 -0.59513724050E+02  0.24588589242E+01 -0.37018869666E+03  0.39526614060E+03  0.12509085272E+03 0.  0.
          5    1    3    3  502    0 -0.26212969982E+02 -0.49933523246E+02 -0.28027648430E+03  0.28592456451E+03  0.41800000000E+01 0. -1.
         -5    1    3    3    0  502 -0.33300754068E+02  0.52392382170E+02 -0.89912212359E+02  0.10934157609E+03  0.41800000000E+01 0. -1.
        -11    1    1    2    0    0 -0.77127927618E+01 -0.25547147850E+02 -0.52477043392E+02  0.58872608390E+02  0.00000000000E+00 0. -1.
         11    1    1    2    0    0  0.67226516812E+02  0.23088288926E+02 -0.23299941279E+02  0.74802145102E+02  0.00000000000E+00 0.  1.
</event>
<event>
 7    1  0.2733606E-009  0.1840545E+03  0.7561462E-02  0.1163936E+00
         -2   -1    0    0    0  501 -0.00000000000E+00  0.00000000000E+00  0.34907385718E+03  0.34907385718E+03  0.00000000000E+00 0. -1.
          2   -1    0    0  501    0  0.00000000000E+00 -0.00000000000E+00 -0.17690777047E+03  0.17690777047E+03  0.00000000000E+00 0.  1.
         25    2    1    2    0    0 -0.15308776294E+03  0.74248771497E+02 -0.63640331957E+02  0.22056563294E+03  0.12510141227E+03 0.  0.
          5    1    3    3  502    0 -0.12937982818E+03  0.89032304229E+02 -0.69933307049E+01  0.15726496816E+03  0.41800000000E+01 0. -1.
         -5    1    3    3    0  502 -0.23707934764E+02 -0.14783532732E+02 -0.56647001252E+02  0.63300664780E+02  0.41800000000E+01 0. -1.
        -11    1    1    2    0    0  0.36580150502E+02 -0.52878119509E+02  0.13634134659E+03  0.15074205028E+03  0.00000000000E+00 0. -1.
         11    1    1    2    0    0  0.11650761244E+03 -0.21370651988E+02  0.99465072071E+02  0.15467394443E+03  0.00000000000E+00 0.  1.
</event>
<event>
 7    1  0.2733606E-009  0.1228412E+03  0.7561462E-02  0.1238482E+00
         -1   -1    0    0    0  501 -0.00000000000E+00  0.00000000000E+00  0.48838586940E+03  0.48838586940E+03  0.00000000000E+00 0.  1.
          1   -1    0    0  501    0  0.00000000000E+00 -0.00000000000E+00 -0.41433888913E+02  0.41433888913E+02  0.00000000000E+00 0. -1.
         25    2    1    2    0    0 -0.27273538776E+02 -0.72447828572E+02  0.33717688832E+03  0.36786989908E+03  0.12508986711E+03 0.  0.
          5    1    3    3  502    0 -0.35893196687E+02  0.24915579798E+02  0.63178997715E+02  0.76929616126E+02  0.41800000000E+01 0.  1.
         -5    1    3    3    0  502  0.86196579107E+01 -0.97363408370E+02  0.27399789060E+03  0.29094028296E+03  0.41800000000E+01 0.  1.
        -11    1    1    2    0    0  0.47051139572E+02  0.26659588362E+02  0.17122041229E+02  0.56724841847E+02  0.00000000000E+00 0. -1.
         11    1    1    2    0    0 -0.19777600796E+02  0.45788240210E+02  0.92653050939E+02  0.10522501738E+03  0.00000000000E+00 0.  1.
</event>
<event>
 7    1  0.2733606E-009  0.2014841E+03  0.7561462E-02  0.1148493E+00
         -2   -1    0    0    0  501 -0.00000000000E+00  0.00000000000E+00  0.86638320105E+03  0.86638320105E+03  0.00000000000E+00 0. -1.
          2   -1    0    0  501    0  0.00000000000E+00 -0.00000000000E+00 -0.70293392441E+02  0.70293392441E+02  0.00000000000E+00 0.  1.
         25    2    1    2    0    0 -0.15085025571E+03  0.10700294525E+03  0.64312281327E+03  0.68077885401E+03  0.12508982848E+03 0.  0.
          5    1    3    3  502    0 -0.12533165309E+03  0.13102126638E+03  0.58792839630E+03  0.61526568820E+03  0.41800000000E+01 0. -1.
         -5    1    3    3    0  502 -0.25518602624E+02 -0.24018321130E+02  0.55194416969E+02  0.65513165809E+02  0.41800000000E+01 0. -1.
        -11    1    1    2    0    0  0.71775803804E+02 -0.64713622344E+02  0.25324126887E+02  0.99904606155E+02  0.00000000000E+00 0.  1.
         11    1    1    2    0    0  0.79074451907E+02 -0.42289322905E+02  0.12764286846E+03  0.15599313333E+03  0.00000000000E+00 0. -1.
</event>
<event>
 7    1  0.2733606E-009  0.1001462E+03  0.7561462E-02  0.1279989E+00
          1   -1    0    0  501    0  0.00000000000E+00  0.00000000000E+00  0.21052647383E+03  0.21052647383E+03  0.00000000000E+00 0. -1.
         -1   -1    0    0    0  501 -0.00000000000E+00 -0.00000000000E+00 -0.16135297833E+03  0.16135297833E+03  0.00000000000E+00 0.  1.
         25    2    1    2    0    0  0.77754744533E+02 -0.28169176911E+02 -0.98488967762E+02  0.17940686129E+03  0.12508973691E+03 0.  0.
          5    1    3    3  502    0  0.25151859849E+02 -0.53316133655E+02  0.62824573361E+01  0.59432043814E+02  0.41800000000E+01 0. -1.
         -5    1    3    3    0  502  0.52602884684E+02  0.25146956744E+02 -0.10477142510E+03  0.11997481747E+03  0.41800000000E+01 0. -1.
        -11    1    1    2    0    0 -0.39775183734E+02  0.13060811624E+02  0.28046708339E+01  0.41958505930E+02  0.00000000000E+00 0.  1.
         11    1    1    2    0    0 -0.37979560799E+02  0.15108365286E+02  0.14485779242E+03  0.15051408494E+03  0.00000000000E+00 0. -1.
</event>
<event>
 7    1  0.2733606E-009  0.1476033E+03  0.7561462E-02  0.1203449E+00
         -3   -1    0    0    0  501 -0.00000000000E+00  0.00000000000E+00  0.17637311905E+03  0.17637311905E+03  0.00000000000E+00 0.  1.
          3   -1    0    0  501    0  0.00000000000E+00 -0.00000000000E+00 -0.16912073598E+03  0.16912073598E+03  0.00000000000E+00 0. -1.
         25    2    1    2    0    0 -0.12648591929E+03  0.13347275741E+02 -0.37744349175E+02  0.18234080324E+03  0.12508675023E+03 0.  0.
          5    1    3    3  502    0 -0.43215599908E+02  0.45446741467E+02  0.30552668983E+02  0.69885136956E+02  0.41800000000E+01 0. -1.
         -5    1    3    3    0  502 -0.83270319383E+02 -0.32099465726E+02 -0.68297018159E+02  0.11245566628E+03  0.41800000000E+01 0. -1.
        -11    1    1    2    0    0  0.12621775856E+03  0.33999449963E+01  0.60787044290E+02  0.14013403211E+03  0.00000000000E+00 0.  1.
         11    1    1    2    0    0  0.26816073241E+00 -0.16747220738E+02 -0.15790312039E+02  0.23019019677E+02  0.00000000000E+00 0. -1.
</event>
<event>
 7    1  0.2733606E-009  0.9464444E+02  0.7561462E-02  0.1291979E+00
          1   -1    0    0  501    0  0.00000000000E+00  0.00000000000E+00  0.51795577140E+03  0.51795577140E+03  0.00000000000E+00 0. -1.
         -1   -1    0    0    0  501 -0.00000000000E+00 -0.00000000000E+00 -0.33762557494E+02  0.33762557494E+02  0.00000000000E+00 0.  1.
         25    2    1    2    0    0  0.15647004998E+02 -0.19795472820E+02  0.11830564190E+03  0.17401300134E+03  0.12509040818E+03 0.  0.
          5    1    3    3  502    0 -0.19768485788E+02  0.29045675560E+02 -0.58965673900E+01  0.35870408502E+02  0.41800000000E+01 0.  1.
         -5    1    3    3    0  502  0.35415490786E+02 -0.48841148380E+02  0.12420220929E+03  0.13814259283E+03  0.41800000000E+01 0.  1.
        -11    1    1    2    0    0 -0.51857491263E+02  0.23690068312E+02  0.23798078025E+03  0.24471467162E+03  0.00000000000E+00 0.  1.
         11    1    1    2    0    0  0.36210486266E+02 -0.38945954926E+01  0.12790679175E+03  0.13299065593E+03  0.00000000000E+00 0. -1.
</event>
<event>
 7    1  0.2733606E-009  0.8657426E+02  0.7561462E-02  0.1311366E+00
         -2   -1    0    0    0  501 -0.00000000000E+00  0.00000000000E+00  0.24032729330E+03  0.24032729330E+03  0.00000000000E+00 0.  1.
          2   -1    0    0  501    0  0.00000000000E+00 -0.00000000000E+00 -0.62583014594E+02  0.62583014594E+02  0.00000000000E+00 0. -1.
         25    2    1    2    0    0  0.16772954199E+02 -0.32484492458E+02  0.58023535824E+02  0.14265507830E+03  0.12508863422E+03 0.  0.
          5    1    3    3  502    0  0.31558223483E+02  0.28177349829E+02  0.67088648990E+02  0.79424453011E+02  0.41800000000E+01 0. -1.
         -5    1    3    3    0  502 -0.14785269284E+02 -0.60661842287E+02 -0.90651131659E+01  0.63230625287E+02  0.41800000000E+01 0. -1.
        -11    1    1    2    0    0 -0.12030186160E+02  0.49217219013E+02  0.13036502507E+03  0.13986457660E+03  0.00000000000E+00 0.  1.
         11    1    1    2    0    0 -0.47427680389E+01 -0.16732726555E+02 -0.10644282182E+02  0.20390653001E+02  0.00000000000E+00 0. -1.
</event>
<event>
 7    1  0.2733606E-009  0.1417761E+03  0.7561462E-02  0.1210959E+00
         -4   -1    0    0    0  501 -0.00000000000E+00  0.00000000000E+00  0.16119989211E+03  0.16119989211E+03  0.00000000000E+00 0. -1.
          4   -1    0    0  501    0  0.00000000000E+00 -0.00000000000E+00 -0.16656484816E+03  0.16656484816E+03  0.00000000000E+00 0.  1.
         25    2    1    2    0    0 -0.92693024942E+02  0.52954320016E+02  0.56636329122E+02  0.17393558986E+03  0.12509899585E+03 0.  0.
          5    1    3    3  502    0 -0.76535565939E+02 -0.22562325011E+02  0.32639287526E+01  0.79967974805E+02  0.41800000000E+01 0. -1.
         -5    1    3    3    0  502 -0.16157459003E+02  0.75516645028E+02  0.53372400369E+02  0.93967615053E+02  0.41800000000E+01 0. -1.
        -11    1    1    2    0    0  0.38644141753E+02  0.13244718910E+02 -0.54400246971E+02  0.68030722040E+02  0.00000000000E+00 0.  1.
         11    1    1    2    0    0  0.54048883189E+02 -0.66199038926E+02 -0.76010382040E+01  0.85798428369E+02  0.00000000000E+00 0. -1.
</event>
<event>
 7    1  0.2733606E-009  0.9760512E+02  0.7561462E-02  0.1285414E+00
         -1   -1    0    0    0  501 -0.00000000000E+00  0.00000000000E+00  0.27764577080E+03  0.27764577080E+03  0.00000000000E+00 0.  1.
          1   -1    0    0  501    0  0.00000000000E+00 -0.00000000000E+00 -0.48860969299E+02  0.48860969299E+02  0.00000000000E+00 0. -1.
         25    2    1    2    0    0 -0.34238846928E+02  0.21242121997E+02  0.16912293784E+03  0.21418143870E+03  0.12509034413E+03 0.  0.
          5    1    3    3  502    0 -0.79334537175E+02  0.28014053417E+02  0.94194302739E+02  0.12636769780E+03  0.41800000000E+01 0.  1.
         -5    1    3    3    0  502  0.45095690247E+02 -0.67719314209E+01  0.74928635098E+02  0.87813740905E+02  0.41800000000E+01 0.  1.
        -11    1    1    2    0    0 -0.13244398070E+02 -0.21045265220E+00 -0.15864337811E+02  0.20667258762E+02  0.00000000000E+00 0. -1.
         11    1    1    2    0    0  0.47483244998E+02 -0.21031669344E+02  0.75526201478E+02  0.91658042640E+02  0.00000000000E+00 0.  1.
</event>
<event>
 7    1  0.4261130E-009  0.9859775E+02  0.7561462E-02  0.1283273E+00
         -2   -1    0    0    0  501 -0.00000000000E+00  0.00000000000E+00  0.13682314327E+03  0.13682314327E+03  0.00000000000E+00 0.  1.
          2   -1    0    0  501    0  0.00000000000E+00 -0.00000000000E+00 -0.10542127474E+03  0.10542127474E+03  0.00000000000E+00 0. -1.
         25    2    1    2    0    0  0.36380491848E+02  0.55739316563E+01  0.53941043006E+02  0.14111014290E+03  0.12509127630E+03 0.  0.
          5    1    3    3  502    0  0.59324845675E+02 -0.41819739275E+02  0.12052905356E+02  0.73695812872E+02  0.41800000000E+01 0.  1.
         -5    1    3    3    0  502 -0.22944353827E+02  0.47393670931E+02  0.41888137650E+02  0.67414330025E+02  0.41800000000E+01 0.  1.
        -11    1    1    2    0    0 -0.21402480943E+02 -0.33632419994E+02  0.22668361270E+02  0.45859137233E+02  0.00000000000E+00 0.  1.
         11    1    1    2    0    0 -0.14978010905E+02  0.28058488337E+02 -0.45207535752E+02  0.55275137876E+02  0.00000000000E+00 0. -1.
</event>
<event>
 7    1  0.2733606E-009  0.9792453E+02  0.7561462E-02  0.1284722E+00
          1   -1    0    0  501    0  0.00000000000E+00  0.00000000000E+00  0.11178253007E+03  0.11178253007E+03  0.00000000000E+00 0. -1.
         -1   -1    0    0    0  501 -0.00000000000E+00 -0.00000000000E+00 -0.14567603303E+03  0.14567603303E+03  0.00000000000E+00 0.  1.
         25    2    1    2    0    0 -0.34063015931E+02  0.53121259112E+02 -0.46256938604E+02  0.14753132496E+03  0.12507449880E+03 0.  0.
          5    1    3    3  502    0  0.35559365717E+02  0.36834465917E+02  0.14753073520E+02  0.53445036700E+02  0.41800000000E+01 0.  1.
         -5    1    3    3    0  502 -0.69622381647E+02  0.16286793196E+02 -0.61010012125E+02  0.94086288258E+02  0.41800000000E+01 0.  1.
        -11    1    1    2    0    0  0.38599018130E+02 -0.28913167808E+02  0.47056385799E+02  0.67380701375E+02  0.00000000000E+00 0. -1.
         11    1    1    2    0    0 -0.45360021996E+01 -0.24208091305E+02 -0.34692950157E+02  0.42546536771E+02  0.00000000000E+00 0.  1.
</event>
<event>
 7    1  0.2733606E-009  0.1949473E+03  0.7561462E-02  0.1154073E+00
         -3   -1    0    0    0  501 -0.00000000000E+00  0.00000000000E+00  0.25559940632E+03  0.25559940632E+03  0.00000000000E+00 0.  1.
          3   -1    0    0  501    0  0.00000000000E+00 -0.00000000000E+00 -0.19026378841E+03  0.19026378841E+03  0.00000000000E+00 0. -1.
         25    2    1    2    0    0 -0.10803290839E+03 -0.14326475978E+03 -0.32272672620E+02  0.22109858365E+03  0.12508859903E+03 0.  0.
          5    1    3    3  502    0 -0.92186143329E+02 -0.77962725888E+02  0.35150834247E+02  0.12581544102E+03  0.41800000000E+01 0.  1.
         -5    1    3    3    0  502 -0.15846765059E+02 -0.65302033889E+02 -0.67423506867E+02  0.95283142638E+02  0.41800000000E+01 0.  1.
        -11    1    1    2    0    0  0.64524591020E+02  0.14448334617E+03  0.84064875239E+02  0.17918081207E+03  0.00000000000E+00 0. -1.
         11    1    1    2    0    0  0.43508317368E+02 -0.12185863929E+01  0.13543415292E+02  0.45583798995E+02  0.00000000000E+00 0.  1.
</event>
<event>
 7    1  0.2733606E-009  0.1009996E+03  0.7561462E-02  0.1278208E+00
         -1   -1    0    0    0  501 -0.00000000000E+00  0.00000000000E+00  0.99624614787E+01  0.99624614787E+01  0.00000000000E+00 0.  1.
          1   -1    0    0  501    0  0.00000000000E+00 -0.00000000000E+00 -0.22872122443E+04  0.22872122443E+04  0.00000000000E+00 0. -1.
         25    2    1    2    0    0 -0.48033703071E+02  0.15498366074E+02 -0.19589731336E+04  0.19636105801E+04  0.12507332165E+03 0.  0.
          5    1    3    3  502    0 -0.34856637698E+02 -0.47303157816E+02 -0.13427009662E+04  0.13439925339E+04  0.41800000000E+01 0. -1.
         -5    1    3    3    0  502 -0.13177065373E+02  0.62801523890E+02 -0.61627216741E+03  0.61961804620E+03  0.41800000000E+01 0. -1.
        -11    1    1    2    0    0  0.49558247024E+02  0.12207233170E+02 -0.28803320338E+03  0.29252036278E+03  0.00000000000E+00 0. -1.
         11    1    1    2    0    0 -0.15245439531E+01 -0.27705599244E+02 -0.30243445829E+02  0.41043762977E+02  0.00000000000E+00 0.  1.
</event>
<event>
 7    1  0.2733606E-009  0.1069925E+03  0.7561462E-02  0.1266243E+00
          2   -1    0    0  501    0  0.00000000000E+00  0.00000000000E+00  0.15356395411E+03  0.15356395411E+03  0.00000000000E+00 0.  1.
         -2   -1    0    0    0  501 -0.00000000000E+00 -0.00000000000E+00 -0.11030060680E+03  0.11030060680E+03  0.00000000000E+00 0. -1.
         25    2    1    2    0    0 -0.18250876829E+02  0.68590558311E+02  0.32584738986E+02  0.14745635107E+03  0.12507538151E+03 0.  0.
          5    1    3    3  502    0 -0.61786172934E+02  0.41828984555E+02  0.53680830094E+02  0.92012493904E+02  0.41800000000E+01 0.  1.
         -5    1    3    3    0  502  0.43535296106E+02  0.26761573756E+02 -0.21096091109E+02  0.55443857162E+02  0.41800000000E+01 0.  1.
        -11    1    1    2    0    0 -0.17472565089E+02 -0.34144029803E+02 -0.32771561532E+02  0.50448791335E+02  0.00000000000E+00 0. -1.
         11    1    1    2    0    0  0.35723441918E+02 -0.34446528508E+02  0.43450169857E+02  0.65959418504E+02  0.00000000000E+00 0.  1.
</event>
<event>
 7    1  0.2733606E-009  0.2197242E+03  0.7561462E-02  0.1134089E+00
         -1   -1    0    0    0  501 -0.00000000000E+00  0.00000000000E+00  0.83583811938E+02  0.83583811938E+02  0.00000000000E+00 0.  1.
          1   -1    0    0  501    0  0.00000000000E+00 -0.00000000000E+00 -0.73005083253E+03  0.73005083253E+03  0.00000000000E+00 0. -1.
         25    2    1    2    0    0 -0.10145795082E+03  0.18533073554E+03 -0.44399140277E+03  0.50736225895E+03  0.12508756433E+03 0.  0.
          5    1    3    3  502    0 -0.79428533017E+01  0.10131404921E+02 -0.16126148418E+03  0.16182852951E+03  0.41800000000E+01 0.  1.
         -5    1    3    3    0  502 -0.93515097514E+02  0.17519933061E+03 -0.28272991860E+03  0.34553372944E+03  0.41800000000E+01 0.  1.
        -11    1    1    2    0    0 -0.13705562770E+02 -0.37192680977E+02 -0.19442925928E+02  0.44149352631E+02  0.00000000000E+00 0.  1.
         11    1    1    2    0    0  0.11516351359E+03 -0.14813805456E+03 -0.18303269189E+03  0.26212303289E+03  0.00000000000E+00 0. -1.
</event>
<event>
 7    1  0.2733606E-009  0.1243871E+03  0.7561462E-02  0.1236030E+00
         -1   -1    0    0    0  501 -0.00000000000E+00  0.00000000000E+00  0.12140233556E+03  0.12140233556E+03  0.00000000000E+00 0.  1.
          1   -1    0    0  501    0  0.00000000000E+00 -0.00000000000E+00 -0.30099107747E+03  0.30099107747E+03  0.00000000000E+00 0. -1.
         25    2    1    2    0    0  0.27689450723E+02  0.12064748170E+03 -0.20105431830E+03  0.26719386958E+03  0.12508878652E+03 0.  0.
          5    1    3    3  502    0  0.79021437675E+01  0.51293531286E+02  0.15554526689E+01  0.52089942032E+02  0.41800000000E+01 0.  1.
         -5    1    3    3    0  502  0.19787306955E+02  0.69353950414E+02 -0.20260977097E+03  0.21510392755E+03  0.41800000000E+01 0.  1.
        -11    1    1    2    0    0 -0.85450645358E+01 -0.16593091256E+02  0.43315990077E+02  0.47165917797E+02  0.00000000000E+00 0.  1.
         11    1    1    2    0    0 -0.19144386187E+02 -0.10405439044E+03 -0.21850413683E+02  0.10803362565E+03  0.00000000000E+00 0. -1.
</event>
<event>
 7    1  0.2733606E-009  0.1882455E+03  0.7561462E-02  0.1160053E+00
          2   -1    0    0  501    0  0.00000000000E+00  0.00000000000E+00  0.21711476427E+03  0.21711476427E+03  0.00000000000E+00 0. -1.
         -2   -1    0    0    0  501 -0.00000000000E+00 -0.00000000000E+00 -0.31136595276E+03  0.31136595276E+03  0.00000000000E+00 0.  1.
         25    2    1    2    0    0 -0.12137305286E+03 -0.11214157975E+03  0.12285489142E+03  0.24093113203E+03  0.12508930476E+03 0.  0.
          5    1    3    3  502    0 -0.93240522379E+02 -0.18963407775E+02  0.16428166563E+02  0.96647622343E+02  0.41800000000E+01 0.  1.
         -5    1    3    3    0  502 -0.28132530478E+02 -0.93178171974E+02  0.10642672485E+03  0.14428350968E+03  0.41800000000E+01 0.  1.
        -11    1    1    2    0    0  0.34319555203E+02  0.86525820792E+02 -0.14182824149E+03  0.16964610109E+03  0.00000000000E+00 0.  1.
         11    1    1    2    0    0  0.87053497654E+02  0.25615758957E+02 -0.75277838421E+02  0.11790348391E+03  0.00000000000E+00 0. -1.
</event>
<event>
 7    1  0.2733606E-009  0.1796435E+03  0.7561462E-02  0.1168149E+00
          2   -1    0    0  501    0  0.00000000000E+00  0.00000000000E+00  0.96763508180E+02  0.96763508180E+02  0.00000000000E+00 0. -1.
         -2   -1    0    0    0  501 -0.00000000000E+00 -0.00000000000E+00 -0.37295215399E+03  0.37295215399E+03  0.00000000000E+00 0.  1.
         25    2    1    2    0    0 -0.95701486102E+02 -0.12438554711E+03 -0.13974079292E+03  0.24455330599E+03  0.12509313129E+03 0.  0.
          5    1    3    3  502    0 -0.46396057996E+02  0.43865695627E+01  0.19073022693E+01  0.46828905518E+02  0.41800000000E+01 0.  1.
         -5    1    3    3    0  502 -0.49305428106E+02 -0.12877211667E+03 -0.14164809519E+03  0.19772440048E+03  0.41800000000E+01 0.  1.
        -11    1    1    2    0    0  0.18383048125E+02  0.86521703162E+02 -0.94351525996E+02  0.12932962551E+03  0.00000000000E+00 0.  1.
         11    1    1    2    0    0  0.77318437976E+02  0.37863843945E+02 -0.42096326895E+02  0.95832730669E+02  0.00000000000E+00 0. -1.
</event>
<event>
 7    1  0.2733606E-009  0.1062855E+03  0.7561462E-02  0.1267607E+00
         -1   -1    0    0    0  501 -0.00000000000E+00  0.00000000000E+00  0.60835573204E+02  0.60835573204E+02  0.00000000000E+00 0.  1.
          1   -1    0    0  501    0  0.00000000000E+00 -0.00000000000E+00 -0.47309380624E+03  0.47309380624E+03  0.00000000000E+00 0. -1.
         25    2    1    2    0    0 -0.59673931036E+02 -0.31117138201E+02 -0.39765647523E+03  0.42226464053E+03  0.12508996767E+03 0.  0.
          5    1    3    3  502    0 -0.12269454030E+02  0.47124407017E+02 -0.16979883561E+03  0.17669285841E+03  0.41800000000E+01 0. -1.
         -5    1    3    3    0  502 -0.47404477006E+02 -0.78241545218E+02 -0.22785763962E+03  0.24557178212E+03  0.41800000000E+01 0. -1.
        -11    1    1    2    0    0  0.29587315876E+02  0.10824899522E+01  0.35324347984E+02  0.46091112004E+02  0.00000000000E+00 0.  1.
         11    1    1    2    0    0  0.30086615160E+02  0.30034648249E+02 -0.49926105789E+02  0.65573626913E+02  0.00000000000E+00 0. -1.
</event>
<event>
 7    1  0.2733606E-009  0.8530790E+02  0.7561462E-02  0.1314629E+00
          2   -1    0    0  501    0  0.00000000000E+00  0.00000000000E+00  0.80436600955E+03  0.80436600955E+03  0.00000000000E+00 0.  1.
         -2   -1    0    0    0  501 -0.00000000000E+00 -0.00000000000E+00 -0.22461294478E+02  0.22461294478E+02  0.00000000000E+00 0. -1.
         25    2    1    2    0    0  0.12799273996E+02 -0.54448637272E+02  0.59934498749E+03  0.61480978610E+03  0.12509269979E+03 0.  0.
          5    1    3    3  502    0  0.23030817789E+02 -0.54578824566E+02  0.10727701771E+03  0.12261768872E+03  0.41800000000E+01 0.  1.
         -5    1    3    3    0  502 -0.10231543794E+02  0.13018729328E+00  0.49206796978E+03  0.49219209738E+03  0.41800000000E+01 0.  1.
        -11    1    1    2    0    0  0.33684399245E+02  0.83367100110E+01  0.10462362711E+03  0.11022813994E+03  0.00000000000E+00 0.  1.
         11    1    1    2    0    0 -0.46483673241E+02  0.46111927261E+02  0.77936100483E+02  0.10178937799E+03  0.00000000000E+00 0. -1.
</event>
<event>
 7    1  0.2733606E-009  0.1222707E+03  0.7561462E-02  0.1239397E+00
          1   -1    0    0  501    0  0.00000000000E+00  0.00000000000E+00  0.61689665568E+03  0.61689665568E+03  0.00000000000E+00 0. -1.
         -1   -1    0    0    0  501 -0.00000000000E+00 -0.00000000000E+00 -0.50987831397E+02  0.50987831397E+02  0.00000000000E+00 0.  1.
         25    2    1    2    0    0 -0.44523985916E+02  0.11114459856E+03  0.43492684205E+03  0.46812841942E+03  0.12508937614E+03 0.  0.
          5    1    3    3  502    0 -0.29357471706E+02  0.31080274153E+02  0.24056697422E+02  0.49234557754E+02  0.41800000000E+01 0. -1.
         -5    1    3    3    0  502 -0.15166514210E+02  0.80064324404E+02  0.41087014463E+03  0.41889386167E+03  0.41800000000E+01 0. -1.
        -11    1    1    2    0    0  0.69436352172E+01 -0.26164670783E+02 -0.11696001221E+02  0.29488989670E+02  0.00000000000E+00 0.  1.
         11    1    1    2    0    0  0.37580350698E+02 -0.84979927774E+02  0.14267798345E+03  0.17026707798E+03  0.00000000000E+00 0. -1.
</event>
<event>
 7    1  0.2733606E-009  0.1738694E+03  0.7561462E-02  0.1173872E+00
          1   -1    0    0  501    0  0.00000000000E+00  0.00000000000E+00  0.58227597633E+03  0.58227597633E+03  0.00000000000E+00 0. -1.
         -1   -1    0    0    0  501 -0.00000000000E+00 -0.00000000000E+00 -0.58424824384E+02  0.58424824384E+02  0.00000000000E+00 0.  1.
         25    2    1    2    0    0  0.14384225874E+03  0.13890402313E+02  0.21398540214E+03  0.28691520812E+03  0.12508815149E+03 0.  0.
          5    1    3    3  502    0  0.67541314272E+01  0.39768150115E+02  0.95789378713E+02  0.10402019770E+03  0.41800000000E+01 0. -1.
         -5    1    3    3    0  502  0.13708812732E+03 -0.25877747802E+02  0.11819602343E+03  0.18289501042E+03  0.41800000000E+01 0. -1.
        -11    1    1    2    0    0 -0.10913988011E+03  0.28529731646E+02  0.17498318932E+03  0.20819360116E+03  0.00000000000E+00 0.  1.
         11    1    1    2    0    0 -0.34702378635E+02 -0.42420133958E+02  0.13488256048E+03  0.14559199143E+03  0.00000000000E+00 0. -1.
</event>
<event>
 7    1  0.2733606E-009  0.9868866E+02  0.7561462E-02  0.1283078E+00
          2   -1    0    0  501    0  0.00000000000E+00  0.00000000000E+00  0.31749879873E+03  0.31749879873E+03  0.00000000000E+00 0. -1.
         -2   -1    0    0    0  501 -0.00000000000E+00 -0.00000000000E+00 -0.55081705533E+02  0.55081705533E+02  0.00000000000E+00 0.  1.
         25    2    1    2    0    0  0.74831681514E+01 -0.69322602390E+01  0.25644487973E+03  0.28550985646E+03  0.12509135765E+03 0.  0.
          5    1    3    3  502    0  0.47250492410E+02 -0.39666526708E+02  0.19831355508E+03  0.20773006740E+03  0.41800000000E+01 0.  1.
         -5    1    3    3    0  502 -0.39767324259E+02  0.32734266469E+02  0.58131324644E+02  0.77779789051E+02  0.41800000000E+01 0.  1.
        -11    1    1    2    0    0 -0.37621889999E+02 -0.20732021991E+02 -0.82839164282E+01  0.43747532665E+02  0.00000000000E+00 0.  1.
         11    1    1    2    0    0  0.30138721847E+02  0.27664282230E+02  0.14256129897E+02  0.43323115141E+02  0.00000000000E+00 0. -1.
</event>
<event>
 7    1  0.2733606E-009  0.1057170E+03  0.7561462E-02  0.1268713E+00
          3   -1    0    0  501    0  0.00000000000E+00  0.00000000000E+00  0.46116091577E+02  0.46116091577E+02  0.00000000000E+00 0. -1.
         -3   -1    0    0    0  501 -0.00000000000E+00 -0.00000000000E+00 -0.26207397319E+03  0.26207397319E+03  0.00000000000E+00 0.  1.
         25    2    1    2    0    0 -0.40851445249E+01  0.18864220175E+02 -0.10840507273E+03  0.16665320145E+03  0.12509629311E+03 0.  0.
          5    1    3    3  502    0 -0.10276935365E+02  0.68434373530E+02 -0.34729227861E+02  0.77540122187E+02  0.41800000000E+01 0. -1.
         -5    1    3    3    0  502  0.61917908399E+01 -0.49570153355E+02 -0.73675844873E+02  0.89113079260E+02  0.41800000000E+01 0. -1.
        -11    1    1    2    0    0 -0.42593559811E+02 -0.14920142881E+02 -0.50978667301E+02  0.68085582327E+02  0.00000000000E+00 0.  1.
         11    1    1    2    0    0  0.46678704336E+02 -0.39440772941E+01 -0.56574141576E+02  0.73451280991E+02  0.00000000000E+00 0. -1.
</event>
<event>
 7    1  0.2733606E-009  0.1094644E+03  0.7561462E-02  0.1261565E+00
          2   -1    0    0  501    0  0.00000000000E+00  0.00000000000E+00  0.37245619923E+03  0.37245619923E+03  0.00000000000E+00 0. -1.
         -2   -1    0    0    0  501 -0.00000000000E+00 -0.00000000000E+00 -0.71552421976E+02  0.71552421976E+02  0.00000000000E+00 0.  1.
         25    2    1    2    0    0  0.21039078273E+02 -0.48255122422E+02  0.30935352802E+03  0.33781487091E+03  0.12509229415E+03 0.  0.
          5    1    3    3  502    0  0.66421404714E+02 -0.20997959371E+02  0.24303066006E+03  0.25285191602E+03  0.41800000000E+01 0. -1.
         -5    1    3    3    0  502 -0.45382326441E+02 -0.27257163051E+02  0.66322867954E+02  0.84962954895E+02  0.41800000000E+01 0. -1.
        -11    1    1    2    0    0 -0.43446779095E+01 -0.22717342491E+02 -0.22131295817E+02  0.32011687405E+02  0.00000000000E+00 0.  1.
         11    1    1    2    0    0 -0.16694400364E+02  0.70972464913E+02  0.13681545053E+02  0.74182062889E+02  0.00000000000E+00 0. -1.
</event>
<event>
 7    1  0.2733606E-009  0.8646564E+02  0.7561462E-02  0.1311644E+00
         -2   -1    0    0    0  501 -0.00000000000E+00  0.00000000000E+00  0.74464979357E+03  0.74464979357E+03  0.00000000000E+00 0.  1.
          2   -1    0    0  501    0  0.00000000000E+00 -0.00000000000E+00 -0.19377882435E+02  0.19377882435E+02  0.00000000000E+00 0. -1.
         25    2    1    2    0    0 -0.35016409542E+02 -0.36006683272E+02  0.46314490110E+03  0.48236124285E+03  0.12508612635E+03 0.  0.
          5    1    3    3  502    0  0.45760839695E+01 -0.53354278696E+02  0.41102512747E+03  0.41451989990E+03  0.41800000000E+01 0.  1.
         -5    1    3    3    0  502 -0.39592493512E+02  0.17347595424E+02  0.52119773632E+02  0.67841342948E+02  0.41800000000E+01 0.  1.
        -11    1    1    2    0    0  0.36690569835E+02 -0.29395985089E+01  0.33597657337E+02  0.49836148855E+02  0.00000000000E+00 0. -1.
         11    1    1    2    0    0 -0.16741602930E+01  0.38946281781E+02  0.22852935270E+03  0.23183028431E+03  0.00000000000E+00 0.  1.
</event>
<event>
 7    1  0.2733606E-009  0.9790139E+02  0.7561462E-02  0.1284772E+00
          1   -1    0    0  501    0  0.00000000000E+00  0.00000000000E+00  0.48553089782E+03  0.48553089782E+03  0.00000000000E+00 0. -1.
         -1   -1    0    0    0  501 -0.00000000000E+00 -0.00000000000E+00 -0.32909365646E+02  0.32909365646E+02  0.00000000000E+00 0.  1.
         25    2    1    2    0    0  0.89736143219E+01  0.15255959234E+02  0.38040055910E+03  0.40083576749E+03  0.12510578359E+03 0.  0.
          5    1    3    3  502    0 -0.43576454392E+02 -0.11508510390E+02  0.28521184745E+03  0.28878127279E+03  0.41800000000E+01 0.  1.
         -5    1    3    3    0  502  0.52550068714E+02  0.26764469623E+02  0.95188711653E+02  0.11205449470E+03  0.41800000000E+01 0.  1.
        -11    1    1    2    0    0 -0.40005208140E+02 -0.36222038433E+02  0.32430302186E+02  0.62961712544E+02  0.00000000000E+00 0.  1.
         11    1    1    2    0    0  0.31031593818E+02  0.20966079199E+02  0.39790670885E+02  0.54642783433E+02  0.00000000000E+00 0. -1.
</event>
<event>
 7    1  0.2733606E-009  0.2476808E+03  0.7561462E-02  0.1114779E+00
          2   -1    0    0  501    0  0.00000000000E+00  0.00000000000E+00  0.94768258615E+03  0.94768258615E+03  0.00000000000E+00 0.  1.
         -2   -1    0    0    0  501 -0.00000000000E+00 -0.00000000000E+00 -0.71632102996E+02  0.71632102996E+02  0.00000000000E+00 0. -1.
         25    2    1    2    0    0  0.19926659787E+03  0.11228209125E+03  0.33537114807E+03  0.42477760008E+03  0.12509099698E+03 0.  0.
          5    1    3    3  502    0  0.49652483878E+02 -0.17446616215E+02  0.29789157405E+02  0.60618642937E+02  0.41800000000E+01 0.  1.
         -5    1    3    3    0  502  0.14961411399E+03  0.12972870746E+03  0.30558199067E+03  0.36415895714E+03  0.41800000000E+01 0.  1.
        -11    1    1    2    0    0 -0.31052384359E+00 -0.28695108391E+02  0.39070453433E+02  0.48476860481E+02  0.00000000000E+00 0. -1.
         11    1    1    2    0    0 -0.19895607403E+03 -0.83586982856E+02  0.50160888165E+03  0.54606022859E+03  0.00000000000E+00 0.  1.
</event>
<event>
 7    1  0.2733606E-009  0.1170317E+03  0.7561462E-02  0.1248076E+00
         -2   -1    0    0    0  501 -0.00000000000E+00  0.00000000000E+00  0.19243645394E+03  0.19243645394E+03  0.00000000000E+00 0.  1.
          2   -1    0    0  501    0  0.00000000000E+00 -0.00000000000E+00 -0.75393690587E+02  0.75393690587E+02  0.00000000000E+00 0. -1.
         25    2    1    2    0    0  0.16481112695E+02 -0.35408280713E+02  0.94097882772E+02  0.16133014558E+03  0.12509049089E+03 0.  0.
          5    1    3    3  502    0  0.46447834863E+02  0.31792828129E+02  0.50281017933E+02  0.75589936157E+02  0.41800000000E+01 0. -1.
         -5    1    3    3    0  502 -0.29966722168E+02 -0.67201108841E+02  0.43816864838E+02  0.85740209419E+02  0.41800000000E+01 0. -1.
        -11    1    1    2    0    0 -0.21220061778E+02 -0.30878692459E+02  0.10227552349E+02  0.38837964634E+02  0.00000000000E+00 0.  1.
         11    1    1    2    0    0  0.47389490829E+01  0.66286973172E+02  0.12717328234E+02  0.67662034319E+02  0.00000000000E+00 0. -1.
</event>
<event>
 7    1  0.2733606E-009  0.1356775E+03  0.7561462E-02  0.1219267E+00
         -1   -1    0    0    0  501 -0.00000000000E+00  0.00000000000E+00  0.63075858579E+02  0.63075858579E+02  0.00000000000E+00 0.  1.
          1   -1    0    0  501    0  0.00000000000E+00 -0.00000000000E+00 -0.30438850997E+03  0.30438850997E+03  0.00000000000E+00 0. -1.
         25    2    1    2    0    0 -0.80868210779E+02  0.28147300364E+02 -0.15170485236E+03  0.21446118115E+03  0.12508916003E+03 0.  0.
          5    1    3    3  502    0 -0.11049824232E+03  0.23272289544E+01 -0.97943978195E+02  0.14773548259E+03  0.41800000000E+01 0.  1.
         -5    1    3    3    0  502  0.29630031544E+02  0.25820071410E+02 -0.53760874170E+02  0.66725698561E+02  0.41800000000E+01 0.  1.
        -11    1    1    2    0    0  0.59871915220E+02  0.24392455541E+02 -0.31558314333E+02  0.71941402008E+02  0.00000000000E+00 0.  1.
         11    1    1    2    0    0  0.20996295559E+02 -0.52539755905E+02 -0.58049484695E+02  0.81061785393E+02  0.00000000000E+00 0. -1.
</event>
<event>
 7    1  0.2733606E-009  0.1316924E+03  0.7561462E-02  0.1224966E+00
          1   -1    0    0  501    0  0.00000000000E+00  0.00000000000E+00  0.58315411393E+02  0.58315411393E+02  0.00000000000E+00 0. -1.
         -1   -1    0    0    0  501 -0.00000000000E+00 -0.00000000000E+00 -0.30923948003E+03  0.30923948003E+03  0.00000000000E+00 0.  1.
         25    2    1    2    0    0  0.48228550451E+02 -0.58606552451E+02 -0.16093059612E+03  0.21750189497E+03  0.12509075298E+03 0.  0.
          5    1    3    3  502    0 -0.36749997192E+02 -0.47614122912E+02 -0.60392007884E+02  0.85336592448E+02  0.41800000000E+01 0.  1.
         -5    1    3    3    0  502  0.84978547644E+02 -0.10992429538E+02 -0.10053858823E+03  0.13216530252E+03  0.41800000000E+01 0.  1.
        -11    1    1    2    0    0 -0.14312955007E+02 -0.24035000562E+02 -0.87681730809E+01  0.29315913634E+02  0.00000000000E+00 0.  1.
         11    1    1    2    0    0 -0.33915595444E+02  0.82641553013E+02 -0.81225299438E+02  0.12073708282E+03  0.00000000000E+00 0. -1.
</event>
<event>
 7    1  0.2733606E-009  0.9380276E+02  0.7561462E-02  0.1293896E+00
          1   -1    0    0  501    0  0.00000000000E+00  0.00000000000E+00  0.19895669320E+03  0.19895669320E+03  0.00000000000E+00 0. -1.
         -1   -1    0    0    0  501 -0.00000000000E+00 -0.00000000000E+00 -0.74527433095E+02  0.74527433095E+02  0.00000000000E+00 0.  1.
         25    2    1    2    0    0  0.23025490302E+02 -0.78532062214E+02  0.64818084866E+02  0.16293023748E+03  0.12508964850E+03 0.  0.
          5    1    3    3  502    0  0.23021472939E+02  0.16306129227E+01  0.78119064704E+02  0.81564132957E+02  0.41800000000E+01 0.  1.
         -5    1    3    3    0  502  0.40173624727E-02 -0.80162675137E+02 -0.13300979839E+02  0.81366104527E+02  0.41800000000E+01 0.  1.
        -11    1    1    2    0    0 -0.76759163870E+01  0.56549410911E+02  0.15842659743E+02  0.59226222525E+02  0.00000000000E+00 0.  1.
         11    1    1    2    0    0 -0.15349573915E+02  0.21982651303E+02  0.43768515500E+02  0.51327666290E+02  0.00000000000E+00 0. -1.
</event>
<event>
 7    1  0.2733606E-009  0.1485626E+03  0.7561462E-02  0.1202250E+00
          1   -1    0    0  501    0  0.00000000000E+00  0.00000000000E+00  0.36104171486E+03  0.36104171486E+03  0.00000000000E+00 0.  1.
         -1   -1    0    0    0  501 -0.00000000000E+00 -0.00000000000E+00 -0.79333468912E+02  0.79333468912E+02  0.00000000000E+00 0. -1.
         25    2    1    2    0    0 -0.11844876556E+03 -0.51692892399E+02  0.14212183626E+03  0.22923797831E+03  0.12509663934E+03 0.  0.
          5    1    3    3  502    0 -0.11117676430E+01 -0.47941424882E+02  0.45720885635E+01  0.48352793516E+02  0.41800000000E+01 0. -1.
         -5    1    3    3    0  502 -0.11733699791E+03 -0.37514675173E+01  0.13754974770E+03  0.18088518480E+03  0.41800000000E+01 0. -1.
        -11    1    1    2    0    0  0.27183519833E+02  0.23677104907E+02 -0.64917964001E+01  0.36629120489E+02  0.00000000000E+00 0. -1.
         11    1    1    2    0    0  0.91265245723E+02  0.28015787492E+02  0.14607820609E+03  0.17450808497E+03  0.00000000000E+00 0.  1.
</event>
<event>
 7    1  0.2733606E-009  0.2096923E+03  0.7561462E-02  0.1141810E+00
         -4   -1    0    0    0  501 -0.00000000000E+00  0.00000000000E+00  0.15103666666E+04  0.15103666666E+04  0.00000000000E+00 0.  1.
          4   -1    0    0  501    0  0.00000000000E+00 -0.00000000000E+00 -0.31581323177E+02  0.31581323177E+02  0.00000000000E+00 0. -1.
         25    2    1    2    0    0 -0.18321310992E+03 -0.37642004953E+02  0.71195812493E+03  0.74666990895E+03  0.12509043569E+03 0.  0.
          5    1    3    3  502    0 -0.14042664099E+03  0.26756195872E+02  0.38600752816E+03  0.41164890346E+03  0.41800000000E+01 0.  1.
         -5    1    3    3    0  502 -0.42786468929E+02 -0.64398200824E+02  0.32595059677E+03  0.33502100550E+03  0.41800000000E+01 0.  1.
        -11    1    1    2    0    0  0.94924779972E+02  0.53912651874E+02  0.28568339917E+03  0.30583049626E+03  0.00000000000E+00 0. -1.
         11    1    1    2    0    0  0.88288329944E+02 -0.16270646922E+02  0.48114381928E+03  0.48944758452E+03  0.00000000000E+00 0.  1.
</event>
<event>
 7    1  0.2733606E-009  0.1087988E+03  0.7561462E-02  0.1262811E+00
         -2   -1    0    0    0  501 -0.00000000000E+00  0.00000000000E+00  0.63854225473E+02  0.63854225473E+02  0.00000000000E+00 0.  1.
          2   -1    0    0  501    0  0.00000000000E+00 -0.00000000000E+00 -0.29835469154E+03  0.29835469154E+03  0.00000000000E+00 0. -1.
         25    2    1    2    0    0 -0.18849125540E+02  0.23661527914E+02 -0.23156531640E+03  0.26492470032E+03  0.12508974236E+03 0.  0.
          5    1    3    3  502    0  0.36256257334E+01 -0.50169452228E+02 -0.76260724575E+02  0.91451023021E+02  0.41800000000E+01 0. -1.
         -5    1    3    3    0  502 -0.22474751273E+02  0.73830980142E+02 -0.15530459182E+03  0.17347367730E+03  0.41800000000E+01 0. -1.
        -11    1    1    2    0    0  0.39622484487E+02  0.17817839630E+02 -0.20036294701E+02  0.47842134059E+02  0.00000000000E+00 0.  1.
         11    1    1    2    0    0 -0.20773358947E+02 -0.41479367543E+02  0.17101145034E+02  0.49442082634E+02  0.00000000000E+00 0. -1.
</event>
<event>
 7    1  0.2733606E-009  0.1741194E+03  0.7561462E-02  0.1173619E+00
          2   -1    0    0  501    0  0.00000000000E+00  0.00000000000E+00  0.10408113964E+04  0.10408113964E+04  0.00000000000E+00 0. -1.
         -2   -1    0    0    0  501 -0.00000000000E+00 -0.00000000000E+00 -0.34729527869E+02  0.34729527869E+02  0.00000000000E+00 0.  1.
         25    2    1    2    0    0  0.11754312038E+03  0.92344699419E+02  0.40775518071E+03  0.45194654758E+03  0.12508983097E+03 0.  0.
          5    1    3    3  502    0  0.16324394365E+01  0.52267772881E+02  0.23026323214E+03  0.23616353109E+03  0.41800000000E+01 0.  1.
         -5    1    3    3    0  502  0.11591068095E+03  0.40076926538E+02  0.17749194857E+03  0.21578301649E+03  0.41800000000E+01 0.  1.
        -11    1    1    2    0    0  0.12156902416E+02 -0.22938481510E+02  0.13509123258E+03  0.13756309581E+03  0.00000000000E+00 0. -1.
         11    1    1    2    0    0 -0.12970002280E+03 -0.69406217908E+02  0.46323545527E+03  0.48603128090E+03  0.00000000000E+00 0.  1.
</event>
<event>
 7    1  0.2733606E-009  0.1184982E+03  0.7561462E-02  0.1245595E+00
         -1   -1    0    0    0  501 -0.00000000000E+00  0.00000000000E+00  0.89793652394E+02  0.89793652394E+02  0.00000000000E+00 0.  1.
          1   -1    0    0  501    0  0.00000000000E+00 -0.00000000000E+00 -0.16908178164E+03  0.16908178164E+03  0.00000000000E+00 0. -1.
         25    2    1    2    0    0 -0.70225003206E+02  0.92974756022E+01 -0.37389777005E+02  0.14853698536E+03  0.12508895422E+03 0.  0.
          5    1    3    3  502    0  0.27389721320E+02 -0.18898882183E+02  0.11825427727E+02  0.35562307612E+02  0.41800000000E+01 0. -1.
         -5    1    3    3    0  502 -0.97614724526E+02  0.28196357785E+02 -0.49215204732E+02  0.11297467775E+03  0.41800000000E+01 0. -1.
        -11    1    1    2    0    0  0.68619765988E+01  0.27602050663E+02 -0.79222584950E+01  0.29524940361E+02  0.00000000000E+00 0.  1.
         11    1    1    2    0    0  0.63363026607E+02 -0.36899526265E+02 -0.33976093750E+02  0.80813508313E+02  0.00000000000E+00 0. -1.
</event>
<event>
 7    1  0.2733606E-009  0.1131482E+03  0.7561462E-02  0.1254849E+00
         -3   -1    0    0    0  501 -0.00000000000E+00  0.00000000000E+00  0.41721806189E+02  0.41721806189E+02  0.00000000000E+00 0.  1.
          3   -1    0    0  501    0  0.00000000000E+00 -0.00000000000E+00 -0.42448165051E+03  0.42448165051E+03  0.00000000000E+00 0. -1.
         25    2    1    2    0    0 -0.46414767075E+02  0.63825289255E+02 -0.23159081022E+03  0.27479027617E+03  0.12508954532E+03 0.  0.
          5    1    3    3  502    0  0.12503824181E+02 -0.16380213567E+02  0.17288481013E+01  0.21097827646E+02  0.41800000000E+01 0.  1.
         -5    1    3    3    0  502 -0.58918591256E+02  0.80205502822E+02 -0.23331965832E+03  0.25369244852E+03  0.41800000000E+01 0.  1.
        -11    1    1    2    0    0  0.63384655044E+02 -0.35519832843E+02 -0.59266448721E+02  0.93764518685E+02  0.00000000000E+00 0. -1.
         11    1    1    2    0    0 -0.16969887969E+02 -0.28305456412E+02 -0.91902585385E+02  0.97648661849E+02  0.00000000000E+00 0.  1.
</event>
<event>
 7    1  0.2733606E-009  0.1150485E+03  0.7561462E-02  0.1251496E+00
          3   -1    0    0  501    0  0.00000000000E+00  0.00000000000E+00  0.49581860185E+03  0.49581860185E+03  0.00000000000E+00 0. -1.
         -3   -1    0    0    0  501 -0.00000000000E+00 -0.00000000000E+00 -0.32294159660E+02  0.32294159660E+02  0.00000000000E+00 0.  1.
         25    2    1    2    0    0 -0.41393120677E+02 -0.51879184820E+02  0.26681673709E+03  0.30206428462E+03  0.12508725192E+03 0.  0.
          5    1    3    3  502    0 -0.77657425375E+02 -0.63199638165E+02  0.16191932327E+03  0.19042113756E+03  0.41800000000E+01 0. -1.
         -5    1    3    3    0  502  0.36264304698E+02  0.11320453345E+02  0.10489741382E+03  0.11164314706E+03  0.41800000000E+01 0. -1.
        -11    1    1    2    0    0  0.82521417887E+01  0.57467741918E+02  0.53495909912E+02  0.78945877553E+02  0.00000000000E+00 0.  1.
         11    1    1    2    0    0  0.33140978888E+02 -0.55885570978E+01  0.14321179518E+03  0.14710259934E+03  0.00000000000E+00 0. -1.
</event>
<event>
 7    1  0.2733606E-009  0.1260562E+03  0.7561462E-02  0.1233428E+00
         -1   -1    0    0    0  501 -0.00000000000E+00  0.00000000000E+00  0.75643258955E+02  0.75643258955E+02  0.00000000000E+00 0.  1.
          1   -1    0    0  501    0  0.00000000000E+00 -0.00000000000E+00 -0.30544402630E+03  0.30544402630E+03  0.00000000000E+00 0. -1.
         25    2    1    2    0    0 -0.96450716975E+02  0.10205755694E+01 -0.73438873456E+02  0.17419644197E+03  0.12508936758E+03 0.  0.
          5    1    3    3  502    0 -0.89062320303E+02  0.41303143118E+02 -0.10270787512E+02  0.98797813767E+02  0.41800000000E+01 0. -1.
         -5    1    3    3    0  502 -0.73883966725E+01 -0.40282567549E+02 -0.63168085944E+02  0.75398628207E+02  0.41800000000E+01 0. -1.
        -11    1    1    2    0    0  0.96009551446E+02 -0.16311522535E+02 -0.71891900107E+02  0.12104687124E+03  0.00000000000E+00 0.  1.
         11    1    1    2    0    0  0.44116552942E+00  0.15290946966E+02 -0.84469993777E+02  0.85843972036E+02  0.00000000000E+00 0. -1.
</event>
<event>
 7    1  0.2733606E-009  0.9874450E+02  0.7561462E-02  0.1282958E+00
          1   -1    0    0  501    0  0.00000000000E+00  0.00000000000E+00  0.38092444934E+03  0.38092444934E+03  0.00000000000E+00 0. -1.
         -1   -1    0    0    0  501 -0.00000000000E+00 -0.00000000000E+00 -0.33934586135E+02  0.33934586135E+02  0.00000000000E+00 0.  1.
         25    2    1    2    0    0 -0.11415779760E+02 -0.31847986212E+02  0.18720371677E+03  0.22767769690E+03  0.12508911959E+03 0.  0.
          5    1    3    3  502    0 -0.47639596791E+02 -0.62192710872E+02  0.89172548699E+02  0.11877154672E+03  0.41800000000E+01 0. -1.
         -5    1    3    3    0  502  0.36223817031E+02  0.30344724660E+02  0.98031168069E+02  0.10890615018E+03  0.41800000000E+01 0. -1.
        -11    1    1    2    0    0 -0.11911024727E+02 -0.15064691533E+02  0.19002204712E+00  0.19205560377E+02  0.00000000000E+00 0.  1.
         11    1    1    2    0    0  0.23326804487E+02  0.46912677744E+02  0.15959612439E+03  0.16797577820E+03  0.00000000000E+00 0. -1.
</event>
<event>
 7    1  0.2733606E-009  0.1166437E+03  0.7561462E-02  0.1248739E+00
         -1   -1    0    0    0  501 -0.00000000000E+00  0.00000000000E+00  0.18517253382E+03  0.18517253382E+03  0.00000000000E+00 0.  1.
          1   -1    0    0  501    0  0.00000000000E+00 -0.00000000000E+00 -0.17113894794E+03  0.17113894794E+03  0.00000000000E+00 0. -1.
         25    2    1    2    0    0 -0.68989699957E+02  0.78960044894E+02  0.10153072642E+03  0.19222354911E+03  0.12508851679E+03 0.  0.
          5    1    3    3  502    0 -0.52255680147E+02  0.71266724356E+02 -0.48729548550E+00  0.88472097098E+02  0.41800000000E+01 0. -1.
         -5    1    3    3    0  502 -0.16734019810E+02  0.76933205384E+01  0.10201802191E+03  0.10375145201E+03  0.41800000000E+01 0. -1.
        -11    1    1    2    0    0  0.15542628404E+02  0.12535669539E+02  0.79341488855E+01  0.21486438212E+02  0.00000000000E+00 0.  1.
         11    1    1    2    0    0  0.53447071554E+02 -0.91495714433E+02 -0.95431289420E+02  0.14260149444E+03  0.00000000000E+00 0. -1.
</event>
<event>
 7    1  0.2733606E-009  0.1926293E+03  0.7561462E-02  0.1156111E+00
          1   -1    0    0  501    0  0.00000000000E+00  0.00000000000E+00  0.13630134566E+04  0.13630134566E+04  0.00000000000E+00 0. -1.
         -1   -1    0    0    0  501 -0.00000000000E+00 -0.00000000000E+00 -0.32083231926E+02  0.32083231926E+02  0.00000000000E+00 0.  1.
         25    2    1    2    0    0 -0.37089902251E+02  0.17196328008E+03  0.59633424849E+03  0.63419929131E+03  0.12508866703E+03 0.  0.
          5    1    3    3  502    0 -0.45303007922E+02  0.63696454809E+02  0.10484180922E+03  0.13083913116E+03  0.41800000000E+01 0.  1.
         -5    1    3    3    0  502  0.82131056712E+01  0.10826682527E+03  0.49149243927E+03  0.50336016014E+03  0.41800000000E+01 0.  1.
        -11    1    1    2    0    0 -0.94400547983E+01 -0.14343501187E+03  0.53409930853E+03  0.55310468145E+03  0.00000000000E+00 0. -1.
         11    1    1    2    0    0  0.46529957050E+02 -0.28528268214E+02  0.20049666762E+03  0.20779271574E+03  0.00000000000E+00 0.  1.
</event>
<event>
 7    1  0.2733606E-009  0.2760881E+03  0.7561462E-02  0.1097845E+00
         -2   -1    0    0    0  501 -0.00000000000E+00  0.00000000000E+00  0.67512484887E+02  0.67512484887E+02  0.00000000000E+00 0.  1.
          2   -1    0    0  501    0  0.00000000000E+00 -0.00000000000E+00 -0.12213147319E+04  0.12213147319E+04  0.00000000000E+00 0. -1.
         25    2    1    2    0    0 -0.60090676125E+01  0.25128890599E+03 -0.41600121092E+03  0.50188325291E+03  0.12509024300E+03 0.  0.
          5    1    3    3  502    0  0.57521006489E+02  0.15350040858E+03 -0.24965780264E+03  0.29869304049E+03  0.41800000000E+01 0.  1.
         -5    1    3    3    0  502 -0.63530074101E+02  0.97788497406E+02 -0.16634340829E+03  0.20319021241E+03  0.41800000000E+01 0.  1.
        -11    1    1    2    0    0  0.52561218618E+02 -0.96660462933E+02 -0.25096146977E+03  0.27402114171E+03  0.00000000000E+00 0.  1.
         11    1    1    2    0    0 -0.46552151005E+02 -0.15462844305E+03 -0.48683956632E+03  0.51292282216E+03  0.00000000000E+00 0. -1.
</event>
<event>
 7    1  0.2733606E-009  0.8222572E+02  0.7561462E-02  0.1322851E+00
          4   -1    0    0  501    0  0.00000000000E+00  0.00000000000E+00  0.73853936519E+02  0.73853936519E+02  0.00000000000E+00 0.  1.
         -4   -1    0    0    0  501 -0.00000000000E+00 -0.00000000000E+00 -0.19019292196E+03  0.19019292196E+03  0.00000000000E+00 0. -1.
         25    2    1    2    0    0 -0.17844232667E+02 -0.34401551775E+02 -0.51649297729E+02  0.14077305075E+03  0.12509004140E+03 0.  0.
          5    1    3    3  502    0 -0.66994186388E+02 -0.37210233627E+01 -0.47929468402E+02  0.82563753343E+02  0.41800000000E+01 0.  1.
         -5    1    3    3    0  502  0.49149953722E+02 -0.30680528413E+02 -0.37198293271E+01  0.58209297408E+02  0.41800000000E+01 0.  1.
        -11    1    1    2    0    0  0.66582901483E+01  0.76750534982E+01  0.26081542660E+02  0.27990822450E+02  0.00000000000E+00 0.  1.
         11    1    1    2    0    0  0.11185942519E+02  0.26726498277E+02 -0.90771230370E+02  0.95282985275E+02  0.00000000000E+00 0. -1.
</event>
<event>
 7    1  0.2733606E-009  0.1263334E+03  0.7561462E-02  0.1233000E+00
         -1   -1    0    0    0  501 -0.00000000000E+00  0.00000000000E+00  0.32221753078E+02  0.32221753078E+02  0.00000000000E+00 0.  1.
          1   -1    0    0  501    0  0.00000000000E+00 -0.00000000000E+00 -0.62637667020E+03  0.62637667020E+03  0.00000000000E+00 0. -1.
         25    2    1    2    0    0  0.81883256921E+02  0.46910900145E+01 -0.41968229389E+03  0.44554224152E+03  0.12509111516E+03 0.  0.
          5    1    3    3  502    0  0.46633245748E+02 -0.52633429471E+02 -0.12734921899E+03  0.14553430347E+03  0.41800000000E+01 0.  1.
         -5    1    3    3    0  502  0.35250011173E+02  0.57324519485E+02 -0.29233307489E+03  0.30000793806E+03  0.41800000000E+01 0.  1.
        -11    1    1    2    0    0 -0.15812236634E+01  0.28037422724E+02 -0.15767610775E+02  0.32205820760E+02  0.00000000000E+00 0.  1.
         11    1    1    2    0    0 -0.80302033257E+02 -0.32728512739E+02 -0.15870501247E+03  0.18085036100E+03  0.00000000000E+00 0. -1.
</event>
<event>
 7    1  0.2733606E-009  0.1026691E+03  0.7561462E-02  0.1274781E+00
         -1   -1    0    0    0  501 -0.00000000000E+00  0.00000000000E+00  0.27676837437E+03  0.27676837437E+03  0.00000000000E+00 0.  1.
          1   -1    0    0  501    0  0.00000000000E+00 -0.00000000000E+00 -0.58096405489E+02  0.58096405489E+02  0.00000000000E+00 0. -1.
         25    2    1    2    0    0  0.11895928005E+02 -0.46002286027E+02  0.17288630764E+03  0.21861955564E+03  0.12508841400E+03 0.  0.
          5    1    3    3  502    0  0.11243846409E+02 -0.83489574394E+02  0.15588260447E+03  0.17723936327E+03  0.41800000000E+01 0.  1.
         -5    1    3    3    0  502  0.65208159600E+00  0.37487288367E+02  0.17003703168E+02  0.41380192375E+02  0.41800000000E+01 0.  1.
        -11    1    1    2    0    0  0.28639068519E+02  0.22413791164E+02 -0.15111543630E+02  0.39381887091E+02  0.00000000000E+00 0. -1.
         11    1    1    2    0    0 -0.40534996524E+02  0.23588494863E+02  0.60897204876E+02  0.76863337130E+02  0.00000000000E+00 0.  1.
</event>
<event>
 7    1  0.2733606E-009  0.1394699E+03  0.7561462E-02  0.1214044E+00
          2   -1    0    0  501    0  0.00000000000E+00  0.00000000000E+00  0.11510766664E+04  0.11510766664E+04  0.00000000000E+00 0. -1.
         -2   -1    0    0    0  501 -0.00000000000E+00 -0.00000000000E+00 -0.26374645668E+02  0.26374645668E+02  0.00000000000E+00 0.  1.
         25    2    1    2    0    0  0.12007017773E+03 -0.19543618680E+02  0.76802976651E+03  0.78760160459E+03  0.12509102564E+03 0.  0.
          5    1    3    3  502    0  0.12708751370E+03 -0.43678750234E+01  0.75588513561E+03  0.76651818316E+03  0.41800000000E+01 0.  1.
         -5    1    3    3    0  502 -0.70173359713E+01 -0.15175743656E+02  0.12144630897E+02  0.21083421432E+02  0.41800000000E+01 0.  1.
        -11    1    1    2    0    0 -0.74519463542E+02 -0.16576055114E+02  0.29654956119E+03  0.30621815473E+03  0.00000000000E+00 0. -1.
         11    1    1    2    0    0 -0.45550714191E+02  0.36119673793E+02  0.60122693076E+02  0.83631552783E+02  0.00000000000E+00 0.  1.
</event>
<event>
 7    1  0.2733606E-009  0.1277082E+03  0.7561462E-02  0.1230896E+00
          1   -1    0    0  501    0  0.00000000000E+00  0.00000000000E+00  0.61062800736E+03  0.61062800736E+03  0.00000000000E+00 0. -1.
         -1   -1    0    0    0  501 -0.00000000000E+00 -0.00000000000E+00 -0.32820760497E+02  0.32820760497E+02  0.00000000000E+00 0.  1.
         25    2    1    2    0    0  0.57505179587E+02 -0.39240324863E+02  0.44669451438E+03  0.46907441792E+03  0.12509265204E+03 0.  0.
          5    1    3    3  502    0  0.85805336579E+02 -0.60763048742E+02  0.29474032095E+03  0.31296011419E+03  0.41800000000E+01 0. -1.
         -5    1    3    3    0  502 -0.28300156993E+02  0.21522723879E+02  0.15195419343E+03  0.15611430373E+03  0.41800000000E+01 0. -1.
        -11    1    1    2    0    0  0.16932168851E+02 -0.14734783129E+02  0.19225963875E+02  0.29554185199E+02  0.00000000000E+00 0.  1.
         11    1    1    2    0    0 -0.74437348438E+02  0.53975107992E+02  0.11188676860E+03  0.14482016474E+03  0.00000000000E+00 0. -1.
</event>
<event>
 7    1  0.2733606E-009  0.7408474E+02  0.7561462E-02  0.1346729E+00
          2   -1    0    0  501    0  0.00000000000E+00  0.00000000000E+00  0.28346978811E+03  0.28346978811E+03  0.00000000000E+00 0. -1.
         -2   -1    0    0    0  501 -0.00000000000E+00 -0.00000000000E+00 -0.50387041381E+02  0.50387041381E+02  0.00000000000E+00 0.  1.
         25    2    1    2    0    0 -0.29720391231E+02  0.37805772597E+02  0.15064112628E+03  0.20162836148E+03  0.12509464069E+03 0.  0.
          5    1    3    3  502    0 -0.27786759487E+02 -0.24179794221E+02 -0.16848399896E+01  0.37108995367E+02  0.41800000000E+01 0.  1.
         -5    1    3    3    0  502 -0.19336317439E+01  0.61985566817E+02  0.15232596627E+03  0.16451936611E+03  0.41800000000E+01 0.  1.
        -11    1    1    2    0    0  0.94653355834E+01 -0.19345830693E+02 -0.18028977735E+02  0.28087324206E+02  0.00000000000E+00 0.  1.
         11    1    1    2    0    0  0.20255055647E+02 -0.18459941903E+02  0.10047059818E+03  0.10414114381E+03  0.00000000000E+00 0. -1.
</event>
<event>
 7    1  0.2733606E-009  0.1018774E+03  0.7561462E-02  0.1276397E+00
         -1   -1    0    0    0  501 -0.00000000000E+00  0.00000000000E+00  0.23702963487E+02  0.23702963487E+02  0.00000000000E+00 0.  1.
          1   -1    0    0  501    0  0.00000000000E+00 -0.00000000000E+00 -0.58003736629E+03  0.58003736629E+03  0.00000000000E+00 0. -1.
         25    2    1    2    0    0  0.70908706156E+01 -0.44931158982E+02 -0.31605381947E+03  0.34293856413E+03  0.12509097680E+03 0.  0.
          5    1    3    3  502    0 -0.10275094345E+02  0.31233607960E+02 -0.24895088212E+02  0.41453029408E+02  0.41800000000E+01 0.  1.
         -5    1    3    3    0  502  0.17365964961E+02 -0.76164766942E+02 -0.29115873125E+03  0.30148553472E+03  0.41800000000E+01 0.  1.
        -11    1    1    2    0    0 -0.18316787108E+02 -0.19630197142E+02 -0.12810379218E+03  0.13088709219E+03  0.00000000000E+00 0. -1.
         11    1    1    2    0    0  0.11225916492E+02  0.64561356124E+02 -0.11217679115E+03  0.12991467345E+03  0.00000000000E+00 0.  1.
</event>
<event>
 7    1  0.2733606E-009  0.1276983E+03  0.7561462E-02  0.1230911E+00
         -2   -1    0    0    0  501 -0.00000000000E+00  0.00000000000E+00  0.52009197324E+02  0.52009197324E+02  0.00000000000E+00 0.  1.
          2   -1    0    0  501    0  0.00000000000E+00 -0.00000000000E+00 -0.36320836356E+03  0.36320836356E+03  0.00000000000E+00 0. -1.
         25    2    1    2    0    0 -0.75253786278E+02 -0.33837047733E+02 -0.20488772163E+03  0.25384009564E+03  0.12509091705E+03 0.  0.
          5    1    3    3  502    0 -0.75252694664E+02 -0.67140312925E+02 -0.19376751844E+03  0.21848137970E+03  0.41800000000E+01 0.  1.
         -5    1    3    3    0  502 -0.10916142498E-02  0.33303265193E+02 -0.11120203197E+02  0.35358715939E+02  0.41800000000E+01 0.  1.
        -11    1    1    2    0    0  0.21681494955E+02  0.58152565202E+02 -0.61989371347E+02  0.87718243388E+02  0.00000000000E+00 0. -1.
         11    1    1    2    0    0  0.53572291323E+02 -0.24315517469E+02 -0.44322073260E+02  0.73659221863E+02  0.00000000000E+00 0.  1.
</event>
<event>
 7    1  0.3232157E-009  0.1183497E+03  0.7561462E-02  0.1245845E+00
          2   -1    0    0  501    0  0.00000000000E+00  0.00000000000E+00  0.85423284828E+03  0.85423284828E+03  0.00000000000E+00 0. -1.
         -2   -1    0    0    0  501 -0.00000000000E+00 -0.00000000000E+00 -0.36049556137E+02  0.36049556137E+02  0.00000000000E+00 0.  1.
         25    2    1    2    0    0  0.24716720212E+02  0.10063511959E+03  0.66340400884E+03  0.68300102300E+03  0.12508866826E+03 0.  0.
          5    1    3    3  502    0  0.58440102182E+01  0.10925102854E+03  0.30646936173E+03  0.32543952092E+03  0.41800000000E+01 0.  1.
         -5    1    3    3    0  502  0.18872709994E+02 -0.86159089548E+01  0.35693464710E+03  0.35756150208E+03  0.41800000000E+01 0.  1.
        -11    1    1    2    0    0 -0.27454129676E+02 -0.68491334616E+02  0.32165617660E+02  0.80494839047E+02  0.00000000000E+00 0.  1.
         11    1    1    2    0    0  0.27374094640E+01 -0.32143784973E+02  0.12261366565E+03  0.12678654237E+03  0.00000000000E+00 0. -1.
</event>
<event>
 7    1  0.2733606E-009  0.2113674E+03  0.7561462E-02  0.1140488E+00
          2   -1    0    0  501    0  0.00000000000E+00  0.00000000000E+00  0.16574152189E+03  0.16574152189E+03  0.00000000000E+00 0. -1.
         -2   -1    0    0    0  501 -0.00000000000E+00 -0.00000000000E+00 -0.31808725043E+03  0.31808725043E+03  0.00000000000E+00 0.  1.
         25    2    1    2    0    0 -0.15394669005E+03  0.11378611943E+03 -0.10735718366E+02  0.22893238658E+03  0.12509163691E+03 0.  0.
          5    1    3    3  502    0 -0.17180012723E+03  0.91212172328E+02 -0.25663599418E+02  0.19624229114E+03  0.41800000000E+01 0. -1.
         -5    1    3    3    0  502  0.17853437183E+02  0.22573947104E+02  0.14927881052E+02  0.32690095439E+02  0.41800000000E+01 0. -1.
        -11    1    1    2    0    0  0.11593321963E+03 -0.53166920215E+02 -0.13051931455E+03  0.18248979229E+03  0.00000000000E+00 0.  1.
         11    1    1    2    0    0  0.38013470417E+02 -0.60619199218E+02 -0.11090695626E+02  0.72406593459E+02  0.00000000000E+00 0. -1.
</event>
<event>
 7    1  0.2733606E-009  0.9195760E+02  0.7561462E-02  0.1298179E+00
          2   -1    0    0  501    0  0.00000000000E+00  0.00000000000E+00  0.65967300684E+03  0.65967300684E+03  0.00000000000E+00 0. -1.
         -2   -1    0    0    0  501 -0.00000000000E+00 -0.00000000000E+00 -0.22271604664E+02  0.22271604664E+02  0.00000000000E+00 0.  1.
         25    2    1    2    0    0 -0.15309664290E+02 -0.50555296998E+02  0.40193382116E+03  0.42425039648E+03  0.12508948178E+03 0.  0.
          5    1    3    3  502    0  0.24726359942E+02 -0.98855842954E+01  0.33545396891E+03  0.33653522150E+03  0.41800000000E+01 0. -1.
         -5    1    3    3    0  502 -0.40036024232E+02 -0.40669712703E+02  0.66479852250E+02  0.87715174986E+02  0.41800000000E+01 0. -1.
        -11    1    1    2    0    0 -0.88086385010E+01 -0.21776619397E+02  0.95063096470E+02  0.97922446738E+02  0.00000000000E+00 0. -1.
         11    1    1    2    0    0  0.24118302791E+02  0.72331916395E+02  0.14040448455E+03  0.15977176828E+03  0.00000000000E+00 0.  1.
</event>
<event>
 7    1  0.2733606E-009  0.8593503E+02  0.7561462E-02  0.1313005E+00
         -1   -1    0    0    0  501 -0.00000000000E+00  0.00000000000E+00  0.21108339546E+02  0.21108339546E+02  0.00000000000E+00 0.  1.
          1   -1    0    0  501    0  0.00000000000E+00 -0.00000000000E+00 -0.65930071946E+03  0.65930071946E+03  0.00000000000E+00 0. -1.
         25    2    1    2    0    0 -0.33124866161E+02 -0.10860645819E+02 -0.42599400409E+03  0.44534636062E+03  0.12508908432E+03 0.  0.
          5    1    3    3  502    0 -0.36132957767E+02  0.19186346454E+02 -0.40775114295E+03  0.40981968414E+03  0.41800000000E+01 0.  1.
         -5    1    3    3    0  502  0.30080916058E+01 -0.30046992273E+02 -0.18242861136E+02  0.35526676487E+02  0.41800000000E+01 0.  1.
        -11    1    1    2    0    0  0.60796134023E+02 -0.14746720164E+02 -0.14681889765E+03  0.15959142952E+03  0.00000000000E+00 0.  1.
         11    1    1    2    0    0 -0.27671267862E+02  0.25607365984E+02 -0.65379478176E+02  0.75471268866E+02  0.00000000000E+00 0. -1.
</event>
<event>
 7    1  0.2733606E-009  0.1144574E+03  0.7561462E-02  0.1252531E+00
         -2   -1    0    0    0  501 -0.00000000000E+00  0.00000000000E+00  0.57463194552E+02  0.57463194552E+02  0.00000000000E+00 0.  1.
          2   -1    0    0  501    0  0.00000000000E+00 -0.00000000000E+00 -0.37076084270E+03  0.37076084270E+03  0.00000000000E+00 0. -1.
         25    2    1    2    0    0 -0.32589270792E+02  0.46379853353E+02 -0.59842624871E+02  0.14979905372E+03  0.12508183472E+03 0.  0.
          5    1    3    3  502    0 -0.58505297868E+02  0.61651031338E+02 -0.77134301226E+02  0.11485161022E+03  0.41800000000E+01 0.  1.
         -5    1    3    3    0  502  0.25916027077E+02 -0.15271177984E+02  0.17291676355E+02  0.34947443506E+02  0.41800000000E+01 0.  1.
        -11    1    1    2    0    0  0.45556429999E+02  0.17099356881E+02 -0.13348912658E+03  0.14208139651E+03  0.00000000000E+00 0. -1.
         11    1    1    2    0    0 -0.12967159208E+02 -0.63479210234E+02 -0.11996589669E+03  0.13634358701E+03  0.00000000000E+00 0.  1.
</event>
<event>
 7    1  0.2733606E-009  0.1806073E+03  0.7561462E-02  0.1167217E+00
          1   -1    0    0  501    0  0.00000000000E+00  0.00000000000E+00  0.14158582730E+03  0.14158582730E+03  0.00000000000E+00 0. -1.
         -1   -1    0    0    0  501 -0.00000000000E+00 -0.00000000000E+00 -0.40895541535E+03  0.40895541535E+03  0.00000000000E+00 0.  1.
         25    2    1    2    0    0 -0.60359463170E+02  0.14467874350E+03  0.29299812422E+02  0.20268428417E+03  0.12508891409E+03 0.  0.
          5    1    3    3  502    0 -0.79756942673E+02  0.13888028289E+03  0.55285921178E+02  0.16947834186E+03  0.41800000000E+01 0. -1.
         -5    1    3    3    0  502  0.19397479503E+02  0.57984606146E+01 -0.25986108755E+02  0.33205942312E+02  0.41800000000E+01 0. -1.
        -11    1    1    2    0    0 -0.23617582094E+02 -0.34205473739E+02 -0.51965243133E+02  0.66544655019E+02  0.00000000000E+00 0. -1.
         11    1    1    2    0    0  0.83977045263E+02 -0.11047326976E+03 -0.24470415734E+03  0.28131230347E+03  0.00000000000E+00 0.  1.
</event>
<event>
 7    1  0.2733606E-009  0.1057886E+03  0.7561462E-02  0.1268574E+00
         -2   -1    0    0    0  501 -0.00000000000E+00  0.00000000000E+00  0.21306616331E+02  0.21306616331E+02  0.00000000000E+00 0.  1.
          2   -1    0    0  501    0  0.00000000000E+00 -0.00000000000E+00 -0.55872060340E+03  0.55872060340E+03  0.00000000000E+00 0. -1.
         25    2    1    2    0    0 -0.17770695674E+02  0.16569992681E+02 -0.30844743917E+03  0.33373354475E+03  0.12509154200E+03 0.  0.
          5    1    3    3  502    0  0.26227560959E+02  0.55856940880E+02 -0.20973397907E+03  0.21866343355E+03  0.41800000000E+01 0. -1.
         -5    1    3    3    0  502 -0.43998256634E+02 -0.39286948199E+02 -0.98713460107E+02  0.11507011120E+03  0.41800000000E+01 0. -1.
        -11    1    1    2    0    0 -0.34908132504E+02  0.13954777596E+01 -0.95327260077E+02  0.10152739328E+03  0.00000000000E+00 0.  1.
         11    1    1    2    0    0  0.52678828178E+02 -0.17965470441E+02 -0.13363928782E+03  0.14476628170E+03  0.00000000000E+00 0. -1.
</event>
<event>
 7    1  0.2733606E-009  0.7733362E+02  0.7561462E-02  0.1336793E+00
          2   -1    0    0  501    0  0.00000000000E+00  0.00000000000E+00  0.22887983485E+03  0.22887983485E+03  0.00000000000E+00 0. -1.
         -2   -1    0    0    0  501 -0.00000000000E+00 -0.00000000000E+00 -0.87344455201E+02  0.87344455201E+02  0.00000000000E+00 0.  1.
         25    2    1    2    0    0  0.58517098690E+01 -0.97975285391E+01  0.17740115244E+03  0.21736296122E+03  0.12508098957E+03 0.  0.
          5    1    3    3  502    0 -0.45883410860E+02  0.32191409273E+02  0.59340346600E+02  0.81733245120E+02  0.41800000000E+01 0. -1.
         -5    1    3    3    0  502  0.51735120729E+02 -0.41988937812E+02  0.11806080583E+03  0.13562971610E+03  0.41800000000E+01 0. -1.
        -11    1    1    2    0    0 -0.85999985931E+01 -0.91486025526E+01  0.28801653073E+02  0.31419613687E+02  0.00000000000E+00 0. -1.
         11    1    1    2    0    0  0.27482887241E+01  0.18946131092E+02 -0.64667425860E+02  0.67441715144E+02  0.00000000000E+00 0.  1.
</event>
<event>
 7    1  0.2733606E-009  0.1386708E+03  0.7561462E-02  0.1215129E+00
         -1   -1    0    0    0  501 -0.00000000000E+00  0.00000000000E+00  0.54082585712E+02  0.54082585712E+02  0.00000000000E+00 0.  1.
          1   -1    0    0  501    0  0.00000000000E+00 -0.00000000000E+00 -0.36360103800E+03  0.36360103800E+03  0.00000000000E+00 0. -1.
         25    2    1    2    0    0  0.75142763206E+02 -0.16801434550E+02 -0.16212261950E+03  0.21876959360E+03  0.12509064020E+03 0.  0.
          5    1    3    3  502    0 -0.17197835867E+02  0.34939657368E+02 -0.29496063896E+02  0.49030963695E+02  0.41800000000E+01 0. -1.
         -5    1    3    3    0  502  0.92340599073E+02 -0.51741091918E+02 -0.13262655561E+03  0.16973862991E+03  0.41800000000E+01 0. -1.
        -11    1    1    2    0    0 -0.50298636576E+02 -0.43832500689E+02 -0.60363674770E+02  0.89972296790E+02  0.00000000000E+00 0.  1.
         11    1    1    2    0    0 -0.24844126630E+02  0.60633935239E+02 -0.87032158019E+02  0.10894173333E+03  0.00000000000E+00 0. -1.
</event>
<event>
 7    1  0.2733606E-009  0.2827340E+03  0.7561462E-02  0.1094205E+00
         -1   -1    0    0    0  501 -0.00000000000E+00  0.00000000000E+00  0.11823359470E+03  0.11823359470E+03  0.00000000000E+00 0.  1.
          1   -1    0    0  501    0  0.00000000000E+00 -0.00000000000E+00 -0.96001869451E+03  0.96001869451E+03  0.00000000000E+00 0. -1.
         25    2    1    2    0    0  0.21660947839E+03  0.14852499838E+03 -0.71815466560E+03  0.77483549414E+03  0.12507828744E+03 0.  0.
          5    1    3    3  502    0  0.94905435331E+02 -0.44273964078E+01 -0.21896530518E+03  0.23872561816E+03  0.41800000000E+01 0. -1.
         -5    1    3    3    0  502  0.12170404306E+03  0.15295239479E+03 -0.49918936042E+03  0.53610987598E+03  0.41800000000E+01 0. -1.
        -11    1    1    2    0    0 -0.21002713340E+03 -0.15834985004E+03 -0.10930253993E+03  0.28483875615E+03  0.00000000000E+00 0.  1.
         11    1    1    2    0    0 -0.65823449912E+01  0.98248516525E+01 -0.14327894289E+02  0.18578038926E+02  0.00000000000E+00 0. -1.
</event>
<event>
 7    1  0.2733606E-009  0.9983191E+02  0.7561462E-02  0.1280650E+00
          1   -1    0    0  501    0  0.00000000000E+00  0.00000000000E+00  0.49670672411E+03  0.49670672411E+03  0.00000000000E+00 0. -1.
         -1   -1    0    0    0  501 -0.00000000000E+00 -0.00000000000E+00 -0.65962020485E+02  0.65962020485E+02  0.00000000000E+00 0.  1.
         25    2    1    2    0    0  0.60863819690E+02  0.50521174892E+02  0.41541976733E+03  0.44099775706E+03  0.12509454418E+03 0.  0.
          5    1    3    3  502    0  0.82469729038E+01 -0.24759596018E+02  0.15487096432E+02  0.30632869813E+02  0.41800000000E+01 0. -1.
         -5    1    3    3    0  502  0.52616846786E+02  0.75280770910E+02  0.39993267090E+03  0.41036488725E+03  0.41800000000E+01 0. -1.
        -11    1    1    2    0    0 -0.54398215930E+02 -0.35547542431E+02  0.50893959809E+02  0.82540831195E+02  0.00000000000E+00 0. -1.
         11    1    1    2    0    0 -0.64656037592E+01 -0.14973632461E+02 -0.35569023516E+02  0.39130156337E+02  0.00000000000E+00 0.  1.
</event>
<event>
 7    1  0.2733606E-009  0.9271702E+02  0.7561462E-02  0.1296402E+00
         -1   -1    0    0    0  501 -0.00000000000E+00  0.00000000000E+00  0.18475697202E+02  0.18475697202E+02  0.00000000000E+00 0.  1.
          1   -1    0    0  501    0  0.00000000000E+00 -0.00000000000E+00 -0.92114055852E+03  0.92114055852E+03  0.00000000000E+00 0. -1.
         25    2    1    2    0    0  0.46518896174E+02 -0.23546789133E+02 -0.67696094673E+03  0.69039299262E+03  0.12509157398E+03 0.  0.
          5    1    3    3  502    0  0.53407932727E+02 -0.40803709465E+02 -0.16685593780E+03  0.17993256060E+03  0.41800000000E+01 0. -1.
         -5    1    3    3    0  502 -0.68890365523E+01  0.17256920332E+02 -0.51010500892E+03  0.51046043202E+03  0.41800000000E+01 0. -1.
        -11    1    1    2    0    0 -0.61555883722E+02  0.42538055302E+02 -0.12531910775E+03  0.14595715720E+03  0.00000000000E+00 0.  1.
         11    1    1    2    0    0  0.15036987548E+02 -0.18991266169E+02 -0.10038480684E+03  0.10326610591E+03  0.00000000000E+00 0. -1.
</event>
<event>
 7    1  0.2733606E-009  0.1138114E+03  0.7561462E-02  0.1253670E+00
         -1   -1    0    0    0  501 -0.00000000000E+00  0.00000000000E+00  0.12910279194E+03  0.12910279194E+03  0.00000000000E+00 0.  1.
          1   -1    0    0  501    0  0.00000000000E+00 -0.00000000000E+00 -0.16509693808E+03  0.16509693808E+03  0.00000000000E+00 0. -1.
         25    2    1    2    0    0  0.73446252283E+01 -0.52186933018E+02  0.63442656209E+02  0.14982116144E+03  0.12507593810E+03 0.  0.
          5    1    3    3  502    0 -0.55945679016E+02 -0.29060343142E+02  0.50943363868E+02  0.81161082215E+02  0.41800000000E+01 0.  1.
         -5    1    3    3    0  502  0.63290304245E+02 -0.23126589876E+02  0.12499292341E+02  0.68660079229E+02  0.41800000000E+01 0.  1.
        -11    1    1    2    0    0  0.34830641041E+02  0.39975649199E+02 -0.26571182919E+02  0.59306440172E+02  0.00000000000E+00 0.  1.
         11    1    1    2    0    0 -0.42175266269E+02  0.12211283819E+02 -0.72865619429E+02  0.85072128410E+02  0.00000000000E+00 0. -1.
</event>
<event>
 7    1  0.2733606E-009  0.8382271E+02  0.7561462E-02  0.1318540E+00
         -2   -1    0    0    0  501 -0.00000000000E+00  0.00000000000E+00  0.36904568783E+02  0.36904568783E+02  0.00000000000E+00 0.  1.
          2   -1    0    0  501    0  0.00000000000E+00 -0.00000000000E+00 -0.37342185709E+03  0.37342185709E+03  0.00000000000E+00 0. -1.
         25    2    1    2    0    0  0.19086743345E+02 -0.44117995496E+02 -0.18745557579E+03  0.23043000253E+03  0.12509073456E+03 0.  0.
          5    1    3    3  502    0  0.31418074580E+02  0.24411310531E+01  0.48356090285E+01  0.32154471630E+02  0.41800000000E+01 0.  1.
         -5    1    3    3    0  502 -0.12331331235E+02 -0.46559126549E+02 -0.19229118482E+03  0.19827553090E+03  0.41800000000E+01 0.  1.
        -11    1    1    2    0    0 -0.38589356008E+02  0.53422873746E+02 -0.63027106963E+02  0.91189681700E+02  0.00000000000E+00 0.  1.
         11    1    1    2    0    0  0.19502612664E+02 -0.93048782500E+01 -0.86034605558E+02  0.88706741646E+02  0.00000000000E+00 0. -1.
</event>
<event>
 7    1  0.2733606E-009  0.8748676E+02  0.7561462E-02  0.1309055E+00
         -1   -1    0    0    0  501 -0.00000000000E+00  0.00000000000E+00  0.73714386242E+02  0.73714386242E+02  0.00000000000E+00 0.  1.
          1   -1    0    0  501    0  0.00000000000E+00 -0.00000000000E+00 -0.51094674256E+03  0.51094674256E+03  0.00000000000E+00 0. -1.
         25    2    1    2    0    0 -0.10998606338E+02  0.11936689691E+02 -0.47065754969E+03  0.48726717456E+03  0.12508923384E+03 0.  0.
          5    1    3    3  502    0 -0.24197219411E+02  0.45194251385E+02 -0.81016916603E+02  0.95964779796E+02  0.41800000000E+01 0. -1.
         -5    1    3    3    0  502  0.13198613073E+02 -0.33257561694E+02 -0.38964063308E+03  0.39130239476E+03  0.41800000000E+01 0. -1.
        -11    1    1    2    0    0  0.37604476374E+02  0.22634595408E+02  0.30938392316E+02  0.53699214815E+02  0.00000000000E+00 0.  1.
         11    1    1    2    0    0 -0.26605870037E+02 -0.34571285099E+02  0.24868010577E+01  0.43694739424E+02  0.00000000000E+00 0. -1.
</event>
<event>
 7    1  0.2733606E-009  0.1029345E+03  0.7561462E-02  0.1274243E+00
          2   -1    0    0  501    0  0.00000000000E+00  0.00000000000E+00  0.47079240395E+02  0.47079240395E+02  0.00000000000E+00 0. -1.
         -2   -1    0    0    0  501 -0.00000000000E+00 -0.00000000000E+00 -0.35313197001E+03  0.35313197001E+03  0.00000000000E+00 0.  1.
         25    2    1    2    0    0 -0.36109988642E+02 -0.29900935432E+02 -0.10227344447E+03  0.16824192189E+03  0.12508992613E+03 0.  0.
          5    1    3    3  502    0  0.40965221195E+00 -0.62723766618E+02 -0.10097533280E+03  0.11894506693E+03  0.41800000000E+01 0.  1.
         -5    1    3    3    0  502 -0.36519640853E+02  0.32822831186E+02 -0.12981116708E+01  0.49296854961E+02  0.41800000000E+01 0.  1.
        -11    1    1    2    0    0  0.18109360251E+02  0.57773484735E+02 -0.18315287893E+03  0.19290075565E+03  0.00000000000E+00 0. -1.
         11    1    1    2    0    0  0.18000628391E+02 -0.27872549303E+02 -0.20626406215E+02  0.39068532868E+02  0.00000000000E+00 0.  1.
</event>
<event>
 7    1  0.2733606E-009  0.1114635E+03  0.7561462E-02  0.1257883E+00
         -2   -1    0    0    0  501 -0.00000000000E+00  0.00000000000E+00  0.19129503226E+02  0.19129503226E+02  0.00000000000E+00 0.  1.
          2   -1    0    0  501    0  0.00000000000E+00 -0.00000000000E+00 -0.73497961843E+03  0.73497961843E+03  0.00000000000E+00 0. -1.
         25    2    1    2    0    0  0.86532200865E+01  0.45641650298E+02 -0.36313155884E+03  0.38687266165E+03  0.12509152188E+03 0.  0.
          5    1    3    3  502    0 -0.39973361547E+01  0.82414145512E+02 -0.31047850046E+03  0.32128249520E+03  0.41800000000E+01 0. -1.
         -5    1    3    3    0  502  0.12650556241E+02 -0.36772495214E+02 -0.52653058388E+02  0.65590166451E+02  0.41800000000E+01 0. -1.
        -11    1    1    2    0    0 -0.50190935551E+00 -0.72821175006E+02 -0.22875294232E+03  0.24006474973E+03  0.00000000000E+00 0.  1.
         11    1    1    2    0    0 -0.81513107309E+01  0.27179524709E+02 -0.12396561404E+03  0.12717171027E+03  0.00000000000E+00 0. -1.
</event>
<event>
 7    1  0.2733606E-009  0.1278824E+03  0.7561462E-02  0.1230632E+00
          2   -1    0    0  501    0  0.00000000000E+00  0.00000000000E+00  0.61143209700E+03  0.61143209700E+03  0.00000000000E+00 0. -1.
         -2   -1    0    0    0  501 -0.00000000000E+00 -0.00000000000E+00 -0.32132911732E+02  0.32132911732E+02  0.00000000000E+00 0.  1.
         25    2    1    2    0    0  0.64204355087E+02 -0.61526221712E+02  0.34799880164E+03  0.38034034392E+03  0.12509171076E+03 0.  0.
          5    1    3    3  502    0  0.53990192969E+02  0.14884341442E+02  0.24649860139E+03  0.25281518437E+03  0.41800000000E+01 0. -1.
         -5    1    3    3    0  502  0.10214162118E+02 -0.76410563154E+02  0.10150020025E+03  0.12752515956E+03  0.41800000000E+01 0. -1.
        -11    1    1    2    0    0  0.15596367058E+02  0.34982424448E+02  0.46905383818E+02  0.60556846985E+02  0.00000000000E+00 0.  1.
         11    1    1    2    0    0 -0.79800722144E+02  0.26543797264E+02  0.18439499980E+03  0.20266781782E+03  0.00000000000E+00 0. -1.
</event>
<event>
 7    1  0.2733606E-009  0.1517106E+03  0.7561462E-02  0.1198387E+00
          1   -1    0    0  501    0  0.00000000000E+00  0.00000000000E+00  0.62202891742E+03  0.62202891742E+03  0.00000000000E+00 0. -1.
         -1   -1    0    0    0  501 -0.00000000000E+00 -0.00000000000E+00 -0.78055150447E+02  0.78055150447E+02  0.00000000000E+00 0.  1.
         25    2    1    2    0    0 -0.11204519170E+03  0.45028458983E+02  0.51859030029E+03  0.54695956554E+03  0.12508868728E+03 0.  0.
          5    1    3    3  502    0 -0.39208152081E+02  0.81951316049E+02  0.24149282504E+03  0.25804951916E+03  0.41800000000E+01 0. -1.
         -5    1    3    3    0  502 -0.72837039618E+02 -0.36922857066E+02  0.27709747525E+03  0.28891004639E+03  0.41800000000E+01 0. -1.
        -11    1    1    2    0    0  0.38112914826E+02  0.89736029877E+01 -0.27076798835E+02  0.47605386904E+02  0.00000000000E+00 0.  1.
         11    1    1    2    0    0  0.73932276872E+02 -0.54002061971E+02  0.52460265523E+02  0.10551911542E+03  0.00000000000E+00 0. -1.
</event>
<event>
 7    1  0.2733606E-009  0.1758187E+03  0.7561462E-02  0.1171912E+00
         -2   -1    0    0    0  501 -0.00000000000E+00  0.00000000000E+00  0.27130516690E+03  0.27130516690E+03  0.00000000000E+00 0.  1.
          2   -1    0    0  501    0  0.00000000000E+00 -0.00000000000E+00 -0.16412194506E+03  0.16412194506E+03  0.00000000000E+00 0. -1.
         25    2    1    2    0    0 -0.13632423304E+03 -0.70931223293E+02  0.15286228486E+03  0.25025904916E+03  0.12508868296E+03 0.  0.
          5    1    3    3  502    0 -0.86508809404E+02  0.38769624224E+00  0.16062472596E+02  0.88087455626E+02  0.41800000000E+01 0.  1.
         -5    1    3    3    0  502 -0.49815423634E+02 -0.71318919535E+02  0.13679981226E+03  0.16217159354E+03  0.41800000000E+01 0.  1.
        -11    1    1    2    0    0  0.14275362289E+03  0.42735770443E+02 -0.46910292154E+02  0.15622265659E+03  0.00000000000E+00 0.  1.
         11    1    1    2    0    0 -0.64293898531E+01  0.28195452850E+02  0.12312291370E+01  0.28945406207E+02  0.00000000000E+00 0. -1.
</event>
<event>
 7    1  0.2733606E-009  0.1652302E+03  0.7561462E-02  0.1182915E+00
         -1   -1    0    0    0  501 -0.00000000000E+00  0.00000000000E+00  0.11006117645E+03  0.11006117645E+03  0.00000000000E+00 0.  1.
          1   -1    0    0  501    0  0.00000000000E+00 -0.00000000000E+00 -0.34464076003E+03  0.34464076003E+03  0.00000000000E+00 0. -1.
         25    2    1    2    0    0  0.10804874389E+03 -0.11884436033E+03 -0.10731836039E+03  0.23014402575E+03  0.12510207461E+03 0.  0.
          5    1    3    3  502    0  0.77231612642E+02 -0.96970709661E+02 -0.85760899417E+01  0.12433447729E+03  0.41800000000E+01 0.  1.
         -5    1    3    3    0  502  0.30817131252E+02 -0.21873650671E+02 -0.98742270452E+02  0.10580954846E+03  0.41800000000E+01 0.  1.
        -11    1    1    2    0    0 -0.95551054988E+01  0.43109720054E+02  0.33606552062E+01  0.44283653955E+02  0.00000000000E+00 0.  1.
         11    1    1    2    0    0 -0.98493638395E+02  0.75734640278E+02 -0.13062187839E+03  0.18027425678E+03  0.00000000000E+00 0. -1.
</event>
<event>
 7    1  0.2733606E-009  0.1548938E+03  0.7561462E-02  0.1194585E+00
         -2   -1    0    0    0  501 -0.00000000000E+00  0.00000000000E+00  0.44410406470E+02  0.44410406470E+02  0.00000000000E+00 0.  1.
          2   -1    0    0  501    0  0.00000000000E+00 -0.00000000000E+00 -0.68976223444E+03  0.68976223444E+03  0.00000000000E+00 0. -1.
         25    2    1    2    0    0  0.11186924973E+03 -0.64237148615E+02 -0.43607033057E+03  0.47164052937E+03  0.12508523271E+03 0.  0.
          5    1    3    3  502    0  0.21448292035E+02 -0.73637967564E+02 -0.28597997572E+03  0.29611585302E+03  0.41800000000E+01 0. -1.
         -5    1    3    3    0  502  0.90420957697E+02  0.94008189488E+01 -0.15009035485E+03  0.17552467635E+03  0.41800000000E+01 0. -1.
        -11    1    1    2    0    0 -0.43636092838E+02  0.59211603895E+02 -0.16602022072E+03  0.18158424029E+03  0.00000000000E+00 0. -1.
         11    1    1    2    0    0 -0.68233156895E+02  0.50255447201E+01 -0.43261276676E+02  0.80947871245E+02  0.00000000000E+00 0.  1.
</event>
<event>
 7    1  0.2733606E-009  0.9606698E+02  0.7561462E-02  0.1288791E+00
         -1   -1    0    0    0  501 -0.00000000000E+00  0.00000000000E+00  0.36170005102E+03  0.36170005102E+03  0.00000000000E+00 0.  1.
          1   -1    0    0  501    0  0.00000000000E+00 -0.00000000000E+00 -0.40088508621E+02  0.40088508621E+02  0.00000000000E+00 0. -1.
         25    2    1    2    0    0  0.34197947012E+02  0.12145025291E+02  0.16078480381E+03  0.20691557290E+03  0.12508117345E+03 0.  0.
          5    1    3    3  502    0 -0.21445518087E+02  0.32568133473E+02  0.42083653048E+01  0.39443330266E+02  0.41800000000E+01 0.  1.
         -5    1    3    3    0  502  0.55643465099E+02 -0.20423108182E+02  0.15657643851E+03  0.16747224263E+03  0.41800000000E+01 0.  1.
        -11    1    1    2    0    0  0.13291299677E+02  0.28204435183E+02  0.11037371736E+03  0.11469309611E+03  0.00000000000E+00 0.  1.
         11    1    1    2    0    0 -0.47489246689E+02 -0.40349460474E+02  0.50453021229E+02  0.80179890639E+02  0.00000000000E+00 0. -1.
</event>
<event>
 7    1  0.2733606E-009  0.9958294E+02  0.7561462E-02  0.1281175E+00
          2   -1    0    0  501    0  0.00000000000E+00  0.00000000000E+00  0.36855037943E+03  0.36855037943E+03  0.00000000000E+00 0.  1.
         -2   -1    0    0    0  501 -0.00000000000E+00 -0.00000000000E+00 -0.41258797682E+02  0.41258797682E+02  0.00000000000E+00 0. -1.
         25    2    1    2    0    0 -0.57799280575E+02 -0.67766045377E+01  0.20945313243E+03  0.25081202601E+03  0.12509747600E+03 0.  0.
          5    1    3    3  502    0 -0.86076004029E+02 -0.13534226231E+02  0.20269963254E+03  0.22067366671E+03  0.41800000000E+01 0. -1.
         -5    1    3    3    0  502  0.28276723454E+02  0.67576216930E+01  0.67534998933E+01  0.30138359296E+02  0.41800000000E+01 0. -1.
        -11    1    1    2    0    0  0.34139903021E+02 -0.25449350408E+02  0.11040694341E+03  0.11833383104E+03  0.00000000000E+00 0.  1.
         11    1    1    2    0    0  0.23659377555E+02  0.32225954946E+02  0.74315058988E+01  0.40663320061E+02  0.00000000000E+00 0. -1.
</event>
<event>
 7    1  0.2733606E-009  0.1485563E+03  0.7561462E-02  0.1202258E+00
          1   -1    0    0  501    0  0.00000000000E+00  0.00000000000E+00  0.75426713678E+03  0.75426713678E+03  0.00000000000E+00 0. -1.
         -1   -1    0    0    0  501 -0.00000000000E+00 -0.00000000000E+00 -0.40654311235E+02  0.40654311235E+02  0.00000000000E+00 0.  1.
         25    2    1    2    0    0 -0.12545293302E+03 -0.48591422061E+02  0.31706695408E+03  0.36644085770E+03  0.12509150299E+03 0.  0.
          5    1    3    3  502    0 -0.60608036970E+02 -0.23776388381E+02  0.28024628914E+03  0.28773964928E+03  0.41800000000E+01 0. -1.
         -5    1    3    3    0  502 -0.64844896050E+02 -0.24815033680E+02  0.36820664941E+02  0.78701208421E+02  0.41800000000E+01 0. -1.
        -11    1    1    2    0    0 -0.89152841201E+01  0.24151298593E+02  0.62524807785E+02  0.67617446737E+02  0.00000000000E+00 0. -1.
         11    1    1    2    0    0  0.13436821714E+03  0.24440123468E+02  0.33402106368E+03  0.36086314358E+03  0.00000000000E+00 0.  1.
</event>
<event>
 7    1  0.2733606E-009  0.1685514E+03  0.7561462E-02  0.1179367E+00
          1   -1    0    0  501    0  0.00000000000E+00  0.00000000000E+00  0.82403680593E+03  0.82403680593E+03  0.00000000000E+00 0. -1.
         -1   -1    0    0    0  501 -0.00000000000E+00 -0.00000000000E+00 -0.45503454328E+02  0.45503454328E+02  0.00000000000E+00 0.  1.
         25    2    1    2    0    0  0.58372380435E+02  0.13216581372E+03  0.56572220416E+03  0.59713209189E+03  0.12509990315E+03 0.  0.
          5    1    3    3  502    0  0.70843771093E+02  0.48916020565E+02  0.15042549991E+03  0.17336931792E+03  0.41800000000E+01 0.  1.
         -5    1    3    3    0  502 -0.12471390658E+02  0.83249793154E+02  0.41529670424E+03  0.42376277397E+03  0.41800000000E+01 0.  1.
        -11    1    1    2    0    0 -0.27545483931E+02 -0.13296774274E+03  0.14935947246E+03  0.20185991753E+03  0.00000000000E+00 0.  1.
         11    1    1    2    0    0 -0.30826896504E+02  0.80192901654E+00  0.63451674980E+02  0.70548250836E+02  0.00000000000E+00 0. -1.
</event>
<event>
 7    1  0.2733606E-009  0.1519279E+03  0.7561462E-02  0.1198124E+00
          2   -1    0    0  501    0  0.00000000000E+00  0.00000000000E+00  0.38966190450E+03  0.38966190450E+03  0.00000000000E+00 0.  1.
         -2   -1    0    0    0  501 -0.00000000000E+00 -0.00000000000E+00 -0.72302719115E+02  0.72302719115E+02  0.00000000000E+00 0. -1.
         25    2    1    2    0    0  0.74436131821E+02 -0.10201644002E+03  0.18160057088E+03  0.25411490228E+03  0.12509006541E+03 0.  0.
          5    1    3    3  502    0  0.28195850903E+02 -0.12229593673E+03  0.14374322550E+03  0.19086877540E+03  0.41800000000E+01 0.  1.
         -5    1    3    3    0  502  0.46240280918E+02  0.20279496708E+02  0.37857345382E+02  0.63246126881E+02  0.41800000000E+01 0.  1.
        -11    1    1    2    0    0 -0.16618962407E+02  0.37307158430E+02  0.10999067219E+03  0.11732843624E+03  0.00000000000E+00 0.  1.
         11    1    1    2    0    0 -0.57817169414E+02  0.64709281588E+02  0.25767942310E+02  0.90521285086E+02  0.00000000000E+00 0. -1.
</event>
<event>
 7    1  0.2733606E-009  0.1961619E+03  0.7561462E-02  0.1153018E+00
          3   -1    0    0  501    0  0.00000000000E+00  0.00000000000E+00  0.54454903443E+03  0.54454903443E+03  0.00000000000E+00 0. -1.
         -3   -1    0    0    0  501 -0.00000000000E+00 -0.00000000000E+00 -0.93710073189E+02  0.93710073189E+02  0.00000000000E+00 0.  1.
         25    2    1    2    0    0  0.16239642619E+03 -0.61551466863E+02  0.99396380070E+02  0.23598149046E+03  0.12508573522E+03 0.  0.
          5    1    3    3  502    0  0.13747466225E+03 -0.23335074515E+01  0.10246163005E+03  0.17152430163E+03  0.41800000000E+01 0.  1.
         -5    1    3    3    0  502  0.24921763943E+02 -0.59217959412E+02 -0.30652499755E+01  0.64457188834E+02  0.41800000000E+01 0.  1.
        -11    1    1    2    0    0 -0.10884465183E+03  0.65879760714E-01  0.24586123938E+03  0.26887713106E+03  0.00000000000E+00 0. -1.
         11    1    1    2    0    0 -0.53551774359E+02  0.61485587102E+02  0.10558134178E+03  0.13340048610E+03  0.00000000000E+00 0.  1.
</event>
<event>
 7    1  0.2733606E-009  0.9422315E+02  0.7561462E-02  0.1292935E+00
         -2   -1    0    0    0  501 -0.00000000000E+00  0.00000000000E+00  0.52946445149E+02  0.52946445149E+02  0.00000000000E+00 0.  1.
          2   -1    0    0  501    0  0.00000000000E+00 -0.00000000000E+00 -0.26309574726E+03  0.26309574726E+03  0.00000000000E+00 0. -1.
         25    2    1    2    0    0  0.42874708524E+01  0.40298936981E+02 -0.15860401585E+03  0.20601876922E+03  0.12508442229E+03 0.  0.
          5    1    3    3  502    0  0.21006228268E+02  0.75442663617E+02 -0.56464774852E+02  0.96636433702E+02  0.41800000000E+01 0.  1.
         -5    1    3    3    0  502 -0.16718757416E+02 -0.35143726635E+02 -0.10213924100E+03  0.10938233552E+03  0.41800000000E+01 0.  1.
        -11    1    1    2    0    0  0.15690939051E+02  0.87168646821E+01  0.16112653012E+02  0.24120673400E+02  0.00000000000E+00 0.  1.
         11    1    1    2    0    0 -0.19978409903E+02 -0.49015801663E+02 -0.67657939271E+02  0.85902749789E+02  0.00000000000E+00 0. -1.
</event>
<event>
 7    1  0.2733606E-009  0.1551336E+03  0.7561462E-02  0.1194303E+00
         -1   -1    0    0    0  501 -0.00000000000E+00  0.00000000000E+00  0.72746052506E+02  0.72746052506E+02  0.00000000000E+00 0.  1.
          1   -1    0    0  501    0  0.00000000000E+00 -0.00000000000E+00 -0.39478033832E+03  0.39478033832E+03  0.00000000000E+00 0. -1.
         25    2    1    2    0    0 -0.11672318763E+03 -0.14543573644E+02 -0.23857338668E+03  0.29393924218E+03  0.12508876526E+03 0.  0.
          5    1    3    3  502    0 -0.11308061569E+03  0.29659156262E+02 -0.21181677179E+03  0.24197253647E+03  0.41800000000E+01 0. -1.
         -5    1    3    3    0  502 -0.36425719440E+01 -0.44202729906E+02 -0.26756614891E+02  0.51966705706E+02  0.41800000000E+01 0. -1.
        -11    1    1    2    0    0  0.10527776225E+03  0.46279714936E+02 -0.79080596231E+02  0.13956704460E+03  0.00000000000E+00 0.  1.
         11    1    1    2    0    0  0.11445425384E+02 -0.31736141291E+02 -0.43803029064E+01  0.34020104054E+02  0.00000000000E+00 0. -1.
</event>
<event>
 7    1  0.2733606E-009  0.3557222E+03  0.7561462E-02  0.1060291E+00
          1   -1    0    0  501    0  0.00000000000E+00  0.00000000000E+00  0.17595446749E+04  0.17595446749E+04  0.00000000000E+00 0. -1.
         -1   -1    0    0    0  501 -0.00000000000E+00 -0.00000000000E+00 -0.86244579314E+02  0.86244579314E+02  0.00000000000E+00 0.  1.
         25    2    1    2    0    0  0.27129730895E+03 -0.22255909152E+03  0.53987932933E+03  0.65593601060E+03  0.12509029017E+03 0.  0.
          5    1    3    3  502    0  0.88299175235E+02 -0.31598514058E+02  0.23053364511E+03  0.24891453225E+03  0.41800000000E+01 0.  1.
         -5    1    3    3    0  502  0.18299813371E+03 -0.19096057746E+03  0.30934568423E+03  0.40702147835E+03  0.41800000000E+01 0.  1.
        -11    1    1    2    0    0 -0.12771362634E+03  0.79936219140E+02  0.61856070701E+03  0.63664583384E+03  0.00000000000E+00 0. -1.
         11    1    1    2    0    0 -0.14358368261E+03  0.14262287238E+03  0.51486005924E+03  0.55320740978E+03  0.00000000000E+00 0.  1.
</event>
<event>
 7    1  0.2733606E-009  0.9202228E+02  0.7561462E-02  0.1298027E+00
          2   -1    0    0  501    0  0.00000000000E+00  0.00000000000E+00  0.11164464657E+03  0.11164464657E+03  0.00000000000E+00 0. -1.
         -2   -1    0    0    0  501 -0.00000000000E+00 -0.00000000000E+00 -0.11996433124E+03  0.11996433124E+03  0.00000000000E+00 0.  1.
         25    2    1    2    0    0  0.32873533576E+02  0.90664220593E+01 -0.40332583568E+02  0.13577852237E+03  0.12508485369E+03 0.  0.
          5    1    3    3  502    0  0.34997143710E+02  0.55397697874E+02 -0.56358583500E+02  0.86530152731E+02  0.41800000000E+01 0.  1.
         -5    1    3    3    0  502 -0.21236101345E+01 -0.46331275814E+02  0.16025999932E+02  0.49248369642E+02  0.41800000000E+01 0.  1.
        -11    1    1    2    0    0  0.53684240900E+01 -0.28443823341E+02 -0.14668053822E+02  0.32450313811E+02  0.00000000000E+00 0.  1.
         11    1    1    2    0    0 -0.38241957666E+02  0.19377401282E+02  0.46680952719E+02  0.63380141632E+02  0.00000000000E+00 0. -1.
</event>
<event>
 7    1  0.2733606E-009  0.3523951E+03  0.7561462E-02  0.1061636E+00
          1   -1    0    0  501    0  0.00000000000E+00  0.00000000000E+00  0.66683158366E+03  0.66683158366E+03  0.00000000000E+00 0. -1.
         -1   -1    0    0    0  501 -0.00000000000E+00 -0.00000000000E+00 -0.20507267970E+03  0.20507267970E+03  0.00000000000E+00 0.  1.
         25    2    1    2    0    0 -0.16002891942E+03 -0.30680056075E+03  0.15569564291E+03  0.39952991577E+03  0.12508869353E+03 0.  0.
          5    1    3    3  502    0 -0.94314884767E+01 -0.87894620806E+02  0.89084012496E+02  0.12557010402E+03  0.41800000000E+01 0.  1.
         -5    1    3    3    0  502 -0.15059743094E+03 -0.21890593994E+03  0.66611630417E+02  0.27395981175E+03  0.41800000000E+01 0.  1.
        -11    1    1    2    0    0  0.30878973376E+02  0.11681558471E+03  0.57177469805E+02  0.13367368806E+03  0.00000000000E+00 0.  1.
         11    1    1    2    0    0  0.12914994604E+03  0.18998497604E+03  0.24888579124E+03  0.33870065953E+03  0.00000000000E+00 0. -1.
</event>
<event>
 7    1  0.2733606E-009  0.2201613E+03  0.7561462E-02  0.1133763E+00
         -1   -1    0    0    0  501 -0.00000000000E+00  0.00000000000E+00  0.14750674629E+04  0.14750674629E+04  0.00000000000E+00 0.  1.
          1   -1    0    0  501    0  0.00000000000E+00 -0.00000000000E+00 -0.33764086053E+02  0.33764086053E+02  0.00000000000E+00 0. -1.
         25    2    1    2    0    0  0.19508561546E+03  0.61635080452E+01  0.71932180145E+03  0.75575960191E+03  0.12510929481E+03 0.  0.
          5    1    3    3  502    0  0.15800648787E+03  0.57650252404E+02  0.52408429060E+03  0.55042839486E+03  0.41800000000E+01 0. -1.
         -5    1    3    3    0  502  0.37079127594E+02 -0.51486744359E+02  0.19523751085E+03  0.20533120705E+03  0.41800000000E+01 0. -1.
        -11    1    1    2    0    0 -0.57417129995E+02  0.31862653596E+02  0.31458596878E+03  0.32136628209E+03  0.00000000000E+00 0. -1.
         11    1    1    2    0    0 -0.13766848546E+03 -0.38026161641E+02  0.40739560657E+03  0.43170566491E+03  0.00000000000E+00 0.  1.
</event>
<event>
 7    1  0.2733606E-009  0.9857830E+02  0.7561462E-02  0.1283314E+00
          2   -1    0    0  501    0  0.00000000000E+00  0.00000000000E+00  0.78637418968E+03  0.78637418968E+03  0.00000000000E+00 0. -1.
         -2   -1    0    0    0  501 -0.00000000000E+00 -0.00000000000E+00 -0.15801822430E+02  0.15801822430E+02  0.00000000000E+00 0.  1.
         25    2    1    2    0    0  0.34549892024E+01  0.25617330416E+02  0.41292091085E+03  0.43222646851E+03  0.12509139416E+03 0.  0.
          5    1    3    3  502    0  0.47397911867E+02  0.47915811040E+02  0.14729738889E+03  0.16203851447E+03  0.41800000000E+01 0. -1.
         -5    1    3    3    0  502 -0.43942922665E+02 -0.22298480624E+02  0.26562352196E+03  0.27018795404E+03  0.41800000000E+01 0. -1.
        -11    1    1    2    0    0 -0.21575923241E+02 -0.47257627193E+02  0.31186502332E+03  0.31616229465E+03  0.00000000000E+00 0. -1.
         11    1    1    2    0    0  0.18120934038E+02  0.21640296777E+02  0.45786433081E+02  0.53787248947E+02  0.00000000000E+00 0.  1.
</event>
<event>
 7    1  0.2733606E-009  0.1173027E+03  0.7561462E-02  0.1247614E+00
          1   -1    0    0  501    0  0.00000000000E+00  0.00000000000E+00  0.64704633518E+03  0.64704633518E+03  0.00000000000E+00 0. -1.
         -1   -1    0    0    0  501 -0.00000000000E+00 -0.00000000000E+00 -0.30266775168E+02  0.30266775168E+02  0.00000000000E+00 0.  1.
         25    2    1    2    0    0  0.61987189994E+02 -0.60046575714E+02  0.35106765304E+03  0.38254916804E+03  0.12508943191E+03 0.  0.
          5    1    3    3  502    0  0.87367516685E+02 -0.50787696978E+01  0.16477268892E+03  0.18661829570E+03  0.41800000000E+01 0. -1.
         -5    1    3    3    0  502 -0.25380326691E+02 -0.54967806017E+02  0.18629496412E+03  0.19593087234E+03  0.41800000000E+01 0. -1.
        -11    1    1    2    0    0 -0.21874274798E+02  0.21011511254E+02  0.84532456123E+01  0.31486899887E+02  0.00000000000E+00 0.  1.
         11    1    1    2    0    0 -0.40112915196E+02  0.39035064460E+02  0.25725866136E+03  0.26327704242E+03  0.00000000000E+00 0. -1.
</event>
<event>
 7    1  0.2733606E-009  0.1625760E+03  0.7561462E-02  0.1185819E+00
          1   -1    0    0  501    0  0.00000000000E+00  0.00000000000E+00  0.65224370729E+03  0.65224370729E+03  0.00000000000E+00 0. -1.
         -1   -1    0    0    0  501 -0.00000000000E+00 -0.00000000000E+00 -0.47568391966E+02  0.47568391966E+02  0.00000000000E+00 0.  1.
         25    2    1    2    0    0  0.10580967645E+03 -0.63893337377E+02  0.19317599455E+03  0.26123364716E+03  0.12509199553E+03 0.  0.
          5    1    3    3  502    0  0.13384476443E+03 -0.53746802072E+02  0.17154993210E+03  0.22416509831E+03  0.41800000000E+01 0. -1.
         -5    1    3    3    0  502 -0.28035087976E+02 -0.10146535305E+02  0.21626062454E+02  0.37068548849E+02  0.41800000000E+01 0. -1.
        -11    1    1    2    0    0  0.33517687659E+01  0.38539624661E+02  0.85212443912E+02  0.93582571136E+02  0.00000000000E+00 0.  1.
         11    1    1    2    0    0 -0.10916144522E+03  0.25353712716E+02  0.32628687686E+03  0.34499588096E+03  0.00000000000E+00 0. -1.
</event>
<event>
 7    1  0.2733606E-009  0.1584648E+03  0.7561462E-02  0.1190441E+00
         -2   -1    0    0    0  501 -0.00000000000E+00  0.00000000000E+00  0.57099433981E+02  0.57099433981E+02  0.00000000000E+00 0. -1.
          2   -1    0    0  501    0  0.00000000000E+00 -0.00000000000E+00 -0.53362198860E+03  0.53362198860E+03  0.00000000000E+00 0.  1.
         25    2    1    2    0    0 -0.13616659099E+03 -0.74500384929E+01 -0.24221995760E+03  0.30481914354E+03  0.12508940336E+03 0.  0.
          5    1    3    3  502    0 -0.43150654183E+01 -0.42800263819E+02 -0.92903207432E+02  0.10246443638E+03  0.41800000000E+01 0. -1.
         -5    1    3    3    0  502 -0.13185152558E+03  0.35350225326E+02 -0.14931675017E+03  0.20235470716E+03  0.41800000000E+01 0. -1.
        -11    1    1    2    0    0  0.22855673000E+02  0.67243403573E+01 -0.12910647936E+03  0.13128625805E+03  0.00000000000E+00 0.  1.
         11    1    1    2    0    0  0.11331091800E+03  0.72569813565E+00 -0.10519611766E+03  0.15461602098E+03  0.00000000000E+00 0. -1.
</event>
<event>
 7    1  0.2733606E-009  0.8848887E+02  0.7561462E-02  0.1306553E+00
         -2   -1    0    0    0  501 -0.00000000000E+00  0.00000000000E+00  0.64171863239E+02  0.64171863239E+02  0.00000000000E+00 0. -1.
          2   -1    0    0  501    0  0.00000000000E+00 -0.00000000000E+00 -0.25254930616E+03  0.25254930616E+03  0.00000000000E+00 0.  1.
         25    2    1    2    0    0 -0.57901050585E+02  0.19034494344E+02 -0.12892785181E+03  0.18970057990E+03  0.12509626456E+03 0.  0.
          5    1    3    3  502    0 -0.56333062858E+02  0.13618008250E+02 -0.15350830883E+03  0.16413755633E+03  0.41800000000E+01 0. -1.
         -5    1    3    3    0  502 -0.15679877263E+01  0.54164860937E+01  0.24580457011E+02  0.25563023569E+02  0.41800000000E+01 0. -1.
        -11    1    1    2    0    0 -0.10497423071E+02  0.27292375448E+02 -0.20339059881E+02  0.35619475089E+02  0.00000000000E+00 0.  1.
         11    1    1    2    0    0  0.68398473655E+02 -0.46326869792E+02 -0.39110531229E+02  0.91401114414E+02  0.00000000000E+00 0. -1.
</event>
<event>
 7    1  0.2733606E-009  0.8260326E+02  0.7561462E-02  0.1321822E+00
         -2   -1    0    0    0  501 -0.00000000000E+00  0.00000000000E+00  0.97233078474E+02  0.97233078474E+02  0.00000000000E+00 0. -1.
          2   -1    0    0  501    0  0.00000000000E+00 -0.00000000000E+00 -0.14464069627E+03  0.14464069627E+03  0.00000000000E+00 0.  1.
         25    2    1    2    0    0  0.11626037491E+02  0.38352382864E+02 -0.17710999184E+02  0.13254525027E+03  0.12509394013E+03 0.  0.
          5    1    3    3  502    0  0.13747534335E+02  0.48329546346E+02 -0.65976561711E+02  0.83036852334E+02  0.41800000000E+01 0. -1.
         -5    1    3    3    0  502 -0.21214968442E+01 -0.99771634822E+01  0.48265562527E+02  0.49508397934E+02  0.41800000000E+01 0. -1.
        -11    1    1    2    0    0 -0.16408706613E+02  0.30558911522E+02 -0.18624956084E+02  0.39369807153E+02  0.00000000000E+00 0.  1.
         11    1    1    2    0    0  0.47826691221E+01 -0.68911294386E+02 -0.11071662524E+02  0.69958717319E+02  0.00000000000E+00 0. -1.
</event>
<event>
 7    1  0.2733606E-009  0.9157705E+02  0.7561462E-02  0.1299077E+00
          2   -1    0    0  501    0  0.00000000000E+00  0.00000000000E+00  0.73579397218E+02  0.73579397218E+02  0.00000000000E+00 0. -1.
         -2   -1    0    0    0  501 -0.00000000000E+00 -0.00000000000E+00 -0.26916936622E+03  0.26916936622E+03  0.00000000000E+00 0.  1.
         25    2    1    2    0    0 -0.21116875082E+01 -0.42682161260E+02 -0.20190512192E+03  0.24132922380E+03  0.12509152606E+03 0.  0.
          5    1    3    3  502    0 -0.35405303304E+02  0.29092516852E+02 -0.11427340513E+03  0.12319007086E+03  0.41800000000E+01 0. -1.
         -5    1    3    3    0  502  0.33293615796E+02 -0.71774678112E+02 -0.87631716787E+02  0.11813915294E+03  0.41800000000E+01 0. -1.
        -11    1    1    2    0    0  0.14560203439E+02  0.12127842576E+01  0.42532219760E+02  0.44971769896E+02  0.00000000000E+00 0. -1.
         11    1    1    2    0    0 -0.12448515931E+02  0.41469377002E+02 -0.36217066851E+02  0.56447769744E+02  0.00000000000E+00 0.  1.
</event>
<event>
 7    1  0.2733606E-009  0.9749801E+02  0.7561462E-02  0.1285647E+00
          3   -1    0    0  501    0  0.00000000000E+00  0.00000000000E+00  0.63713353858E+03  0.63713353858E+03  0.00000000000E+00 0. -1.
         -3   -1    0    0    0  501 -0.00000000000E+00 -0.00000000000E+00 -0.21860882690E+02  0.21860882690E+02  0.00000000000E+00 0.  1.
         25    2    1    2    0    0 -0.11287477261E+02 -0.10187383149E+02  0.46747954641E+03  0.48416744806E+03  0.12509916676E+03 0.  0.
          5    1    3    3  502    0 -0.50494538179E+02 -0.40247250095E+02  0.36044487153E+03  0.36620693240E+03  0.41800000000E+01 0. -1.
         -5    1    3    3    0  502  0.39207060917E+02  0.30059866946E+02  0.10703467489E+03  0.11796051566E+03  0.41800000000E+01 0. -1.
        -11    1    1    2    0    0  0.44186785842E+02  0.16577066172E+02  0.12675786647E+03  0.13525837452E+03  0.00000000000E+00 0. -1.
         11    1    1    2    0    0 -0.32899308580E+02 -0.63896830226E+01  0.21035243009E+02  0.39568598695E+02  0.00000000000E+00 0.  1.
</event>
<event>
 7    1  0.2733606E-009  0.8808851E+02  0.7561462E-02  0.1307548E+00
         -2   -1    0    0    0  501 -0.00000000000E+00  0.00000000000E+00  0.10521115582E+03  0.10521115582E+03  0.00000000000E+00 0.  1.
          2   -1    0    0  501    0  0.00000000000E+00 -0.00000000000E+00 -0.12559106201E+03  0.12559106201E+03  0.00000000000E+00 0. -1.
         25    2    1    2    0    0  0.11335637039E+02  0.28112481613E+02 -0.17006840973E+02  0.12982894538E+03  0.12509002410E+03 0.  0.
          5    1    3    3  502    0 -0.15563450199E+02  0.70597279495E+02  0.91591551849E+01  0.72990132058E+02  0.41800000000E+01 0. -1.
         -5    1    3    3    0  502  0.26899087237E+02 -0.42484797882E+02 -0.26165996158E+02  0.56838813325E+02  0.41800000000E+01 0. -1.
        -11    1    1    2    0    0 -0.25702071015E+02 -0.29197740703E+02  0.39684372329E+02  0.55569361376E+02  0.00000000000E+00 0.  1.
         11    1    1    2    0    0  0.14366433976E+02  0.10852590901E+01 -0.43057437549E+02  0.45403911073E+02  0.00000000000E+00 0. -1.
</event>
<event>
 7    1  0.2733606E-009  0.1998971E+03  0.7561462E-02  0.1149826E+00
          1   -1    0    0  501    0  0.00000000000E+00  0.00000000000E+00  0.71518812131E+03  0.71518812131E+03  0.00000000000E+00 0. -1.
         -1   -1    0    0    0  501 -0.00000000000E+00 -0.00000000000E+00 -0.11462135813E+03  0.11462135813E+03  0.00000000000E+00 0.  1.
         25    2    1    2    0    0 -0.18073916485E+03  0.74311037852E+00  0.58637303060E+03  0.62621764608E+03  0.12509201142E+03 0.  0.
          5    1    3    3  502    0 -0.18721694259E+03  0.10213886728E+02  0.58451578283E+03  0.61386535971E+03  0.41800000000E+01 0.  1.
         -5    1    3    3    0  502  0.64777777445E+01 -0.94707763499E+01  0.18572477677E+01  0.12352286365E+02  0.41800000000E+01 0.  1.
        -11    1    1    2    0    0  0.37849276202E+02 -0.36673753449E+02 -0.11726320070E+02  0.53991096335E+02  0.00000000000E+00 0.  1.
         11    1    1    2    0    0  0.14288988864E+03  0.35930643071E+02  0.25920052655E+02  0.14960073702E+03  0.00000000000E+00 0. -1.
</event>
<event>
 7    1  0.2733606E-009  0.9040612E+02  0.7561462E-02  0.1301871E+00
          1   -1    0    0  501    0  0.00000000000E+00  0.00000000000E+00  0.43957480283E+03  0.43957480283E+03  0.00000000000E+00 0. -1.
         -1   -1    0    0    0  501 -0.00000000000E+00 -0.00000000000E+00 -0.32621411026E+02  0.32621411026E+02  0.00000000000E+00 0.  1.
         25    2    1    2    0    0 -0.35255969718E+02 -0.37977819153E+02  0.19440689078E+03  0.23691398317E+03  0.12509555584E+03 0.  0.
          5    1    3    3  502    0  0.53857665416E+01 -0.49397193864E+02  0.14295432270E+02  0.51874088200E+02  0.41800000000E+01 0. -1.
         -5    1    3    3    0  502 -0.40641736260E+02  0.11419374711E+02  0.18011145851E+03  0.18503989497E+03  0.41800000000E+01 0. -1.
        -11    1    1    2    0    0  0.54386165463E+02  0.11056359434E+02  0.71997435147E+02  0.90905053465E+02  0.00000000000E+00 0.  1.
         11    1    1    2    0    0 -0.19130195745E+02  0.26921459719E+02  0.14054906588E+03  0.14437717722E+03  0.00000000000E+00 0. -1.
</event>
<event>
 7    1  0.2733606E-009  0.8150853E+02  0.7561462E-02  0.1324824E+00
         -1   -1    0    0    0  501 -0.00000000000E+00  0.00000000000E+00  0.95670804848E+02  0.95670804848E+02  0.00000000000E+00 0.  1.
          1   -1    0    0  501    0  0.00000000000E+00 -0.00000000000E+00 -0.16074171064E+03  0.16074171064E+03  0.00000000000E+00 0. -1.
         25    2    1    2    0    0 -0.76827348317E+01 -0.46430588622E+02 -0.72973618853E+02  0.15227408776E+03  0.12508966696E+03 0.  0.
          5    1    3    3  502    0  0.29808358444E+02 -0.33646260814E+02  0.21310264419E+02  0.49922027898E+02  0.41800000000E+01 0. -1.
         -5    1    3    3    0  502 -0.37491093275E+02 -0.12784327808E+02 -0.94283883273E+02  0.10235205986E+03  0.41800000000E+01 0. -1.
        -11    1    1    2    0    0  0.34374928225E+02  0.34832316573E+02  0.38234082013E+02  0.62102906500E+02  0.00000000000E+00 0.  1.
         11    1    1    2    0    0 -0.26692193393E+02  0.11598272049E+02 -0.30331368953E+02  0.42035521231E+02  0.00000000000E+00 0. -1.
</event>
<event>
 7    1  0.2966600E-009  0.1049966E+03  0.7561462E-02  0.1270126E+00
         -1   -1    0    0    0  501 -0.00000000000E+00  0.00000000000E+00  0.10125738336E+03  0.10125738336E+03  0.00000000000E+00 0.  1.
          1   -1    0    0  501    0  0.00000000000E+00 -0.00000000000E+00 -0.15418098600E+03  0.15418098600E+03  0.00000000000E+00 0. -1.
         25    2    1    2    0    0 -0.59728780464E+02 -0.14299660915E+02 -0.22820681066E+02  0.14121631649E+03  0.12509699054E+03 0.  0.
          5    1    3    3  502    0 -0.84223861237E+02 -0.37282329536E+02  0.11615666623E+02  0.92930226559E+02  0.41800000000E+01 0.  1.
         -5    1    3    3    0  502  0.24495080772E+02  0.22982668621E+02 -0.34436347688E+02  0.48286089934E+02  0.41800000000E+01 0.  1.
        -11    1    1    2    0    0  0.45813813617E+02 -0.17649555982E+02  0.20148824160E+02  0.53069647253E+02  0.00000000000E+00 0.  1.
         11    1    1    2    0    0  0.13914966848E+02  0.31949216897E+02 -0.50251745738E+02  0.61152405615E+02  0.00000000000E+00 0. -1.
</event>
<event>
 7    1  0.2733606E-009  0.1082119E+03  0.7561462E-02  0.1263917E+00
         -2   -1    0    0    0  501 -0.00000000000E+00  0.00000000000E+00  0.28865373873E+02  0.28865373873E+02  0.00000000000E+00 0.  1.
          2   -1    0    0  501    0  0.00000000000E+00 -0.00000000000E+00 -0.49535047877E+03  0.49535047877E+03  0.00000000000E+00 0. -1.
         25    2    1    2    0    0  0.15323783249E+02 -0.64135952866E+00 -0.15486358513E+03  0.19966095457E+03  0.12508611876E+03 0.  0.
          5    1    3    3  502    0  0.70452479682E+02 -0.36549595810E+00 -0.91773921335E+02  0.11577396304E+03  0.41800000000E+01 0. -1.
         -5    1    3    3    0  502 -0.55128696433E+02 -0.27586357056E+00 -0.63089663790E+02  0.83886991532E+02  0.41800000000E+01 0. -1.
        -11    1    1    2    0    0 -0.52050985832E+02 -0.84268308599E+01 -0.19053096630E+03  0.19769260412E+03  0.00000000000E+00 0. -1.
         11    1    1    2    0    0  0.36727202584E+02  0.90681903885E+01 -0.12109055347E+03  0.12686229395E+03  0.00000000000E+00 0.  1.
</event>
<event>
 7    1  0.2733606E-009  0.9534670E+02  0.7561462E-02  0.1290397E+00
          1   -1    0    0  501    0  0.00000000000E+00  0.00000000000E+00  0.86227702100E+03  0.86227702100E+03  0.00000000000E+00 0. -1.
         -1   -1    0    0    0  501 -0.00000000000E+00 -0.00000000000E+00 -0.18330370368E+02  0.18330370368E+02  0.00000000000E+00 0.  1.
         25    2    1    2    0    0  0.39436353750E+02 -0.21016668118E+02  0.63091031344E+03  0.64474238859E+03  0.12509195700E+03 0.  0.
          5    1    3    3  502    0  0.52562712506E+02  0.24192771459E+02  0.53163803753E+03  0.53479398303E+03  0.41800000000E+01 0. -1.
         -5    1    3    3    0  502 -0.13126358756E+02 -0.45209439577E+02  0.99272275908E+02  0.10994840556E+03  0.41800000000E+01 0. -1.
        -11    1    1    2    0    0 -0.25748916903E+02 -0.25914362197E+02  0.15836760442E+03  0.16252648714E+03  0.00000000000E+00 0. -1.
         11    1    1    2    0    0 -0.13687436846E+02  0.46931030315E+02  0.54668732771E+02  0.73338515643E+02  0.00000000000E+00 0.  1.
</event>
<event>
 7    1  0.2733606E-009  0.1347643E+03  0.7561462E-02  0.1220553E+00
         -1   -1    0    0    0  501 -0.00000000000E+00  0.00000000000E+00  0.20064873990E+03  0.20064873990E+03  0.00000000000E+00 0.  1.
          1   -1    0    0  501    0  0.00000000000E+00 -0.00000000000E+00 -0.12618788479E+03  0.12618788479E+03  0.00000000000E+00 0. -1.
         25    2    1    2    0    0 -0.16782099657E+02 -0.99177462147E+02 -0.18946342308E+02  0.16163062507E+03  0.12509071590E+03 0.  0.
          5    1    3    3  502    0 -0.19812590176E+02 -0.12129199562E+03  0.11657088725E+02  0.12352184846E+03  0.41800000000E+01 0.  1.
         -5    1    3    3    0  502  0.30304905183E+01  0.22114533469E+02 -0.30603431032E+02  0.38108776604E+02  0.41800000000E+01 0.  1.
        -11    1    1    2    0    0  0.39445019766E+02  0.26001809486E+02  0.71197936113E+02  0.85446765812E+02  0.00000000000E+00 0.  1.
         11    1    1    2    0    0 -0.22662920109E+02  0.73175652662E+02  0.22209261299E+02  0.79759233809E+02  0.00000000000E+00 0. -1.
</event>
<event>
 7    1  0.2872142E-009  0.8948473E+02  0.7561462E-02  0.1304104E+00
          2   -1    0    0  501    0  0.00000000000E+00  0.00000000000E+00  0.35078983463E+03  0.35078983463E+03  0.00000000000E+00 0. -1.
         -2   -1    0    0    0  501 -0.00000000000E+00 -0.00000000000E+00 -0.45076197854E+02  0.45076197854E+02  0.00000000000E+00 0.  1.
         25    2    1    2    0    0  0.45217681648E+02 -0.23533868327E+02  0.11193959927E+03  0.17543368496E+03  0.12509205507E+03 0.  0.
          5    1    3    3  502    0  0.21854618068E+02 -0.51122409517E+02  0.12491811152E+03  0.13679595049E+03  0.41800000000E+01 0.  1.
         -5    1    3    3    0  502  0.23363063580E+02  0.27588541189E+02 -0.12978512248E+02  0.38637734470E+02  0.41800000000E+01 0.  1.
        -11    1    1    2    0    0  0.19005066464E+02  0.87341159378E+01  0.65044015123E+01  0.21903985289E+02  0.00000000000E+00 0.  1.
         11    1    1    2    0    0 -0.64222748112E+02  0.14799752389E+02  0.18726963600E+03  0.19852836224E+03  0.00000000000E+00 0. -1.
</event>
<event>
 7    1  0.2733606E-009  0.1414964E+03  0.7561462E-02  0.1211330E+00
          2   -1    0    0  501    0  0.00000000000E+00  0.00000000000E+00  0.50812503707E+03  0.50812503707E+03  0.00000000000E+00 0. -1.
         -2   -1    0    0    0  501 -0.00000000000E+00 -0.00000000000E+00 -0.61483918411E+02  0.61483918411E+02  0.00000000000E+00 0.  1.
         25    2    1    2    0    0  0.40245618913E+02  0.11404662858E+03  0.12376508753E+03  0.21352248866E+03  0.12509081876E+03 0.  0.
          5    1    3    3  502    0  0.31261292352E+02  0.36664932797E+01  0.93347548491E+02  0.98599943112E+02  0.41800000000E+01 0. -1.
         -5    1    3    3    0  502  0.89843265609E+01  0.11038013530E+03  0.30417539044E+02  0.11492254555E+03  0.41800000000E+01 0. -1.
        -11    1    1    2    0    0  0.19141280036E+02 -0.47570696501E+02  0.62318100335E+02  0.80702573666E+02  0.00000000000E+00 0.  1.
         11    1    1    2    0    0 -0.59386898949E+02 -0.66475932082E+02  0.26055793079E+03  0.27538389316E+03  0.00000000000E+00 0. -1.
</event>
<event>
 7    1  0.2733606E-009  0.1267340E+03  0.7561462E-02  0.1232384E+00
          2   -1    0    0  501    0  0.00000000000E+00  0.00000000000E+00  0.42956872700E+03  0.42956872700E+03  0.00000000000E+00 0.  1.
         -2   -1    0    0    0  501 -0.00000000000E+00 -0.00000000000E+00 -0.50224024308E+02  0.50224024308E+02  0.00000000000E+00 0. -1.
         25    2    1    2    0    0  0.68694977353E+02 -0.50427379405E+02  0.28774185011E+03  0.32512279966E+03  0.12509013570E+03 0.  0.
          5    1    3    3  502    0  0.35364613184E+02 -0.80124884720E+02  0.10419524206E+03  0.13617919769E+03  0.41800000000E+01 0.  1.
         -5    1    3    3    0  502  0.33330364169E+02  0.29697505315E+02  0.18354660805E+03  0.18894360197E+03  0.41800000000E+01 0.  1.
        -11    1    1    2    0    0 -0.44055001284E+02  0.74468589622E+02  0.81322271956E+02  0.11874226667E+03  0.00000000000E+00 0.  1.
         11    1    1    2    0    0 -0.24639976069E+02 -0.24041210217E+02  0.10280580622E+02  0.35927684970E+02  0.00000000000E+00 0. -1.
</event>
<event>
 7    1  0.2733606E-009  0.1044029E+03  0.7561462E-02  0.1271300E+00
          4   -1    0    0  501    0  0.00000000000E+00  0.00000000000E+00  0.19880668460E+03  0.19880668460E+03  0.00000000000E+00 0. -1.
         -4   -1    0    0    0  501 -0.00000000000E+00 -0.00000000000E+00 -0.98387651350E+02  0.98387651350E+02  0.00000000000E+00 0.  1.
         25    2    1    2    0    0  0.36738359712E+02 -0.36471596371E+01  0.14451196509E+03  0.19466400718E+03  0.12508940318E+03 0.  0.
          5    1    3    3  502    0  0.64005922392E+02  0.31858672253E+02  0.42739789042E+02  0.83402008767E+02  0.41800000000E+01 0.  1.
         -5    1    3    3    0  502 -0.27267562680E+02 -0.35505831890E+02  0.10177217605E+03  0.11126199841E+03  0.41800000000E+01 0.  1.
        -11    1    1    2    0    0 -0.37380828954E+02  0.40645179233E+02 -0.30676167181E+02  0.63169487897E+02  0.00000000000E+00 0.  1.
         11    1    1    2    0    0  0.64246924197E+00 -0.36998019596E+02 -0.13416764657E+02  0.39360840878E+02  0.00000000000E+00 0. -1.
</event>
<event>
 7    1  0.2733606E-009  0.1195897E+03  0.7561462E-02  0.1243775E+00
          4   -1    0    0  501    0  0.00000000000E+00  0.00000000000E+00  0.13865580385E+03  0.13865580385E+03  0.00000000000E+00 0. -1.
         -4   -1    0    0    0  501 -0.00000000000E+00 -0.00000000000E+00 -0.12557922733E+03  0.12557922733E+03  0.00000000000E+00 0.  1.
         25    2    1    2    0    0  0.63170238746E+01  0.67542861594E+02  0.37684752940E+02  0.14720668643E+03  0.12509086690E+03 0.  0.
          5    1    3    3  502    0 -0.52143437765E+02  0.33592759256E+02 -0.11857909093E+02  0.63288972060E+02  0.41800000000E+01 0.  1.
         -5    1    3    3    0  502  0.58460461639E+02  0.33950102338E+02  0.49542662032E+02  0.83917714370E+02  0.41800000000E+01 0.  1.
        -11    1    1    2    0    0 -0.26346713266E+02 -0.80980733607E+02 -0.33231846783E+02  0.91413260286E+02  0.00000000000E+00 0.  1.
         11    1    1    2    0    0  0.20029689391E+02  0.13437872013E+02  0.86236703612E+01  0.25615084459E+02  0.00000000000E+00 0. -1.
</event>
<event>
 7    1  0.2733606E-009  0.1105553E+03  0.7561462E-02  0.1259545E+00
         -2   -1    0    0    0  501 -0.00000000000E+00  0.00000000000E+00  0.74263414649E+02  0.74263414649E+02  0.00000000000E+00 0.  1.
          2   -1    0    0  501    0  0.00000000000E+00 -0.00000000000E+00 -0.34817185162E+03  0.34817185162E+03  0.00000000000E+00 0. -1.
         25    2    1    2    0    0  0.12342987901E+02  0.77823740885E+02 -0.26479134411E+03  0.30326667651E+03  0.12508931676E+03 0.  0.
          5    1    3    3  502    0 -0.50392922003E+02  0.14854122383E+02 -0.14321190066E+03  0.15260148240E+03  0.41800000000E+01 0.  1.
         -5    1    3    3    0  502  0.62735909904E+02  0.62969618502E+02 -0.12157944345E+03  0.15066519411E+03  0.41800000000E+01 0.  1.
        -11    1    1    2    0    0 -0.29175932108E+01 -0.49206135864E+02 -0.48787148572E+02  0.69353745555E+02  0.00000000000E+00 0. -1.
         11    1    1    2    0    0 -0.94253946907E+01 -0.28617605021E+02  0.39670055717E+02  0.49814844201E+02  0.00000000000E+00 0.  1.
</event>
<event>
 7    1  0.2931996E-009  0.1917853E+03  0.7561462E-02  0.1156861E+00
         -1   -1    0    0    0  501 -0.00000000000E+00  0.00000000000E+00  0.31891446647E+03  0.31891446647E+03  0.00000000000E+00 0.  1.
          1   -1    0    0  501    0  0.00000000000E+00 -0.00000000000E+00 -0.12974273511E+03  0.12974273511E+03  0.00000000000E+00 0. -1.
         25    2    1    2    0    0  0.13493177583E+03 -0.10174628600E+03  0.65625276258E+02  0.22025720831E+03  0.12509064747E+03 0.  0.
          5    1    3    3  502    0  0.12506947247E+03 -0.43519225894E+02  0.85642584724E+02  0.15776064365E+03  0.41800000000E+01 0.  1.
         -5    1    3    3    0  502  0.98623033651E+01 -0.58227060109E+02 -0.20017308466E+02  0.62496564664E+02  0.41800000000E+01 0.  1.
        -11    1    1    2    0    0 -0.90932965125E+02  0.11735910867E+02  0.53518837818E+02  0.10616403229E+03  0.00000000000E+00 0. -1.
         11    1    1    2    0    0 -0.43998810706E+02  0.90010375137E+02  0.70027617279E+02  0.12223596098E+03  0.00000000000E+00 0.  1.
</event>
<event>
 7    1  0.2733606E-009  0.1350449E+03  0.7561462E-02  0.1220156E+00
         -2   -1    0    0    0  501 -0.00000000000E+00  0.00000000000E+00  0.11564366029E+02  0.11564366029E+02  0.00000000000E+00 0.  1.
          2   -1    0    0  501    0  0.00000000000E+00 -0.00000000000E+00 -0.16339860937E+04  0.16339860937E+04  0.00000000000E+00 0. -1.
         25    2    1    2    0    0 -0.61977115318E+02 -0.44740398662E+02 -0.97767840097E+03  0.98860807873E+03  0.12509201220E+03 0.  0.
          5    1    3    3  502    0 -0.85772599313E+02  0.81234977135E+01 -0.49719148250E+03  0.50461844267E+03  0.41800000000E+01 0.  1.
         -5    1    3    3    0  502  0.23795483995E+02 -0.52863896375E+02 -0.48048691847E+03  0.48398963607E+03  0.41800000000E+01 0.  1.
        -11    1    1    2    0    0 -0.27643421185E+02  0.13809974393E+02 -0.17894069149E+03  0.18158922104E+03  0.00000000000E+00 0. -1.
         11    1    1    2    0    0  0.89620536503E+02  0.30930424269E+02 -0.46580263517E+03  0.47535315992E+03  0.00000000000E+00 0.  1.
</event>
<event>
 7    1  0.2733606E-009  0.1636640E+03  0.7561462E-02  0.1184621E+00
         -1   -1    0    0    0  501 -0.00000000000E+00  0.00000000000E+00  0.96681614576E+02  0.96681614576E+02  0.00000000000E+00 0.  1.
          1   -1    0    0  501    0  0.00000000000E+00 -0.00000000000E+00 -0.36771171249E+03  0.36771171249E+03  0.00000000000E+00 0. -1.
         25    2    1    2    0    0 -0.12357687460E+03  0.89644395909E+02 -0.16826859067E+03  0.25936330313E+03  0.12509053822E+03 0.  0.
          5    1    3    3  502    0 -0.47320427079E+02  0.16926176933E+02  0.10778801349E+02  0.51569111327E+02  0.41800000000E+01 0. -1.
         -5    1    3    3    0  502 -0.76256447520E+02  0.72718218976E+02 -0.17904739201E+03  0.20779419180E+03  0.41800000000E+01 0. -1.
        -11    1    1    2    0    0  0.32990997745E+01 -0.41911590846E+02 -0.49892029765E+02  0.65243238275E+02  0.00000000000E+00 0. -1.
         11    1    1    2    0    0  0.12027777482E+03 -0.47732805063E+02 -0.52869477481E+02  0.13978678566E+03  0.00000000000E+00 0.  1.
</event>
<event>
 7    1  0.2733606E-009  0.2408060E+03  0.7561462E-02  0.1119257E+00
          2   -1    0    0  501    0  0.00000000000E+00  0.00000000000E+00  0.35422848843E+03  0.35422848843E+03  0.00000000000E+00 0.  1.
         -2   -1    0    0    0  501 -0.00000000000E+00 -0.00000000000E+00 -0.21481285964E+03  0.21481285964E+03  0.00000000000E+00 0. -1.
         25    2    1    2    0    0 -0.31401885455E+01 -0.22096466085E+03 -0.57158888976E+02  0.26029417724E+03  0.12510266978E+03 0.  0.
          5    1    3    3  502    0  0.37405300584E+02 -0.28814086608E+02  0.16967590727E+02  0.50346595057E+02  0.41800000000E+01 0. -1.
         -5    1    3    3    0  502 -0.40545489129E+02 -0.19215057424E+03 -0.74126479702E+02  0.20994758218E+03  0.41800000000E+01 0. -1.
        -11    1    1    2    0    0  0.27709865118E+02  0.20831475235E+03  0.16858281036E+03  0.26941239137E+03  0.00000000000E+00 0.  1.
         11    1    1    2    0    0 -0.24569676573E+02  0.12649908498E+02  0.27991707412E+02  0.39334779467E+02  0.00000000000E+00 0. -1.
</event>
<event>
 7    1  0.2733606E-009  0.1105238E+03  0.7561462E-02  0.1259603E+00
          1   -1    0    0  501    0  0.00000000000E+00  0.00000000000E+00  0.91976292745E+02  0.91976292745E+02  0.00000000000E+00 0. -1.
         -1   -1    0    0    0  501 -0.00000000000E+00 -0.00000000000E+00 -0.18640626799E+03  0.18640626799E+03  0.00000000000E+00 0.  1.
         25    2    1    2    0    0 -0.63314636574E+02 -0.10043324003E+02 -0.13438271652E+02  0.14119980227E+03  0.12508871034E+03 0.  0.
          5    1    3    3  502    0  0.18464661410E+02  0.28547690747E+02  0.25452047099E+02  0.42675443402E+02  0.41800000000E+01 0. -1.
         -5    1    3    3    0  502 -0.81779297984E+02 -0.38591014751E+02 -0.38890318751E+02  0.98524358870E+02  0.41800000000E+01 0. -1.
        -11    1    1    2    0    0 -0.40118403046E+01  0.26629033076E+02  0.42904918178E+01  0.27269187469E+02  0.00000000000E+00 0. -1.
         11    1    1    2    0    0  0.67326476879E+02 -0.16585709072E+02 -0.85282195411E+02  0.10991357099E+03  0.00000000000E+00 0.  1.
</event>
<event>
 7    1  0.2733606E-009  0.1356840E+03  0.7561462E-02  0.1219257E+00
          1   -1    0    0  501    0  0.00000000000E+00  0.00000000000E+00  0.31686971797E+03  0.31686971797E+03  0.00000000000E+00 0. -1.
         -1   -1    0    0    0  501 -0.00000000000E+00 -0.00000000000E+00 -0.75749934736E+02  0.75749934736E+02  0.00000000000E+00 0.  1.
         25    2    1    2    0    0 -0.91218462366E+02  0.26909050786E+02  0.63467812801E+02  0.16947257286E+03  0.12509150571E+03 0.  0.
          5    1    3    3  502    0 -0.11564160298E+03  0.40043284119E+02  0.69484021061E+02  0.14079043478E+03  0.41800000000E+01 0. -1.
         -5    1    3    3    0  502  0.24423140618E+02 -0.13134233333E+02 -0.60162082597E+01  0.28682138078E+02  0.41800000000E+01 0. -1.
        -11    1    1    2    0    0  0.91392413155E+02  0.25371038886E+01  0.16951162093E+03  0.19259594936E+03  0.00000000000E+00 0. -1.
         11    1    1    2    0    0 -0.17395078906E+00 -0.29446154674E+02  0.81403495007E+01  0.30551130486E+02  0.00000000000E+00 0.  1.
</event>
<event>
 7    1  0.2733606E-009  0.1235551E+03  0.7561462E-02  0.1237345E+00
         -2   -1    0    0    0  501 -0.00000000000E+00  0.00000000000E+00  0.10444167868E+03  0.10444167868E+03  0.00000000000E+00 0.  1.
          2   -1    0    0  501    0  0.00000000000E+00 -0.00000000000E+00 -0.17233670537E+03  0.17233670537E+03  0.00000000000E+00 0. -1.
         25    2    1    2    0    0  0.52460390362E+01 -0.76613720086E+02 -0.18679445467E+02  0.14796586453E+03  0.12509113619E+03 0.  0.
          5    1    3    3  502    0  0.31013875192E+02  0.26117637672E+02 -0.39700306363E+01  0.40953937481E+02  0.41800000000E+01 0.  1.
         -5    1    3    3    0  502 -0.25767836156E+02 -0.10273135776E+03 -0.14709414831E+02  0.10701192705E+03  0.41800000000E+01 0.  1.
        -11    1    1    2    0    0 -0.33040460823E+02  0.23960137065E+02 -0.55556158053E+02  0.68936542684E+02  0.00000000000E+00 0. -1.
         11    1    1    2    0    0  0.27794421786E+02  0.52653583020E+02  0.63405768330E+01  0.59875976834E+02  0.00000000000E+00 0.  1.
</event>
<event>
 7    1  0.2733606E-009  0.1108839E+03  0.7561462E-02  0.1258942E+00
         -2   -1    0    0    0  501 -0.00000000000E+00  0.00000000000E+00  0.38500735844E+03  0.38500735844E+03  0.00000000000E+00 0.  1.
          2   -1    0    0  501    0  0.00000000000E+00 -0.00000000000E+00 -0.42430914964E+02  0.42430914964E+02  0.00000000000E+00 0. -1.
         25    2    1    2    0    0 -0.63650852733E+01 -0.66639835685E+02  0.18919551474E+03  0.23647978519E+03  0.12508542679E+03 0.  0.
          5    1    3    3  502    0  0.40682840987E+02 -0.71087206827E+02  0.16254974598E+03  0.18206695703E+03  0.41800000000E+01 0.  1.
         -5    1    3    3    0  502 -0.47047926260E+02  0.44473711423E+01  0.26645768762E+02  0.54412828160E+02  0.41800000000E+01 0.  1.
        -11    1    1    2    0    0  0.25995154078E+02  0.35449878804E+01  0.26369476132E+01  0.26367943935E+02  0.00000000000E+00 0. -1.
         11    1    1    2    0    0 -0.19630068805E+02  0.63094847804E+02  0.15074398112E+03  0.16459054428E+03  0.00000000000E+00 0.  1.
</event>
<event>
 7    1  0.2733606E-009  0.8091776E+02  0.7561462E-02  0.1326467E+00
         -2   -1    0    0    0  501 -0.00000000000E+00  0.00000000000E+00  0.14669135919E+02  0.14669135919E+02  0.00000000000E+00 0. -1.
          2   -1    0    0  501    0  0.00000000000E+00 -0.00000000000E+00 -0.14216996816E+04  0.14216996816E+04  0.00000000000E+00 0.  1.
         25    2    1    2    0    0  0.66039930023E+01  0.59257275362E+01 -0.12181168460E+04  0.12245555566E+04  0.12509569810E+03 0.  0.
          5    1    3    3  502    0 -0.45289032483E+02 -0.11661166796E+01 -0.20109615714E+03  0.20617854667E+03  0.41800000000E+01 0.  1.
         -5    1    3    3    0  502  0.51893025485E+02  0.70918442158E+01 -0.10170206889E+04  0.10183770099E+04  0.41800000000E+01 0.  1.
        -11    1    1    2    0    0  0.16139909762E+02  0.22312829146E+02 -0.10055422751E+02  0.29316728302E+02  0.00000000000E+00 0. -1.
         11    1    1    2    0    0 -0.22743902765E+02 -0.28238556682E+02 -0.17885827691E+03  0.18249653262E+03  0.00000000000E+00 0.  1.
</event>
<event>
 7    1  0.2733606E-009  0.1111294E+03  0.7561462E-02  0.1258493E+00
          2   -1    0    0  501    0  0.00000000000E+00  0.00000000000E+00  0.13138608170E+03  0.13138608170E+03  0.00000000000E+00 0. -1.
         -2   -1    0    0    0  501 -0.00000000000E+00 -0.00000000000E+00 -0.11590640654E+03  0.11590640654E+03  0.00000000000E+00 0.  1.
         25    2    1    2    0    0 -0.51713437618E+02  0.17877789123E+02 -0.49169691579E+01  0.13661918407E+03  0.12508688938E+03 0.  0.
          5    1    3    3  502    0 -0.66279640405E+02  0.46925635372E+02  0.31886332986E+02  0.87345386934E+02  0.41800000000E+01 0. -1.
         -5    1    3    3    0  502  0.14566202787E+02 -0.29047846249E+02 -0.36803302144E+02  0.49273797135E+02  0.41800000000E+01 0. -1.
        -11    1    1    2    0    0  0.24083814453E+02  0.38489685542E+02  0.28535088325E+01  0.45493170085E+02  0.00000000000E+00 0.  1.
         11    1    1    2    0    0  0.27629623165E+02 -0.56367474665E+02  0.17543135490E+02  0.65180134084E+02  0.00000000000E+00 0. -1.
</event>
<event>
 7    1  0.2733606E-009  0.1611555E+03  0.7561462E-02  0.1187398E+00
          2   -1    0    0  501    0  0.00000000000E+00  0.00000000000E+00  0.24387229029E+03  0.24387229029E+03  0.00000000000E+00 0. -1.
         -2   -1    0    0    0  501 -0.00000000000E+00 -0.00000000000E+00 -0.12405679920E+03  0.12405679920E+03  0.00000000000E+00 0.  1.
         25    2    1    2    0    0  0.86555613629E+02 -0.86659291661E+02  0.12791474163E+03  0.21683166314E+03  0.12510828083E+03 0.  0.
          5    1    3    3  502    0  0.38862890061E+02  0.27605413228E+02  0.55697727167E+02  0.73430867317E+02  0.41800000000E+01 0. -1.
         -5    1    3    3    0  502  0.47692723569E+02 -0.11426470489E+03  0.72217014462E+02  0.14340079582E+03  0.41800000000E+01 0. -1.
        -11    1    1    2    0    0 -0.92929877928E+02  0.99552831963E+02 -0.10171893972E+02  0.13656572041E+03  0.00000000000E+00 0.  1.
         11    1    1    2    0    0  0.63742642988E+01 -0.12893540302E+02  0.20726434353E+01  0.14531705945E+02  0.00000000000E+00 0. -1.
</event>
<event>
 7    1  0.2733606E-009  0.1308439E+03  0.7561462E-02  0.1226209E+00
          2   -1    0    0  501    0  0.00000000000E+00  0.00000000000E+00  0.10048815805E+04  0.10048815805E+04  0.00000000000E+00 0. -1.
         -2   -1    0    0    0  501 -0.00000000000E+00 -0.00000000000E+00 -0.20103676694E+02  0.20103676694E+02  0.00000000000E+00 0.  1.
         25    2    1    2    0    0  0.66975969208E+02  0.35715566167E+02  0.71171382176E+03  0.72659867036E+03  0.12509069337E+03 0.  0.
          5    1    3    3  502    0  0.96593004522E+02  0.54186901802E+02  0.51858653715E+03  0.53029793302E+03  0.41800000000E+01 0. -1.
         -5    1    3    3    0  502 -0.29617035314E+02 -0.18471335635E+02  0.19312728461E+03  0.19630073734E+03  0.41800000000E+01 0. -1.
        -11    1    1    2    0    0 -0.68107833466E+02  0.10983619853E+02  0.20097462819E+03  0.21248557141E+03  0.00000000000E+00 0. -1.
         11    1    1    2    0    0  0.11318642582E+01 -0.46699186020E+02  0.72089453839E+02  0.85901015398E+02  0.00000000000E+00 0.  1.
</event>
<event>
 7    1  0.2733606E-009  0.1774581E+03  0.7561462E-02  0.1170286E+00
         -2   -1    0    0    0  501 -0.00000000000E+00  0.00000000000E+00  0.61817745453E+02  0.61817745453E+02  0.00000000000E+00 0.  1.
          2   -1    0    0  501    0  0.00000000000E+00 -0.00000000000E+00 -0.61214339955E+03  0.61214339955E+03  0.00000000000E+00 0. -1.
         25    2    1    2    0    0  0.11085281212E+03  0.99951641303E+02 -0.18237586799E+03  0.26680540233E+03  0.12508192889E+03 0.  0.
          5    1    3    3  502    0  0.10600905864E+03  0.21916014608E+02 -0.14231218587E+03  0.17885318800E+03  0.41800000000E+01 0. -1.
         -5    1    3    3    0  502  0.48437534877E+01  0.78035626695E+02 -0.40063682118E+02  0.87952214335E+02  0.41800000000E+01 0. -1.
        -11    1    1    2    0    0 -0.97977063698E+02 -0.38123792599E+02 -0.27828941508E+03  0.29748601163E+03  0.00000000000E+00 0. -1.
         11    1    1    2    0    0 -0.12875748427E+02 -0.61827848704E+02 -0.89660371030E+02  0.10966973104E+03  0.00000000000E+00 0.  1.
</event>
<event>
 7    1  0.2733606E-009  0.8859863E+02  0.7561462E-02  0.1306281E+00
          2   -1    0    0  501    0  0.00000000000E+00  0.00000000000E+00  0.11576247966E+03  0.11576247966E+03  0.00000000000E+00 0. -1.
         -2   -1    0    0    0  501 -0.00000000000E+00 -0.00000000000E+00 -0.11115700231E+03  0.11115700231E+03  0.00000000000E+00 0.  1.
         25    2    1    2    0    0 -0.31915352920E+02  0.12283745497E+02 -0.59391011020E+01  0.12981901955E+03  0.12509286455E+03 0.  0.
          5    1    3    3  502    0 -0.50255546261E+02  0.27191279454E+02  0.45430422064E+02  0.73118952791E+02  0.41800000000E+01 0. -1.
         -5    1    3    3    0  502  0.18340193341E+02 -0.14907533957E+02 -0.51369523166E+02  0.56700066762E+02  0.41800000000E+01 0. -1.
        -11    1    1    2    0    0  0.61804873850E+02 -0.20130707068E+02  0.12275410663E+02  0.66149629671E+02  0.00000000000E+00 0.  1.
         11    1    1    2    0    0 -0.29889520930E+02  0.78469615715E+01 -0.17308322090E+01  0.30950832742E+02  0.00000000000E+00 0. -1.
</event>
<event>
 7    1  0.2733606E-009  0.1156766E+03  0.7561462E-02  0.1250405E+00
          1   -1    0    0  501    0  0.00000000000E+00  0.00000000000E+00  0.51372199415E+03  0.51372199415E+03  0.00000000000E+00 0. -1.
         -1   -1    0    0    0  501 -0.00000000000E+00 -0.00000000000E+00 -0.44968824537E+02  0.44968824537E+02  0.00000000000E+00 0.  1.
         25    2    1    2    0    0 -0.72593916553E+02  0.36495287195E+02  0.37678596140E+03  0.40523867567E+03  0.12509572673E+03 0.  0.
          5    1    3    3  502    0 -0.62462257181E+02  0.79432087376E+02  0.21680616564E+03  0.23923498059E+03  0.41800000000E+01 0. -1.
         -5    1    3    3    0  502 -0.10131659372E+02 -0.42936800181E+02  0.15997979576E+03  0.16600369508E+03  0.41800000000E+01 0. -1.
        -11    1    1    2    0    0  0.33385994104E+02 -0.16131672729E+01  0.95176676464E+02  0.10087530250E+03  0.00000000000E+00 0. -1.
         11    1    1    2    0    0  0.39207922449E+02 -0.34882119922E+02 -0.32094682424E+01  0.52576840523E+02  0.00000000000E+00 0.  1.
</event>
<event>
 7    1  0.2733606E-009  0.1781943E+03  0.7561462E-02  0.1169562E+00
         -2   -1    0    0    0  501 -0.00000000000E+00  0.00000000000E+00  0.40620554208E+02  0.40620554208E+02  0.00000000000E+00 0.  1.
          2   -1    0    0  501    0  0.00000000000E+00 -0.00000000000E+00 -0.81419461679E+03  0.81419461679E+03  0.00000000000E+00 0. -1.
         25    2    1    2    0    0  0.10913556854E+03  0.91345360523E+02 -0.42442866108E+03  0.46480318341E+03  0.12509102189E+03 0.  0.
          5    1    3    3  502    0  0.52333892959E+02 -0.24482156915E+02 -0.16829262081E+03  0.17798340085E+03  0.41800000000E+01 0.  1.
         -5    1    3    3    0  502  0.56801675585E+02  0.11582751744E+03 -0.25613604027E+03  0.28681978256E+03  0.41800000000E+01 0.  1.
        -11    1    1    2    0    0 -0.87406846476E+02 -0.11017414993E+03 -0.25068088494E+03  0.28743556877E+03  0.00000000000E+00 0.  1.
         11    1    1    2    0    0 -0.21728722069E+02  0.18828789403E+02 -0.98464516563E+02  0.10257641881E+03  0.00000000000E+00 0. -1.
</event>
<event>
 7    1  0.2733606E-009  0.1771571E+03  0.7561462E-02  0.1170583E+00
         -2   -1    0    0    0  501 -0.00000000000E+00  0.00000000000E+00  0.11974526285E+03  0.11974526285E+03  0.00000000000E+00 0. -1.
          2   -1    0    0  501    0  0.00000000000E+00 -0.00000000000E+00 -0.30117859233E+03  0.30117859233E+03  0.00000000000E+00 0.  1.
         25    2    1    2    0    0  0.26462910090E+02  0.15261927845E+03 -0.91802047044E+02  0.21925462851E+03  0.12510813929E+03 0.  0.
          5    1    3    3  502    0  0.63567259449E+02  0.10463930038E+03 -0.18297105618E+02  0.12386458788E+03  0.41800000000E+01 0. -1.
         -5    1    3    3    0  502 -0.37104349359E+02  0.47979978074E+02 -0.73504941426E+02  0.95390040630E+02  0.41800000000E+01 0. -1.
        -11    1    1    2    0    0 -0.46831523265E+02 -0.59652381853E+02 -0.79557432663E+01  0.76255439695E+02  0.00000000000E+00 0.  1.
         11    1    1    2    0    0  0.20368613175E+02 -0.92966896597E+02 -0.81675539167E+02  0.12541378698E+03  0.00000000000E+00 0. -1.
</event>
<event>
 7    1  0.2733606E-009  0.1116076E+03  0.7561462E-02  0.1257622E+00
          1   -1    0    0  501    0  0.00000000000E+00  0.00000000000E+00  0.91349606600E+03  0.91349606600E+03  0.00000000000E+00 0. -1.
         -1   -1    0    0    0  501 -0.00000000000E+00 -0.00000000000E+00 -0.22913646065E+02  0.22913646065E+02  0.00000000000E+00 0.  1.
         25    2    1    2    0    0  0.54030367693E+02  0.72793564835E+02  0.39343180604E+03  0.42267431503E+03  0.12508719705E+03 0.  0.
          5    1    3    3  502    0  0.53688238656E+02  0.77333692127E+02  0.40155653514E+03  0.41246581704E+03  0.41800000000E+01 0.  1.
         -5    1    3    3    0  502  0.34212903648E+00 -0.45401272917E+01 -0.81247291066E+01  0.10208497987E+02  0.41800000000E+01 0.  1.
        -11    1    1    2    0    0 -0.63663224676E+02 -0.16608939251E+02  0.18331250087E+03  0.19476225511E+03  0.00000000000E+00 0. -1.
         11    1    1    2    0    0  0.96328569833E+01 -0.56184625585E+02  0.31383811302E+03  0.31897314193E+03  0.00000000000E+00 0.  1.
</event>
<event>
 7    1  0.2733606E-009  0.1562589E+03  0.7561462E-02  0.1192986E+00
          2   -1    0    0  501    0  0.00000000000E+00  0.00000000000E+00  0.46611149866E+03  0.46611149866E+03  0.00000000000E+00 0. -1.
         -2   -1    0    0    0  501 -0.00000000000E+00 -0.00000000000E+00 -0.73172789492E+02  0.73172789492E+02  0.00000000000E+00 0.  1.
         25    2    1    2    0    0  0.47596926152E+02 -0.12236663474E+03  0.10317927240E+03  0.20864366259E+03  0.12508858865E+03 0.  0.
          5    1    3    3  502    0  0.60708519749E+02 -0.13146813784E+02  0.73418627189E+01  0.62687625820E+02  0.41800000000E+01 0.  1.
         -5    1    3    3    0  502 -0.13111593596E+02 -0.10921982096E+03  0.95837409682E+02  0.14595603677E+03  0.41800000000E+01 0.  1.
        -11    1    1    2    0    0  0.96557515155E+01  0.29913481558E+02  0.15156828006E+03  0.15479338951E+03  0.00000000000E+00 0. -1.
         11    1    1    2    0    0 -0.57252677668E+02  0.92453153182E+02  0.13819115671E+03  0.17584723605E+03  0.00000000000E+00 0.  1.
</event>
<event>
 7    1  0.2733606E-009  0.2234603E+03  0.7561462E-02  0.1131329E+00
          2   -1    0    0  501    0  0.00000000000E+00  0.00000000000E+00  0.11532472228E+04  0.11532472228E+04  0.00000000000E+00 0. -1.
         -2   -1    0    0    0  501 -0.00000000000E+00 -0.00000000000E+00 -0.67501427835E+02  0.67501427835E+02  0.00000000000E+00 0.  1.
         25    2    1    2    0    0 -0.52362294704E+02  0.29092146025E+02  0.15388122577E+03  0.20715318725E+03  0.12507936870E+03 0.  0.
          5    1    3    3  502    0 -0.44247193150E+02 -0.22483268437E+02  0.14590522672E+03  0.15417236797E+03  0.41800000000E+01 0. -1.
         -5    1    3    3    0  502 -0.81151015536E+01  0.51575414462E+02  0.79759990494E+01  0.52980819274E+02  0.41800000000E+01 0. -1.
        -11    1    1    2    0    0  0.15997464873E+03 -0.12309196007E+03  0.77739984381E+03  0.80317746235E+03  0.00000000000E+00 0. -1.
         11    1    1    2    0    0 -0.10761235402E+03  0.93999814046E+02  0.15446472543E+03  0.21041800108E+03  0.00000000000E+00 0.  1.
</event>
<event>
 7    1  0.2733606E-009  0.1265815E+03  0.7561462E-02  0.1232618E+00
         -1   -1    0    0    0  501 -0.00000000000E+00  0.00000000000E+00  0.77873405614E+03  0.77873405614E+03  0.00000000000E+00 0.  1.
          1   -1    0    0  501    0  0.00000000000E+00 -0.00000000000E+00 -0.25137838944E+02  0.25137838944E+02  0.00000000000E+00 0. -1.
         25    2    1    2    0    0 -0.52546664478E+02  0.62283487502E+02  0.30656551684E+03  0.34098454488E+03  0.12509060304E+03 0.  0.
          5    1    3    3  502    0 -0.79838061178E+02  0.19351602167E+02  0.25697209033E+03  0.26981610057E+03  0.41800000000E+01 0.  1.
         -5    1    3    3    0  502  0.27291396700E+02  0.42931885336E+02  0.49593426511E+02  0.71168444309E+02  0.41800000000E+01 0.  1.
        -11    1    1    2    0    0  0.71541886299E+02 -0.69310376148E+02  0.38216927072E+03  0.39493736367E+03  0.00000000000E+00 0.  1.
         11    1    1    2    0    0 -0.18995221820E+02  0.70268886463E+01  0.64861429637E+02  0.67949986538E+02  0.00000000000E+00 0. -1.
</event>
<event>
 7    1  0.2733606E-009  0.1771567E+03  0.7561462E-02  0.1170584E+00
          1   -1    0    0  501    0  0.00000000000E+00  0.00000000000E+00  0.11043548301E+04  0.11043548301E+04  0.00000000000E+00 0. -1.
         -1   -1    0    0    0  501 -0.00000000000E+00 -0.00000000000E+00 -0.45910644924E+02  0.45910644924E+02  0.00000000000E+00 0.  1.
         25    2    1    2    0    0  0.75394913692E+02 -0.13840724614E+03  0.84640956705E+03  0.86999885087E+03  0.12509151265E+03 0.  0.
          5    1    3    3  502    0  0.60752426737E+02 -0.23758292280E+02  0.14413670835E+03  0.15826615841E+03  0.41800000000E+01 0. -1.
         -5    1    3    3    0  502  0.14642486955E+02 -0.11464895386E+03  0.70227285870E+03  0.71173269246E+03  0.41800000000E+01 0. -1.
        -11    1    1    2    0    0 -0.62820492745E+02  0.40866748420E+02  0.47964182070E+02  0.88977908476E+02  0.00000000000E+00 0.  1.
         11    1    1    2    0    0 -0.12574420947E+02  0.97540497722E+02  0.16407043609E+03  0.19128871570E+03  0.00000000000E+00 0. -1.
</event>
<event>
 7    1  0.2733606E-009  0.1450691E+03  0.7561462E-02  0.1206666E+00
         -2   -1    0    0    0  501 -0.00000000000E+00  0.00000000000E+00  0.41389321405E+02  0.41389321405E+02  0.00000000000E+00 0.  1.
          2   -1    0    0  501    0  0.00000000000E+00 -0.00000000000E+00 -0.60536202079E+03  0.60536202079E+03  0.00000000000E+00 0. -1.
         25    2    1    2    0    0 -0.97321865278E+02 -0.46615423608E+02 -0.41572591822E+03  0.44734879687E+03  0.12509342029E+03 0.  0.
          5    1    3    3  502    0 -0.99871786657E+02 -0.77476322555E+02 -0.37665170271E+03  0.39731716787E+03  0.41800000000E+01 0.  1.
         -5    1    3    3    0  502  0.25499213794E+01  0.30860898947E+02 -0.39074215506E+02  0.50031628999E+02  0.41800000000E+01 0.  1.
        -11    1    1    2    0    0  0.73412293755E+02  0.68205999719E+02 -0.10150804541E+03  0.14263697471E+03  0.00000000000E+00 0.  1.
         11    1    1    2    0    0  0.23909571523E+02 -0.21590576111E+02 -0.46738735760E+02  0.56765570619E+02  0.00000000000E+00 0. -1.
</event>
<event>
 7    1  0.2733606E-009  0.1084597E+03  0.7561462E-02  0.1263449E+00
          2   -1    0    0  501    0  0.00000000000E+00  0.00000000000E+00  0.32039901827E+03  0.32039901827E+03  0.00000000000E+00 0. -1.
         -2   -1    0    0    0  501 -0.00000000000E+00 -0.00000000000E+00 -0.44908311428E+02  0.44908311428E+02  0.00000000000E+00 0.  1.
         25    2    1    2    0    0  0.21771513057E+02 -0.44656983043E+02  0.12848514557E+03  0.18607815092E+03  0.12509356778E+03 0.  0.
          5    1    3    3  502    0  0.56323286869E+02  0.17646728499E+02  0.81187902775E+02  0.10046226967E+03  0.41800000000E+01 0. -1.
         -5    1    3    3    0  502 -0.34551773811E+02 -0.62303711542E+02  0.47297242794E+02  0.85615881245E+02  0.41800000000E+01 0. -1.
        -11    1    1    2    0    0 -0.23449983387E+02 -0.14257732548E+02  0.85408179021E+01  0.28742481255E+02  0.00000000000E+00 0.  1.
         11    1    1    2    0    0  0.16784703298E+01  0.58914715591E+02  0.13846474337E+03  0.15048669752E+03  0.00000000000E+00 0. -1.
</event>
<event>
 7    1  0.2733606E-009  0.7780545E+02  0.7561462E-02  0.1335397E+00
         -1   -1    0    0    0  501 -0.00000000000E+00  0.00000000000E+00  0.66394918913E+02  0.66394918913E+02  0.00000000000E+00 0.  1.
          1   -1    0    0  501    0  0.00000000000E+00 -0.00000000000E+00 -0.20739023411E+03  0.20739023411E+03  0.00000000000E+00 0. -1.
         25    2    1    2    0    0 -0.39694706685E+02  0.41559202396E+01 -0.72731088502E+02  0.15009946486E+03  0.12508835560E+03 0.  0.
          5    1    3    3  502    0 -0.37934966864E+02  0.28089296733E+02  0.22029919919E+02  0.52257631726E+02  0.41800000000E+01 0. -1.
         -5    1    3    3    0  502 -0.17597398205E+01 -0.23933376493E+02 -0.94761008421E+02  0.97841833137E+02  0.41800000000E+01 0. -1.
        -11    1    1    2    0    0 -0.21999056259E+02  0.39993666606E+00  0.97962174994E+01  0.24084939338E+02  0.00000000000E+00 0.  1.
         11    1    1    2    0    0  0.61693762944E+02 -0.45558569056E+01 -0.78060444197E+02  0.99600748825E+02  0.00000000000E+00 0. -1.
</event>
<event>
 7    1  0.2733606E-009  0.1387457E+03  0.7561462E-02  0.1215027E+00
          2   -1    0    0  501    0  0.00000000000E+00  0.00000000000E+00  0.46364264167E+02  0.46364264167E+02  0.00000000000E+00 0. -1.
         -2   -1    0    0    0  501 -0.00000000000E+00 -0.00000000000E+00 -0.55448053243E+03  0.55448053243E+03  0.00000000000E+00 0.  1.
         25    2    1    2    0    0  0.89310008814E+02 -0.63824832756E+02 -0.34931683963E+03  0.38693497200E+03  0.12508609498E+03 0.  0.
          5    1    3    3  502    0 -0.36804118483E+01 -0.71832400537E+02 -0.13191616240E+03  0.15030896680E+03  0.41800000000E+01 0. -1.
         -5    1    3    3    0  502  0.92990420663E+02  0.80075677801E+01 -0.21740067722E+03  0.23662600519E+03  0.41800000000E+01 0. -1.
        -11    1    1    2    0    0 -0.54167007694E+02  0.51589273089E+02 -0.16005947645E+03  0.17667640992E+03  0.00000000000E+00 0.  1.
         11    1    1    2    0    0 -0.35143001120E+02  0.12235559668E+02  0.12600478168E+01  0.37233414679E+02  0.00000000000E+00 0. -1.
</event>
<event>
 7    1  0.2733606E-009  0.4775464E+03  0.7561462E-02  0.1019812E+00
          1   -1    0    0  501    0  0.00000000000E+00  0.00000000000E+00  0.69171852665E+03  0.69171852665E+03  0.00000000000E+00 0. -1.
         -1   -1    0    0    0  501 -0.00000000000E+00 -0.00000000000E+00 -0.42476966163E+03  0.42476966163E+03  0.00000000000E+00 0.  1.
         25    2    1    2    0    0 -0.20988758178E+03 -0.41442097270E+03 -0.12972846086E+03  0.49827176832E+03  0.12509093469E+03 0.  0.
          5    1    3    3  502    0 -0.22658685138E+03 -0.38962342919E+03 -0.12468457649E+03  0.46766626327E+03  0.41800000000E+01 0.  1.
         -5    1    3    3    0  502  0.16699269597E+02 -0.24797543515E+02 -0.50438843686E+01  0.30605505043E+02  0.41800000000E+01 0.  1.
        -11    1    1    2    0    0  0.11422074444E+03  0.31990679173E+03  0.28539223730E+03  0.44366142830E+03  0.00000000000E+00 0. -1.
         11    1    1    2    0    0  0.95666837336E+02  0.94514180976E+02  0.11128508859E+03  0.17455499166E+03  0.00000000000E+00 0.  1.
</event>
<event>
 7    1  0.2733606E-009  0.1318458E+03  0.7561462E-02  0.1224742E+00
          1   -1    0    0  501    0  0.00000000000E+00  0.00000000000E+00  0.34190519437E+03  0.34190519437E+03  0.00000000000E+00 0. -1.
         -1   -1    0    0    0  501 -0.00000000000E+00 -0.00000000000E+00 -0.59758827710E+02  0.59758827710E+02  0.00000000000E+00 0.  1.
         25    2    1    2    0    0 -0.77235623896E+02 -0.17053631234E+02  0.81730306447E+02  0.16906579940E+03  0.12508890278E+03 0.  0.
          5    1    3    3  502    0 -0.89668858157E+02 -0.55315322574E+02  0.45778306403E+02  0.11494961841E+03  0.41800000000E+01 0. -1.
         -5    1    3    3    0  502  0.12433234260E+02  0.38261691339E+02  0.35952000044E+02  0.54116180995E+02  0.41800000000E+01 0. -1.
        -11    1    1    2    0    0  0.78802514221E+02  0.44374399331E+02  0.15996684456E+03  0.18376157085E+03  0.00000000000E+00 0.  1.
         11    1    1    2    0    0 -0.15668903247E+01 -0.27320768097E+02  0.40449215652E+02  0.48836651825E+02  0.00000000000E+00 0. -1.
</event>
<event>
 7    1  0.2733606E-009  0.1154339E+03  0.7561462E-02  0.1250826E+00
         -2   -1    0    0    0  501 -0.00000000000E+00  0.00000000000E+00  0.15530160347E+03  0.15530160347E+03  0.00000000000E+00 0.  1.
          2   -1    0    0  501    0  0.00000000000E+00 -0.00000000000E+00 -0.12710907403E+03  0.12710907403E+03  0.00000000000E+00 0. -1.
         25    2    1    2    0    0  0.69167570590E+02  0.40027356941E+02  0.58230962676E+02  0.15945721546E+03  0.12509762757E+03 0.  0.
          5    1    3    3  502    0  0.86186407654E+02 -0.17523694659E+02  0.38983741307E+02  0.96293204460E+02  0.41800000000E+01 0.  1.
         -5    1    3    3    0  502 -0.17018837064E+02  0.57551051600E+02  0.19247221369E+02  0.63164011001E+02  0.41800000000E+01 0.  1.
        -11    1    1    2    0    0 -0.57541870437E+02 -0.41491706405E+02  0.18260488683E+02  0.73253491389E+02  0.00000000000E+00 0.  1.
         11    1    1    2    0    0 -0.11625700153E+02  0.14643494640E+01 -0.48298921920E+02  0.49699970644E+02  0.00000000000E+00 0. -1.
</event>
<event>
 7    1  0.2733606E-009  0.1911808E+03  0.7561462E-02  0.1157401E+00
         -1   -1    0    0    0  501 -0.00000000000E+00  0.00000000000E+00  0.32447168250E+02  0.32447168250E+02  0.00000000000E+00 0.  1.
          1   -1    0    0  501    0  0.00000000000E+00 -0.00000000000E+00 -0.11559505228E+04  0.11559505228E+04  0.00000000000E+00 0. -1.
         25    2    1    2    0    0  0.14812574725E+03  0.59745887972E+02 -0.64451486085E+03  0.67569084865E+03  0.12509160228E+03 0.  0.
          5    1    3    3  502    0  0.83742268913E+02 -0.30235799597E+02 -0.23070467017E+03  0.24732385332E+03  0.41800000000E+01 0. -1.
         -5    1    3    3    0  502  0.64383478341E+02  0.89981687569E+02 -0.41381019068E+03  0.42836699533E+03  0.41800000000E+01 0. -1.
        -11    1    1    2    0    0 -0.52370199587E+02  0.21808051707E+02 -0.16399499950E+03  0.17352979221E+03  0.00000000000E+00 0.  1.
         11    1    1    2    0    0 -0.95755547667E+02 -0.81553939679E+02 -0.31499349419E+03  0.33917705018E+03  0.00000000000E+00 0. -1.
</event>
<event>
 7    1  0.2733606E-009  0.1840927E+03  0.7561462E-02  0.1163900E+00
         -2   -1    0    0    0  501 -0.00000000000E+00  0.00000000000E+00  0.14458737787E+03  0.14458737787E+03  0.00000000000E+00 0.  1.
          2   -1    0    0  501    0  0.00000000000E+00 -0.00000000000E+00 -0.25666700136E+03  0.25666700136E+03  0.00000000000E+00 0. -1.
         25    2    1    2    0    0 -0.14900897658E+03 -0.42982744793E+02 -0.22056190139E+02  0.20046277216E+03  0.12509059136E+03 0.  0.
          5    1    3    3  502    0 -0.53022105203E+02 -0.75876706366E+02 -0.32909436797E+02  0.98331691938E+02  0.41800000000E+01 0. -1.
         -5    1    3    3    0  502 -0.95986871372E+02  0.32893961573E+02  0.10853246658E+02  0.10213108022E+03  0.41800000000E+01 0. -1.
        -11    1    1    2    0    0  0.46507157522E+02  0.53550170185E+02 -0.12920114362E+02  0.72093451733E+02  0.00000000000E+00 0.  1.
         11    1    1    2    0    0  0.10250181905E+03 -0.10567425392E+02 -0.77103318988E+02  0.12869815534E+03  0.00000000000E+00 0. -1.
</event>
<event>
 7    1  0.2733606E-009  0.6615184E+02  0.7561462E-02  0.1373690E+00
          1   -1    0    0  501    0  0.00000000000E+00  0.00000000000E+00  0.26456545194E+02  0.26456545194E+02  0.00000000000E+00 0. -1.
         -1   -1    0    0    0  501 -0.00000000000E+00 -0.00000000000E+00 -0.41688407556E+03  0.41688407556E+03  0.00000000000E+00 0.  1.
         25    2    1    2    0    0 -0.18102214045E+02 -0.17045737808E+02 -0.23939101960E+03  0.27124546315E+03  0.12509114151E+03 0.  0.
          5    1    3    3  502    0 -0.45836694666E+02  0.44306525701E+01 -0.23012514589E+03  0.23472470776E+03  0.41800000000E+01 0. -1.
         -5    1    3    3    0  502  0.27734480620E+02 -0.21476390378E+02 -0.92658737075E+01  0.36520755393E+02  0.41800000000E+01 0. -1.
        -11    1    1    2    0    0 -0.19830564320E+01  0.27857439530E+02 -0.14611481650E+03  0.14875990404E+03  0.00000000000E+00 0.  1.
         11    1    1    2    0    0  0.20085270477E+02 -0.10811701722E+02 -0.49216942670E+01  0.23335253561E+02  0.00000000000E+00 0. -1.
</event>
<event>
 7    1  0.2733606E-009  0.3211972E+03  0.7561462E-02  0.1075100E+00
          4   -1    0    0  501    0  0.00000000000E+00  0.00000000000E+00  0.55301772872E+02  0.55301772872E+02  0.00000000000E+00 0. -1.
         -4   -1    0    0    0  501 -0.00000000000E+00 -0.00000000000E+00 -0.19020539553E+04  0.19020539553E+04  0.00000000000E+00 0.  1.
         25    2    1    2    0    0  0.26094643344E+03 -0.15873300679E+03 -0.95645841602E+03  0.10118048733E+04  0.12508873423E+03 0.  0.
          5    1    3    3  502    0  0.89977920224E+02  0.81754096837E+01 -0.23530123281E+03  0.25208531495E+03  0.41800000000E+01 0. -1.
         -5    1    3    3    0  502  0.17096851321E+03 -0.16690841648E+03 -0.72115718321E+03  0.75971955832E+03  0.41800000000E+01 0. -1.
        -11    1    1    2    0    0 -0.14048266455E+03  0.12459042211E+03 -0.44512773493E+03  0.48311163588E+03  0.00000000000E+00 0. -1.
         11    1    1    2    0    0 -0.12046376889E+03  0.34142584678E+02 -0.44516603143E+03  0.46243921897E+03  0.00000000000E+00 0.  1.
</event>
<event>
 7    1  0.2733606E-009  0.8682316E+02  0.7561462E-02  0.1310732E+00
         -2   -1    0    0    0  501 -0.00000000000E+00  0.00000000000E+00  0.22888467179E+03  0.22888467179E+03  0.00000000000E+00 0.  1.
          2   -1    0    0  501    0  0.00000000000E+00 -0.00000000000E+00 -0.59004465334E+02  0.59004465334E+02  0.00000000000E+00 0. -1.
         25    2    1    2    0    0  0.26275136142E+01 -0.10834784214E+02  0.45041306683E+02  0.13341531880E+03  0.12508649650E+03 0.  0.
          5    1    3    3  502    0  0.13681901535E+02 -0.61763321280E+02 -0.15039863838E+01  0.63416375331E+02  0.41800000000E+01 0. -1.
         -5    1    3    3    0  502 -0.11054387921E+02  0.50928537066E+02  0.46545293067E+02  0.69998943468E+02  0.41800000000E+01 0. -1.
        -11    1    1    2    0    0 -0.26033555153E+02  0.20000427676E+02  0.12509990516E+03  0.12933580081E+03  0.00000000000E+00 0.  1.
         11    1    1    2    0    0  0.23406041538E+02 -0.91656434624E+01 -0.26100538745E+00  0.25138017511E+02  0.00000000000E+00 0. -1.
</event>
<event>
 7    1  0.2733606E-009  0.9068745E+02  0.7561462E-02  0.1301195E+00
          4   -1    0    0  501    0  0.00000000000E+00  0.00000000000E+00  0.31832513369E+03  0.31832513369E+03  0.00000000000E+00 0. -1.
         -4   -1    0    0    0  501 -0.00000000000E+00 -0.00000000000E+00 -0.54233934041E+02  0.54233934041E+02  0.00000000000E+00 0.  1.
         25    2    1    2    0    0 -0.14940208145E+02 -0.50664077237E+02  0.18458847400E+03  0.22915242211E+03  0.12509144368E+03 0.  0.
          5    1    3    3  502    0  0.37505563509E+02 -0.54362703312E+02  0.45256740248E+02  0.80172412608E+02  0.41800000000E+01 0. -1.
         -5    1    3    3    0  502 -0.52445771654E+02  0.36986260747E+01  0.13933173376E+03  0.14898000950E+03  0.41800000000E+01 0. -1.
        -11    1    1    2    0    0  0.16985273383E+02  0.64103892081E+01 -0.24423663782E+02  0.30432021856E+02  0.00000000000E+00 0.  1.
         11    1    1    2    0    0 -0.20450652386E+01  0.44253688029E+02  0.10392638943E+03  0.11297462377E+03  0.00000000000E+00 0. -1.
</event>
<event>
 7    1  0.2733606E-009  0.2045796E+03  0.7561462E-02  0.1145932E+00
         -3   -1    0    0    0  501 -0.00000000000E+00  0.00000000000E+00  0.34686349574E+03  0.34686349574E+03  0.00000000000E+00 0.  1.
          3   -1    0    0  501    0  0.00000000000E+00 -0.00000000000E+00 -0.17094597688E+03  0.17094597688E+03  0.00000000000E+00 0. -1.
         25    2    1    2    0    0 -0.17081763843E+03  0.88897950210E+02  0.19982092785E+03  0.30439682604E+03  0.12509002098E+03 0.  0.
          5    1    3    3  502    0 -0.15662291741E+03  0.10514067664E+03  0.12480180731E+03  0.22622613388E+03  0.41800000000E+01 0. -1.
         -5    1    3    3    0  502 -0.14194721019E+02 -0.16242726433E+02  0.75019120537E+02  0.78170692161E+02  0.41800000000E+01 0. -1.
        -11    1    1    2    0    0  0.75512528207E+02 -0.12907074778E+02  0.27128215938E+02  0.81269149100E+02  0.00000000000E+00 0.  1.
         11    1    1    2    0    0  0.95305110221E+02 -0.75990875432E+02 -0.51031624929E+02  0.13214349748E+03  0.00000000000E+00 0. -1.
</event>
<event>
 7    1  0.2733606E-009  0.1090762E+03  0.7561462E-02  0.1262290E+00
          3   -1    0    0  501    0  0.00000000000E+00  0.00000000000E+00  0.23029437762E+03  0.23029437762E+03  0.00000000000E+00 0. -1.
         -3   -1    0    0    0  501 -0.00000000000E+00 -0.00000000000E+00 -0.79654777006E+02  0.79654777006E+02  0.00000000000E+00 0.  1.
         25    2    1    2    0    0 -0.40630547578E+02 -0.65909838893E+02  0.57390768402E+02  0.15791033528E+03  0.12508807070E+03 0.  0.
          5    1    3    3  502    0 -0.38020474842E+02  0.18819635576E+02  0.59280862678E+02  0.73016630094E+02  0.41800000000E+01 0.  1.
         -5    1    3    3    0  502 -0.26100727363E+01 -0.84729474469E+02 -0.18900942754E+01  0.84893705184E+02  0.41800000000E+01 0.  1.
        -11    1    1    2    0    0  0.92089023513E+01 -0.67965435351E+01  0.67926187988E+02  0.68883698370E+02  0.00000000000E+00 0. -1.
         11    1    1    2    0    0  0.31421645227E+02  0.72706382428E+02  0.25322644223E+02  0.83155120978E+02  0.00000000000E+00 0.  1.
</event>
<event>
 7    1  0.3372770E-009  0.1045033E+03  0.7561462E-02  0.1271101E+00
         -3   -1    0    0    0  501 -0.00000000000E+00  0.00000000000E+00  0.13764399911E+03  0.13764399911E+03  0.00000000000E+00 0.  1.
          3   -1    0    0  501    0  0.00000000000E+00 -0.00000000000E+00 -0.10385469438E+03  0.10385469438E+03  0.00000000000E+00 0. -1.
         25    2    1    2    0    0  0.33071373754E+02 -0.27443589150E+02 -0.71522445042E+01  0.13245948926E+03  0.12508994902E+03 0.  0.
          5    1    3    3  502    0 -0.24285978412E+02 -0.58363706764E+02  0.11859164869E+02  0.64453418886E+02  0.41800000000E+01 0. -1.
         -5    1    3    3    0  502  0.57357352166E+02  0.30920117614E+02 -0.19011409374E+02  0.68006070370E+02  0.41800000000E+01 0. -1.
        -11    1    1    2    0    0 -0.29907861596E+02 -0.17933031680E+02  0.51639450527E+02  0.62311368635E+02  0.00000000000E+00 0.  1.
         11    1    1    2    0    0 -0.31635121579E+01  0.45376620830E+02 -0.10697901293E+02  0.46727835593E+02  0.00000000000E+00 0. -1.
</event>
<event>
 7    1  0.2733606E-009  0.8961345E+02  0.7561462E-02  0.1303790E+00
         -2   -1    0    0    0  501 -0.00000000000E+00  0.00000000000E+00  0.16610672054E+03  0.16610672054E+03  0.00000000000E+00 0.  1.
          2   -1    0    0  501    0  0.00000000000E+00 -0.00000000000E+00 -0.71608025126E+02  0.71608025126E+02  0.00000000000E+00 0. -1.
         25    2    1    2    0    0 -0.31814791985E+01  0.31488501792E+01  0.30047992414E+02  0.12872568008E+03  0.12508949515E+03 0.  0.
          5    1    3    3  502    0  0.33784582356E+02 -0.49053254241E+02  0.23956996275E+02  0.64335292236E+02  0.41800000000E+01 0. -1.
         -5    1    3    3    0  502 -0.36966061555E+02  0.52202104420E+02  0.60909961392E+01  0.64390387844E+02  0.41800000000E+01 0. -1.
        -11    1    1    2    0    0  0.67417125318E-01  0.26051165510E+02 -0.10807873518E+02  0.28204217760E+02  0.00000000000E+00 0. -1.
         11    1    1    2    0    0  0.31140620732E+01 -0.29200015689E+02  0.75258576518E+02  0.80784847826E+02  0.00000000000E+00 0.  1.
</event>
<event>
 7    1  0.2733606E-009  0.1608351E+03  0.7561462E-02  0.1187757E+00
          1   -1    0    0  501    0  0.00000000000E+00  0.00000000000E+00  0.74598798462E+03  0.74598798462E+03  0.00000000000E+00 0. -1.
         -1   -1    0    0    0  501 -0.00000000000E+00 -0.00000000000E+00 -0.37320346589E+02  0.37320346589E+02  0.00000000000E+00 0.  1.
         25    2    1    2    0    0  0.61883186911E+02 -0.10867125873E+03  0.41793071931E+03  0.45382005552E+03  0.12509030881E+03 0.  0.
          5    1    3    3  502    0 -0.38248578414E+02 -0.39086856019E+02  0.12607518834E+03  0.13748876892E+03  0.41800000000E+01 0.  1.
         -5    1    3    3    0  502  0.10013176533E+03 -0.69584402711E+02  0.29185553097E+03  0.31633128661E+03  0.41800000000E+01 0.  1.
        -11    1    1    2    0    0 -0.35408739928E+02  0.11261364727E+03  0.17778569954E+03  0.21340892057E+03  0.00000000000E+00 0.  1.
         11    1    1    2    0    0 -0.26474446984E+02 -0.39423885421E+01  0.11295121918E+03  0.11607935512E+03  0.00000000000E+00 0. -1.
</event>
<event>
 7    1  0.5950583E-009  0.1520509E+03  0.7561462E-02  0.1197975E+00
         -2   -1    0    0    0  501 -0.00000000000E+00  0.00000000000E+00  0.53743451238E+02  0.53743451238E+02  0.00000000000E+00 0.  1.
          2   -1    0    0  501    0  0.00000000000E+00 -0.00000000000E+00 -0.62288106742E+03  0.62288106742E+03  0.00000000000E+00 0. -1.
         25    2    1    2    0    0  0.10960526029E+03  0.77221371553E+02 -0.18875790512E+03  0.26316261076E+03  0.12509420310E+03 0.  0.
          5    1    3    3  502    0  0.49684754165E+02 -0.71776357038E+01 -0.29890925254E+01  0.50462860847E+02  0.41800000000E+01 0. -1.
         -5    1    3    3    0  502  0.59920506129E+02  0.84399007256E+02 -0.18576881259E+03  0.21269974991E+03  0.41800000000E+01 0. -1.
        -11    1    1    2    0    0 -0.16990146728E+02 -0.51184789877E+02 -0.69102084076E+02  0.87656407776E+02  0.00000000000E+00 0.  1.
         11    1    1    2    0    0 -0.92615113566E+02 -0.26036581676E+02 -0.31127762699E+03  0.32580550013E+03  0.00000000000E+00 0. -1.
</event>
<event>
 7    1  0.2733606E-009  0.1621287E+03  0.7561462E-02  0.1186314E+00
          1   -1    0    0  501    0  0.00000000000E+00  0.00000000000E+00  0.96453453048E+02  0.96453453048E+02  0.00000000000E+00 0. -1.
         -1   -1    0    0    0  501 -0.00000000000E+00 -0.00000000000E+00 -0.44524866060E+03  0.44524866060E+03  0.00000000000E+00 0.  1.
         25    2    1    2    0    0 -0.96055296005E+02 -0.12519340614E+03 -0.79237611221E+02  0.21639075957E+03  0.12508538270E+03 0.  0.
          5    1    3    3  502    0 -0.17887015714E+02 -0.33502700015E+02 -0.87569811284E+02  0.95542244519E+02  0.41800000000E+01 0. -1.
         -5    1    3    3    0  502 -0.78168280291E+02 -0.91690706120E+02  0.83322000631E+01  0.12084851505E+03  0.41800000000E+01 0. -1.
        -11    1    1    2    0    0  0.51597141046E+02  0.10430187154E+03 -0.11689824392E+03  0.16494345941E+03  0.00000000000E+00 0.  1.
         11    1    1    2    0    0  0.44458154959E+02  0.20891534596E+02 -0.15265935241E+03  0.16036789466E+03  0.00000000000E+00 0. -1.
</event>
<event>
 7    1  0.2733606E-009  0.1011613E+03  0.7561462E-02  0.1277873E+00
         -2   -1    0    0    0  501 -0.00000000000E+00  0.00000000000E+00  0.29358395293E+02  0.29358395293E+02  0.00000000000E+00 0. -1.
          2   -1    0    0  501    0  0.00000000000E+00 -0.00000000000E+00 -0.61698513250E+03  0.61698513250E+03  0.00000000000E+00 0.  1.
         25    2    1    2    0    0 -0.36795559651E+02 -0.66181661954E+02 -0.26651935064E+03  0.30399770526E+03  0.12509242562E+03 0.  0.
          5    1    3    3  502    0 -0.23277208703E+02 -0.35590067449E+01 -0.22774219355E+03  0.22899448486E+03  0.41800000000E+01 0.  1.
         -5    1    3    3    0  502 -0.13518350948E+02 -0.62622655209E+02 -0.38777157092E+02  0.75003220397E+02  0.41800000000E+01 0.  1.
        -11    1    1    2    0    0  0.10617939932E+02 -0.20809018301E+02 -0.34337847514E+02  0.41531237195E+02  0.00000000000E+00 0. -1.
         11    1    1    2    0    0  0.26177619719E+02  0.86990680255E+02 -0.28676953905E+03  0.30081458534E+03  0.00000000000E+00 0.  1.
</event>
<event>
 7    1  0.3282072E-009  0.1304162E+03  0.7561462E-02  0.1226839E+00
          1   -1    0    0  501    0  0.00000000000E+00  0.00000000000E+00  0.11056223910E+03  0.11056223910E+03  0.00000000000E+00 0. -1.
         -1   -1    0    0    0  501 -0.00000000000E+00 -0.00000000000E+00 -0.18812617052E+03  0.18812617052E+03  0.00000000000E+00 0.  1.
         25    2    1    2    0    0  0.41819985325E+01  0.83282894916E+02 -0.88077009702E+02  0.17424220144E+03  0.12509698409E+03 0.  0.
          5    1    3    3  502    0 -0.48157422832E+02  0.81103042541E+02 -0.73657108912E+02  0.11974841534E+03  0.41800000000E+01 0. -1.
         -5    1    3    3    0  502  0.52339421365E+02  0.21798523750E+01 -0.14419900790E+02  0.54493786104E+02  0.41800000000E+01 0. -1.
        -11    1    1    2    0    0 -0.19070031928E+02  0.85030884170E+01  0.22494880664E+02  0.30691827682E+02  0.00000000000E+00 0. -1.
         11    1    1    2    0    0  0.14888033396E+02 -0.91785983333E+02 -0.11981802384E+02  0.93754380502E+02  0.00000000000E+00 0.  1.
</event>
<event>
 7    1  0.2733606E-009  0.6576320E+02  0.7561462E-02  0.1375123E+00
         -2   -1    0    0    0  501 -0.00000000000E+00  0.00000000000E+00  0.33577321880E+03  0.33577321880E+03  0.00000000000E+00 0.  1.
          2   -1    0    0  501    0  0.00000000000E+00 -0.00000000000E+00 -0.37211150073E+02  0.37211150073E+02  0.00000000000E+00 0. -1.
         25    2    1    2    0    0  0.22275905117E+02 -0.15780877256E+02  0.17644764341E+03  0.21800455416E+03  0.12508782009E+03 0.  0.
          5    1    3    3  502    0 -0.17246092294E+02  0.20436228004E+02  0.15927691325E+03  0.16156012692E+03  0.41800000000E+01 0. -1.
         -5    1    3    3    0  502  0.39521997411E+02 -0.36217105260E+02  0.17170730156E+02  0.56444427243E+02  0.41800000000E+01 0. -1.
        -11    1    1    2    0    0 -0.66043150556E+01  0.29275141484E+02  0.12956700095E+03  0.13299721283E+03  0.00000000000E+00 0.  1.
         11    1    1    2    0    0 -0.15671590062E+02 -0.13494264228E+02 -0.74525756266E+01  0.21982601884E+02  0.00000000000E+00 0. -1.
</event>
<event>
 7    1  0.2733606E-009  0.1070007E+03  0.7561462E-02  0.1266227E+00
         -3   -1    0    0    0  501 -0.00000000000E+00  0.00000000000E+00  0.17363507360E+03  0.17363507360E+03  0.00000000000E+00 0.  1.
          3   -1    0    0  501    0  0.00000000000E+00 -0.00000000000E+00 -0.80820816753E+02  0.80820816753E+02  0.00000000000E+00 0. -1.
         25    2    1    2    0    0 -0.42302323993E+02  0.23745742753E+02  0.67378918638E+02  0.15013868285E+03  0.12509339910E+03 0.  0.
          5    1    3    3  502    0 -0.79960666037E+01  0.72942200184E+02  0.43791181885E+02  0.85554904357E+02  0.41800000000E+01 0. -1.
         -5    1    3    3    0  502 -0.34306257390E+02 -0.49196457431E+02  0.23587736753E+02  0.64583778497E+02  0.41800000000E+01 0. -1.
        -11    1    1    2    0    0  0.36429590832E+02 -0.45248417924E+02 -0.13329750477E+02  0.59600475338E+02  0.00000000000E+00 0. -1.
         11    1    1    2    0    0  0.58727331611E+01  0.21502675171E+02  0.38765088689E+02  0.44716732163E+02  0.00000000000E+00 0.  1.
</event>
<event>
 7    1  0.2733606E-009  0.1148354E+03  0.7561462E-02  0.1251869E+00
         -3   -1    0    0    0  501 -0.00000000000E+00  0.00000000000E+00  0.44941387548E+03  0.44941387548E+03  0.00000000000E+00 0.  1.
          3   -1    0    0  501    0  0.00000000000E+00 -0.00000000000E+00 -0.42896454109E+02  0.42896454109E+02  0.00000000000E+00 0. -1.
         25    2    1    2    0    0  0.64959245650E+02  0.47739675939E+00  0.12033751130E+03  0.18533056465E+03  0.12508545105E+03 0.  0.
          5    1    3    3  502    0  0.72075540426E+02  0.47058117991E+02  0.10448299658E+03  0.13543824782E+03  0.41800000000E+01 0. -1.
         -5    1    3    3    0  502 -0.71162947757E+01 -0.46580721232E+02  0.15854514714E+02  0.49892316830E+02  0.41800000000E+01 0. -1.
        -11    1    1    2    0    0 -0.54469106812E+02 -0.31855594253E+02  0.25048155466E+03  0.25830732027E+03  0.00000000000E+00 0.  1.
         11    1    1    2    0    0 -0.10490138838E+02  0.31378197494E+02  0.35698355415E+02  0.48672444670E+02  0.00000000000E+00 0. -1.
</event>
<event>
 7    1  0.2733606E-009  0.1540724E+03  0.7561462E-02  0.1195556E+00
          3   -1    0    0  501    0  0.00000000000E+00  0.00000000000E+00  0.24522484215E+03  0.24522484215E+03  0.00000000000E+00 0. -1.
         -3   -1    0    0    0  501 -0.00000000000E+00 -0.00000000000E+00 -0.10099019742E+03  0.10099019742E+03  0.00000000000E+00 0.  1.
         25    2    1    2    0    0  0.55451611769E+02 -0.99327892230E+02  0.62729473282E+02  0.18034270534E+03  0.12509033987E+03 0.  0.
          5    1    3    3  502    0 -0.36666063973E+02 -0.13119629474E+02 -0.47624641854E+00  0.39169173280E+02  0.41800000000E+01 0. -1.
         -5    1    3    3    0  502  0.92117675742E+02 -0.86208262756E+02  0.63205719700E+02  0.14117353206E+03  0.41800000000E+01 0. -1.
        -11    1    1    2    0    0  0.12955762763E+02  0.64865747321E+02  0.25106864919E+02  0.70751477937E+02  0.00000000000E+00 0. -1.
         11    1    1    2    0    0 -0.68407374532E+02  0.34462144909E+02  0.56398306528E+02  0.95120856290E+02  0.00000000000E+00 0.  1.
</event>
<event>
 7    1  0.2733606E-009  0.1050353E+03  0.7561462E-02  0.1270050E+00
          1   -1    0    0  501    0  0.00000000000E+00  0.00000000000E+00  0.39836055493E+03  0.39836055493E+03  0.00000000000E+00 0. -1.
         -1   -1    0    0    0  501 -0.00000000000E+00 -0.00000000000E+00 -0.58913596203E+02  0.58913596203E+02  0.00000000000E+00 0.  1.
         25    2    1    2    0    0 -0.10223675653E+03 -0.56510257520E+01  0.12757555799E+03  0.20593522083E+03  0.12509797643E+03 0.  0.
          5    1    3    3  502    0 -0.72879416499E+01 -0.88366600818E+01  0.10820299680E+03  0.10888783941E+03  0.41800000000E+01 0. -1.
         -5    1    3    3    0  502 -0.94948814883E+02  0.31856343298E+01  0.19372561182E+02  0.97047381421E+02  0.41800000000E+01 0. -1.
        -11    1    1    2    0    0  0.38263250937E+02 -0.22190374954E+01  0.17048477178E+03  0.17473997227E+03  0.00000000000E+00 0. -1.
         11    1    1    2    0    0  0.63973505596E+02  0.78700632473E+01  0.41386628952E+02  0.76598958020E+02  0.00000000000E+00 0.  1.
</event>
<event>
 7    1  0.2733606E-009  0.1963178E+03  0.7561462E-02  0.1152883E+00
          1   -1    0    0  501    0  0.00000000000E+00  0.00000000000E+00  0.51930847442E+03  0.51930847442E+03  0.00000000000E+00 0. -1.
         -1   -1    0    0    0  501 -0.00000000000E+00 -0.00000000000E+00 -0.95613299098E+02  0.95613299098E+02  0.00000000000E+00 0.  1.
         25    2    1    2    0    0  0.15569258360E+03 -0.67189340904E+02  0.35178651737E+03  0.41006812072E+03  0.12509005440E+03 0.  0.
          5    1    3    3  502    0  0.12861541222E+03 -0.13235125032E+00  0.16175317953E+03  0.20669665035E+03  0.41800000000E+01 0. -1.
         -5    1    3    3    0  502  0.27077171379E+02 -0.67056989653E+02  0.19003333784E+03  0.20337147038E+03  0.41800000000E+01 0. -1.
        -11    1    1    2    0    0 -0.82133085280E+02 -0.12483448057E+02  0.36921026875E+02  0.90911178622E+02  0.00000000000E+00 0. -1.
         11    1    1    2    0    0 -0.73559498316E+02  0.79672788960E+02  0.34987631078E+02  0.11394247418E+03  0.00000000000E+00 0.  1.
</event>
<event>
 7    1  0.2733606E-009  0.1212964E+03  0.7561462E-02  0.1240974E+00
         -1   -1    0    0    0  501 -0.00000000000E+00  0.00000000000E+00  0.22410582199E+02  0.22410582199E+02  0.00000000000E+00 0.  1.
          1   -1    0    0  501    0  0.00000000000E+00 -0.00000000000E+00 -0.68237817914E+03  0.68237817914E+03  0.00000000000E+00 0. -1.
         25    2    1    2    0    0  0.41823817360E+02  0.42814467945E+02 -0.40868447925E+03  0.43157032686E+03  0.12509049956E+03 0.  0.
          5    1    3    3  502    0  0.37760332022E+02 -0.39725602585E+02 -0.13887508241E+03  0.14935771520E+03  0.41800000000E+01 0.  1.
         -5    1    3    3    0  502  0.40634853379E+01  0.82540070530E+02 -0.26980939684E+03  0.28221261166E+03  0.41800000000E+01 0.  1.
        -11    1    1    2    0    0 -0.42898856606E+01  0.26076560078E+02 -0.91094201584E+02  0.94850111580E+02  0.00000000000E+00 0. -1.
         11    1    1    2    0    0 -0.37533931699E+02 -0.68891028023E+02 -0.16018891610E+03  0.17836832289E+03  0.00000000000E+00 0.  1.
</event>
<event>
 7    1  0.2733606E-009  0.2513925E+03  0.7561462E-02  0.1112428E+00
         -2   -1    0    0    0  501 -0.00000000000E+00  0.00000000000E+00  0.67510712083E+02  0.67510712083E+02  0.00000000000E+00 0.  1.
          2   -1    0    0  501    0  0.00000000000E+00 -0.00000000000E+00 -0.10263185173E+04  0.10263185173E+04  0.00000000000E+00 0. -1.
         25    2    1    2    0    0  0.11988241546E+03 -0.20534035443E+03 -0.43302856129E+03  0.50960528531E+03  0.12508939696E+03 0.  0.
          5    1    3    3  502    0 -0.22697476198E+02 -0.24456828680E+02 -0.28474840230E+02  0.44063599728E+02  0.41800000000E+01 0. -1.
         -5    1    3    3    0  502  0.14257989166E+03 -0.18088352575E+03 -0.40455372106E+03  0.46554168559E+03  0.41800000000E+01 0. -1.
        -11    1    1    2    0    0 -0.84242295670E+02  0.12307581259E+03 -0.41925584250E+03  0.44499424883E+03  0.00000000000E+00 0.  1.
         11    1    1    2    0    0 -0.35640119788E+02  0.82264541840E+02 -0.10652340141E+03  0.13922969522E+03  0.00000000000E+00 0. -1.
</event>
<event>
 7    1  0.3833503E-009  0.1000783E+03  0.7561462E-02  0.1280131E+00
          3   -1    0    0  501    0  0.00000000000E+00  0.00000000000E+00  0.18138021891E+03  0.18138021891E+03  0.00000000000E+00 0.  1.
         -3   -1    0    0    0  501 -0.00000000000E+00 -0.00000000000E+00 -0.91910217934E+02  0.91910217934E+02  0.00000000000E+00 0. -1.
         25    2    1    2    0    0 -0.28934956504E+01 -0.31244080904E+02 -0.16088116753E+02  0.12996322453E+03  0.12508815820E+03 0.  0.
          5    1    3    3  502    0 -0.61831560309E+02 -0.17762586441E+02  0.75568111642E+01  0.64909391634E+02  0.41800000000E+01 0.  1.
         -5    1    3    3    0  502  0.58938064659E+02 -0.13481494463E+02 -0.23644927917E+02  0.65053832899E+02  0.41800000000E+01 0.  1.
        -11    1    1    2    0    0  0.90236306962E+01 -0.20803692082E+02 -0.29095891287E+01  0.22862310121E+02  0.00000000000E+00 0. -1.
         11    1    1    2    0    0 -0.61301350458E+01  0.52047772986E+02  0.10846770686E+03  0.12046490219E+03  0.00000000000E+00 0.  1.
</event>
<event>
 7    1  0.2733606E-009  0.1107082E+03  0.7561462E-02  0.1259264E+00
          4   -1    0    0  501    0  0.00000000000E+00  0.00000000000E+00  0.56173066595E+02  0.56173066595E+02  0.00000000000E+00 0. -1.
         -4   -1    0    0    0  501 -0.00000000000E+00 -0.00000000000E+00 -0.52244367330E+03  0.52244367330E+03  0.00000000000E+00 0.  1.
         25    2    1    2    0    0  0.28543027415E+02 -0.91583576957E+02 -0.40223287045E+03  0.43202070109E+03  0.12509335759E+03 0.  0.
          5    1    3    3  502    0  0.24050152682E+02 -0.58003554020E+02 -0.39107690538E+03  0.39610786466E+03  0.41800000000E+01 0.  1.
         -5    1    3    3    0  502  0.44928747328E+01 -0.33580022938E+02 -0.11155965076E+02  0.35912836432E+02  0.41800000000E+01 0.  1.
        -11    1    1    2    0    0 -0.55962337140E+02  0.53493220542E+02 -0.62736311819E+02  0.99645133563E+02  0.00000000000E+00 0.  1.
         11    1    1    2    0    0  0.27419309725E+02  0.38090356415E+02 -0.13014244319E+01  0.46950905244E+02  0.00000000000E+00 0. -1.
</event>
<event>
 7    1  0.2733606E-009  0.1562570E+03  0.7561462E-02  0.1192989E+00
          2   -1    0    0  501    0  0.00000000000E+00  0.00000000000E+00  0.22148569858E+03  0.22148569858E+03  0.00000000000E+00 0. -1.
         -2   -1    0    0    0  501 -0.00000000000E+00 -0.00000000000E+00 -0.28453264885E+03  0.28453264885E+03  0.00000000000E+00 0.  1.
         25    2    1    2    0    0 -0.30342465483E+02  0.14826758703E+03 -0.20168934417E+03  0.28147652612E+03  0.12508597295E+03 0.  0.
          5    1    3    3  502    0  0.81563870094E+01  0.10703188243E+02  0.15841184014E+02  0.21201424447E+02  0.41800000000E+01 0.  1.
         -5    1    3    3    0  502 -0.38498852492E+02  0.13756439879E+03 -0.21753052819E+03  0.26027510167E+03  0.41800000000E+01 0.  1.
        -11    1    1    2    0    0 -0.46108305619E+01 -0.65555942149E+02  0.11373682947E+03  0.13135793728E+03  0.00000000000E+00 0. -1.
         11    1    1    2    0    0  0.34953296045E+02 -0.82711644879E+02  0.24905564433E+02  0.93183884029E+02  0.00000000000E+00 0.  1.
</event>
<event>
 7    1  0.2733606E-009  0.1573811E+03  0.7561462E-02  0.1191686E+00
          2   -1    0    0  501    0  0.00000000000E+00  0.00000000000E+00  0.62031405769E+03  0.62031405769E+03  0.00000000000E+00 0.  1.
         -2   -1    0    0    0  501 -0.00000000000E+00 -0.00000000000E+00 -0.45887085299E+02  0.45887085299E+02  0.00000000000E+00 0. -1.
         25    2    1    2    0    0  0.93064159075E+01  0.12453764484E+03  0.32872298281E+03  0.37323227529E+03  0.12508915832E+03 0.  0.
          5    1    3    3  502    0  0.51226430166E+02  0.84354149509E+02  0.28131216581E+03  0.29815059403E+03  0.41800000000E+01 0.  1.
         -5    1    3    3    0  502 -0.41920014259E+02  0.40183495326E+02  0.47410817003E+02  0.75081681261E+02  0.41800000000E+01 0.  1.
        -11    1    1    2    0    0  0.21985955688E+02  0.65917769542E+01  0.53339658572E+02  0.58068519419E+02  0.00000000000E+00 0.  1.
         11    1    1    2    0    0 -0.31292371595E+02 -0.13112942179E+03  0.19236433101E+03  0.23490034828E+03  0.00000000000E+00 0. -1.
</event>
<event>
 7    1  0.2733606E-009  0.1414409E+03  0.7561462E-02  0.1211403E+00
         -1   -1    0    0    0  501 -0.00000000000E+00  0.00000000000E+00  0.50579836374E+02  0.50579836374E+02  0.00000000000E+00 0.  1.
          1   -1    0    0  501    0  0.00000000000E+00 -0.00000000000E+00 -0.62952510383E+03  0.62952510383E+03  0.00000000000E+00 0. -1.
         25    2    1    2    0    0 -0.90190424345E+02 -0.52409369644E+02 -0.48993047687E+03  0.51629299329E+03  0.12508208540E+03 0.  0.
          5    1    3    3  502    0  0.13368046572E+02  0.19511123773E+02 -0.25483027003E+02  0.35017790982E+02  0.41800000000E+01 0.  1.
         -5    1    3    3    0  502 -0.10355847092E+03 -0.71920493417E+02 -0.46444744987E+03  0.48127520231E+03  0.41800000000E+01 0.  1.
        -11    1    1    2    0    0  0.59891978726E+02 -0.12406872968E+02 -0.19863976891E+02  0.64308297991E+02  0.00000000000E+00 0. -1.
         11    1    1    2    0    0  0.30298445620E+02  0.64816242612E+02 -0.69150813695E+02  0.99503648918E+02  0.00000000000E+00 0.  1.
</event>
<event>
 7    1  0.2733606E-009  0.1031305E+03  0.7561462E-02  0.1273847E+00
          2   -1    0    0  501    0  0.00000000000E+00  0.00000000000E+00  0.18518342063E+03  0.18518342063E+03  0.00000000000E+00 0. -1.
         -2   -1    0    0    0  501 -0.00000000000E+00 -0.00000000000E+00 -0.64626254608E+02  0.64626254608E+02  0.00000000000E+00 0.  1.
         25    2    1    2    0    0 -0.47372533116E+01 -0.32501656973E+02  0.73078767384E+02  0.14855224093E+03  0.12509381587E+03 0.  0.
          5    1    3    3  502    0 -0.92228960338E+01  0.45346933585E+02  0.85345040556E+01  0.47241045250E+02  0.41800000000E+01 0. -1.
         -5    1    3    3    0  502  0.44856427221E+01 -0.77848590558E+02  0.64544263329E+02  0.10131119568E+03  0.41800000000E+01 0. -1.
        -11    1    1    2    0    0 -0.24133064025E+02  0.44357754388E+02  0.48520074429E+02  0.70030084793E+02  0.00000000000E+00 0. -1.
         11    1    1    2    0    0  0.28870317337E+02 -0.11856097416E+02 -0.10416757903E+01  0.31227349511E+02  0.00000000000E+00 0.  1.
</event>
<event>
 7    1  0.2733606E-009  0.1414017E+03  0.7561462E-02  0.1211455E+00
          1   -1    0    0  501    0  0.00000000000E+00  0.00000000000E+00  0.38528753106E+02  0.38528753106E+02  0.00000000000E+00 0. -1.
         -1   -1    0    0    0  501 -0.00000000000E+00 -0.00000000000E+00 -0.59354627161E+03  0.59354627161E+03  0.00000000000E+00 0.  1.
         25    2    1    2    0    0  0.96645233885E+02  0.32437618781E+02 -0.36077887044E+03  0.39522238696E+03  0.12508733529E+03 0.  0.
          5    1    3    3  502    0  0.11367223217E+03  0.51463177111E+02 -0.22798478840E+03  0.25993147387E+03  0.41800000000E+01 0.  1.
         -5    1    3    3    0  502 -0.17026998282E+02 -0.19025558330E+02 -0.13279408204E+03  0.13529091309E+03  0.41800000000E+01 0.  1.
        -11    1    1    2    0    0 -0.10734059799E+03 -0.10720816720E+02 -0.17644645200E+03  0.20680979259E+03  0.00000000000E+00 0.  1.
         11    1    1    2    0    0  0.10695364103E+02 -0.21716802061E+02 -0.17792196062E+02  0.30042845168E+02  0.00000000000E+00 0. -1.
</event>
<event>
 7    1  0.2733606E-009  0.1974752E+03  0.7561462E-02  0.1151887E+00
          2   -1    0    0  501    0  0.00000000000E+00  0.00000000000E+00  0.17364374966E+04  0.17364374966E+04  0.00000000000E+00 0.  1.
         -2   -1    0    0    0  501 -0.00000000000E+00 -0.00000000000E+00 -0.30147572910E+02  0.30147572910E+02  0.00000000000E+00 0. -1.
         25    2    1    2    0    0 -0.10340001961E+03  0.13848106244E+03  0.12826964201E+04  0.13003176235E+04  0.12508895681E+03 0.  0.
          5    1    3    3  502    0 -0.11305399102E+03  0.55740982874E+02  0.88745367386E+03  0.89637032398E+03  0.41800000000E+01 0. -1.
         -5    1    3    3    0  502  0.96539714112E+01  0.82740079566E+02  0.39524274623E+03  0.40394729950E+03  0.41800000000E+01 0. -1.
        -11    1    1    2    0    0  0.53377869293E+02 -0.12131812088E+03  0.35960676740E+03  0.38325488979E+03  0.00000000000E+00 0.  1.
         11    1    1    2    0    0  0.50022150319E+02 -0.17162941562E+02  0.63986736226E+02  0.83012556269E+02  0.00000000000E+00 0. -1.
</event>
<event>
 7    1  0.2733606E-009  0.1215592E+03  0.7561462E-02  0.1240547E+00
         -1   -1    0    0    0  501 -0.00000000000E+00  0.00000000000E+00  0.44505775644E+02  0.44505775644E+02  0.00000000000E+00 0.  1.
          1   -1    0    0  501    0  0.00000000000E+00 -0.00000000000E+00 -0.53980294637E+03  0.53980294637E+03  0.00000000000E+00 0. -1.
         25    2    1    2    0    0 -0.55760820700E+02 -0.95212523572E+02 -0.24578951494E+03  0.29704203437E+03  0.12508713266E+03 0.  0.
          5    1    3    3  502    0 -0.57532234552E+02 -0.52352970193E+02 -0.41516224910E+02  0.88271517668E+02  0.41800000000E+01 0. -1.
         -5    1    3    3    0  502  0.17714138525E+01 -0.42859553379E+02 -0.20427329003E+03  0.20877051670E+03  0.41800000000E+01 0. -1.
        -11    1    1    2    0    0  0.32729162033E+02  0.93456157802E+02 -0.11936977978E+03  0.15509479618E+03  0.00000000000E+00 0.  1.
         11    1    1    2    0    0  0.23031658667E+02  0.17563657702E+01 -0.13013787600E+03  0.13217189146E+03  0.00000000000E+00 0. -1.
</event>
<event>
 7    1  0.2733606E-009  0.1008210E+03  0.7561462E-02  0.1278579E+00
          2   -1    0    0  501    0  0.00000000000E+00  0.00000000000E+00  0.79985928522E+02  0.79985928522E+02  0.00000000000E+00 0. -1.
         -2   -1    0    0    0  501 -0.00000000000E+00 -0.00000000000E+00 -0.34168465495E+03  0.34168465495E+03  0.00000000000E+00 0.  1.
         25    2    1    2    0    0 -0.50529432998E+02 -0.63516197014E+02 -0.19212922550E+02  0.15035284469E+03  0.12509720473E+03 0.  0.
          5    1    3    3  502    0  0.13635750778E+02 -0.59435008227E+01 -0.54843443618E+02  0.56978369660E+02  0.41800000000E+01 0.  1.
         -5    1    3    3    0  502 -0.64165183776E+02 -0.57572696191E+02  0.35630521067E+02  0.93374475031E+02  0.41800000000E+01 0.  1.
        -11    1    1    2    0    0  0.11167712765E+02  0.59246059243E+02 -0.61769080725E+02  0.86314730364E+02  0.00000000000E+00 0. -1.
         11    1    1    2    0    0  0.39361720233E+02  0.42701377707E+01 -0.18071672315E+03  0.18500300842E+03  0.00000000000E+00 0.  1.
</event>
<event>
 7    1  0.2733606E-009  0.1476421E+03  0.7561462E-02  0.1203401E+00
          4   -1    0    0  501    0  0.00000000000E+00  0.00000000000E+00  0.70189899437E+02  0.70189899437E+02  0.00000000000E+00 0. -1.
         -4   -1    0    0    0  501 -0.00000000000E+00 -0.00000000000E+00 -0.34806634171E+03  0.34806634171E+03  0.00000000000E+00 0.  1.
         25    2    1    2    0    0 -0.90651747334E+02  0.62278153433E+02 -0.18086641899E+03  0.24587650612E+03  0.12508511924E+03 0.  0.
          5    1    3    3  502    0 -0.11333416925E+03  0.30683743387E+02 -0.16738194189E+03  0.20450015378E+03  0.41800000000E+01 0.  1.
         -5    1    3    3    0  502  0.22682421914E+02  0.31594410046E+02 -0.13484477101E+02  0.41376352337E+02  0.41800000000E+01 0.  1.
        -11    1    1    2    0    0  0.10390590191E+03 -0.68066151085E+02 -0.97497277653E+02  0.15790869680E+03  0.00000000000E+00 0.  1.
         11    1    1    2    0    0 -0.13254154579E+02  0.57879976520E+01  0.48725437055E+00  0.14471038223E+02  0.00000000000E+00 0. -1.
</event>
<event>
 7    1  0.2733606E-009  0.1270450E+03  0.7561462E-02  0.1231907E+00
         -1   -1    0    0    0  501 -0.00000000000E+00  0.00000000000E+00  0.66139951714E+03  0.66139951714E+03  0.00000000000E+00 0.  1.
          1   -1    0    0  501    0  0.00000000000E+00 -0.00000000000E+00 -0.35325509403E+02  0.35325509403E+02  0.00000000000E+00 0. -1.
         25    2    1    2    0    0 -0.50798796764E+02 -0.58892803928E+02  0.50807107455E+03  0.52899222367E+03  0.12509067030E+03 0.  0.
          5    1    3    3  502    0  0.30824451496E+02 -0.40881893032E+02  0.30589728788E+03  0.31018075234E+03  0.41800000000E+01 0. -1.
         -5    1    3    3    0  502 -0.81623248260E+02 -0.18010910897E+02  0.20217378667E+03  0.21881147133E+03  0.41800000000E+01 0. -1.
        -11    1    1    2    0    0 -0.12091109270E+01 -0.22448807109E+02  0.18827330521E+02  0.29323698000E+02  0.00000000000E+00 0. -1.
         11    1    1    2    0    0  0.52007907691E+02  0.81341611037E+02  0.99175602660E+02  0.13840910487E+03  0.00000000000E+00 0.  1.
</event>
<event>
 7    1  0.2733606E-009  0.1686944E+03  0.7561462E-02  0.1179216E+00
          3   -1    0    0  501    0  0.00000000000E+00  0.00000000000E+00  0.12182191122E+03  0.12182191122E+03  0.00000000000E+00 0.  1.
         -3   -1    0    0    0  501 -0.00000000000E+00 -0.00000000000E+00 -0.64599048745E+03  0.64599048745E+03  0.00000000000E+00 0. -1.
         25    2    1    2    0    0 -0.14219388722E+02 -0.15770528563E+03  0.11207457886E+02  0.20210347755E+03  0.12508821045E+03 0.  0.
          5    1    3    3  502    0 -0.41767381558E+02 -0.13043496238E+03  0.51176936596E+02  0.14626805807E+03  0.41800000000E+01 0. -1.
         -5    1    3    3    0  502  0.27547992836E+02 -0.27270323255E+02 -0.39969478710E+02  0.55835419476E+02  0.41800000000E+01 0. -1.
        -11    1    1    2    0    0 -0.14057865525E+01  0.12623182393E+03 -0.50059653114E+03  0.51626866707E+03  0.00000000000E+00 0. -1.
         11    1    1    2    0    0  0.15625175275E+02  0.31473461703E+02 -0.34779502980E+02  0.49440254060E+02  0.00000000000E+00 0.  1.
</event>
<event>
 7    1  0.2733606E-009  0.2401518E+03  0.7561462E-02  0.1119692E+00
         -2   -1    0    0    0  501 -0.00000000000E+00  0.00000000000E+00  0.57177517702E+03  0.57177517702E+03  0.00000000000E+00 0.  1.
          2   -1    0    0  501    0  0.00000000000E+00 -0.00000000000E+00 -0.10484281665E+03  0.10484281665E+03  0.00000000000E+00 0. -1.
         25    2    1    2    0    0 -0.17252288594E+03 -0.13543619098E+03  0.24418189112E+03  0.35125597417E+03  0.12509538536E+03 0.  0.
          5    1    3    3  502    0 -0.29715126002E+02  0.23605524815E+02  0.29179456182E+02  0.48053330563E+02  0.41800000000E+01 0. -1.
         -5    1    3    3    0  502 -0.14280775994E+03 -0.15904171579E+03  0.21500243494E+03  0.30320264361E+03  0.41800000000E+01 0. -1.
        -11    1    1    2    0    0  0.16162321079E+03  0.97254509974E+02  0.21291976124E+03  0.28445619470E+03  0.00000000000E+00 0.  1.
         11    1    1    2    0    0  0.10899675149E+02  0.38181681005E+02  0.98307080079E+01  0.40905824801E+02  0.00000000000E+00 0. -1.
</event>
<event>
 7    1  0.2733606E-009  0.1008371E+03  0.7561462E-02  0.1278545E+00
         -1   -1    0    0    0  501 -0.00000000000E+00  0.00000000000E+00  0.61233020807E+03  0.61233020807E+03  0.00000000000E+00 0.  1.
          1   -1    0    0  501    0  0.00000000000E+00 -0.00000000000E+00 -0.20561836215E+02  0.20561836215E+02  0.00000000000E+00 0. -1.
         25    2    1    2    0    0 -0.24137166139E+02 -0.59499705510E+01  0.38565170042E+03  0.40619320853E+03  0.12509070180E+03 0.  0.
          5    1    3    3  502    0 -0.31711196318E+02 -0.56947349318E+02  0.29190513860E+03  0.29912319019E+03  0.41800000000E+01 0. -1.
         -5    1    3    3    0  502  0.75740301787E+01  0.50997378767E+02  0.93746561821E+02  0.10707001834E+03  0.41800000000E+01 0. -1.
        -11    1    1    2    0    0 -0.17859587618E+02 -0.26224417814E+02  0.13121975033E+03  0.13500114013E+03  0.00000000000E+00 0.  1.
         11    1    1    2    0    0  0.41996753757E+02  0.32174388365E+02  0.74896921108E+02  0.91697695632E+02  0.00000000000E+00 0. -1.
</event>
<event>
 7    1  0.2733606E-009  0.9085398E+02  0.7561462E-02  0.1300797E+00
         -2   -1    0    0    0  501 -0.00000000000E+00  0.00000000000E+00  0.34078475717E+02  0.34078475717E+02  0.00000000000E+00 0.  1.
          2   -1    0    0  501    0  0.00000000000E+00 -0.00000000000E+00 -0.36518180209E+03  0.36518180209E+03  0.00000000000E+00 0. -1.
         25    2    1    2    0    0 -0.27057884239E+02 -0.19569790057E+02 -0.20075785814E+03  0.23888102017E+03  0.12508124722E+03 0.  0.
          5    1    3    3  502    0 -0.59503843142E+02 -0.10988887302E+02 -0.35672000340E+02  0.70366376921E+02  0.41800000000E+01 0. -1.
         -5    1    3    3    0  502  0.32445958903E+02 -0.85809027547E+01 -0.16508585780E+03  0.16851464325E+03  0.41800000000E+01 0. -1.
        -11    1    1    2    0    0  0.34340885414E+02  0.47362324790E+02 -0.57309829999E+02  0.81895682640E+02  0.00000000000E+00 0.  1.
         11    1    1    2    0    0 -0.72830011749E+01 -0.27792534734E+02 -0.73035638232E+02  0.78483575002E+02  0.00000000000E+00 0. -1.
</event>
<event>
 7    1  0.2733606E-009  0.9888143E+02  0.7561462E-02  0.1282666E+00
         -2   -1    0    0    0  501 -0.00000000000E+00  0.00000000000E+00  0.70218751294E+02  0.70218751294E+02  0.00000000000E+00 0.  1.
          2   -1    0    0  501    0  0.00000000000E+00 -0.00000000000E+00 -0.23468803911E+03  0.23468803911E+03  0.00000000000E+00 0. -1.
         25    2    1    2    0    0  0.27593786288E+02 -0.58265430758E+02 -0.11996497876E+03  0.18491980337E+03  0.12508980808E+03 0.  0.
          5    1    3    3  502    0  0.30002320950E+02  0.30804836958E+02 -0.11933671984E+02  0.44821447650E+02  0.41800000000E+01 0. -1.
         -5    1    3    3    0  502 -0.24085346614E+01 -0.89070267716E+02 -0.10803130678E+03  0.14009835572E+03  0.41800000000E+01 0. -1.
        -11    1    1    2    0    0 -0.18101488555E+02  0.48370837094E+02  0.18991196341E+02  0.55027877549E+02  0.00000000000E+00 0.  1.
         11    1    1    2    0    0 -0.94922977333E+01  0.98945936639E+01 -0.63495505397E+02  0.64959109489E+02  0.00000000000E+00 0. -1.
</event>
<event>
 7    1  0.2733606E-009  0.1093981E+03  0.7561462E-02  0.1261688E+00
          2   -1    0    0  501    0  0.00000000000E+00  0.00000000000E+00  0.48762235727E+02  0.48762235727E+02  0.00000000000E+00 0. -1.
         -2   -1    0    0    0  501 -0.00000000000E+00 -0.00000000000E+00 -0.37890155616E+03  0.37890155616E+03  0.00000000000E+00 0.  1.
         25    2    1    2    0    0  0.72310494461E+02  0.20373227508E+02 -0.24007585541E+03  0.28094143242E+03  0.12509115111E+03 0.  0.
          5    1    3    3  502    0  0.11101480624E+02  0.43781486085E+02 -0.17064976296E+02  0.48463875328E+02  0.41800000000E+01 0. -1.
         -5    1    3    3    0  502  0.61209013837E+02 -0.23408258576E+02 -0.22301087912E+03  0.23247755709E+03  0.41800000000E+01 0. -1.
        -11    1    1    2    0    0 -0.59834982704E+02 -0.48486258704E+02 -0.37118963044E+02  0.85492454964E+02  0.00000000000E+00 0. -1.
         11    1    1    2    0    0 -0.12475511757E+02  0.28113031196E+02 -0.52944501977E+02  0.61229904509E+02  0.00000000000E+00 0.  1.
</event>
<event>
 7    1  0.2733606E-009  0.1177324E+03  0.7561462E-02  0.1246885E+00
         -3   -1    0    0    0  501 -0.00000000000E+00  0.00000000000E+00  0.38280602292E+03  0.38280602292E+03  0.00000000000E+00 0.  1.
          3   -1    0    0  501    0  0.00000000000E+00 -0.00000000000E+00 -0.62553030711E+02  0.62553030711E+02  0.00000000000E+00 0. -1.
         25    2    1    2    0    0  0.70835792495E+02  0.65028630990E+02  0.25080964626E+03  0.29631062030E+03  0.12509225676E+03 0.  0.
          5    1    3    3  502    0  0.56267110203E+01  0.33967768508E+02  0.21080169428E+03  0.21363589559E+03  0.41800000000E+01 0. -1.
         -5    1    3    3    0  502  0.65209081475E+02  0.31060862482E+02  0.40007951984E+02  0.82674724716E+02  0.41800000000E+01 0. -1.
        -11    1    1    2    0    0  0.18796908027E+02 -0.20988563303E+01  0.23799187543E+02  0.30399511131E+02  0.00000000000E+00 0.  1.
         11    1    1    2    0    0 -0.89632700522E+02 -0.62929774659E+02  0.45644158405E+02  0.11864892220E+03  0.00000000000E+00 0. -1.
</event>
<event>
 7    1  0.2733606E-009  0.7396708E+02  0.7561462E-02  0.1347100E+00
         -2   -1    0    0    0  501 -0.00000000000E+00  0.00000000000E+00  0.56260686449E+02  0.56260686449E+02  0.00000000000E+00 0.  1.
          2   -1    0    0  501    0  0.00000000000E+00 -0.00000000000E+00 -0.17387487656E+03  0.17387487656E+03  0.00000000000E+00 0. -1.
         25    2    1    2    0    0 -0.18631269865E+01 -0.14631592643E+02 -0.96110145704E+02  0.15844215792E+03  0.12509677275E+03 0.  0.
          5    1    3    3  502    0  0.29231687667E+01 -0.53254384497E+02 -0.10541151180E+03  0.11821012480E+03  0.41800000000E+01 0. -1.
         -5    1    3    3    0  502 -0.47862957533E+01  0.38622791854E+02  0.93013661011E+01  0.40232033120E+02  0.41800000000E+01 0. -1.
        -11    1    1    2    0    0  0.25030230476E+02  0.19366906563E+02  0.91825983154E+01  0.32953142784E+02  0.00000000000E+00 0.  1.
         11    1    1    2    0    0 -0.23167103489E+02 -0.47353139202E+01 -0.30686642720E+02  0.38740262304E+02  0.00000000000E+00 0. -1.
</event>
<event>
 7    1  0.2733606E-009  0.1009435E+03  0.7561462E-02  0.1278324E+00
          1   -1    0    0  501    0  0.00000000000E+00  0.00000000000E+00  0.10359039724E+04  0.10359039724E+04  0.00000000000E+00 0. -1.
         -1   -1    0    0    0  501 -0.00000000000E+00 -0.00000000000E+00 -0.17497189246E+02  0.17497189246E+02  0.00000000000E+00 0.  1.
         25    2    1    2    0    0 -0.61084803463E+02 -0.52310675794E+02  0.58927744307E+03  0.60775232568E+03  0.12508886616E+03 0.  0.
          5    1    3    3  502    0 -0.42183173461E+01 -0.89751476109E+01  0.45868021357E+03  0.45880644960E+03  0.41800000000E+01 0. -1.
         -5    1    3    3    0  502 -0.56866486117E+02 -0.43335528183E+02  0.13059722950E+03  0.14894587608E+03  0.41800000000E+01 0. -1.
        -11    1    1    2    0    0  0.65782228985E+02 -0.11967901142E+01  0.25998260870E+03  0.26817846816E+03  0.00000000000E+00 0.  1.
         11    1    1    2    0    0 -0.46974255215E+01  0.53507465908E+02  0.16914673141E+03  0.17747036784E+03  0.00000000000E+00 0. -1.
</event>
<event>
 7    1  0.2733606E-009  0.1471721E+03  0.7561462E-02  0.1203992E+00
          2   -1    0    0  501    0  0.00000000000E+00  0.00000000000E+00  0.80908618970E+03  0.80908618970E+03  0.00000000000E+00 0. -1.
         -2   -1    0    0    0  501 -0.00000000000E+00 -0.00000000000E+00 -0.36694135800E+02  0.36694135800E+02  0.00000000000E+00 0.  1.
         25    2    1    2    0    0  0.81878296193E+02 -0.86818816460E+02  0.55557505675E+03  0.58185244196E+03  0.12508820188E+03 0.  0.
          5    1    3    3  502    0  0.10525382597E+03 -0.38560998654E+02  0.44458067403E+03  0.45851364933E+03  0.41800000000E+01 0. -1.
         -5    1    3    3    0  502 -0.23375529780E+02 -0.48257817806E+02  0.11099438271E+03  0.12333879262E+03  0.41800000000E+01 0. -1.
        -11    1    1    2    0    0 -0.69534891224E+02  0.40537852066E+02  0.19565254118E+03  0.21156165866E+03  0.00000000000E+00 0. -1.
         11    1    1    2    0    0 -0.12343404970E+02  0.46280964394E+02  0.21164455973E+02  0.52366224879E+02  0.00000000000E+00 0.  1.
</event>
<event>
 7    1  0.2733606E-009  0.1736972E+03  0.7561462E-02  0.1174046E+00
         -2   -1    0    0    0  501 -0.00000000000E+00  0.00000000000E+00  0.36003475109E+02  0.36003475109E+02  0.00000000000E+00 0.  1.
          2   -1    0    0  501    0  0.00000000000E+00 -0.00000000000E+00 -0.13189487142E+04  0.13189487142E+04  0.00000000000E+00 0. -1.
         25    2    1    2    0    0 -0.15196861202E+00 -0.14890066087E+03 -0.10295756245E+04  0.10477819799E+04  0.12509868483E+03 0.  0.
          5    1    3    3  502    0  0.26557563800E+02 -0.14910592417E+03 -0.97684219769E+03  0.98852214563E+03  0.41800000000E+01 0.  1.
         -5    1    3    3    0  502 -0.26709532412E+02  0.20526329545E+00 -0.52733426796E+02  0.59259834259E+02  0.41800000000E+01 0.  1.
        -11    1    1    2    0    0  0.28497178047E+02  0.15440003990E+02 -0.81643335414E+02  0.87841431554E+02  0.00000000000E+00 0. -1.
         11    1    1    2    0    0 -0.28345209435E+02  0.13346065688E+03 -0.17172627918E+03  0.21932877785E+03  0.00000000000E+00 0.  1.
</event>
<event>
 7    1  0.2733606E-009  0.1159624E+03  0.7561462E-02  0.1249910E+00
         -2   -1    0    0    0  501 -0.00000000000E+00  0.00000000000E+00  0.38882921007E+02  0.38882921007E+02  0.00000000000E+00 0. -1.
          2   -1    0    0  501    0  0.00000000000E+00 -0.00000000000E+00 -0.41857177421E+03  0.41857177421E+03  0.00000000000E+00 0.  1.
         25    2    1    2    0    0 -0.43949524843E+02 -0.22627192614E+02 -0.13066240354E+03  0.18751936176E+03  0.12508915523E+03 0.  0.
          5    1    3    3  502    0 -0.32961042807E+02 -0.74356688059E+02 -0.80316739554E+02  0.11438355850E+03  0.41800000000E+01 0. -1.
         -5    1    3    3    0  502 -0.10988482036E+02  0.51729495445E+02 -0.50345663990E+02  0.73135803264E+02  0.41800000000E+01 0. -1.
        -11    1    1    2    0    0 -0.24320251129E+02 -0.30170797550E+01 -0.11264459402E+03  0.11527958166E+03  0.00000000000E+00 0. -1.
         11    1    1    2    0    0  0.68269775972E+02  0.25644272369E+02 -0.13638185563E+03  0.15465575179E+03  0.00000000000E+00 0.  1.
</event>
<event>
 7    1  0.2733606E-009  0.9321480E+02  0.7561462E-02  0.1295248E+00
         -1   -1    0    0    0  501 -0.00000000000E+00  0.00000000000E+00  0.10080499688E+03  0.10080499688E+03  0.00000000000E+00 0.  1.
          1   -1    0    0  501    0  0.00000000000E+00 -0.00000000000E+00 -0.13124072564E+03  0.13124072564E+03  0.00000000000E+00 0. -1.
         25    2    1    2    0    0 -0.37493395709E+01 -0.30738512330E+02 -0.17335688528E+02  0.13002851632E+03  0.12509186733E+03 0.  0.
          5    1    3    3  502    0  0.20211058073E+02 -0.61071307726E+02 -0.48114398229E+02  0.80440407836E+02  0.41800000000E+01 0. -1.
         -5    1    3    3    0  502 -0.23960397644E+02  0.30332795396E+02  0.30778709702E+02  0.49588108481E+02  0.41800000000E+01 0. -1.
        -11    1    1    2    0    0  0.35999813397E+02 -0.33537985649E+01  0.22963229011E+02  0.42831581993E+02  0.00000000000E+00 0.  1.
         11    1    1    2    0    0 -0.32250473826E+02  0.34092310895E+02 -0.36063269249E+02  0.59185624209E+02  0.00000000000E+00 0. -1.
</event>
<event>
 7    1  0.2733606E-009  0.2393511E+03  0.7561462E-02  0.1120226E+00
          2   -1    0    0  501    0  0.00000000000E+00  0.00000000000E+00  0.91808172266E+02  0.91808172266E+02  0.00000000000E+00 0. -1.
         -2   -1    0    0    0  501 -0.00000000000E+00 -0.00000000000E+00 -0.72687197030E+03  0.72687197030E+03  0.00000000000E+00 0.  1.
         25    2    1    2    0    0  0.50024021452E+02  0.22121397988E+03 -0.41292956901E+03  0.48743841634E+03  0.12508938062E+03 0.  0.
          5    1    3    3  502    0  0.61382348678E+02  0.74727394848E+02 -0.24958114056E+03  0.26769421808E+03  0.41800000000E+01 0. -1.
         -5    1    3    3    0  502 -0.11358327226E+02  0.14648658503E+03 -0.16334842845E+03  0.21974419826E+03  0.41800000000E+01 0. -1.
        -11    1    1    2    0    0 -0.27091830924E+02 -0.20512739645E+03 -0.15509017904E+03  0.25858108924E+03  0.00000000000E+00 0. -1.
         11    1    1    2    0    0 -0.22932190528E+02 -0.16086583432E+02 -0.67044049985E+02  0.72660636987E+02  0.00000000000E+00 0.  1.
</event>
<event>
 7    1  0.2733606E-009  0.8975913E+02  0.7561462E-02  0.1303436E+00
          2   -1    0    0  501    0  0.00000000000E+00  0.00000000000E+00  0.71404593944E+03  0.71404593944E+03  0.00000000000E+00 0. -1.
         -2   -1    0    0    0  501 -0.00000000000E+00 -0.00000000000E+00 -0.29551309276E+02  0.29551309276E+02  0.00000000000E+00 0.  1.
         25    2    1    2    0    0 -0.50836348203E+02 -0.43950286897E+02  0.55197784726E+03  0.56995003639E+03  0.12509011990E+03 0.  0.
          5    1    3    3  502    0 -0.40812929599E+02 -0.32847234661E+02  0.69065356896E+02  0.86787856124E+02  0.41800000000E+01 0. -1.
         -5    1    3    3    0  502 -0.10023418604E+02 -0.11103052235E+02  0.48291249036E+03  0.48316218026E+03  0.41800000000E+01 0. -1.
        -11    1    1    2    0    0  0.46506620545E+02 -0.17602492095E+02  0.49037222732E+02  0.69838117786E+02  0.00000000000E+00 0.  1.
         11    1    1    2    0    0  0.43297276572E+01  0.61552778992E+02  0.83479560178E+02  0.10380909455E+03  0.00000000000E+00 0. -1.
</event>
<event>
 7    1  0.2733606E-009  0.9122777E+02  0.7561462E-02  0.1299905E+00
          2   -1    0    0  501    0  0.00000000000E+00  0.00000000000E+00  0.29201212886E+03  0.29201212886E+03  0.00000000000E+00 0. -1.
         -2   -1    0    0    0  501 -0.00000000000E+00 -0.00000000000E+00 -0.48439505810E+02  0.48439505810E+02  0.00000000000E+00 0.  1.
         25    2    1    2    0    0  0.11805835950E+02  0.47240897159E+02  0.12496468672E+03  0.18339325193E+03  0.12508329944E+03 0.  0.
          5    1    3    3  502    0 -0.10172148999E+02 -0.30230297612E+02  0.89863872484E+02  0.95448056485E+02  0.41800000000E+01 0. -1.
         -5    1    3    3    0  502  0.21977984949E+02  0.77471194771E+02  0.35100814232E+02  0.87945195443E+02  0.41800000000E+01 0. -1.
        -11    1    1    2    0    0  0.19532807752E+00 -0.55231750407E+02  0.12830135464E+03  0.13968472360E+03  0.00000000000E+00 0. -1.
         11    1    1    2    0    0 -0.12001164028E+02  0.79908532478E+01 -0.96934183009E+01  0.17373659143E+02  0.00000000000E+00 0.  1.
</event>
<event>
 7    1  0.2733606E-009  0.1100755E+03  0.7561462E-02  0.1260430E+00
          1   -1    0    0  501    0  0.00000000000E+00  0.00000000000E+00  0.46186155366E+02  0.46186155366E+02  0.00000000000E+00 0. -1.
         -1   -1    0    0    0  501 -0.00000000000E+00 -0.00000000000E+00 -0.38684136062E+03  0.38684136062E+03  0.00000000000E+00 0.  1.
         25    2    1    2    0    0  0.58304468428E+01 -0.73947993308E+02 -0.15479432945E+03  0.21239427598E+03  0.12509094377E+03 0.  0.
          5    1    3    3  502    0 -0.35330171615E+02 -0.71880083580E+02 -0.38543104414E+02  0.88983204818E+02  0.41800000000E+01 0. -1.
         -5    1    3    3    0  502  0.41160618458E+02 -0.20679097279E+01 -0.11625122504E+03  0.12341107116E+03  0.41800000000E+01 0. -1.
        -11    1    1    2    0    0 -0.21422512171E+02 -0.15068984481E+01 -0.23500405804E+01  0.21603644632E+02  0.00000000000E+00 0.  1.
         11    1    1    2    0    0  0.15592065329E+02  0.75454891756E+02 -0.18351083522E+03  0.19902959537E+03  0.00000000000E+00 0. -1.
</event>
<event>
 7    1  0.2733606E-009  0.7942379E+02  0.7561462E-02  0.1330695E+00
          4   -1    0    0  501    0  0.00000000000E+00  0.00000000000E+00  0.13304780079E+03  0.13304780079E+03  0.00000000000E+00 0.  1.
         -4   -1    0    0    0  501 -0.00000000000E+00 -0.00000000000E+00 -0.11252489367E+03  0.11252489367E+03  0.00000000000E+00 0. -1.
         25    2    1    2    0    0  0.37303094259E+02  0.42608544508E+02  0.10678548699E+02  0.13772559368E+03  0.12508916358E+03 0.  0.
          5    1    3    3  502    0  0.17200369638E+02 -0.25486856926E+02  0.48189704359E+02  0.57316250732E+02  0.41800000000E+01 0. -1.
         -5    1    3    3    0  502  0.20102724621E+02  0.68095401435E+02 -0.37511155660E+02  0.80409342944E+02  0.41800000000E+01 0. -1.
        -11    1    1    2    0    0 -0.14392331558E+02 -0.14495875917E+02  0.49836297715E+02  0.53860246901E+02  0.00000000000E+00 0.  1.
         11    1    1    2    0    0 -0.22910762700E+02 -0.28112668592E+02 -0.39991939300E+02  0.53986853880E+02  0.00000000000E+00 0. -1.
</event>
<event>
 7    1  0.2733606E-009  0.1598628E+03  0.7561462E-02  0.1188852E+00
         -1   -1    0    0    0  501 -0.00000000000E+00  0.00000000000E+00  0.43955436967E+02  0.43955436967E+02  0.00000000000E+00 0.  1.
          1   -1    0    0  501    0  0.00000000000E+00 -0.00000000000E+00 -0.79855320238E+03  0.79855320238E+03  0.00000000000E+00 0. -1.
         25    2    1    2    0    0 -0.12705134327E+03  0.63456579331E+02 -0.26889292679E+03  0.32881628117E+03  0.12509180389E+03 0.  0.
          5    1    3    3  502    0 -0.10290333464E+03  0.72963439205E+02 -0.10896997290E+03  0.16674737520E+03  0.41800000000E+01 0. -1.
         -5    1    3    3    0  502 -0.24148008633E+02 -0.95068598736E+01 -0.15992295389E+03  0.16206890598E+03  0.41800000000E+01 0. -1.
        -11    1    1    2    0    0  0.72077184618E+02 -0.82029789150E+02 -0.32095351062E+03  0.33902088849E+03  0.00000000000E+00 0. -1.
         11    1    1    2    0    0  0.54974158655E+02  0.18573209819E+02 -0.16475132800E+03  0.17467146968E+03  0.00000000000E+00 0.  1.
</event>
<event>
 7    1  0.2733606E-009  0.1019072E+03  0.7561462E-02  0.1276336E+00
         -1   -1    0    0    0  501 -0.00000000000E+00  0.00000000000E+00  0.73488050468E+02  0.73488050468E+02  0.00000000000E+00 0.  1.
          1   -1    0    0  501    0  0.00000000000E+00 -0.00000000000E+00 -0.39130283791E+03  0.39130283791E+03  0.00000000000E+00 0. -1.
         25    2    1    2    0    0 -0.67335966272E+00  0.60618498346E+02 -0.11103321564E+02  0.13944646029E+03  0.12508787224E+03 0.  0.
          5    1    3    3  502    0 -0.11307936283E+02 -0.14916733762E+02  0.42159538970E+02  0.46317140405E+02  0.41800000000E+01 0. -1.
         -5    1    3    3    0  502  0.10634576621E+02  0.75535232108E+02 -0.53262860534E+02  0.93129319883E+02  0.41800000000E+01 0. -1.
        -11    1    1    2    0    0  0.25754584231E+02  0.14144096679E+02 -0.73196394003E+02  0.78873735646E+02  0.00000000000E+00 0.  1.
         11    1    1    2    0    0 -0.25081224568E+02 -0.74762595025E+02 -0.23351507187E+03  0.24647069244E+03  0.00000000000E+00 0. -1.
</event>
<event>
 7    1  0.2733606E-009  0.1175016E+03  0.7561462E-02  0.1247277E+00
         -2   -1    0    0    0  501 -0.00000000000E+00  0.00000000000E+00  0.65159834693E+02  0.65159834693E+02  0.00000000000E+00 0. -1.
          2   -1    0    0  501    0  0.00000000000E+00 -0.00000000000E+00 -0.29633664541E+03  0.29633664541E+03  0.00000000000E+00 0.  1.
         25    2    1    2    0    0  0.82354190429E+02  0.13505171982E+02 -0.10489244346E+03  0.18334467992E+03  0.12509294388E+03 0.  0.
          5    1    3    3  502    0  0.11071601434E+03 -0.10086286254E+02 -0.65005039261E+02  0.12885222750E+03  0.41800000000E+01 0. -1.
         -5    1    3    3    0  502 -0.28361823911E+02  0.23591458235E+02 -0.39887404201E+02  0.54492452424E+02  0.41800000000E+01 0. -1.
        -11    1    1    2    0    0 -0.35164111119E+02 -0.17473649378E+02 -0.12473533209E+03  0.13076982146E+03  0.00000000000E+00 0.  1.
         11    1    1    2    0    0 -0.47190079311E+02  0.39684773958E+01 -0.15490351722E+01  0.47381978728E+02  0.00000000000E+00 0. -1.
</event>
<event>
 7    1  0.2733606E-009  0.1138229E+03  0.7561462E-02  0.1253650E+00
         -1   -1    0    0    0  501 -0.00000000000E+00  0.00000000000E+00  0.35133538744E+02  0.35133538744E+02  0.00000000000E+00 0.  1.
          1   -1    0    0  501    0  0.00000000000E+00 -0.00000000000E+00 -0.46933131505E+03  0.46933131505E+03  0.00000000000E+00 0. -1.
         25    2    1    2    0    0  0.38139429382E+02  0.48472313850E+02 -0.30364642465E+03  0.33414385651E+03  0.12508710708E+03 0.  0.
          5    1    3    3  502    0 -0.26963785854E+02  0.57375065668E+02 -0.87102122294E+02  0.10781092716E+03  0.41800000000E+01 0. -1.
         -5    1    3    3    0  502  0.65103215236E+02 -0.89027518179E+01 -0.21654430235E+03  0.22633292935E+03  0.41800000000E+01 0. -1.
        -11    1    1    2    0    0 -0.31194242334E+02 -0.69471318011E+02 -0.61721971862E+02  0.98025234463E+02  0.00000000000E+00 0.  1.
         11    1    1    2    0    0 -0.69451870479E+01  0.20999004161E+02 -0.68829379792E+02  0.72295762818E+02  0.00000000000E+00 0. -1.
</event>
<event>
 7    1  0.2733606E-009  0.9186522E+02  0.7561462E-02  0.1298397E+00
          1   -1    0    0  501    0  0.00000000000E+00  0.00000000000E+00  0.25779154255E+02  0.25779154255E+02  0.00000000000E+00 0. -1.
         -1   -1    0    0    0  501 -0.00000000000E+00 -0.00000000000E+00 -0.50598861858E+03  0.50598861858E+03  0.00000000000E+00 0.  1.
         25    2    1    2    0    0 -0.16806864422E+02 -0.32687853762E+02 -0.25786519184E+03  0.28895134996E+03  0.12508980377E+03 0.  0.
          5    1    3    3  502    0 -0.28915046279E+02  0.22515168534E+02 -0.15432048259E+02  0.39982911711E+02  0.41800000000E+01 0. -1.
         -5    1    3    3    0  502  0.12108181856E+02 -0.55203022296E+02 -0.24243314358E+03  0.24896843825E+03  0.41800000000E+01 0. -1.
        -11    1    1    2    0    0  0.20741626758E+02  0.59533629404E+02 -0.10582969715E+03  0.12318438582E+03  0.00000000000E+00 0. -1.
         11    1    1    2    0    0 -0.39347623352E+01 -0.26845775641E+02 -0.11651457533E+03  0.11963203705E+03  0.00000000000E+00 0.  1.
</event>
<event>
 7    1  0.2733606E-009  0.8837967E+02  0.7561462E-02  0.1306824E+00
         -4   -1    0    0    0  501 -0.00000000000E+00  0.00000000000E+00  0.61552341240E+03  0.61552341240E+03  0.00000000000E+00 0.  1.
          4   -1    0    0  501    0  0.00000000000E+00 -0.00000000000E+00 -0.24405942417E+02  0.24405942417E+02  0.00000000000E+00 0. -1.
         25    2    1    2    0    0  0.22312732244E+02  0.46807610095E+02  0.25908131526E+03  0.29233445370E+03  0.12508994573E+03 0.  0.
          5    1    3    3  502    0 -0.16638651669E+02  0.20928068551E+02 -0.19338727147E+01  0.27130076416E+02  0.41800000000E+01 0. -1.
         -5    1    3    3    0  502  0.38951383913E+02  0.25879541544E+02  0.26101518798E+03  0.26520437729E+03  0.41800000000E+01 0. -1.
        -11    1    1    2    0    0 -0.88239737262E+01 -0.72869179213E+02  0.24343645293E+03  0.25426184615E+03  0.00000000000E+00 0.  1.
         11    1    1    2    0    0 -0.13488758518E+02  0.26061569118E+02  0.88599701794E+02  0.93333054966E+02  0.00000000000E+00 0. -1.
</event>
<event>
 7    1  0.2733606E-009  0.1440364E+03  0.7561462E-02  0.1207999E+00
         -2   -1    0    0    0  501 -0.00000000000E+00  0.00000000000E+00  0.66272364655E+02  0.66272364655E+02  0.00000000000E+00 0.  1.
          2   -1    0    0  501    0  0.00000000000E+00 -0.00000000000E+00 -0.36515210999E+03  0.36515210999E+03  0.00000000000E+00 0. -1.
         25    2    1    2    0    0 -0.93106896180E+02  0.59584671225E+02 -0.18345126798E+03  0.24803476785E+03  0.12509057189E+03 0.  0.
          5    1    3    3  502    0 -0.11120805071E+03  0.36400834741E+02 -0.83633948809E+02  0.14389010079E+03  0.41800000000E+01 0.  1.
         -5    1    3    3    0  502  0.18101154530E+02  0.23183836484E+02 -0.99817319171E+02  0.10414466705E+03  0.41800000000E+01 0.  1.
        -11    1    1    2    0    0  0.67688792790E+02  0.88573852821E+01 -0.43790425532E+02  0.81103805778E+02  0.00000000000E+00 0. -1.
         11    1    1    2    0    0  0.25418103390E+02 -0.68442056507E+02 -0.71638051827E+02  0.10228590102E+03  0.00000000000E+00 0.  1.
</event>
<event>
 7    1  0.2733606E-009  0.1316270E+03  0.7561462E-02  0.1225061E+00
          2   -1    0    0  501    0  0.00000000000E+00  0.00000000000E+00  0.30759057316E+03  0.30759057316E+03  0.00000000000E+00 0.  1.
         -2   -1    0    0    0  501 -0.00000000000E+00 -0.00000000000E+00 -0.85579444082E+02  0.85579444082E+02  0.00000000000E+00 0. -1.
         25    2    1    2    0    0  0.82643866763E+02 -0.26278130463E+02  0.21905262130E+03  0.26674314536E+03  0.12508919155E+03 0.  0.
          5    1    3    3  502    0 -0.25729515785E+02 -0.39212208913E+01  0.10306871982E+03  0.10638617091E+03  0.41800000000E+01 0. -1.
         -5    1    3    3    0  502  0.10837338255E+03 -0.22356909572E+02  0.11598390148E+03  0.16035697445E+03  0.41800000000E+01 0. -1.
        -11    1    1    2    0    0 -0.94088915937E+02 -0.36067886971E+01 -0.11330948986E+01  0.94164839144E+02  0.00000000000E+00 0.  1.
         11    1    1    2    0    0  0.11445049174E+02  0.29884919160E+02  0.40916026684E+01  0.32262032735E+02  0.00000000000E+00 0. -1.
</event>
<event>
 7    1  0.2733606E-009  0.9419356E+02  0.7561462E-02  0.1293003E+00
          1   -1    0    0  501    0  0.00000000000E+00  0.00000000000E+00  0.12605204289E+04  0.12605204289E+04  0.00000000000E+00 0. -1.
         -1   -1    0    0    0  501 -0.00000000000E+00 -0.00000000000E+00 -0.10252776241E+02  0.10252776241E+02  0.00000000000E+00 0.  1.
         25    2    1    2    0    0 -0.18862428644E+01 -0.18975264319E+02  0.92558045946E+03  0.93418713268E+03  0.12507115318E+03 0.  0.
          5    1    3    3  502    0 -0.27502739913E+02  0.32998960052E+02  0.69716081040E+03  0.69849552613E+03  0.41800000000E+01 0. -1.
         -5    1    3    3    0  502  0.25616497049E+02 -0.51974224370E+02  0.22841964906E+03  0.23569160655E+03  0.41800000000E+01 0. -1.
        -11    1    1    2    0    0 -0.40801220435E+02  0.99725114634E+00  0.18392744850E+03  0.18840127497E+03  0.00000000000E+00 0. -1.
         11    1    1    2    0    0  0.42687463299E+02  0.17978013172E+02  0.14075974474E+03  0.14818479753E+03  0.00000000000E+00 0.  1.
</event>
<event>
 7    1  0.2733606E-009  0.1234672E+03  0.7561462E-02  0.1237484E+00
         -1   -1    0    0    0  501 -0.00000000000E+00  0.00000000000E+00  0.15606810162E+02  0.15606810162E+02  0.00000000000E+00 0.  1.
          1   -1    0    0  501    0  0.00000000000E+00 -0.00000000000E+00 -0.14952441757E+04  0.14952441757E+04  0.00000000000E+00 0. -1.
         25    2    1    2    0    0  0.10561600537E+03  0.18911286900E+02 -0.82149249687E+03  0.83785820597E+03  0.12507627089E+03 0.  0.
          5    1    3    3  502    0  0.95474596155E+02  0.42221317305E+01 -0.81122581087E+03  0.81684638306E+03  0.41800000000E+01 0. -1.
         -5    1    3    3    0  502  0.10141409212E+02  0.14689155169E+02 -0.10266685998E+02  0.21011822904E+02  0.41800000000E+01 0. -1.
        -11    1    1    2    0    0 -0.11308371949E+03 -0.51146110814E+00 -0.61734710590E+03  0.62761902327E+03  0.00000000000E+00 0. -1.
         11    1    1    2    0    0  0.74677141200E+01 -0.18399825791E+02 -0.40797762811E+02  0.45373756663E+02  0.00000000000E+00 0.  1.
</event>
<event>
 7    1  0.2733606E-009  0.1342580E+03  0.7561462E-02  0.1221271E+00
          1   -1    0    0  501    0  0.00000000000E+00  0.00000000000E+00  0.80581882434E+02  0.80581882434E+02  0.00000000000E+00 0. -1.
         -1   -1    0    0    0  501 -0.00000000000E+00 -0.00000000000E+00 -0.23740098028E+03  0.23740098028E+03  0.00000000000E+00 0.  1.
         25    2    1    2    0    0 -0.54075748507E+02 -0.59501241615E+02 -0.11751703484E+03  0.18953320324E+03  0.12509195548E+03 0.  0.
          5    1    3    3  502    0 -0.83862516465E+02 -0.74979102901E+02 -0.10348908889E+03  0.15291256148E+03  0.41800000000E+01 0. -1.
         -5    1    3    3    0  502  0.29786767959E+02  0.15477861286E+02 -0.14027945944E+02  0.36620641759E+02  0.41800000000E+01 0. -1.
        -11    1    1    2    0    0  0.66421041581E+02  0.54161962574E+01 -0.18055251403E+02  0.69044058759E+02  0.00000000000E+00 0.  1.
         11    1    1    2    0    0 -0.12345293075E+02  0.54085045357E+02 -0.21246811606E+02  0.59405600711E+02  0.00000000000E+00 0. -1.
</event>
<event>
 7    1  0.2733606E-009  0.1353423E+03  0.7561462E-02  0.1219737E+00
          1   -1    0    0  501    0  0.00000000000E+00  0.00000000000E+00  0.70509100136E+03  0.70509100136E+03  0.00000000000E+00 0. -1.
         -1   -1    0    0    0  501 -0.00000000000E+00 -0.00000000000E+00 -0.33049452375E+02  0.33049452375E+02  0.00000000000E+00 0.  1.
         25    2    1    2    0    0  0.55320843354E+02 -0.80209909548E+02  0.46998900252E+03  0.49601379668E+03  0.12508396666E+03 0.  0.
          5    1    3    3  502    0 -0.76788232470E+01 -0.85434469269E+02  0.18348629309E+03  0.20258999239E+03  0.41800000000E+01 0.  1.
         -5    1    3    3    0  502  0.62999666601E+02  0.52245597216E+01  0.28650270942E+03  0.29342380429E+03  0.41800000000E+01 0.  1.
        -11    1    1    2    0    0 -0.50724717048E+00 -0.13165237780E+02  0.32609199797E+00  0.13179040993E+02  0.00000000000E+00 0.  1.
         11    1    1    2    0    0 -0.54813596184E+02  0.93375147328E+02  0.20172645447E+03  0.22894761605E+03  0.00000000000E+00 0. -1.
</event>
<event>
 7    1  0.2733606E-009  0.1030027E+03  0.7561462E-02  0.1274106E+00
         -2   -1    0    0    0  501 -0.00000000000E+00  0.00000000000E+00  0.50684967310E+03  0.50684967310E+03  0.00000000000E+00 0.  1.
          2   -1    0    0  501    0  0.00000000000E+00 -0.00000000000E+00 -0.48346643319E+02  0.48346643319E+02  0.00000000000E+00 0. -1.
         25    2    1    2    0    0  0.69766563988E+02  0.65175240996E+02  0.14178600579E+03  0.21181570148E+03  0.12508970568E+03 0.  0.
          5    1    3    3  502    0  0.15493316291E+02 -0.47635246560E+01  0.11918358604E+03  0.12035336970E+03  0.41800000000E+01 0.  1.
         -5    1    3    3    0  502  0.54273247696E+02  0.69938765652E+02  0.22602419754E+02  0.91462331783E+02  0.41800000000E+01 0.  1.
        -11    1    1    2    0    0 -0.53597501103E+02 -0.28826637597E+02  0.28788871653E+03  0.29425087980E+03  0.00000000000E+00 0.  1.
         11    1    1    2    0    0 -0.16169062884E+02 -0.36348603399E+02  0.28828307463E+02  0.49129735139E+02  0.00000000000E+00 0. -1.
</event>
<event>
 7    1  0.2733606E-009  0.9539528E+02  0.7561462E-02  0.1290288E+00
         -1   -1    0    0    0  501 -0.00000000000E+00  0.00000000000E+00  0.13588678679E+02  0.13588678679E+02  0.00000000000E+00 0.  1.
          1   -1    0    0  501    0  0.00000000000E+00 -0.00000000000E+00 -0.92724201057E+03  0.92724201057E+03  0.00000000000E+00 0. -1.
         25    2    1    2    0    0  0.26226922108E+02 -0.31905531215E+02 -0.51825169484E+03  0.53473168672E+03  0.12508934093E+03 0.  0.
          5    1    3    3  502    0  0.64617593409E+02 -0.24651833896E+02 -0.16034258194E+03  0.17467215656E+03  0.41800000000E+01 0. -1.
         -5    1    3    3    0  502 -0.38390671300E+02 -0.72536973182E+01 -0.35790911289E+03  0.36005953016E+03  0.41800000000E+01 0. -1.
        -11    1    1    2    0    0 -0.10973608374E+01 -0.22371833857E+02 -0.41314624970E+02  0.46995759249E+02  0.00000000000E+00 0.  1.
         11    1    1    2    0    0 -0.25129561271E+02  0.54277365072E+02 -0.35408701209E+03  0.35910324329E+03  0.00000000000E+00 0. -1.
</event>
<event>
 7    1  0.2733606E-009  0.2054846E+03  0.7561462E-02  0.1145192E+00
         -1   -1    0    0    0  501 -0.00000000000E+00  0.00000000000E+00  0.53843872328E+03  0.53843872328E+03  0.00000000000E+00 0.  1.
          1   -1    0    0  501    0  0.00000000000E+00 -0.00000000000E+00 -0.82074378484E+02  0.82074378484E+02  0.00000000000E+00 0. -1.
         25    2    1    2    0    0 -0.11012440213E+03  0.13763069086E+03  0.28973826852E+03  0.36147761668E+03  0.12509281397E+03 0.  0.
          5    1    3    3  502    0 -0.55948827572E+02  0.15022933768E+03  0.21545045558E+03  0.26858052129E+03  0.41800000000E+01 0. -1.
         -5    1    3    3    0  502 -0.54175574562E+02 -0.12598646826E+02  0.74287812942E+02  0.92897095394E+02  0.41800000000E+01 0. -1.
        -11    1    1    2    0    0  0.10796116207E+03 -0.73375690489E+02  0.13349401559E+03  0.18670901603E+03  0.00000000000E+00 0. -1.
         11    1    1    2    0    0  0.21632400657E+01 -0.64255000367E+02  0.33132060690E+02  0.72326469051E+02  0.00000000000E+00 0.  1.
</event>
<event>
 7    1  0.2733606E-009  0.9651812E+02  0.7561462E-02  0.1287793E+00
         -2   -1    0    0    0  501 -0.00000000000E+00  0.00000000000E+00  0.10139880176E+03  0.10139880176E+03  0.00000000000E+00 0.  1.
          2   -1    0    0  501    0  0.00000000000E+00 -0.00000000000E+00 -0.19551278335E+03  0.19551278335E+03  0.00000000000E+00 0. -1.
         25    2    1    2    0    0 -0.47943808486E+02 -0.62439420595E+02 -0.84974564194E+01  0.14804481388E+03  0.12509104739E+03 0.  0.
          5    1    3    3  502    0 -0.26312875145E+02 -0.10017588491E+01 -0.59507819687E+02  0.65207544986E+02  0.41800000000E+01 0. -1.
         -5    1    3    3    0  502 -0.21630933340E+02 -0.61437661746E+02  0.51010363267E+02  0.82837268899E+02  0.41800000000E+01 0. -1.
        -11    1    1    2    0    0  0.18356711343E+01  0.54244472350E+02 -0.86395592662E+02  0.10202955895E+03  0.00000000000E+00 0. -1.
         11    1    1    2    0    0  0.46108137352E+02  0.81949482445E+01  0.77906749018E+00  0.46837212267E+02  0.00000000000E+00 0.  1.
</event>
<event>
 7    1  0.2733606E-009  0.1071561E+03  0.7561462E-02  0.1265929E+00
          3   -1    0    0  501    0  0.00000000000E+00  0.00000000000E+00  0.33682250158E+03  0.33682250158E+03  0.00000000000E+00 0. -1.
         -3   -1    0    0    0  501 -0.00000000000E+00 -0.00000000000E+00 -0.57395168205E+02  0.57395168205E+02  0.00000000000E+00 0.  1.
         25    2    1    2    0    0  0.32952168223E+02 -0.76956517418E+02  0.17760695471E+03  0.23280598660E+03  0.12508495541E+03 0.  0.
          5    1    3    3  502    0  0.11091289614E+02 -0.75209876262E+02  0.27352888031E+02  0.80902379918E+02  0.41800000000E+01 0. -1.
         -5    1    3    3    0  502  0.21860878609E+02 -0.17466411556E+01  0.15025406668E+03  0.15190360668E+03  0.41800000000E+01 0. -1.
        -11    1    1    2    0    0  0.81231814363E+01  0.74240701179E+02  0.33961457944E+02  0.82042966876E+02  0.00000000000E+00 0.  1.
         11    1    1    2    0    0 -0.41075349659E+02  0.27158162390E+01  0.67858920719E+02  0.79368716309E+02  0.00000000000E+00 0. -1.
</event>
<event>
 7    1  0.2733606E-009  0.1292176E+03  0.7561462E-02  0.1228621E+00
          2   -1    0    0  501    0  0.00000000000E+00  0.00000000000E+00  0.85545821537E+03  0.85545821537E+03  0.00000000000E+00 0. -1.
         -2   -1    0    0    0  501 -0.00000000000E+00 -0.00000000000E+00 -0.27309432131E+02  0.27309432131E+02  0.00000000000E+00 0.  1.
         25    2    1    2    0    0 -0.10144051611E+03 -0.36270734902E+02  0.46530745055E+03  0.49372524690E+03  0.12509137206E+03 0.  0.
          5    1    3    3  502    0 -0.63480872023E+01  0.10985911967E+02  0.27839079457E+03  0.27871113249E+03  0.41800000000E+01 0. -1.
         -5    1    3    3    0  502 -0.95092428913E+02 -0.47256646870E+02  0.18691665598E+03  0.21501411440E+03  0.41800000000E+01 0. -1.
        -11    1    1    2    0    0  0.11670338408E+03  0.39498291886E+02  0.33748464698E+03  0.35927104235E+03  0.00000000000E+00 0. -1.
         11    1    1    2    0    0 -0.15262867968E+02 -0.32275569840E+01  0.25356685699E+02  0.29771358255E+02  0.00000000000E+00 0.  1.
</event>
<event>
 7    1  0.2733606E-009  0.1057325E+03  0.7561462E-02  0.1268683E+00
          2   -1    0    0  501    0  0.00000000000E+00  0.00000000000E+00  0.71903501599E+03  0.71903501599E+03  0.00000000000E+00 0. -1.
         -2   -1    0    0    0  501 -0.00000000000E+00 -0.00000000000E+00 -0.29144342657E+02  0.29144342657E+02  0.00000000000E+00 0.  1.
         25    2    1    2    0    0 -0.55996625558E+02  0.51192064912E+02  0.51790149154E+03  0.53816931754E+03  0.12509200540E+03 0.  0.
          5    1    3    3  502    0  0.25325682265E+02  0.23745721296E+02  0.32645162322E+03  0.32831902802E+03  0.41800000000E+01 0. -1.
         -5    1    3    3    0  502 -0.81322307824E+02  0.27446343616E+02  0.19144986832E+03  0.20985028951E+03  0.41800000000E+01 0. -1.
        -11    1    1    2    0    0  0.34465739669E+02 -0.58442100197E+02  0.17442968354E+03  0.18716057487E+03  0.00000000000E+00 0.  1.
         11    1    1    2    0    0  0.21530885889E+02  0.72500352849E+01 -0.24405017432E+01  0.22849466242E+02  0.00000000000E+00 0. -1.
</event>
<event>
 7    1  0.2733606E-009  0.1248746E+03  0.7561462E-02  0.1235265E+00
         -2   -1    0    0    0  501 -0.00000000000E+00  0.00000000000E+00  0.46140079364E+02  0.46140079364E+02  0.00000000000E+00 0. -1.
          2   -1    0    0  501    0  0.00000000000E+00 -0.00000000000E+00 -0.95953427267E+03  0.95953427267E+03  0.00000000000E+00 0.  1.
         25    2    1    2    0    0 -0.10815824452E+03 -0.53424286689E+02 -0.78715054181E+03  0.80610479721E+03  0.12508640353E+03 0.  0.
          5    1    3    3  502    0 -0.59855089770E+02 -0.53849259886E+02 -0.71278089190E+03  0.71732590001E+03  0.41800000000E+01 0. -1.
         -5    1    3    3    0  502 -0.48303154750E+02  0.42497319627E+00 -0.74369649908E+02  0.88778897202E+02  0.41800000000E+01 0. -1.
        -11    1    1    2    0    0  0.22384392856E+02  0.11720085027E+02  0.14817597977E+02  0.29291340809E+02  0.00000000000E+00 0. -1.
         11    1    1    2    0    0  0.85773851664E+02  0.41704201662E+02 -0.14106124947E+03  0.17027821401E+03  0.00000000000E+00 0.  1.
</event>
<event>
 7    1  0.2733606E-009  0.1562311E+03  0.7561462E-02  0.1193019E+00
         -2   -1    0    0    0  501 -0.00000000000E+00  0.00000000000E+00  0.17267157813E+02  0.17267157813E+02  0.00000000000E+00 0.  1.
          2   -1    0    0  501    0  0.00000000000E+00 -0.00000000000E+00 -0.15753518452E+04  0.15753518452E+04  0.00000000000E+00 0. -1.
         25    2    1    2    0    0 -0.11627334464E+03 -0.12636548325E+02 -0.10030809714E+04  0.10175944492E+04  0.12509138575E+03 0.  0.
          5    1    3    3  502    0 -0.77962795128E+02 -0.64988271665E+02 -0.72092850007E+03  0.72805016825E+03  0.41800000000E+01 0.  1.
         -5    1    3    3    0  502 -0.38310549508E+02  0.52351723340E+02 -0.28215247133E+03  0.28954428093E+03  0.41800000000E+01 0.  1.
        -11    1    1    2    0    0  0.12896476487E+03  0.14783221068E+01 -0.52478967366E+03  0.54040567872E+03  0.00000000000E+00 0.  1.
         11    1    1    2    0    0 -0.12691420235E+02  0.11158226218E+02 -0.30214042292E+02  0.34618875076E+02  0.00000000000E+00 0. -1.
</event>
<event>
 7    1  0.2733606E-009  0.3731492E+03  0.7561462E-02  0.1053495E+00
          2   -1    0    0  501    0  0.00000000000E+00  0.00000000000E+00  0.46075826153E+03  0.46075826153E+03  0.00000000000E+00 0. -1.
         -2   -1    0    0    0  501 -0.00000000000E+00 -0.00000000000E+00 -0.37273157947E+03  0.37273157947E+03  0.00000000000E+00 0.  1.
         25    2    1    2    0    0  0.30341437474E+03 -0.19623322750E+03  0.21642735412E+03  0.43938339230E+03  0.12509677630E+03 0.  0.
          5    1    3    3  502    0  0.25620615902E+03 -0.10695023528E+03  0.18452374200E+03  0.33338631122E+03  0.41800000000E+01 0.  1.
         -5    1    3    3    0  502  0.47208215725E+02 -0.89282992221E+02  0.31903612122E+02  0.10599708108E+03  0.41800000000E+01 0.  1.
        -11    1    1    2    0    0 -0.80968002015E+02  0.89935132817E+02 -0.73310358237E+02  0.14148693964E+03  0.00000000000E+00 0.  1.
         11    1    1    2    0    0 -0.22244637273E+03  0.10629809469E+03 -0.55090313828E+02  0.25261950905E+03  0.00000000000E+00 0. -1.
</event>
<event>
 7    1  0.2733606E-009  0.1036556E+03  0.7561462E-02  0.1272791E+00
          2   -1    0    0  501    0  0.00000000000E+00  0.00000000000E+00  0.47750072565E+02  0.47750072565E+02  0.00000000000E+00 0. -1.
         -2   -1    0    0    0  501 -0.00000000000E+00 -0.00000000000E+00 -0.54179565729E+03  0.54179565729E+03  0.00000000000E+00 0.  1.
         25    2    1    2    0    0  0.28488833856E+02 -0.95217935985E+01 -0.47483504300E+03  0.49195363796E+03  0.12509110935E+03 0.  0.
          5    1    3    3  502    0 -0.46962920205E+02  0.78918809718E+01 -0.13011903791E+03  0.13862263194E+03  0.41800000000E+01 0.  1.
         -5    1    3    3    0  502  0.75451754062E+02 -0.17413674570E+02 -0.34471600508E+03  0.35333100602E+03  0.41800000000E+01 0.  1.
        -11    1    1    2    0    0  0.21355996094E+02 -0.15304331235E+02  0.16885008642E+02  0.31231468755E+02  0.00000000000E+00 0.  1.
         11    1    1    2    0    0 -0.49844829951E+02  0.24826124834E+02 -0.36095550375E+02  0.66360623143E+02  0.00000000000E+00 0. -1.
</event>
<event>
 7    1  0.2733606E-009  0.3323371E+03  0.7561462E-02  0.1070107E+00
         -2   -1    0    0    0  501 -0.00000000000E+00  0.00000000000E+00  0.92924342338E+02  0.92924342338E+02  0.00000000000E+00 0.  1.
          2   -1    0    0  501    0  0.00000000000E+00 -0.00000000000E+00 -0.15427028281E+04  0.15427028281E+04  0.00000000000E+00 0. -1.
         25    2    1    2    0    0  0.20571314245E+03  0.24493792632E+03 -0.37428893177E+03  0.50798803426E+03  0.12508858373E+03 0.  0.
          5    1    3    3  502    0  0.22140297109E+03  0.23515234751E+03 -0.34111698164E+03  0.46978098058E+03  0.41800000000E+01 0. -1.
         -5    1    3    3    0  502 -0.15689828648E+02  0.97855788083E+01 -0.33171950125E+02  0.38207053677E+02  0.41800000000E+01 0. -1.
        -11    1    1    2    0    0 -0.15999100402E+03 -0.16011829051E+03 -0.57480638203E+03  0.61776805125E+03  0.00000000000E+00 0.  1.
         11    1    1    2    0    0 -0.45722138429E+02 -0.84819635807E+02 -0.50068317196E+03  0.50987108492E+03  0.00000000000E+00 0. -1.
</event>
<event>
 7    1  0.2733606E-009  0.1022328E+03  0.7561462E-02  0.1275670E+00
          1   -1    0    0  501    0  0.00000000000E+00  0.00000000000E+00  0.77385209719E+03  0.77385209719E+03  0.00000000000E+00 0. -1.
         -1   -1    0    0    0  501 -0.00000000000E+00 -0.00000000000E+00 -0.17054142402E+02  0.17054142402E+02  0.00000000000E+00 0.  1.
         25    2    1    2    0    0  0.76619326871E+01 -0.32117890189E+02  0.36928357625E+03  0.39128936958E+03  0.12508695766E+03 0.  0.
          5    1    3    3  502    0 -0.48231477670E+02  0.47937608842E+01  0.24752034208E+03  0.25225591713E+03  0.41800000000E+01 0. -1.
         -5    1    3    3    0  502  0.55893410357E+02 -0.36911651073E+02  0.12176323417E+03  0.13903345245E+03  0.41800000000E+01 0. -1.
        -11    1    1    2    0    0  0.14743619711E+02 -0.24063035969E+02  0.56882357165E+02  0.63498083270E+02  0.00000000000E+00 0.  1.
         11    1    1    2    0    0 -0.22405552398E+02  0.56180926158E+02  0.33063202137E+03  0.33611878674E+03  0.00000000000E+00 0. -1.
</event>
<event>
 7    1  0.2733606E-009  0.6615535E+02  0.7561462E-02  0.1373677E+00
         -2   -1    0    0    0  501 -0.00000000000E+00  0.00000000000E+00  0.31821954532E+02  0.31821954532E+02  0.00000000000E+00 0.  1.
          2   -1    0    0  501    0  0.00000000000E+00 -0.00000000000E+00 -0.47984835000E+03  0.47984835000E+03  0.00000000000E+00 0. -1.
         25    2    1    2    0    0  0.43121168923E+02  0.27010419502E+02 -0.28354310589E+03  0.31405873683E+03  0.12508876571E+03 0.  0.
          5    1    3    3  502    0  0.58267742951E+02  0.11900259150E+02 -0.28597602462E+03  0.29212412618E+03  0.41800000000E+01 0. -1.
         -5    1    3    3    0  502 -0.15146574028E+02  0.15110160352E+02  0.24329187333E+01  0.21934610646E+02  0.41800000000E+01 0. -1.
        -11    1    1    2    0    0 -0.13629634200E+02 -0.79351617900E+01  0.10624448030E+02  0.19016114666E+02  0.00000000000E+00 0.  1.
         11    1    1    2    0    0 -0.29491534723E+02 -0.19075257712E+02 -0.17510773761E+03  0.17859545304E+03  0.00000000000E+00 0. -1.
</event>
<event>
 7    1  0.2733606E-009  0.1136676E+03  0.7561462E-02  0.1253925E+00
         -4   -1    0    0    0  501 -0.00000000000E+00  0.00000000000E+00  0.89834828633E+02  0.89834828633E+02  0.00000000000E+00 0.  1.
          4   -1    0    0  501    0  0.00000000000E+00 -0.00000000000E+00 -0.18410045148E+03  0.18410045148E+03  0.00000000000E+00 0. -1.
         25    2    1    2    0    0  0.64231544545E+02 -0.12512520776E+02 -0.29990538331E+02  0.14432235319E+03  0.12508898732E+03 0.  0.
          5    1    3    3  502    0  0.85985144271E+02  0.30969228621E+02 -0.11811345406E+02  0.92247051102E+02  0.41800000000E+01 0.  1.
         -5    1    3    3    0  502 -0.21753599726E+02 -0.43481749397E+02 -0.18179192925E+02  0.52075302083E+02  0.41800000000E+01 0.  1.
        -11    1    1    2    0    0 -0.68748402010E+02  0.25478710454E+02 -0.10443540816E+02  0.74057916593E+02  0.00000000000E+00 0.  1.
         11    1    1    2    0    0  0.45168574649E+01 -0.12966189678E+02 -0.53831543705E+02  0.55555010339E+02  0.00000000000E+00 0. -1.
</event>
<event>
 7    1  0.2733606E-009  0.1115552E+03  0.7561462E-02  0.1257717E+00
         -3   -1    0    0    0  501 -0.00000000000E+00  0.00000000000E+00  0.73562231770E+03  0.73562231770E+03  0.00000000000E+00 0.  1.
          3   -1    0    0  501    0  0.00000000000E+00 -0.00000000000E+00 -0.18229534300E+02  0.18229534300E+02  0.00000000000E+00 0. -1.
         25    2    1    2    0    0 -0.41390182075E+02  0.28017790357E+02  0.41102915972E+03  0.43254232641E+03  0.12509896181E+03 0.  0.
          5    1    3    3  502    0  0.41914556616E+02  0.56081428780E+01  0.20110654842E+03  0.20554706892E+03  0.41800000000E+01 0. -1.
         -5    1    3    3    0  502 -0.83304738691E+02  0.22409647479E+02  0.20992261130E+03  0.22699525749E+03  0.41800000000E+01 0. -1.
        -11    1    1    2    0    0  0.42096154541E+02 -0.53881069175E+02  0.25186343647E+03  0.26097978173E+03  0.00000000000E+00 0.  1.
         11    1    1    2    0    0 -0.70597246643E+00  0.25863278817E+02  0.54500187215E+02  0.60329743864E+02  0.00000000000E+00 0. -1.
</event>
<event>
 7    1  0.2733606E-009  0.1056434E+03  0.7561462E-02  0.1268857E+00
         -2   -1    0    0    0  501 -0.00000000000E+00  0.00000000000E+00  0.14974017337E+03  0.14974017337E+03  0.00000000000E+00 0.  1.
          2   -1    0    0  501    0  0.00000000000E+00 -0.00000000000E+00 -0.10051172533E+03  0.10051172533E+03  0.00000000000E+00 0. -1.
         25    2    1    2    0    0  0.73684000211E+01 -0.54853272988E+02 -0.91166985033E+00  0.13678980209E+03  0.12508974354E+03 0.  0.
          5    1    3    3  502    0 -0.38983472643E+02 -0.29580058350E+00 -0.39246132939E+02  0.55475489975E+02  0.41800000000E+01 0. -1.
         -5    1    3    3    0  502  0.46351872664E+02 -0.54557472405E+02  0.38334463089E+02  0.81314312117E+02  0.41800000000E+01 0. -1.
        -11    1    1    2    0    0  0.81629294388E+00 -0.22533991466E+02  0.37310529274E+01  0.22855368330E+02  0.00000000000E+00 0. -1.
         11    1    1    2    0    0 -0.81846929650E+01  0.77387264455E+02  0.46409064957E+02  0.90606728276E+02  0.00000000000E+00 0.  1.
</event>
<event>
 7    1  0.2733606E-009  0.1598392E+03  0.7561462E-02  0.1188878E+00
          1   -1    0    0  501    0  0.00000000000E+00  0.00000000000E+00  0.89598631352E+03  0.89598631352E+03  0.00000000000E+00 0. -1.
         -1   -1    0    0    0  501 -0.00000000000E+00 -0.00000000000E+00 -0.34165183139E+02  0.34165183139E+02  0.00000000000E+00 0.  1.
         25    2    1    2    0    0 -0.90598344167E+01  0.11968502112E+03  0.63797171757E+03  0.66110657666E+03  0.12508960152E+03 0.  0.
          5    1    3    3  502    0  0.50875812416E+02  0.91332069240E+02  0.33603170810E+03  0.35194413820E+03  0.41800000000E+01 0. -1.
         -5    1    3    3    0  502 -0.59935646833E+02  0.28352951876E+02  0.30194000946E+03  0.30916243846E+03  0.41800000000E+01 0. -1.
        -11    1    1    2    0    0  0.47170356867E+02 -0.84345032538E+02  0.15714969640E+03  0.18448618962E+03  0.00000000000E+00 0.  1.
         11    1    1    2    0    0 -0.38110522451E+02 -0.35339988577E+02  0.66699716417E+02  0.84558730385E+02  0.00000000000E+00 0. -1.
</event>
<event>
 7    1  0.2733606E-009  0.1230930E+03  0.7561462E-02  0.1238080E+00
          1   -1    0    0  501    0  0.00000000000E+00  0.00000000000E+00  0.90550710975E+03  0.90550710975E+03  0.00000000000E+00 0. -1.
         -1   -1    0    0    0  501 -0.00000000000E+00 -0.00000000000E+00 -0.26893163105E+02  0.26893163105E+02  0.00000000000E+00 0.  1.
         25    2    1    2    0    0  0.73693572500E+02 -0.81498398893E+02  0.50354987888E+03  0.53035876191E+03  0.12508079055E+03 0.  0.
          5    1    3    3  502    0  0.26139021991E+02 -0.18753360537E+02  0.15449204189E+02  0.35931703441E+02  0.41800000000E+01 0.  1.
         -5    1    3    3    0  502  0.47554550509E+02 -0.62745038356E+02  0.48810067469E+03  0.49442705847E+03  0.41800000000E+01 0.  1.
        -11    1    1    2    0    0 -0.57680101466E+02  0.63035646016E+01  0.92392033215E+02  0.10910094790E+03  0.00000000000E+00 0.  1.
         11    1    1    2    0    0 -0.16013471034E+02  0.75194834291E+02  0.28267203455E+03  0.29294056304E+03  0.00000000000E+00 0. -1.
</event>
<event>
 7    1  0.2733606E-009  0.9701195E+02  0.7561462E-02  0.1286708E+00
          2   -1    0    0  501    0  0.00000000000E+00  0.00000000000E+00  0.12234665550E+04  0.12234665550E+04  0.00000000000E+00 0. -1.
         -2   -1    0    0    0  501 -0.00000000000E+00 -0.00000000000E+00 -0.11932862101E+02  0.11932862101E+02  0.00000000000E+00 0.  1.
         25    2    1    2    0    0  0.20951518427E+02  0.44865253826E+02  0.77794177431E+03  0.78948839981E+03  0.12508665830E+03 0.  0.
          5    1    3    3  502    0  0.41959473073E+02  0.11525284079E+01  0.66705282475E+03  0.66838526997E+03  0.41800000000E+01 0. -1.
         -5    1    3    3    0  502 -0.21007954647E+02  0.43712725418E+02  0.11088894956E+03  0.12110312984E+03  0.41800000000E+01 0. -1.
        -11    1    1    2    0    0  0.12555245392E+02  0.23715531933E+02  0.88504326090E+02  0.92482843697E+02  0.00000000000E+00 0.  1.
         11    1    1    2    0    0 -0.33506763819E+02 -0.68580785759E+02  0.34508759249E+03  0.35342817359E+03  0.00000000000E+00 0. -1.
</event>
<event>
 7    1  0.2733606E-009  0.1683321E+03  0.7561462E-02  0.1179598E+00
         -2   -1    0    0    0  501 -0.00000000000E+00  0.00000000000E+00  0.41231071533E+02  0.41231071533E+02  0.00000000000E+00 0.  1.
          2   -1    0    0  501    0  0.00000000000E+00 -0.00000000000E+00 -0.81415759302E+03  0.81415759302E+03  0.00000000000E+00 0. -1.
         25    2    1    2    0    0  0.12523230849E+03  0.74462074905E+02 -0.40013196022E+03  0.44382564087E+03  0.12509149537E+03 0.  0.
          5    1    3    3  502    0  0.35395840792E+02  0.63181218199E+02 -0.67578708605E+02  0.99141747691E+02  0.41800000000E+01 0. -1.
         -5    1    3    3    0  502  0.89836467696E+02  0.11280856706E+02 -0.33255325162E+03  0.34468389318E+03  0.41800000000E+01 0. -1.
        -11    1    1    2    0    0 -0.39898944101E+02  0.21292055546E+02 -0.11640610599E+03  0.12488258038E+03  0.00000000000E+00 0.  1.
         11    1    1    2    0    0 -0.85333364387E+02 -0.95754130451E+02 -0.25638845527E+03  0.28668044330E+03  0.00000000000E+00 0. -1.
</event>
<event>
 7    1  0.3522249E-009  0.1058892E+03  0.7561462E-02  0.1268377E+00
         -2   -1    0    0    0  501 -0.00000000000E+00  0.00000000000E+00  0.74808784078E+02  0.74808784078E+02  0.00000000000E+00 0.  1.
          2   -1    0    0  501    0  0.00000000000E+00 -0.00000000000E+00 -0.25547544002E+03  0.25547544002E+03  0.00000000000E+00 0. -1.
         25    2    1    2    0    0 -0.62305616388E+02 -0.37863328342E+02 -0.45209915568E+02  0.15168202143E+03  0.12509147730E+03 0.  0.
          5    1    3    3  502    0 -0.43191361915E+02  0.39055344700E+02 -0.42600516969E+02  0.72270949487E+02  0.41800000000E+01 0. -1.
         -5    1    3    3    0  502 -0.19114254473E+02 -0.76918673042E+02 -0.26093985993E+01  0.79411071946E+02  0.41800000000E+01 0. -1.
        -11    1    1    2    0    0  0.35966278296E+02  0.14354453624E+02 -0.10841539253E+00  0.38725124496E+02  0.00000000000E+00 0.  1.
         11    1    1    2    0    0  0.26339338092E+02  0.23508874718E+02 -0.13534832498E+03  0.13987707817E+03  0.00000000000E+00 0. -1.
</event>
<event>
 7    1  0.2733606E-009  0.1354065E+03  0.7561462E-02  0.1219647E+00
          1   -1    0    0  501    0  0.00000000000E+00  0.00000000000E+00  0.39809443186E+02  0.39809443186E+02  0.00000000000E+00 0. -1.
         -1   -1    0    0    0  501 -0.00000000000E+00 -0.00000000000E+00 -0.72175026639E+03  0.72175026639E+03  0.00000000000E+00 0.  1.
         25    2    1    2    0    0 -0.11066095043E+03 -0.41600371866E+02 -0.24055269847E+03  0.29578527124E+03  0.12508752557E+03 0.  0.
          5    1    3    3  502    0 -0.73985777857E+02 -0.66361840014E+02 -0.22928063569E+03  0.24992973300E+03  0.41800000000E+01 0.  1.
         -5    1    3    3    0  502 -0.36675172572E+02  0.24761468148E+02 -0.11272062775E+02  0.45855538240E+02  0.41800000000E+01 0.  1.
        -11    1    1    2    0    0  0.34274204597E+01  0.16373749981E+02 -0.78858025333E+01  0.18494128285E+02  0.00000000000E+00 0. -1.
         11    1    1    2    0    0  0.10723352997E+03  0.25226621885E+02 -0.43350232220E+03  0.44728031005E+03  0.00000000000E+00 0.  1.
</event>
<event>
 7    1  0.2733606E-009  0.1295908E+03  0.7561462E-02  0.1228064E+00
         -2   -1    0    0    0  501 -0.00000000000E+00  0.00000000000E+00  0.25970654414E+02  0.25970654414E+02  0.00000000000E+00 0. -1.
          2   -1    0    0  501    0  0.00000000000E+00 -0.00000000000E+00 -0.78279623478E+03  0.78279623478E+03  0.00000000000E+00 0.  1.
         25    2    1    2    0    0  0.36155714371E+02  0.84044176711E+02 -0.43329569809E+03  0.46017769620E+03  0.12509073020E+03 0.  0.
          5    1    3    3  502    0 -0.15135173644E+01 -0.20326401754E+02 -0.20766018703E+03  0.20869997369E+03  0.41800000000E+01 0. -1.
         -5    1    3    3    0  502  0.37669231736E+02  0.10437057847E+03 -0.22563551106E+03  0.25147772251E+03  0.41800000000E+01 0. -1.
        -11    1    1    2    0    0  0.51002485310E+01  0.17236246386E+02 -0.73907147290E+02  0.76061600990E+02  0.00000000000E+00 0.  1.
         11    1    1    2    0    0 -0.41255962902E+02 -0.10128042310E+03 -0.24962273499E+03  0.27252759200E+03  0.00000000000E+00 0. -1.
</event>
<event>
 7    1  0.2733606E-009  0.1045360E+03  0.7561462E-02  0.1271037E+00
         -2   -1    0    0    0  501 -0.00000000000E+00  0.00000000000E+00  0.75719335595E+02  0.75719335595E+02  0.00000000000E+00 0.  1.
          2   -1    0    0  501    0  0.00000000000E+00 -0.00000000000E+00 -0.39784102305E+03  0.39784102305E+03  0.00000000000E+00 0. -1.
         25    2    1    2    0    0  0.35210992530E+02 -0.12023527293E+02  0.64038215197E+01  0.13066646420E+03  0.12509331210E+03 0.  0.
          5    1    3    3  502    0  0.41372256214E+02  0.51195713365E+02 -0.43907038091E+01  0.66101553167E+02  0.41800000000E+01 0.  1.
         -5    1    3    3    0  502 -0.61612636839E+01 -0.63219240658E+02  0.10794525329E+02  0.64564911033E+02  0.41800000000E+01 0.  1.
        -11    1    1    2    0    0  0.17866527182E+02  0.18819106700E+02 -0.30244214266E+02  0.39850772478E+02  0.00000000000E+00 0.  1.
         11    1    1    2    0    0 -0.53077519711E+02 -0.67955794068E+01 -0.29828129471E+03  0.30304312197E+03  0.00000000000E+00 0. -1.
</event>
<event>
 7    1  0.2733606E-009  0.8516898E+02  0.7561462E-02  0.1314991E+00
          1   -1    0    0  501    0  0.00000000000E+00  0.00000000000E+00  0.57557296163E+03  0.57557296163E+03  0.00000000000E+00 0. -1.
         -1   -1    0    0    0  501 -0.00000000000E+00 -0.00000000000E+00 -0.21244254776E+02  0.21244254776E+02  0.00000000000E+00 0.  1.
         25    2    1    2    0    0 -0.12924920776E+02  0.19512372680E+02  0.33951056613E+03  0.36257853084E+03  0.12509188722E+03 0.  0.
          5    1    3    3  502    0 -0.55235506775E+02 -0.15113976076E+02  0.87397339267E+02  0.10457131917E+03  0.41800000000E+01 0. -1.
         -5    1    3    3    0  502  0.42310585999E+02  0.34626348756E+02  0.25211322687E+03  0.25800721168E+03  0.41800000000E+01 0. -1.
        -11    1    1    2    0    0 -0.47248275548E+01 -0.34567106526E+02  0.20675677391E+03  0.20967969002E+03  0.00000000000E+00 0. -1.
         11    1    1    2    0    0  0.17649748331E+02  0.15054733846E+02  0.80613668143E+01  0.24558995546E+02  0.00000000000E+00 0.  1.
</event>
<event>
 7    1  0.2733606E-009  0.1432646E+03  0.7561462E-02  0.1209002E+00
          1   -1    0    0  501    0  0.00000000000E+00  0.00000000000E+00  0.14645942096E+03  0.14645942096E+03  0.00000000000E+00 0. -1.
         -1   -1    0    0    0  501 -0.00000000000E+00 -0.00000000000E+00 -0.14524533489E+03  0.14524533489E+03  0.00000000000E+00 0.  1.
         25    2    1    2    0    0 -0.24328645155E+02 -0.91995407795E+02 -0.22437132932E+02  0.15876448501E+03  0.12509076199E+03 0.  0.
          5    1    3    3  502    0  0.46588146320E+02 -0.11147503807E+02  0.29861246082E+01  0.48177915676E+02  0.41800000000E+01 0. -1.
         -5    1    3    3    0  502 -0.70916791476E+02 -0.80847903988E+02 -0.25423257540E+02  0.11058656933E+03  0.41800000000E+01 0. -1.
        -11    1    1    2    0    0  0.56574408847E+02  0.38756091349E+02  0.12330137506E+02  0.69675897152E+02  0.00000000000E+00 0.  1.
         11    1    1    2    0    0 -0.32245763692E+02  0.53239316446E+02  0.11321081495E+02  0.63264373686E+02  0.00000000000E+00 0. -1.
</event>
<event>
 7    1  0.2733606E-009  0.1060629E+03  0.7561462E-02  0.1268039E+00
         -1   -1    0    0    0  501 -0.00000000000E+00  0.00000000000E+00  0.15026210477E+02  0.15026210477E+02  0.00000000000E+00 0.  1.
          1   -1    0    0  501    0  0.00000000000E+00 -0.00000000000E+00 -0.18391325804E+04  0.18391325804E+04  0.00000000000E+00 0. -1.
         25    2    1    2    0    0  0.39091271892E+02  0.33300312796E+02 -0.16107901362E+04  0.16164559318E+04  0.12509147891E+03 0.  0.
          5    1    3    3  502    0 -0.38438589452E+02  0.34211928673E+02 -0.88983512942E+03  0.89133159440E+03  0.41800000000E+01 0. -1.
         -5    1    3    3    0  502  0.77529861344E+02 -0.91161587684E+00 -0.72095500683E+03  0.72512433742E+03  0.41800000000E+01 0. -1.
        -11    1    1    2    0    0  0.16720945195E+02  0.19557630037E+01 -0.27843531005E+01  0.17063634997E+02  0.00000000000E+00 0.  1.
         11    1    1    2    0    0 -0.55812217087E+02 -0.35256075800E+02 -0.21053188054E+03  0.22063922403E+03  0.00000000000E+00 0. -1.
</event>
<event>
 7    1  0.2733606E-009  0.1280388E+03  0.7561462E-02  0.1230395E+00
         -2   -1    0    0    0  501 -0.00000000000E+00  0.00000000000E+00  0.27629451527E+02  0.27629451527E+02  0.00000000000E+00 0. -1.
          2   -1    0    0  501    0  0.00000000000E+00 -0.00000000000E+00 -0.79449190575E+03  0.79449190575E+03  0.00000000000E+00 0.  1.
         25    2    1    2    0    0 -0.33851527629E+02  0.74039428885E+02 -0.58080750641E+03  0.59967678377E+03  0.12508845886E+03 0.  0.
          5    1    3    3  502    0 -0.31666422662E+02 -0.30755707295E+02 -0.17027635720E+03  0.17595506835E+03  0.41800000000E+01 0. -1.
         -5    1    3    3    0  502 -0.21851049666E+01  0.10479513618E+03 -0.41053114921E+03  0.42372171543E+03  0.41800000000E+01 0. -1.
        -11    1    1    2    0    0  0.27542390258E+02 -0.87627331822E+02 -0.10282535422E+03  0.13787743113E+03  0.00000000000E+00 0. -1.
         11    1    1    2    0    0  0.63091373706E+01  0.13587902937E+02 -0.83229593589E+02  0.84567142376E+02  0.00000000000E+00 0.  1.
</event>
<event>
 7    1  0.2733606E-009  0.5503988E+02  0.7561462E-02  0.1419910E+00
         -1   -1    0    0    0  501 -0.00000000000E+00  0.00000000000E+00  0.28562542735E+02  0.28562542735E+02  0.00000000000E+00 0.  1.
          1   -1    0    0  501    0  0.00000000000E+00 -0.00000000000E+00 -0.43163892384E+03  0.43163892384E+03  0.00000000000E+00 0. -1.
         25    2    1    2    0    0 -0.40023545423E+02 -0.12454605456E+02 -0.24695442226E+03  0.27998427380E+03  0.12509078910E+03 0.  0.
          5    1    3    3  502    0 -0.17211790087E+01 -0.56322895026E+00  0.14623508996E+02  0.15316628199E+02  0.41800000000E+01 0. -1.
         -5    1    3    3    0  502 -0.38302366414E+02 -0.11891376506E+02 -0.26157793125E+03  0.26466764560E+03  0.41800000000E+01 0. -1.
        -11    1    1    2    0    0  0.43193305448E+02 -0.84886225998E+01 -0.32305208361E+02  0.54601692615E+02  0.00000000000E+00 0.  1.
         11    1    1    2    0    0 -0.31697600250E+01  0.20943228056E+02 -0.12381675048E+03  0.12561550016E+03  0.00000000000E+00 0. -1.
</event>
<event>
 7    1  0.2733606E-009  0.1220149E+03  0.7561462E-02  0.1239810E+00
         -2   -1    0    0    0  501 -0.00000000000E+00  0.00000000000E+00  0.88752138211E+02  0.88752138211E+02  0.00000000000E+00 0.  1.
          2   -1    0    0  501    0  0.00000000000E+00 -0.00000000000E+00 -0.20785394865E+03  0.20785394865E+03  0.00000000000E+00 0. -1.
         25    2    1    2    0    0  0.58425004201E+02  0.29976298082E+02 -0.12690642228E+02  0.14184949245E+03  0.12509263186E+03 0.  0.
          5    1    3    3  502    0  0.45517621368E+02 -0.45507417381E+02 -0.82822490234E+01  0.65029585118E+02  0.41800000000E+01 0. -1.
         -5    1    3    3    0  502  0.12907382832E+02  0.75483715462E+02 -0.44083932051E+01  0.76819907330E+02  0.41800000000E+01 0. -1.
        -11    1    1    2    0    0  0.16056644185E+02 -0.22970617539E+02 -0.61286156984E+02  0.67390341522E+02  0.00000000000E+00 0. -1.
         11    1    1    2    0    0 -0.74481648386E+02 -0.70056805429E+01 -0.45125011227E+02  0.87366252892E+02  0.00000000000E+00 0.  1.
</event>
<event>
 7    1  0.2733606E-009  0.8686057E+02  0.7561462E-02  0.1310637E+00
         -2   -1    0    0    0  501 -0.00000000000E+00  0.00000000000E+00  0.61753952512E+02  0.61753952512E+02  0.00000000000E+00 0.  1.
          2   -1    0    0  501    0  0.00000000000E+00 -0.00000000000E+00 -0.21279195483E+03  0.21279195483E+03  0.00000000000E+00 0. -1.
         25    2    1    2    0    0  0.17727183266E+02  0.63588028162E+00 -0.45581969864E+02  0.13431731401E+03  0.12509503386E+03 0.  0.
          5    1    3    3  502    0 -0.43973971657E+02  0.17181499847E+02 -0.51543967554E+02  0.70022618570E+02  0.41800000000E+01 0.  1.
         -5    1    3    3    0  502  0.61701154923E+02 -0.16545619566E+02  0.59619976896E+01  0.64294695443E+02  0.41800000000E+01 0.  1.
        -11    1    1    2    0    0 -0.20912474138E+02 -0.27894626558E+02 -0.10720240173E+03  0.11272886366E+03  0.00000000000E+00 0. -1.
         11    1    1    2    0    0  0.31852908722E+01  0.27258746277E+02  0.17463692710E+01  0.27499729674E+02  0.00000000000E+00 0.  1.
</event>
<event>
 7    1  0.2733606E-009  0.9934344E+02  0.7561462E-02  0.1281683E+00
          1   -1    0    0  501    0  0.00000000000E+00  0.00000000000E+00  0.14934350623E+03  0.14934350623E+03  0.00000000000E+00 0. -1.
         -1   -1    0    0    0  501 -0.00000000000E+00 -0.00000000000E+00 -0.85518546032E+02  0.85518546032E+02  0.00000000000E+00 0.  1.
         25    2    1    2    0    0  0.16144329033E+02 -0.25082431497E+02  0.42627665709E+02  0.13548060853E+03  0.12509240454E+03 0.  0.
          5    1    3    3  502    0  0.36792502376E+02 -0.59866310719E+02  0.58796613321E+02  0.91717923702E+02  0.41800000000E+01 0. -1.
         -5    1    3    3    0  502 -0.20648173343E+02  0.34783879223E+02 -0.16168947611E+02  0.43762684824E+02  0.41800000000E+01 0. -1.
        -11    1    1    2    0    0 -0.47693977900E+02  0.60723610535E+00 -0.99686244789E+01  0.48728407912E+02  0.00000000000E+00 0.  1.
         11    1    1    2    0    0  0.31549648867E+02  0.24475195391E+02  0.31165918966E+02  0.50653035823E+02  0.00000000000E+00 0. -1.
</event>
<event>
 7    1  0.2733606E-009  0.8653351E+02  0.7561462E-02  0.1311470E+00
          2   -1    0    0  501    0  0.00000000000E+00  0.00000000000E+00  0.15396552675E+03  0.15396552675E+03  0.00000000000E+00 0. -1.
         -2   -1    0    0    0  501 -0.00000000000E+00 -0.00000000000E+00 -0.11405983765E+03  0.11405983765E+03  0.00000000000E+00 0.  1.
         25    2    1    2    0    0  0.49192346457E+02 -0.16650811193E+02 -0.34225167707E+02  0.13969959768E+03  0.12508988378E+03 0.  0.
          5    1    3    3  502    0  0.30942272705E+02 -0.31597282207E+02  0.41184485180E+02  0.60575958124E+02  0.41800000000E+01 0.  1.
         -5    1    3    3    0  502  0.18250073752E+02  0.14946471014E+02 -0.75409652887E+02  0.79123639554E+02  0.41800000000E+01 0.  1.
        -11    1    1    2    0    0 -0.70467527684E+02 -0.93583042998E+01  0.48303137352E+02  0.85944420385E+02  0.00000000000E+00 0. -1.
         11    1    1    2    0    0  0.21275181227E+02  0.26009115492E+02  0.25827719458E+02  0.42381346337E+02  0.00000000000E+00 0.  1.
</event>
<event>
 7    1  0.2733606E-009  0.1697300E+03  0.7561462E-02  0.1178130E+00
          2   -1    0    0  501    0  0.00000000000E+00  0.00000000000E+00  0.23250899642E+03  0.23250899642E+03  0.00000000000E+00 0. -1.
         -2   -1    0    0    0  501 -0.00000000000E+00 -0.00000000000E+00 -0.19403459228E+03  0.19403459228E+03  0.00000000000E+00 0.  1.
         25    2    1    2    0    0  0.89390981009E+02  0.11585298796E+03  0.12404428738E+03  0.22901318919E+03  0.12508954108E+03 0.  0.
          5    1    3    3  502    0  0.77419267704E+01 -0.26201024264E+02  0.10231141802E+02  0.29471677339E+02  0.41800000000E+01 0. -1.
         -5    1    3    3    0  502  0.81649054239E+02  0.14205401222E+03  0.11381314558E+03  0.19954151186E+03  0.41800000000E+01 0. -1.
        -11    1    1    2    0    0 -0.88410263479E+01 -0.24920604938E+02  0.22666620798E+02  0.34827804923E+02  0.00000000000E+00 0. -1.
         11    1    1    2    0    0 -0.80549954661E+02 -0.90932383021E+02 -0.10823650404E+03  0.16270259458E+03  0.00000000000E+00 0.  1.
</event>
<event>
 7    1  0.2733606E-009  0.2233207E+03  0.7561462E-02  0.1131431E+00
          1   -1    0    0  501    0  0.00000000000E+00  0.00000000000E+00  0.13144881949E+04  0.13144881949E+04  0.00000000000E+00 0. -1.
         -1   -1    0    0    0  501 -0.00000000000E+00 -0.00000000000E+00 -0.39963159140E+02  0.39963159140E+02  0.00000000000E+00 0.  1.
         25    2    1    2    0    0 -0.19203956454E+03  0.31330513580E+02  0.80991319900E+03  0.84229788436E+03  0.12508213564E+03 0.  0.
          5    1    3    3  502    0 -0.14743931286E+03 -0.34580784490E+02  0.54367541402E+03  0.56438870457E+03  0.41800000000E+01 0. -1.
         -5    1    3    3    0  502 -0.44600251680E+02  0.65911298070E+02  0.26623778498E+03  0.27790917979E+03  0.41800000000E+01 0. -1.
        -11    1    1    2    0    0  0.12851274095E+03  0.24558558053E+02  0.27719529762E+03  0.30652223473E+03  0.00000000000E+00 0. -1.
         11    1    1    2    0    0  0.63526823589E+02 -0.55889071634E+02  0.18741653912E+03  0.20563123493E+03  0.00000000000E+00 0.  1.
</event>
<event>
 7    1  0.2733606E-009  0.1369572E+03  0.7561462E-02  0.1217483E+00
          1   -1    0    0  501    0  0.00000000000E+00  0.00000000000E+00  0.57115729929E+03  0.57115729929E+03  0.00000000000E+00 0. -1.
         -1   -1    0    0    0  501 -0.00000000000E+00 -0.00000000000E+00 -0.48911672909E+02  0.48911672909E+02  0.00000000000E+00 0.  1.
         25    2    1    2    0    0  0.60042310830E+02 -0.10841830813E+03  0.22811220973E+03  0.28816496612E+03  0.12507701164E+03 0.  0.
          5    1    3    3  502    0  0.78886058189E+02 -0.64550300193E+02  0.72008446241E+02  0.12486969273E+03  0.41800000000E+01 0. -1.
         -5    1    3    3    0  502 -0.18843747359E+02 -0.43868007939E+02  0.15610376349E+03  0.16329527339E+03  0.41800000000E+01 0. -1.
        -11    1    1    2    0    0 -0.15689691460E+02  0.31181324921E+02  0.19719840015E+03  0.20026395198E+03  0.00000000000E+00 0. -1.
         11    1    1    2    0    0 -0.44352619370E+02  0.77236983211E+02  0.96935016507E+02  0.13164005411E+03  0.00000000000E+00 0.  1.
</event>
<event>
 7    1  0.2733606E-009  0.1181894E+03  0.7561462E-02  0.1246114E+00
         -2   -1    0    0    0  501 -0.00000000000E+00  0.00000000000E+00  0.15148121134E+02  0.15148121134E+02  0.00000000000E+00 0.  1.
          2   -1    0    0  501    0  0.00000000000E+00 -0.00000000000E+00 -0.17520751778E+04  0.17520751778E+04  0.00000000000E+00 0. -1.
         25    2    1    2    0    0  0.80512420692E+02 -0.37961430053E+02 -0.13983365940E+04  0.14067393917E+04  0.12508863243E+03 0.  0.
          5    1    3    3  502    0  0.69167206034E+02  0.26032932953E+02 -0.10325824705E+04  0.10352322671E+04  0.41800000000E+01 0. -1.
         -5    1    3    3    0  502  0.11345214658E+02 -0.63994363005E+02 -0.36575412353E+03  0.37150712466E+03  0.41800000000E+01 0. -1.
        -11    1    1    2    0    0 -0.42882576381E+02 -0.12269307843E+01 -0.46031904307E+02  0.62923421159E+02  0.00000000000E+00 0.  1.
         11    1    1    2    0    0 -0.37629844311E+02  0.39188360837E+02 -0.29255855832E+03  0.29756048605E+03  0.00000000000E+00 0. -1.
</event>
<event>
 7    1  0.2733606E-009  0.3699909E+03  0.7561462E-02  0.1054696E+00
          1   -1    0    0  501    0  0.00000000000E+00  0.00000000000E+00  0.51901076281E+03  0.51901076281E+03  0.00000000000E+00 0. -1.
         -1   -1    0    0    0  501 -0.00000000000E+00 -0.00000000000E+00 -0.28284166377E+03  0.28284166377E+03  0.00000000000E+00 0.  1.
         25    2    1    2    0    0 -0.35701309249E+03  0.79479029583E+02  0.15475353624E+03  0.41638442133E+03  0.12510821314E+03 0.  0.
          5    1    3    3  502    0 -0.80109379203E+02  0.28065720519E+02 -0.16736933211E+02  0.86618673725E+02  0.41800000000E+01 0.  1.
         -5    1    3    3    0  502 -0.27690371329E+03  0.51413309064E+02  0.17149046945E+03  0.32976574760E+03  0.41800000000E+01 0.  1.
        -11    1    1    2    0    0  0.23089858017E+03 -0.87588310082E+02  0.78248168767E+02  0.25905335803E+03  0.00000000000E+00 0. -1.
         11    1    1    2    0    0  0.12611451232E+03  0.81092804996E+01  0.31673940380E+01  0.12641464722E+03  0.00000000000E+00 0.  1.
</event>
<event>
 7    1  0.2733606E-009  0.1092678E+03  0.7561462E-02  0.1261932E+00
         -1   -1    0    0    0  501 -0.00000000000E+00  0.00000000000E+00  0.12428064054E+03  0.12428064054E+03  0.00000000000E+00 0.  1.
          1   -1    0    0  501    0  0.00000000000E+00 -0.00000000000E+00 -0.11822590167E+03  0.11822590167E+03  0.00000000000E+00 0. -1.
         25    2    1    2    0    0 -0.39245047308E+02  0.14675996867E+02  0.43841188499E+02  0.13901640719E+03  0.12509177845E+03 0.  0.
          5    1    3    3  502    0 -0.43922527934E+02  0.61101034676E+02  0.75654424321E+00  0.75369553918E+02  0.41800000000E+01 0.  1.
         -5    1    3    3    0  502  0.46774806262E+01 -0.46425037809E+02  0.43084644256E+02  0.63646853270E+02  0.41800000000E+01 0.  1.
        -11    1    1    2    0    0 -0.15470150493E+02 -0.34752775661E+02 -0.13835701093E+02  0.40478483138E+02  0.00000000000E+00 0.  1.
         11    1    1    2    0    0  0.54715197801E+02  0.20076778793E+02 -0.23950748541E+02  0.63011651882E+02  0.00000000000E+00 0. -1.
</event>
<event>
 7    1  0.2733606E-009  0.9070147E+02  0.7561462E-02  0.1301162E+00
          2   -1    0    0  501    0  0.00000000000E+00  0.00000000000E+00  0.31318292213E+03  0.31318292213E+03  0.00000000000E+00 0. -1.
         -2   -1    0    0    0  501 -0.00000000000E+00 -0.00000000000E+00 -0.40389333376E+02  0.40389333376E+02  0.00000000000E+00 0.  1.
         25    2    1    2    0    0  0.33534282135E+01 -0.86621979557E+01  0.11389692067E+03  0.16943057833E+03  0.12509169909E+03 0.  0.
          5    1    3    3  502    0 -0.14701309514E+02  0.36784078646E+02 -0.56211802439E+01  0.40227689600E+02  0.41800000000E+01 0. -1.
         -5    1    3    3    0  502  0.18054737728E+02 -0.45446276602E+02  0.11951810091E+03  0.12920288873E+03  0.41800000000E+01 0. -1.
        -11    1    1    2    0    0  0.44158800503E+02  0.85448195014E+01  0.67136875382E+02  0.80810727247E+02  0.00000000000E+00 0. -1.
         11    1    1    2    0    0 -0.47512228717E+02  0.11737845436E+00  0.91759792703E+02  0.10333094992E+03  0.00000000000E+00 0.  1.
</event>
<event>
 7    1  0.2733606E-009  0.1100337E+03  0.7561462E-02  0.1260507E+00
          2   -1    0    0  501    0  0.00000000000E+00  0.00000000000E+00  0.64584350822E+03  0.64584350822E+03  0.00000000000E+00 0. -1.
         -2   -1    0    0    0  501 -0.00000000000E+00 -0.00000000000E+00 -0.31942800353E+02  0.31942800353E+02  0.00000000000E+00 0.  1.
         25    2    1    2    0    0  0.61230744897E+02 -0.57299378401E+02  0.23754584158E+03  0.28126130613E+03  0.12508985804E+03 0.  0.
          5    1    3    3  502    0 -0.68429382564E+01  0.82042039504E+01  0.15591965947E+03  0.15634112503E+03  0.41800000000E+01 0. -1.
         -5    1    3    3    0  502  0.68073683153E+02 -0.65503582352E+02  0.81626182113E+02  0.12492018110E+03  0.41800000000E+01 0. -1.
        -11    1    1    2    0    0 -0.63766174259E+02  0.75424892281E+01  0.12777553115E+03  0.14300209958E+03  0.00000000000E+00 0.  1.
         11    1    1    2    0    0  0.25354293625E+01  0.49756889173E+02  0.24857933514E+03  0.25352290287E+03  0.00000000000E+00 0. -1.
</event>
<event>
 7    1  0.2733606E-009  0.8741182E+02  0.7561462E-02  0.1309243E+00
          1   -1    0    0  501    0  0.00000000000E+00  0.00000000000E+00  0.35235118042E+03  0.35235118042E+03  0.00000000000E+00 0. -1.
         -1   -1    0    0    0  501 -0.00000000000E+00 -0.00000000000E+00 -0.39304412913E+02  0.39304412913E+02  0.00000000000E+00 0.  1.
         25    2    1    2    0    0  0.42791403367E+02  0.33168932259E+02  0.19915095828E+03  0.24132577677E+03  0.12508294881E+03 0.  0.
          5    1    3    3  502    0  0.56661569507E+02  0.56732699680E+01  0.20219150964E+03  0.21009902052E+03  0.41800000000E+01 0.  1.
         -5    1    3    3    0  502 -0.13870166140E+02  0.27495662291E+02 -0.30405513649E+01  0.31226756254E+02  0.41800000000E+01 0.  1.
        -11    1    1    2    0    0  0.17713247386E+02 -0.15704152631E+02  0.69115037090E+02  0.73056607468E+02  0.00000000000E+00 0. -1.
         11    1    1    2    0    0 -0.60504650752E+02 -0.17464779628E+02  0.44780772142E+02  0.77273209095E+02  0.00000000000E+00 0.  1.
</event>
<event>
 7    1  0.2733606E-009  0.1481912E+03  0.7561462E-02  0.1202713E+00
          1   -1    0    0  501    0  0.00000000000E+00  0.00000000000E+00  0.14017374522E+03  0.14017374522E+03  0.00000000000E+00 0. -1.
         -1   -1    0    0    0  501 -0.00000000000E+00 -0.00000000000E+00 -0.17947094397E+03  0.17947094397E+03  0.00000000000E+00 0.  1.
         25    2    1    2    0    0 -0.33491703421E+02 -0.10342775402E+03  0.19223983077E+02  0.16684325245E+03  0.12509242528E+03 0.  0.
          5    1    3    3  502    0 -0.66928409201E+02 -0.11094503000E+03  0.56946725551E+01  0.12976175606E+03  0.41800000000E+01 0. -1.
         -5    1    3    3    0  502  0.33436705780E+02  0.75172759723E+01  0.13529310522E+02  0.37081496392E+02  0.41800000000E+01 0. -1.
        -11    1    1    2    0    0  0.32391703308E+02  0.38308306286E+01  0.72874916423E+01  0.33421628340E+02  0.00000000000E+00 0.  1.
         11    1    1    2    0    0  0.11000001137E+01  0.99596923396E+02 -0.65808673466E+02  0.11937980840E+03  0.00000000000E+00 0. -1.
</event>
<event>
 7    1  0.2733606E-009  0.1110043E+03  0.7561462E-02  0.1258721E+00
          1   -1    0    0  501    0  0.00000000000E+00  0.00000000000E+00  0.12181996311E+03  0.12181996311E+03  0.00000000000E+00 0. -1.
         -1   -1    0    0    0  501 -0.00000000000E+00 -0.00000000000E+00 -0.18225553199E+03  0.18225553199E+03  0.00000000000E+00 0.  1.
         25    2    1    2    0    0  0.93989594561E+02  0.14799441747E+02 -0.39925764348E+02  0.16215604061E+03  0.12508975771E+03 0.  0.
          5    1    3    3  502    0  0.72564079259E+02  0.45223668842E+02  0.23259506608E+02  0.88708527605E+02  0.41800000000E+01 0. -1.
         -5    1    3    3    0  502  0.21425515303E+02 -0.30424227095E+02 -0.63185270956E+02  0.73447513001E+02  0.41800000000E+01 0. -1.
        -11    1    1    2    0    0 -0.50311814084E+02  0.58398673058E+01  0.39965183024E+02  0.64518203173E+02  0.00000000000E+00 0. -1.
         11    1    1    2    0    0 -0.43677780477E+02 -0.20639309053E+02 -0.60474987557E+02  0.77401251318E+02  0.00000000000E+00 0.  1.
</event>
<event>
 7    1  0.2733606E-009  0.1261874E+03  0.7561462E-02  0.1233225E+00
          2   -1    0    0  501    0  0.00000000000E+00  0.00000000000E+00  0.46818005555E+03  0.46818005555E+03  0.00000000000E+00 0. -1.
         -2   -1    0    0    0  501 -0.00000000000E+00 -0.00000000000E+00 -0.48077976831E+02  0.48077976831E+02  0.00000000000E+00 0.  1.
         25    2    1    2    0    0 -0.55741377878E+02 -0.81142034393E+02  0.28200640806E+03  0.32383087031E+03  0.12509071680E+03 0.  0.
          5    1    3    3  502    0 -0.18935535708E+01  0.14623547288E+02 -0.52911275014E+01  0.16214256401E+02  0.41800000000E+01 0. -1.
         -5    1    3    3    0  502 -0.53847824307E+02 -0.95765581681E+02  0.28729753556E+03  0.30761661391E+03  0.41800000000E+01 0. -1.
        -11    1    1    2    0    0  0.16110096935E+02 -0.15681268558E+02  0.48189709730E+01  0.22992605074E+02  0.00000000000E+00 0.  1.
         11    1    1    2    0    0  0.39631280943E+02  0.96823302952E+02  0.13327669969E+03  0.16943455700E+03  0.00000000000E+00 0. -1.
</event>
<event>
 7    1  0.2733606E-009  0.1124572E+03  0.7561462E-02  0.1256086E+00
          2   -1    0    0  501    0  0.00000000000E+00  0.00000000000E+00  0.28546443874E+03  0.28546443874E+03  0.00000000000E+00 0. -1.
         -2   -1    0    0    0  501 -0.00000000000E+00 -0.00000000000E+00 -0.68809497440E+02  0.68809497440E+02  0.00000000000E+00 0.  1.
         25    2    1    2    0    0  0.13456775775E+02  0.76654784038E+02  0.68760298761E+02  0.16258463339E+03  0.12509493834E+03 0.  0.
          5    1    3    3  502    0  0.49574423049E+02  0.75472466864E+02  0.83760338615E+02  0.12323547947E+03  0.41800000000E+01 0. -1.
         -5    1    3    3    0  502 -0.36117647274E+02  0.11823171743E+01 -0.15000039854E+02  0.39349153919E+02  0.41800000000E+01 0. -1.
        -11    1    1    2    0    0  0.16076037481E+02 -0.64041041279E+02  0.14514538978E+03  0.15945807638E+03  0.00000000000E+00 0. -1.
         11    1    1    2    0    0 -0.29532813256E+02 -0.12613742759E+02  0.27492527606E+01  0.32231226411E+02  0.00000000000E+00 0.  1.
</event>
<event>
 7    1  0.2733606E-009  0.3724526E+03  0.7561462E-02  0.1053759E+00
          2   -1    0    0  501    0  0.00000000000E+00  0.00000000000E+00  0.42793155494E+03  0.42793155494E+03  0.00000000000E+00 0. -1.
         -2   -1    0    0    0  501 -0.00000000000E+00 -0.00000000000E+00 -0.37433988724E+03  0.37433988724E+03  0.00000000000E+00 0.  1.
         25    2    1    2    0    0 -0.20252183991E+02 -0.37087123469E+03  0.12866137012E+03  0.41249958713E+03  0.12508612052E+03 0.  0.
          5    1    3    3  502    0 -0.11826405497E+02 -0.12597361901E+03  0.10825943351E+03  0.16657368909E+03  0.41800000000E+01 0.  1.
         -5    1    3    3    0  502 -0.84257784938E+01 -0.24489761569E+03  0.20401936609E+02  0.24592589805E+03  0.41800000000E+01 0.  1.
        -11    1    1    2    0    0 -0.98913939051E+01  0.14797578939E+03 -0.71921664815E+02  0.16482536148E+03  0.00000000000E+00 0. -1.
         11    1    1    2    0    0  0.30143577896E+02  0.22289544531E+03 -0.31480376089E+01  0.22494649356E+03  0.00000000000E+00 0.  1.
</event>
<event>
 7    1  0.2733606E-009  0.1092117E+03  0.7561462E-02  0.1262037E+00
          1   -1    0    0  501    0  0.00000000000E+00  0.00000000000E+00  0.60016727016E+03  0.60016727016E+03  0.00000000000E+00 0. -1.
         -1   -1    0    0    0  501 -0.00000000000E+00 -0.00000000000E+00 -0.22001628705E+02  0.22001628705E+02  0.00000000000E+00 0.  1.
         25    2    1    2    0    0 -0.23029901273E+02  0.11014143939E+02  0.38686043403E+03  0.40738213307E+03  0.12509004441E+03 0.  0.
          5    1    3    3  502    0 -0.42230092984E+02  0.58856005627E+02  0.27016007657E+03  0.27973442678E+03  0.41800000000E+01 0. -1.
         -5    1    3    3    0  502  0.19200191711E+02 -0.47841861689E+02  0.11670035745E+03  0.12764770629E+03  0.41800000000E+01 0. -1.
        -11    1    1    2    0    0  0.57980201232E+02 -0.18391271368E+01  0.14410749213E+03  0.15534495618E+03  0.00000000000E+00 0. -1.
         11    1    1    2    0    0 -0.34950299959E+02 -0.91750168020E+01  0.47197715304E+02  0.59441809616E+02  0.00000000000E+00 0.  1.
</event>
<event>
 7    1  0.2733606E-009  0.2944564E+03  0.7561462E-02  0.1088045E+00
         -2   -1    0    0    0  501 -0.00000000000E+00  0.00000000000E+00  0.69298740333E+02  0.69298740333E+02  0.00000000000E+00 0.  1.
          2   -1    0    0  501    0  0.00000000000E+00 -0.00000000000E+00 -0.17165739977E+04  0.17165739977E+04  0.00000000000E+00 0. -1.
         25    2    1    2    0    0 -0.28071669559E+03  0.23577738736E+02 -0.12678421575E+04  0.13047714547E+04  0.12508812849E+03 0.  0.
          5    1    3    3  502    0 -0.80718613250E+02  0.63762931926E+02 -0.48209119543E+03  0.49296105234E+03  0.41800000000E+01 0.  1.
         -5    1    3    3    0  502 -0.19999808234E+03 -0.40185193190E+02 -0.78575096203E+03  0.81181040239E+03  0.41800000000E+01 0.  1.
        -11    1    1    2    0    0  0.15087592686E+03 -0.18239255660E+02 -0.27575234114E+03  0.31485801466E+03  0.00000000000E+00 0.  1.
         11    1    1    2    0    0  0.12984076873E+03 -0.53384830756E+01 -0.10368075872E+03  0.16624326860E+03  0.00000000000E+00 0. -1.
</event>
<event>
 7    1  0.2733606E-009  0.8560451E+02  0.7561462E-02  0.1313859E+00
          2   -1    0    0  501    0  0.00000000000E+00  0.00000000000E+00  0.16842272490E+03  0.16842272490E+03  0.00000000000E+00 0. -1.
         -2   -1    0    0    0  501 -0.00000000000E+00 -0.00000000000E+00 -0.89765777916E+02  0.89765777916E+02  0.00000000000E+00 0.  1.
         25    2    1    2    0    0 -0.12730394276E+02  0.18072291346E+02 -0.12435308379E+02  0.12763009910E+03  0.12508451003E+03 0.  0.
          5    1    3    3  502    0 -0.63151303553E+02  0.16815822008E+02 -0.32600240807E+02  0.73151261855E+02  0.41800000000E+01 0.  1.
         -5    1    3    3    0  502  0.50420909277E+02  0.12564693379E+01  0.20164932428E+02  0.54478837243E+02  0.41800000000E+01 0.  1.
        -11    1    1    2    0    0  0.13087381976E+02 -0.35421191362E+02 -0.67598937685E-01  0.37761686060E+02  0.00000000000E+00 0.  1.
         11    1    1    2    0    0 -0.35698770003E+00  0.17348900016E+02  0.91159854305E+02  0.92796717663E+02  0.00000000000E+00 0. -1.
</event>
<event>
 7    1  0.2733606E-009  0.1337173E+03  0.7561462E-02  0.1222042E+00
          2   -1    0    0  501    0  0.00000000000E+00  0.00000000000E+00  0.31825358308E+03  0.31825358308E+03  0.00000000000E+00 0.  1.
         -2   -1    0    0    0  501 -0.00000000000E+00 -0.00000000000E+00 -0.32164838884E+03  0.32164838884E+03  0.00000000000E+00 0. -1.
         25    2    1    2    0    0 -0.31984822839E+02 -0.89906489937E+02 -0.28691555933E+03  0.32722107951E+03  0.12508753280E+03 0.  0.
          5    1    3    3  502    0  0.14319693456E+02  0.27371516151E+02 -0.56347478692E+02  0.64395374616E+02  0.41800000000E+01 0.  1.
         -5    1    3    3    0  502 -0.46304516294E+02 -0.11727800609E+03 -0.23056808064E+03  0.26282570489E+03  0.41800000000E+01 0.  1.
        -11    1    1    2    0    0  0.36553243371E+02  0.23313412086E+02  0.20540583141E+03  0.20993144205E+03  0.00000000000E+00 0.  1.
         11    1    1    2    0    0 -0.45684205324E+01  0.66593077851E+02  0.78114922161E+02  0.10274945035E+03  0.00000000000E+00 0. -1.
</event>
<event>
 7    1  0.2733606E-009  0.1419275E+03  0.7561462E-02  0.1210759E+00
          2   -1    0    0  501    0  0.00000000000E+00  0.00000000000E+00  0.45084444343E+02  0.45084444343E+02  0.00000000000E+00 0. -1.
         -2   -1    0    0    0  501 -0.00000000000E+00 -0.00000000000E+00 -0.78264030259E+03  0.78264030259E+03  0.00000000000E+00 0.  1.
         25    2    1    2    0    0 -0.69748944186E+02  0.11956592285E+03 -0.53196914481E+03  0.56373505559E+03  0.12508044110E+03 0.  0.
          5    1    3    3  502    0 -0.21822754166E+02  0.14490896760E+02 -0.87916971688E+01  0.27946109343E+02  0.41800000000E+01 0.  1.
         -5    1    3    3    0  502 -0.47926190021E+02  0.10507502609E+03 -0.52317744765E+03  0.53578894625E+03  0.41800000000E+01 0.  1.
        -11    1    1    2    0    0  0.21995358322E+02 -0.68060946498E+02 -0.17170662519E+03  0.18600874539E+03  0.00000000000E+00 0.  1.
         11    1    1    2    0    0  0.47753585865E+02 -0.51504976354E+02 -0.33880088236E+02  0.77980945948E+02  0.00000000000E+00 0. -1.
</event>
<event>
 7    1  0.2733606E-009  0.1072814E+03  0.7561462E-02  0.1265689E+00
         -1   -1    0    0    0  501 -0.00000000000E+00  0.00000000000E+00  0.77624961411E+03  0.77624961411E+03  0.00000000000E+00 0.  1.
          1   -1    0    0  501    0  0.00000000000E+00 -0.00000000000E+00 -0.19571936566E+02  0.19571936566E+02  0.00000000000E+00 0. -1.
         25    2    1    2    0    0 -0.33293501922E+02 -0.46564683169E+02  0.40377169819E+03  0.42656175721E+03  0.12508645598E+03 0.  0.
          5    1    3    3  502    0  0.42510393523E+02 -0.18620902157E+02  0.23278548457E+03  0.23740350836E+03  0.41800000000E+01 0.  1.
         -5    1    3    3    0  502 -0.75803895445E+02 -0.27943781012E+02  0.17098621362E+03  0.18915824885E+03  0.41800000000E+01 0.  1.
        -11    1    1    2    0    0  0.35616699633E+01 -0.16746860876E+02  0.11178540454E+02  0.20447557527E+02  0.00000000000E+00 0. -1.
         11    1    1    2    0    0  0.29731831959E+02  0.63311544045E+02  0.34172743890E+03  0.34881223594E+03  0.00000000000E+00 0.  1.
</event>
<event>
 7    1  0.2733606E-009  0.9728635E+02  0.7561462E-02  0.1286108E+00
         -2   -1    0    0    0  501 -0.00000000000E+00  0.00000000000E+00  0.62139090098E+02  0.62139090098E+02  0.00000000000E+00 0. -1.
          2   -1    0    0  501    0  0.00000000000E+00 -0.00000000000E+00 -0.24980525191E+03  0.24980525191E+03  0.00000000000E+00 0.  1.
         25    2    1    2    0    0  0.35650270902E+02  0.44440977327E+02 -0.77321100314E+02  0.15770756636E+03  0.12508869514E+03 0.  0.
          5    1    3    3  502    0 -0.24354261500E+02 -0.10423323256E+02  0.18039329307E+02  0.32321285908E+02  0.41800000000E+01 0. -1.
         -5    1    3    3    0  502  0.60004532402E+02  0.54864300583E+02 -0.95360429621E+02  0.12538628045E+03  0.41800000000E+01 0. -1.
        -11    1    1    2    0    0  0.73695754984E+00  0.15878672463E+02 -0.72594294837E+02  0.74314244856E+02  0.00000000000E+00 0.  1.
         11    1    1    2    0    0 -0.36387228452E+02 -0.60319649790E+02 -0.37750766663E+02  0.79922530796E+02  0.00000000000E+00 0. -1.
</event>
<event>
 7    1  0.2733606E-009  0.1261398E+03  0.7561462E-02  0.1233299E+00
         -1   -1    0    0    0  501 -0.00000000000E+00  0.00000000000E+00  0.51108261471E+02  0.51108261471E+02  0.00000000000E+00 0.  1.
          1   -1    0    0  501    0  0.00000000000E+00 -0.00000000000E+00 -0.34792119780E+03  0.34792119780E+03  0.00000000000E+00 0. -1.
         25    2    1    2    0    0 -0.40836040220E+02  0.65877194809E+02 -0.18008120978E+03  0.23255931682E+03  0.12508879546E+03 0.  0.
          5    1    3    3  502    0 -0.80189291261E+02  0.21944206955E+02 -0.75307349150E+02  0.11225212643E+03  0.41800000000E+01 0. -1.
         -5    1    3    3    0  502  0.39353251041E+02  0.43932987854E+02 -0.10477386063E+03  0.12030719039E+03  0.41800000000E+01 0. -1.
        -11    1    1    2    0    0 -0.23438789712E+02 -0.21457872590E+02 -0.66174690673E+02  0.73409174119E+02  0.00000000000E+00 0.  1.
         11    1    1    2    0    0  0.64274829931E+02 -0.44419322219E+02 -0.50557035872E+02  0.93060968323E+02  0.00000000000E+00 0. -1.
</event>
<event>
 7    1  0.2733606E-009  0.5669222E+02  0.7561462E-02  0.1412262E+00
         -1   -1    0    0    0  501 -0.00000000000E+00  0.00000000000E+00  0.12830838717E+03  0.12830838717E+03  0.00000000000E+00 0.  1.
          1   -1    0    0  501    0  0.00000000000E+00 -0.00000000000E+00 -0.10517559819E+03  0.10517559819E+03  0.00000000000E+00 0. -1.
         25    2    1    2    0    0 -0.16516537390E+02 -0.24411638719E+02  0.41876154042E+02  0.13516665611E+03  0.12509072122E+03 0.  0.
          5    1    3    3  502    0 -0.19806249589E+02 -0.79897160021E+01 -0.43192044115E+02  0.48364740870E+02  0.41800000000E+01 0. -1.
         -5    1    3    3    0  502  0.32897121992E+01 -0.16421922716E+02  0.85068198157E+02  0.86801915242E+02  0.41800000000E+01 0. -1.
        -11    1    1    2    0    0 -0.22851121148E+02 -0.71058560088E+01  0.22744546466E+02  0.33014865156E+02  0.00000000000E+00 0.  1.
         11    1    1    2    0    0  0.39367658539E+02  0.31517494727E+02 -0.41487911527E+02  0.65302464085E+02  0.00000000000E+00 0. -1.
</event>
<event>
 7    1  0.2733606E-009  0.1701905E+03  0.7561462E-02  0.1177649E+00
          1   -1    0    0  501    0  0.00000000000E+00  0.00000000000E+00  0.49551856359E+02  0.49551856359E+02  0.00000000000E+00 0. -1.
         -1   -1    0    0    0  501 -0.00000000000E+00 -0.00000000000E+00 -0.70703838055E+03  0.70703838055E+03  0.00000000000E+00 0.  1.
         25    2    1    2    0    0 -0.13031771708E+03 -0.44488052110E+02 -0.47613477847E+03  0.51118899808E+03  0.12509184756E+03 0.  0.
          5    1    3    3  502    0 -0.72698576275E+02 -0.80818787676E+02 -0.21075556671E+03  0.23717533753E+03  0.41800000000E+01 0.  1.
         -5    1    3    3    0  502 -0.57619140808E+02  0.36330735566E+02 -0.26537921176E+03  0.27401366055E+03  0.41800000000E+01 0.  1.
        -11    1    1    2    0    0  0.99065011517E+02 -0.10992831271E+02 -0.12864682464E+03  0.16274128037E+03  0.00000000000E+00 0. -1.
         11    1    1    2    0    0  0.31252705567E+02  0.55480883381E+02 -0.52704921081E+02  0.82659958457E+02  0.00000000000E+00 0.  1.
</event>
<event>
 7    1  0.2733606E-009  0.1023268E+03  0.7561462E-02  0.1275478E+00
         -1   -1    0    0    0  501 -0.00000000000E+00  0.00000000000E+00  0.14493547091E+03  0.14493547091E+03  0.00000000000E+00 0.  1.
          1   -1    0    0  501    0  0.00000000000E+00 -0.00000000000E+00 -0.11776035056E+03  0.11776035056E+03  0.00000000000E+00 0. -1.
         25    2    1    2    0    0 -0.33296356744E+02 -0.60873713753E+02 -0.17910988496E+02  0.14416276102E+03  0.12509133367E+03 0.  0.
          5    1    3    3  502    0  0.22254033008E+02 -0.71176568033E+02  0.18333403092E+02  0.76908594390E+02  0.41800000000E+01 0.  1.
         -5    1    3    3    0  502 -0.55550389752E+02  0.10302854280E+02 -0.36244391589E+02  0.67254166633E+02  0.41800000000E+01 0.  1.
        -11    1    1    2    0    0  0.30554857336E+02  0.31774713397E+02  0.68243724678E+02  0.81243077713E+02  0.00000000000E+00 0.  1.
         11    1    1    2    0    0  0.27414994075E+01  0.29099000356E+02 -0.23157615833E+02  0.37289982727E+02  0.00000000000E+00 0. -1.
</event>
<event>
 7    1  0.2733606E-009  0.2413619E+03  0.7561462E-02  0.1118889E+00
          1   -1    0    0  501    0  0.00000000000E+00  0.00000000000E+00  0.73626293826E+03  0.73626293826E+03  0.00000000000E+00 0. -1.
         -1   -1    0    0    0  501 -0.00000000000E+00 -0.00000000000E+00 -0.88388947027E+02  0.88388947027E+02  0.00000000000E+00 0.  1.
         25    2    1    2    0    0  0.22835554833E+03  0.53843179629E+01  0.39635226784E+03  0.47425537015E+03  0.12509112105E+03 0.  0.
          5    1    3    3  502    0  0.16157592660E+03 -0.41126852167E+02  0.32771385791E+03  0.36771190230E+03  0.41800000000E+01 0. -1.
         -5    1    3    3    0  502  0.66779621731E+02  0.46511170130E+02  0.68638409930E+02  0.10654346786E+03  0.41800000000E+01 0. -1.
        -11    1    1    2    0    0 -0.26542554187E+02 -0.18284092194E+02  0.68141907764E+01  0.32943108628E+02  0.00000000000E+00 0.  1.
         11    1    1    2    0    0 -0.20181299414E+03  0.12899774231E+02  0.24470753262E+03  0.31745340650E+03  0.00000000000E+00 0. -1.
</event>
<event>
 7    1  0.2733606E-009  0.1324131E+03  0.7561462E-02  0.1223918E+00
          3   -1    0    0  501    0  0.00000000000E+00  0.00000000000E+00  0.42324852674E+02  0.42324852674E+02  0.00000000000E+00 0. -1.
         -3   -1    0    0    0  501 -0.00000000000E+00 -0.00000000000E+00 -0.57096336682E+03  0.57096336682E+03  0.00000000000E+00 0.  1.
         25    2    1    2    0    0 -0.31246298766E+02 -0.74654426169E+02 -0.14299006031E+03  0.20650624723E+03  0.12509619605E+03 0.  0.
          5    1    3    3  502    0 -0.60707315808E+02 -0.93182398785E+02 -0.12407837629E+03  0.16667709351E+03  0.41800000000E+01 0.  1.
         -5    1    3    3    0  502  0.29461017041E+02  0.18527972616E+02 -0.18911684016E+02  0.39829153728E+02  0.41800000000E+01 0.  1.
        -11    1    1    2    0    0 -0.28049938488E+02  0.42795024918E+02 -0.25196259115E+03  0.25710573806E+03  0.00000000000E+00 0.  1.
         11    1    1    2    0    0  0.59296237255E+02  0.31859401251E+02 -0.13368586269E+03  0.14967623420E+03  0.00000000000E+00 0. -1.
</event>
<event>
 7    1  0.2733606E-009  0.1023630E+03  0.7561462E-02  0.1275404E+00
         -1   -1    0    0    0  501 -0.00000000000E+00  0.00000000000E+00  0.26683708396E+03  0.26683708396E+03  0.00000000000E+00 0.  1.
          1   -1    0    0  501    0  0.00000000000E+00 -0.00000000000E+00 -0.68890160039E+02  0.68890160039E+02  0.00000000000E+00 0. -1.
         25    2    1    2    0    0 -0.68851380093E+02  0.46753847765E+02  0.12305349952E+03  0.19421143108E+03  0.12509788726E+03 0.  0.
          5    1    3    3  502    0  0.83526413737E+01 -0.17963866069E+02 -0.13597045251E+02  0.24388914318E+02  0.41800000000E+01 0. -1.
         -5    1    3    3    0  502 -0.77204021466E+02  0.64717713834E+02  0.13665054477E+03  0.16982251676E+03  0.41800000000E+01 0. -1.
        -11    1    1    2    0    0  0.61526212907E+02 -0.38336342807E+02  0.94412061518E+02  0.11903271573E+03  0.00000000000E+00 0.  1.
         11    1    1    2    0    0  0.73251671856E+01 -0.84175049575E+01 -0.19518637118E+02  0.22483097183E+02  0.00000000000E+00 0. -1.
</event>
<event>
 7    1  0.2733606E-009  0.8504462E+02  0.7561462E-02  0.1315316E+00
         -3   -1    0    0    0  501 -0.00000000000E+00  0.00000000000E+00  0.28032130279E+02  0.28032130279E+02  0.00000000000E+00 0.  1.
          3   -1    0    0  501    0  0.00000000000E+00 -0.00000000000E+00 -0.46670589828E+03  0.46670589828E+03  0.00000000000E+00 0. -1.
         25    2    1    2    0    0  0.18487716727E+02  0.77529839324E+01 -0.18147773774E+03  0.22132493681E+03  0.12509457993E+03 0.  0.
          5    1    3    3  502    0  0.11808512990E+02 -0.42542041029E+02 -0.16006765518E+03  0.16609754022E+03  0.41800000000E+01 0. -1.
         -5    1    3    3    0  502  0.66792037366E+01  0.50295024961E+02 -0.21410082563E+02  0.55227396587E+02  0.41800000000E+01 0. -1.
        -11    1    1    2    0    0 -0.21369305688E+02 -0.38456240586E+02 -0.22328089545E+03  0.22757391753E+03  0.00000000000E+00 0. -1.
         11    1    1    2    0    0  0.28815889617E+01  0.30703256654E+02 -0.33915134805E+02  0.45839174217E+02  0.00000000000E+00 0.  1.
</event>
<event>
 7    1  0.2733606E-009  0.1160083E+03  0.7561462E-02  0.1249831E+00
         -3   -1    0    0    0  501 -0.00000000000E+00  0.00000000000E+00  0.12146582993E+04  0.12146582993E+04  0.00000000000E+00 0.  1.
          3   -1    0    0  501    0  0.00000000000E+00 -0.00000000000E+00 -0.12532390180E+02  0.12532390180E+02  0.00000000000E+00 0. -1.
         25    2    1    2    0    0 -0.97459749204E+01 -0.56454117997E+02  0.63554757138E+03  0.65026901304E+03  0.12508805843E+03 0.  0.
          5    1    3    3  502    0 -0.40782719056E+02  0.16437561237E+02  0.10634345205E+03  0.11515131692E+03  0.41800000000E+01 0. -1.
         -5    1    3    3    0  502  0.31036744135E+02 -0.72891679234E+02  0.52920411933E+03  0.53511769612E+03  0.41800000000E+01 0. -1.
        -11    1    1    2    0    0  0.51102687132E+02  0.27538782045E+02  0.28383942290E+03  0.28971483763E+03  0.00000000000E+00 0. -1.
         11    1    1    2    0    0 -0.41356712211E+02  0.28915335952E+02  0.28273891483E+03  0.28720683880E+03  0.00000000000E+00 0.  1.
</event>
<event>
 7    1  0.2733606E-009  0.7987249E+02  0.7561462E-02  0.1329414E+00
         -1   -1    0    0    0  501 -0.00000000000E+00  0.00000000000E+00  0.51985904916E+02  0.51985904916E+02  0.00000000000E+00 0.  1.
          1   -1    0    0  501    0  0.00000000000E+00 -0.00000000000E+00 -0.35320219516E+03  0.35320219516E+03  0.00000000000E+00 0. -1.
         25    2    1    2    0    0 -0.76825503578E+02 -0.99513450222E+01 -0.13232684523E+03  0.19789189952E+03  0.12509845187E+03 0.  0.
          5    1    3    3  502    0 -0.55589361981E+02 -0.18875798822E+02 -0.15469480503E+03  0.16551262203E+03  0.41800000000E+01 0. -1.
         -5    1    3    3    0  502 -0.21236141597E+02  0.89244538003E+01  0.22367959802E+02  0.32379277497E+02  0.41800000000E+01 0. -1.
        -11    1    1    2    0    0  0.29424536999E+02  0.31719665057E+01 -0.15448349831E+03  0.15729277160E+03  0.00000000000E+00 0. -1.
         11    1    1    2    0    0  0.47400966579E+02  0.67793785165E+01 -0.14405946701E+02  0.50003428943E+02  0.00000000000E+00 0.  1.
</event>
<event>
 7    1  0.2733606E-009  0.5801327E+02  0.7561462E-02  0.1406363E+00
         -1   -1    0    0    0  501 -0.00000000000E+00  0.00000000000E+00  0.22722607127E+02  0.22722607127E+02  0.00000000000E+00 0.  1.
          1   -1    0    0  501    0  0.00000000000E+00 -0.00000000000E+00 -0.65827724818E+03  0.65827724818E+03  0.00000000000E+00 0. -1.
         25    2    1    2    0    0  0.53728295891E+01 -0.22211783616E+02 -0.54155145377E+03  0.55628056438E+03  0.12509140101E+03 0.  0.
          5    1    3    3  502    0  0.31264100465E+02  0.12753550594E+02 -0.47765420305E+03  0.47886439325E+03  0.41800000000E+01 0. -1.
         -5    1    3    3    0  502 -0.25891270876E+02 -0.34965334211E+02 -0.63897250714E+02  0.77416171133E+02  0.41800000000E+01 0. -1.
        -11    1    1    2    0    0 -0.18255397046E+02  0.11869076409E+02 -0.10343076269E+03  0.10569795252E+03  0.00000000000E+00 0. -1.
         11    1    1    2    0    0  0.12882567457E+02  0.10342707208E+02  0.94275754038E+01  0.19021338403E+02  0.00000000000E+00 0.  1.
</event>
<event>
 7    1  0.2733606E-009  0.1230805E+03  0.7561462E-02  0.1238100E+00
          4   -1    0    0  501    0  0.00000000000E+00  0.00000000000E+00  0.18985136442E+02  0.18985136442E+02  0.00000000000E+00 0. -1.
         -4   -1    0    0    0  501 -0.00000000000E+00 -0.00000000000E+00 -0.82018954094E+03  0.82018954094E+03  0.00000000000E+00 0.  1.
         25    2    1    2    0    0 -0.67230080946E+01 -0.63914123926E+02 -0.46974744122E+03  0.49034724470E+03  0.12509015861E+03 0.  0.
          5    1    3    3  502    0  0.58673315525E+02 -0.22303609115E+02 -0.20110810950E+03  0.21071770937E+03  0.41800000000E+01 0. -1.
         -5    1    3    3    0  502 -0.65396323620E+02 -0.41610514811E+02 -0.26863933171E+03  0.27962953533E+03  0.41800000000E+01 0. -1.
        -11    1    1    2    0    0 -0.60074937192E+01 -0.19933648761E+02 -0.37622990203E+02  0.42999182847E+02  0.00000000000E+00 0. -1.
         11    1    1    2    0    0  0.12730501814E+02  0.83847772688E+02 -0.29383397308E+03  0.30582824984E+03  0.00000000000E+00 0.  1.
</event>
<event>
 7    1  0.2733606E-009  0.1594583E+03  0.7561462E-02  0.1189310E+00
          1   -1    0    0  501    0  0.00000000000E+00  0.00000000000E+00  0.98419717263E+03  0.98419717263E+03  0.00000000000E+00 0. -1.
         -1   -1    0    0    0  501 -0.00000000000E+00 -0.00000000000E+00 -0.34257274622E+02  0.34257274622E+02  0.00000000000E+00 0.  1.
         25    2    1    2    0    0  0.11082011622E+03 -0.83886705050E+02  0.62160769033E+03  0.64912386243E+03  0.12509032999E+03 0.  0.
          5    1    3    3  502    0 -0.26533009828E+01 -0.18190447013E+02  0.61345888540E+01  0.19825184717E+02  0.41800000000E+01 0.  1.
         -5    1    3    3    0  502  0.11347341720E+03 -0.65696258037E+02  0.61547310148E+03  0.62929867771E+03  0.41800000000E+01 0.  1.
        -11    1    1    2    0    0 -0.80405312986E+02  0.80984992025E+00  0.14641653472E+03  0.16704332328E+03  0.00000000000E+00 0.  1.
         11    1    1    2    0    0 -0.30414803232E+02  0.83076855130E+02  0.18191567295E+03  0.20228726154E+03  0.00000000000E+00 0. -1.
</event>
<event>
 7    1  0.2733606E-009  0.7350748E+02  0.7561462E-02  0.1348556E+00
          2   -1    0    0  501    0  0.00000000000E+00  0.00000000000E+00  0.68774997448E+02  0.68774997448E+02  0.00000000000E+00 0. -1.
         -2   -1    0    0    0  501 -0.00000000000E+00 -0.00000000000E+00 -0.19212473241E+03  0.19212473241E+03  0.00000000000E+00 0.  1.
         25    2    1    2    0    0 -0.26095740745E+02 -0.11028666744E+02 -0.10451631661E+03  0.16544855695E+03  0.12508775074E+03 0.  0.
          5    1    3    3  502    0 -0.22870100166E+02  0.16112015364E+02  0.22070161235E+02  0.35877610534E+02  0.41800000000E+01 0.  1.
         -5    1    3    3    0  502 -0.32256405792E+01 -0.27140682108E+02 -0.12658647784E+03  0.12957094642E+03  0.41800000000E+01 0.  1.
        -11    1    1    2    0    0  0.51523343271E+02  0.29756961065E+02 -0.17016447266E+01  0.59523333479E+02  0.00000000000E+00 0. -1.
         11    1    1    2    0    0 -0.25427602526E+02 -0.18728294321E+02 -0.17131773627E+02  0.35927839429E+02  0.00000000000E+00 0.  1.
</event>
<event>
 7    1  0.3216809E-009  0.9198542E+02  0.7561462E-02  0.1298114E+00
          1   -1    0    0  501    0  0.00000000000E+00  0.00000000000E+00  0.28088073873E+03  0.28088073873E+03  0.00000000000E+00 0. -1.
         -1   -1    0    0    0  501 -0.00000000000E+00 -0.00000000000E+00 -0.64867202301E+02  0.64867202301E+02  0.00000000000E+00 0.  1.
         25    2    1    2    0    0  0.48822097437E+02  0.55878395455E+02  0.78891789250E+02  0.16545878020E+03  0.12508677491E+03 0.  0.
          5    1    3    3  502    0  0.44285916280E+02  0.75907425445E+02  0.10170610915E+03  0.13447968121E+03  0.41800000000E+01 0.  1.
         -5    1    3    3    0  502  0.45361811575E+01 -0.20029029990E+02 -0.22814319903E+02  0.30979098994E+02  0.41800000000E+01 0.  1.
        -11    1    1    2    0    0 -0.12520291178E+02 -0.22340703907E+02 -0.81221008412E+01  0.26866954876E+02  0.00000000000E+00 0.  1.
         11    1    1    2    0    0 -0.36301806259E+02 -0.33537691548E+02  0.14524384802E+03  0.15342220595E+03  0.00000000000E+00 0. -1.
</event>
<event>
 7    1  0.2733606E-009  0.1361016E+03  0.7561462E-02  0.1218673E+00
         -1   -1    0    0    0  501 -0.00000000000E+00  0.00000000000E+00  0.46187771256E+02  0.46187771256E+02  0.00000000000E+00 0.  1.
          1   -1    0    0  501    0  0.00000000000E+00 -0.00000000000E+00 -0.59661406297E+03  0.59661406297E+03  0.00000000000E+00 0. -1.
         25    2    1    2    0    0  0.58544555102E+02 -0.81010358519E+02 -0.44217424970E+03  0.47027232123E+03  0.12509135021E+03 0.  0.
          5    1    3    3  502    0  0.74837054113E+02 -0.53046488398E+01 -0.14714455677E+03  0.16522020747E+03  0.41800000000E+01 0.  1.
         -5    1    3    3    0  502 -0.16292499011E+02 -0.75705709679E+02 -0.29502969293E+03  0.30505211376E+03  0.41800000000E+01 0.  1.
        -11    1    1    2    0    0 -0.19854594375E+02 -0.88024404660E+01  0.56155431981E+01  0.22432614680E+02  0.00000000000E+00 0.  1.
         11    1    1    2    0    0 -0.38689960727E+02  0.89812798985E+02 -0.11386758522E+03  0.15009689832E+03  0.00000000000E+00 0. -1.
</event>
<event>
 7    1  0.2733606E-009  0.1584687E+03  0.7561462E-02  0.1190436E+00
          1   -1    0    0  501    0  0.00000000000E+00  0.00000000000E+00  0.70334826935E+02  0.70334826935E+02  0.00000000000E+00 0. -1.
         -1   -1    0    0    0  501 -0.00000000000E+00 -0.00000000000E+00 -0.40896771122E+03  0.40896771122E+03  0.00000000000E+00 0.  1.
         25    2    1    2    0    0  0.81008134515E+02  0.97594996750E+02 -0.22067179662E+03  0.28360232673E+03  0.12508851527E+03 0.  0.
          5    1    3    3  502    0  0.47201955728E+01 -0.20599960542E+02  0.38430626465E+00  0.21546663591E+02  0.41800000000E+01 0.  1.
         -5    1    3    3    0  502  0.76287938943E+02  0.11819495729E+03 -0.22105610289E+03  0.26205566314E+03  0.41800000000E+01 0.  1.
        -11    1    1    2    0    0  0.15500892261E+02 -0.38469683808E+02 -0.20147641598E+02  0.46109887173E+02  0.00000000000E+00 0. -1.
         11    1    1    2    0    0 -0.96509026776E+02 -0.59125312942E+02 -0.97813446063E+02  0.14959032425E+03  0.00000000000E+00 0.  1.
</event>
<event>
 7    1  0.2733606E-009  0.1838846E+03  0.7561462E-02  0.1164096E+00
          1   -1    0    0  501    0  0.00000000000E+00  0.00000000000E+00  0.11186858382E+04  0.11186858382E+04  0.00000000000E+00 0. -1.
         -1   -1    0    0    0  501 -0.00000000000E+00 -0.00000000000E+00 -0.32021629552E+02  0.32021629552E+02  0.00000000000E+00 0.  1.
         25    2    1    2    0    0 -0.38832914041E+02 -0.14846091474E+03  0.52002545872E+03  0.55643753198E+03  0.12509041073E+03 0.  0.
          5    1    3    3  502    0  0.37847379283E+02 -0.65457316637E+02  0.29543801769E+03  0.30498881802E+03  0.41800000000E+01 0. -1.
         -5    1    3    3    0  502 -0.76680293325E+02 -0.83003598103E+02  0.22458744103E+03  0.25144871396E+03  0.41800000000E+01 0. -1.
        -11    1    1    2    0    0  0.44995662585E+02  0.18168962586E+02  0.16422285859E+03  0.17124213307E+03  0.00000000000E+00 0.  1.
         11    1    1    2    0    0 -0.61627485432E+01  0.13029195215E+03  0.40241589136E+03  0.42302780273E+03  0.00000000000E+00 0. -1.
</event>
<event>
 7    1  0.2733606E-009  0.1213087E+03  0.7561462E-02  0.1240954E+00
          1   -1    0    0  501    0  0.00000000000E+00  0.00000000000E+00  0.21721422561E+03  0.21721422561E+03  0.00000000000E+00 0. -1.
         -1   -1    0    0    0  501 -0.00000000000E+00 -0.00000000000E+00 -0.73937323137E+02  0.73937323137E+02  0.00000000000E+00 0.  1.
         25    2    1    2    0    0 -0.40257768107E+02 -0.45606350936E+02  0.10924929701E+03  0.17687327574E+03  0.12509244436E+03 0.  0.
          5    1    3    3  502    0 -0.85114894339E+02 -0.36362363295E+02  0.66128930730E+02  0.11383002496E+03  0.41800000000E+01 0.  1.
         -5    1    3    3    0  502  0.44857126231E+02 -0.92439876412E+01  0.43120366279E+02  0.63043250783E+02  0.41800000000E+01 0.  1.
        -11    1    1    2    0    0  0.28411231683E+02 -0.21627624225E+02  0.28681951758E+02  0.45799635064E+02  0.00000000000E+00 0. -1.
         11    1    1    2    0    0  0.11846536424E+02  0.67233975161E+02  0.53456537110E+01  0.68478637945E+02  0.00000000000E+00 0.  1.
</event>
<event>
 7    1  0.2733606E-009  0.2178844E+03  0.7561462E-02  0.1135470E+00
          1   -1    0    0  501    0  0.00000000000E+00  0.00000000000E+00  0.23318280448E+03  0.23318280448E+03  0.00000000000E+00 0. -1.
         -1   -1    0    0    0  501 -0.00000000000E+00 -0.00000000000E+00 -0.24188491495E+03  0.24188491495E+03  0.00000000000E+00 0.  1.
         25    2    1    2    0    0 -0.14470234459E+03 -0.13570493363E+03  0.67913716903E+02  0.24415802948E+03  0.12508506255E+03 0.  0.
          5    1    3    3  502    0 -0.21433684353E+02 -0.97087151482E+02  0.30709673507E+01  0.99560137848E+02  0.41800000000E+01 0. -1.
         -5    1    3    3    0  502 -0.12326866023E+03 -0.38617782148E+02  0.64842749553E+02  0.14459789163E+03  0.41800000000E+01 0. -1.
        -11    1    1    2    0    0  0.10908714665E+03  0.62798466211E+02 -0.10619901266E+02  0.12631878413E+03  0.00000000000E+00 0. -1.
         11    1    1    2    0    0  0.35615197940E+02  0.72906467419E+02 -0.65995926109E+02  0.10459090581E+03  0.00000000000E+00 0.  1.
</event>
<event>
 7    1  0.2733606E-009  0.9480237E+02  0.7561462E-02  0.1291622E+00
          1   -1    0    0  501    0  0.00000000000E+00  0.00000000000E+00  0.45523107109E+03  0.45523107109E+03  0.00000000000E+00 0. -1.
         -1   -1    0    0    0  501 -0.00000000000E+00 -0.00000000000E+00 -0.28817559550E+02  0.28817559550E+02  0.00000000000E+00 0.  1.
         25    2    1    2    0    0  0.12029540548E+02 -0.71939054616E+01  0.16776988365E+03  0.20973419336E+03  0.12508091734E+03 0.  0.
          5    1    3    3  502    0  0.55772021610E+02  0.31181705689E+02  0.11207355915E+03  0.12907661378E+03  0.41800000000E+01 0. -1.
         -5    1    3    3    0  502 -0.43742481062E+02 -0.38375611151E+02  0.55696324500E+02  0.80657579578E+02  0.41800000000E+01 0. -1.
        -11    1    1    2    0    0  0.44680959696E+01 -0.28004281149E+02  0.26089984932E+02  0.38534282892E+02  0.00000000000E+00 0.  1.
         11    1    1    2    0    0 -0.16497636517E+02  0.35198186611E+02  0.23255364296E+03  0.23578015439E+03  0.00000000000E+00 0. -1.
</event>
<event>
 7    1  0.2733606E-009  0.2742373E+03  0.7561462E-02  0.1098879E+00
         -2   -1    0    0    0  501 -0.00000000000E+00  0.00000000000E+00  0.50449532900E+02  0.50449532900E+02  0.00000000000E+00 0.  1.
          2   -1    0    0  501    0  0.00000000000E+00 -0.00000000000E+00 -0.17749916675E+04  0.17749916675E+04  0.00000000000E+00 0. -1.
         25    2    1    2    0    0 -0.78332196539E+02  0.26104872101E+03 -0.10479007047E+04  0.10899659048E+04  0.12508964392E+03 0.  0.
          5    1    3    3  502    0 -0.71796857277E+02  0.18961229337E+03 -0.93032594710E+03  0.95217196491E+03  0.41800000000E+01 0.  1.
         -5    1    3    3    0  502 -0.65353392616E+01  0.71436427638E+02 -0.11757475760E+03  0.13779393992E+03  0.41800000000E+01 0.  1.
        -11    1    1    2    0    0  0.61197185713E+02 -0.15943380803E+03 -0.30222953407E+03  0.34714107499E+03  0.00000000000E+00 0.  1.
         11    1    1    2    0    0  0.17135010825E+02 -0.10161491298E+03 -0.37441189585E+03  0.38833422060E+03  0.00000000000E+00 0. -1.
</event>
<event>
 7    1  0.2733606E-009  0.9252900E+02  0.7561462E-02  0.1296840E+00
          1   -1    0    0  501    0  0.00000000000E+00  0.00000000000E+00  0.30628113446E+03  0.30628113446E+03  0.00000000000E+00 0. -1.
         -1   -1    0    0    0  501 -0.00000000000E+00 -0.00000000000E+00 -0.53535943035E+02  0.53535943035E+02  0.00000000000E+00 0.  1.
         25    2    1    2    0    0 -0.37351572400E+02 -0.78910060171E+01  0.22083466928E+03  0.25665769917E+03  0.12509122850E+03 0.  0.
          5    1    3    3  502    0  0.14087742153E+02  0.23887857687E+02  0.40625513762E+00  0.28048737353E+02  0.41800000000E+01 0. -1.
         -5    1    3    3    0  502 -0.51439314553E+02 -0.31778863705E+02  0.22042841414E+03  0.22860896181E+03  0.41800000000E+01 0. -1.
        -11    1    1    2    0    0  0.65744216288E+02 -0.34389393999E+01  0.12680370365E+02  0.67044165086E+02  0.00000000000E+00 0.  1.
         11    1    1    2    0    0 -0.28392643888E+02  0.11329945417E+02  0.19230151781E+02  0.36115213244E+02  0.00000000000E+00 0. -1.
</event>
<event>
 7    1  0.2733606E-009  0.1208070E+03  0.7561462E-02  0.1241772E+00
          1   -1    0    0  501    0  0.00000000000E+00  0.00000000000E+00  0.71485385298E+03  0.71485385298E+03  0.00000000000E+00 0. -1.
         -1   -1    0    0    0  501 -0.00000000000E+00 -0.00000000000E+00 -0.24889324646E+02  0.24889324646E+02  0.00000000000E+00 0.  1.
         25    2    1    2    0    0 -0.46837582854E+02 -0.56086582026E+02  0.30928911994E+03  0.34153516105E+03  0.12508813961E+03 0.  0.
          5    1    3    3  502    0  0.26785836360E+02 -0.56452206986E+02  0.20093599975E+03  0.21046871762E+03  0.41800000000E+01 0.  1.
         -5    1    3    3    0  502 -0.73623419214E+02  0.36562495980E+00  0.10835312019E+03  0.13106644343E+03  0.41800000000E+01 0.  1.
        -11    1    1    2    0    0 -0.70557201005E+01  0.50583504395E+02  0.27228478840E+03  0.27703335557E+03  0.00000000000E+00 0. -1.
         11    1    1    2    0    0  0.53893302955E+02  0.55030776311E+01  0.10839062000E+03  0.12117466101E+03  0.00000000000E+00 0.  1.
</event>
<event>
 7    1  0.2733606E-009  0.1203715E+03  0.7561462E-02  0.1242485E+00
         -1   -1    0    0    0  501 -0.00000000000E+00  0.00000000000E+00  0.64657314612E+02  0.64657314612E+02  0.00000000000E+00 0.  1.
          1   -1    0    0  501    0  0.00000000000E+00 -0.00000000000E+00 -0.52603931185E+03  0.52603931185E+03  0.00000000000E+00 0. -1.
         25    2    1    2    0    0 -0.56552132626E+02  0.68247336431E+02 -0.42947925664E+03  0.45602141058E+03  0.12508897789E+03 0.  0.
          5    1    3    3  502    0  0.16204266476E+02 -0.26400526877E+02 -0.59118617471E+02  0.66873383368E+02  0.41800000000E+01 0.  1.
         -5    1    3    3    0  502 -0.72756399102E+02  0.94647863308E+02 -0.37036063917E+03  0.38914802721E+03  0.41800000000E+01 0.  1.
        -11    1    1    2    0    0  0.36357786092E+02 -0.31519884817E+02 -0.65278493497E+02  0.81096692051E+02  0.00000000000E+00 0. -1.
         11    1    1    2    0    0  0.20194346534E+02 -0.36727451614E+02  0.33375752899E+02  0.53578523828E+02  0.00000000000E+00 0.  1.
</event>
<event>
 7    1  0.2733606E-009  0.1458487E+03  0.7561462E-02  0.1205669E+00
         -1   -1    0    0    0  501 -0.00000000000E+00  0.00000000000E+00  0.35003783505E+02  0.35003783505E+02  0.00000000000E+00 0.  1.
          1   -1    0    0  501    0  0.00000000000E+00 -0.00000000000E+00 -0.72819534888E+03  0.72819534888E+03  0.00000000000E+00 0. -1.
         25    2    1    2    0    0 -0.23383012797E+02  0.10967889785E+03 -0.45197521005E+03  0.48218616873E+03  0.12508271221E+03 0.  0.
          5    1    3    3  502    0  0.24539230451E+01  0.12819162315E+03 -0.29056877600E+03  0.31762682502E+03  0.41800000000E+01 0. -1.
         -5    1    3    3    0  502 -0.25836935842E+02 -0.18512725294E+02 -0.16140643404E+03  0.16455934371E+03  0.41800000000E+01 0. -1.
        -11    1    1    2    0    0 -0.23986211070E+02 -0.27401403938E+02 -0.23086766767E+02  0.43118140719E+02  0.00000000000E+00 0.  1.
         11    1    1    2    0    0  0.47369223867E+02 -0.82277493916E+02 -0.21812958857E+03  0.23789482294E+03  0.00000000000E+00 0. -1.
</event>
<event>
 7    1  0.2733606E-009  0.1383736E+03  0.7561462E-02  0.1215534E+00
          2   -1    0    0  501    0  0.00000000000E+00  0.00000000000E+00  0.47332959654E+03  0.47332959654E+03  0.00000000000E+00 0. -1.
         -2   -1    0    0    0  501 -0.00000000000E+00 -0.00000000000E+00 -0.71555769271E+02  0.71555769271E+02  0.00000000000E+00 0.  1.
         25    2    1    2    0    0 -0.74742056125E+02 -0.11454905009E+03  0.12537235849E+03  0.22377111511E+03  0.12508966325E+03 0.  0.
          5    1    3    3  502    0 -0.37990492519E+02 -0.34921213702E+02  0.12572930156E+03  0.13597094675E+03  0.41800000000E+01 0.  1.
         -5    1    3    3    0  502 -0.36751563606E+02 -0.79627836391E+02 -0.35694307013E+00  0.87800168360E+02  0.41800000000E+01 0.  1.
        -11    1    1    2    0    0  0.17823306969E+02  0.36031083510E+02  0.16043961562E+02  0.43281843224E+02  0.00000000000E+00 0. -1.
         11    1    1    2    0    0  0.56918749156E+02  0.78517966583E+02  0.26035750721E+03  0.27783240748E+03  0.00000000000E+00 0.  1.
</event>
<event>
 7    1  0.2733606E-009  0.1082627E+03  0.7561462E-02  0.1263821E+00
          2   -1    0    0  501    0  0.00000000000E+00  0.00000000000E+00  0.40173702475E+03  0.40173702475E+03  0.00000000000E+00 0. -1.
         -2   -1    0    0    0  501 -0.00000000000E+00 -0.00000000000E+00 -0.33683868774E+02  0.33683868774E+02  0.00000000000E+00 0.  1.
         25    2    1    2    0    0 -0.28516131482E+02  0.30267733879E+02  0.21231672122E+03  0.24991056715E+03  0.12509035132E+03 0.  0.
          5    1    3    3  502    0  0.24949638726E+02 -0.37573487690E+02  0.76182906571E+02  0.88631592017E+02  0.41800000000E+01 0.  1.
         -5    1    3    3    0  502 -0.53465770208E+02  0.67841221570E+02  0.13613381465E+03  0.16127897513E+03  0.41800000000E+01 0.  1.
        -11    1    1    2    0    0  0.46527755975E+02  0.33124041614E+01  0.33383349196E+02  0.57360719146E+02  0.00000000000E+00 0.  1.
         11    1    1    2    0    0 -0.18011624493E+02 -0.33580138041E+02  0.12235308556E+03  0.12814960723E+03  0.00000000000E+00 0. -1.
</event>
<event>
 7    1  0.2733606E-009  0.1293112E+03  0.7561462E-02  0.1228481E+00
         -1   -1    0    0    0  501 -0.00000000000E+00  0.00000000000E+00  0.81799199099E+02  0.81799199099E+02  0.00000000000E+00 0.  1.
          1   -1    0    0  501    0  0.00000000000E+00 -0.00000000000E+00 -0.31136611409E+03  0.31136611409E+03  0.00000000000E+00 0. -1.
         25    2    1    2    0    0 -0.68130288958E+02 -0.63159309321E+02 -0.37519971415E+02  0.16026914373E+03  0.12509042949E+03 0.  0.
          5    1    3    3  502    0  0.35895235284E+02 -0.24593015279E+02 -0.19206759896E+02  0.47745746850E+02  0.41800000000E+01 0. -1.
         -5    1    3    3    0  502 -0.10402552424E+03 -0.38566294042E+02 -0.18313211519E+02  0.11252339688E+03  0.41800000000E+01 0. -1.
        -11    1    1    2    0    0  0.74071993237E+02  0.49773078090E+02 -0.19792604122E+03  0.21711457178E+03  0.00000000000E+00 0. -1.
         11    1    1    2    0    0 -0.59417042792E+01  0.13386231231E+02  0.58790976418E+01  0.15781597682E+02  0.00000000000E+00 0.  1.
</event>
<event>
 7    1  0.2733606E-009  0.1345992E+03  0.7561462E-02  0.1220787E+00
          2   -1    0    0  501    0  0.00000000000E+00  0.00000000000E+00  0.22624448642E+03  0.22624448642E+03  0.00000000000E+00 0.  1.
         -2   -1    0    0    0  501 -0.00000000000E+00 -0.00000000000E+00 -0.10410156927E+03  0.10410156927E+03  0.00000000000E+00 0. -1.
         25    2    1    2    0    0 -0.70856173724E+02  0.77786672580E+02  0.39177300913E+02  0.16808791029E+03  0.12508925171E+03 0.  0.
          5    1    3    3  502    0 -0.84517934706E+02  0.90192727947E+02  0.62078862501E+02  0.13838087668E+03  0.41800000000E+01 0. -1.
         -5    1    3    3    0  502  0.13661760982E+02 -0.12406055368E+02 -0.22901561588E+02  0.29707033613E+02  0.41800000000E+01 0. -1.
        -11    1    1    2    0    0  0.31320324034E+02 -0.81089876082E+02  0.86240254137E+02  0.12244963101E+03  0.00000000000E+00 0.  1.
         11    1    1    2    0    0  0.39535849690E+02  0.33032035028E+01 -0.32746378955E+01  0.39808514384E+02  0.00000000000E+00 0. -1.
</event>
<event>
 7    1  0.2733606E-009  0.1380955E+03  0.7561462E-02  0.1215915E+00
         -1   -1    0    0    0  501 -0.00000000000E+00  0.00000000000E+00  0.50370615005E+03  0.50370615005E+03  0.00000000000E+00 0. -1.
          1   -1    0    0  501    0  0.00000000000E+00 -0.00000000000E+00 -0.15517797935E+03  0.15517797935E+03  0.00000000000E+00 0.  1.
         25    2    1    2    0    0  0.16962328602E+02  0.91119890631E+02 -0.96654604439E+02  0.18324854563E+03  0.12508941544E+03 0.  0.
          5    1    3    3  502    0  0.44174546285E+02  0.77466053703E+02 -0.11642080481E+03  0.14670942781E+03  0.41800000000E+01 0.  1.
         -5    1    3    3    0  502 -0.27212217683E+02  0.13653836928E+02  0.19766200368E+02  0.36539117820E+02  0.41800000000E+01 0.  1.
        -11    1    1    2    0    0  0.29229302375E+02 -0.10416438403E+03  0.37725275655E+03  0.39245918685E+03  0.00000000000E+00 0. -1.
         11    1    1    2    0    0 -0.46191630977E+02  0.13044493404E+02  0.67930018580E+02  0.83176396921E+02  0.00000000000E+00 0.  1.
</event>
<event>
 7    1  0.2733606E-009  0.1634767E+03  0.7561462E-02  0.1184827E+00
          2   -1    0    0  501    0  0.00000000000E+00  0.00000000000E+00  0.63018907640E+03  0.63018907640E+03  0.00000000000E+00 0.  1.
         -2   -1    0    0    0  501 -0.00000000000E+00 -0.00000000000E+00 -0.62714594929E+02  0.62714594929E+02  0.00000000000E+00 0. -1.
         25    2    1    2    0    0  0.98439303661E+02  0.93631437458E+02  0.13048825366E+03  0.22612355766E+03  0.12509011312E+03 0.  0.
          5    1    3    3  502    0 -0.19607907332E+02  0.57179269430E+02  0.35500948328E+02  0.70226267270E+02  0.41800000000E+01 0. -1.
         -5    1    3    3    0  502  0.11804721099E+03  0.36452168028E+02  0.94987305327E+02  0.15589729039E+03  0.41800000000E+01 0. -1.
        -11    1    1    2    0    0 -0.83423612654E+02 -0.96388630152E+02  0.43245952585E+03  0.45085641691E+03  0.00000000000E+00 0.  1.
         11    1    1    2    0    0 -0.15015691008E+02  0.27571926947E+01  0.45267019736E+01  0.15923696768E+02  0.00000000000E+00 0. -1.
</event>
<event>
 7    1  0.2733606E-009  0.1065854E+03  0.7561462E-02  0.1267027E+00
          1   -1    0    0  501    0  0.00000000000E+00  0.00000000000E+00  0.44198825803E+02  0.44198825803E+02  0.00000000000E+00 0.  1.
         -1   -1    0    0    0  501 -0.00000000000E+00 -0.00000000000E+00 -0.32905200016E+03  0.32905200016E+03  0.00000000000E+00 0. -1.
         25    2    1    2    0    0  0.27662562947E+02  0.20960332075E+02 -0.99101025145E+02  0.16331242836E+03  0.12508150608E+03 0.  0.
          5    1    3    3  502    0 -0.38288321670E+02 -0.13501960376E+02 -0.74287460415E+02  0.84760826360E+02  0.41800000000E+01 0. -1.
         -5    1    3    3    0  502  0.65950884616E+02  0.34462292452E+02 -0.24813564730E+02  0.78551602004E+02  0.41800000000E+01 0. -1.
        -11    1    1    2    0    0 -0.42119053670E+02 -0.50007569130E+02 -0.12395274297E+03  0.14013940966E+03  0.00000000000E+00 0.  1.
         11    1    1    2    0    0  0.14456490723E+02  0.29047237055E+02 -0.61799406249E+02  0.69798987939E+02  0.00000000000E+00 0. -1.
</event>
<event>
 7    1  0.2733606E-009  0.1229936E+03  0.7561462E-02  0.1238239E+00
         -2   -1    0    0    0  501 -0.00000000000E+00  0.00000000000E+00  0.92270352824E+02  0.92270352824E+02  0.00000000000E+00 0.  1.
          2   -1    0    0  501    0  0.00000000000E+00 -0.00000000000E+00 -0.29148977944E+03  0.29148977944E+03  0.00000000000E+00 0. -1.
         25    2    1    2    0    0  0.36755946784E+02 -0.11681700264E+03 -0.11876817733E+03  0.21154275601E+03  0.12508895214E+03 0.  0.
          5    1    3    3  502    0  0.11109837948E+02 -0.49285532232E+02  0.20433595252E+02  0.54657994855E+02  0.41800000000E+01 0.  1.
         -5    1    3    3    0  502  0.25646108836E+02 -0.67531470403E+02 -0.13920177258E+03  0.15688476116E+03  0.41800000000E+01 0.  1.
        -11    1    1    2    0    0 -0.75155275841E+01  0.40818833463E+02  0.17323360754E+02  0.44975094752E+02  0.00000000000E+00 0.  1.
         11    1    1    2    0    0 -0.29240419200E+02  0.75998169172E+02 -0.97774610035E+02  0.12724228150E+03  0.00000000000E+00 0. -1.
</event>
<event>
 7    1  0.2733606E-009  0.1301433E+03  0.7561462E-02  0.1227243E+00
         -2   -1    0    0    0  501 -0.00000000000E+00  0.00000000000E+00  0.37384626377E+02  0.37384626377E+02  0.00000000000E+00 0.  1.
          2   -1    0    0  501    0  0.00000000000E+00 -0.00000000000E+00 -0.71951714056E+03  0.71951714056E+03  0.00000000000E+00 0. -1.
         25    2    1    2    0    0 -0.53790994405E+02  0.10149881938E+03 -0.46755721056E+03  0.49744655312E+03  0.12509135323E+03 0.  0.
          5    1    3    3  502    0 -0.37079775765E+01  0.64226430796E+02 -0.70673229215E+02  0.95660656689E+02  0.41800000000E+01 0. -1.
         -5    1    3    3    0  502 -0.50083016829E+02  0.37272388586E+02 -0.39688398135E+03  0.40178589644E+03  0.41800000000E+01 0. -1.
        -11    1    1    2    0    0  0.60653885788E+02 -0.43005674148E+02 -0.17014345697E+03  0.18568031080E+03  0.00000000000E+00 0. -1.
         11    1    1    2    0    0 -0.68628913826E+01 -0.58493145234E+02 -0.44431846659E+02  0.73774903016E+02  0.00000000000E+00 0.  1.
</event>
<event>
 7    1  0.2733606E-009  0.2374547E+03  0.7561462E-02  0.1121500E+00
         -1   -1    0    0    0  501 -0.00000000000E+00  0.00000000000E+00  0.48096077396E+02  0.48096077396E+02  0.00000000000E+00 0.  1.
          1   -1    0    0  501    0  0.00000000000E+00 -0.00000000000E+00 -0.14146186836E+04  0.14146186836E+04  0.00000000000E+00 0. -1.
         25    2    1    2    0    0  0.15750564473E+02  0.22689373592E+03 -0.90065398286E+03  0.93731217505E+03  0.12509064302E+03 0.  0.
          5    1    3    3  502    0 -0.27868042933E+02  0.17249723650E+03 -0.76520922744E+03  0.78491691190E+03  0.41800000000E+01 0. -1.
         -5    1    3    3    0  502  0.43618607405E+02  0.54396499422E+02 -0.13544475541E+03  0.15239526315E+03  0.41800000000E+01 0. -1.
        -11    1    1    2    0    0  0.11349550115E+02 -0.91081285776E+02 -0.27260004992E+03  0.28763761945E+03  0.00000000000E+00 0. -1.
         11    1    1    2    0    0 -0.27100114587E+02 -0.13581245014E+03 -0.19326857346E+03  0.23776496654E+03  0.00000000000E+00 0.  1.
</event>
<event>
 7    1  0.2733606E-009  0.1197435E+03  0.7561462E-02  0.1243521E+00
          1   -1    0    0  501    0  0.00000000000E+00  0.00000000000E+00  0.73351181354E+03  0.73351181354E+03  0.00000000000E+00 0. -1.
         -1   -1    0    0    0  501 -0.00000000000E+00 -0.00000000000E+00 -0.22064956310E+02  0.22064956310E+02  0.00000000000E+00 0.  1.
         25    2    1    2    0    0  0.51915211971E+02 -0.36846278949E+02  0.40705190782E+03  0.43057222396E+03  0.12509335267E+03 0.  0.
          5    1    3    3  502    0  0.74502747804E+02  0.21429037809E+02  0.23273666506E+03  0.24534402531E+03  0.41800000000E+01 0. -1.
         -5    1    3    3    0  502 -0.22587535833E+02 -0.58275316758E+02  0.17431524276E+03  0.18522819865E+03  0.41800000000E+01 0. -1.
        -11    1    1    2    0    0 -0.32504343778E+02  0.60460266935E+02  0.27173533312E+03  0.28027141757E+03  0.00000000000E+00 0. -1.
         11    1    1    2    0    0 -0.19410868193E+02 -0.23613987986E+02  0.32659616295E+02  0.44733128318E+02  0.00000000000E+00 0.  1.
</event>
<event>
 7    1  0.2733606E-009  0.1352820E+03  0.7561462E-02  0.1219822E+00
         -1   -1    0    0    0  501 -0.00000000000E+00  0.00000000000E+00  0.78147072856E+02  0.78147072856E+02  0.00000000000E+00 0.  1.
          1   -1    0    0  501    0  0.00000000000E+00 -0.00000000000E+00 -0.25993587976E+03  0.25993587976E+03  0.00000000000E+00 0. -1.
         25    2    1    2    0    0  0.59322217397E+02 -0.69824805995E+02 -0.10799580382E+03  0.18895629215E+03  0.12508700049E+03 0.  0.
          5    1    3    3  502    0  0.90217174230E+02 -0.61293629897E+02 -0.44822038866E+02  0.11799379289E+03  0.41800000000E+01 0.  1.
         -5    1    3    3    0  502 -0.30894956833E+02 -0.85311760978E+01 -0.63173764957E+02  0.70962499267E+02  0.41800000000E+01 0.  1.
        -11    1    1    2    0    0 -0.83928338938E+02  0.52437871631E+02 -0.50892647594E+02  0.11128233479E+03  0.00000000000E+00 0.  1.
         11    1    1    2    0    0  0.24606121541E+02  0.17386934364E+02 -0.22900355489E+02  0.37844325669E+02  0.00000000000E+00 0. -1.
</event>
<event>
 7    1  0.2733606E-009  0.1056069E+03  0.7561462E-02  0.1268929E+00
          2   -1    0    0  501    0  0.00000000000E+00  0.00000000000E+00  0.11019461228E+04  0.11019461228E+04  0.00000000000E+00 0. -1.
         -2   -1    0    0    0  501 -0.00000000000E+00 -0.00000000000E+00 -0.10939329501E+02  0.10939329501E+02  0.00000000000E+00 0.  1.
         25    2    1    2    0    0  0.13710093671E+02  0.29661820419E+01  0.64072923261E+03  0.65297688615E+03  0.12509236357E+03 0.  0.
          5    1    3    3  502    0 -0.52468071593E+02 -0.48613533619E+01  0.38767290020E+03  0.39125986408E+03  0.41800000000E+01 0. -1.
         -5    1    3    3    0  502  0.66178165263E+02  0.78275354038E+01  0.25305633242E+03  0.26171702207E+03  0.41800000000E+01 0. -1.
        -11    1    1    2    0    0 -0.51965548889E+02 -0.93514539773E+01  0.30533229448E+03  0.30986396695E+03  0.00000000000E+00 0.  1.
         11    1    1    2    0    0  0.38255455218E+02  0.63852719353E+01  0.14494526621E+03  0.15004459919E+03  0.00000000000E+00 0. -1.
</event>
<event>
 7    1  0.2733606E-009  0.1412537E+03  0.7561462E-02  0.1211652E+00
          1   -1    0    0  501    0  0.00000000000E+00  0.00000000000E+00  0.91799928691E+03  0.91799928691E+03  0.00000000000E+00 0. -1.
         -1   -1    0    0    0  501 -0.00000000000E+00 -0.00000000000E+00 -0.23076486681E+02  0.23076486681E+02  0.00000000000E+00 0.  1.
         25    2    1    2    0    0 -0.76148142158E+02  0.59182511187E+02  0.47822352986E+03  0.50363341622E+03  0.12509102381E+03 0.  0.
          5    1    3    3  502    0 -0.55785556187E+01  0.76503791159E+02  0.16414850751E+03  0.18123508287E+03  0.41800000000E+01 0. -1.
         -5    1    3    3    0  502 -0.70569586539E+02 -0.17321279972E+02  0.31407502235E+03  0.32239833335E+03  0.41800000000E+01 0. -1.
        -11    1    1    2    0    0 -0.20617592259E+02 -0.19294810554E+02  0.78970280311E+02  0.83867037608E+02  0.00000000000E+00 0.  1.
         11    1    1    2    0    0  0.96765734417E+02 -0.39887700633E+02  0.33772899006E+03  0.35357531976E+03  0.00000000000E+00 0. -1.
</event>
<event>
 7    1  0.2733606E-009  0.8684562E+02  0.7561462E-02  0.1310675E+00
         -1   -1    0    0    0  501 -0.00000000000E+00  0.00000000000E+00  0.11440173254E+03  0.11440173254E+03  0.00000000000E+00 0.  1.
          1   -1    0    0  501    0  0.00000000000E+00 -0.00000000000E+00 -0.16513317002E+03  0.16513317002E+03  0.00000000000E+00 0. -1.
         25    2    1    2    0    0  0.56492956779E+01 -0.14294227269E+02 -0.11681216732E+03  0.17183868987E+03  0.12508882216E+03 0.  0.
          5    1    3    3  502    0  0.19381069133E+01  0.53376494257E+02 -0.74744865570E+02  0.91962349506E+02  0.41800000000E+01 0.  1.
         -5    1    3    3    0  502  0.37111887647E+01 -0.67670721526E+02 -0.42067301750E+02  0.79876340367E+02  0.41800000000E+01 0.  1.
        -11    1    1    2    0    0  0.69945046861E+01  0.30708874378E+02 -0.65488242159E+01  0.32169009310E+02  0.00000000000E+00 0. -1.
         11    1    1    2    0    0 -0.12643800364E+02 -0.16414647110E+02  0.72629554056E+02  0.75527203375E+02  0.00000000000E+00 0.  1.
</event>
<event>
 7    1  0.2733606E-009  0.8862925E+02  0.7561462E-02  0.1306206E+00
         -2   -1    0    0    0  501 -0.00000000000E+00  0.00000000000E+00  0.36849432267E+03  0.36849432267E+03  0.00000000000E+00 0.  1.
          2   -1    0    0  501    0  0.00000000000E+00 -0.00000000000E+00 -0.44181036227E+02  0.44181036227E+02  0.00000000000E+00 0. -1.
         25    2    1    2    0    0 -0.77927828564E+01  0.64428633867E+02  0.15189485557E+03  0.20719912451E+03  0.12509058206E+03 0.  0.
          5    1    3    3  502    0  0.16872453698E+01  0.52390070421E+02 -0.18692797417E+01  0.52616849796E+02  0.41800000000E+01 0. -1.
         -5    1    3    3    0  502 -0.94800282261E+01  0.12038563446E+02  0.15376413532E+03  0.15458227471E+03  0.41800000000E+01 0. -1.
        -11    1    1    2    0    0  0.16580969431E+02  0.18819054565E+02  0.22138013352E+02  0.33454102845E+02  0.00000000000E+00 0. -1.
         11    1    1    2    0    0 -0.87881865744E+01 -0.83247688433E+02  0.15028041752E+03  0.17202213155E+03  0.00000000000E+00 0.  1.
</event>
<event>
 7    1  0.2733606E-009  0.9736978E+02  0.7561462E-02  0.1285926E+00
         -1   -1    0    0    0  501 -0.00000000000E+00  0.00000000000E+00  0.15805679536E+03  0.15805679536E+03  0.00000000000E+00 0.  1.
          1   -1    0    0  501    0  0.00000000000E+00 -0.00000000000E+00 -0.13220976643E+03  0.13220976643E+03  0.00000000000E+00 0. -1.
         25    2    1    2    0    0  0.83811007525E+02  0.12796308548E+02  0.61992877002E+02  0.16333496108E+03  0.12508861745E+03 0.  0.
          5    1    3    3  502    0  0.29077142182E+02  0.20406682214E+02  0.93134060163E+02  0.99766419396E+02  0.41800000000E+01 0.  1.
         -5    1    3    3    0  502  0.54733865343E+02 -0.76103736658E+01 -0.31141183161E+02  0.63568541680E+02  0.41800000000E+01 0.  1.
        -11    1    1    2    0    0 -0.28184503579E+02  0.23865584066E+02  0.17997588438E+02  0.41083397308E+02  0.00000000000E+00 0.  1.
         11    1    1    2    0    0 -0.55626503946E+02 -0.36661892614E+02 -0.54143436503E+02  0.85848203404E+02  0.00000000000E+00 0. -1.
</event>
<event>
 7    1  0.2733606E-009  0.1728965E+03  0.7561462E-02  0.1174860E+00
         -2   -1    0    0    0  501 -0.00000000000E+00  0.00000000000E+00  0.65171922520E+03  0.65171922520E+03  0.00000000000E+00 0.  1.
          2   -1    0    0  501    0  0.00000000000E+00 -0.00000000000E+00 -0.56407137296E+02  0.56407137296E+02  0.00000000000E+00 0. -1.
         25    2    1    2    0    0  0.95485138817E+02 -0.11855783565E+03  0.38295538609E+03  0.43066968688E+03  0.12509268297E+03 0.  0.
          5    1    3    3  502    0 -0.19044009229E+02 -0.34409947271E+02  0.17050876241E+03  0.17503550844E+03  0.41800000000E+01 0.  1.
         -5    1    3    3    0  502  0.11452914805E+03 -0.84147888376E+02  0.21244662368E+03  0.25563417844E+03  0.41800000000E+01 0.  1.
        -11    1    1    2    0    0 -0.71896888571E+02  0.40500873079E+02  0.16148158698E+03  0.18134438574E+03  0.00000000000E+00 0.  1.
         11    1    1    2    0    0 -0.23588250246E+02  0.78056962567E+02  0.50875114826E+02  0.96112289867E+02  0.00000000000E+00 0. -1.
</event>
<event>
 7    1  0.2733606E-009  0.1678105E+03  0.7561462E-02  0.1180151E+00
          2   -1    0    0  501    0  0.00000000000E+00  0.00000000000E+00  0.47243262951E+03  0.47243262951E+03  0.00000000000E+00 0. -1.
         -2   -1    0    0    0  501 -0.00000000000E+00 -0.00000000000E+00 -0.15613793531E+03  0.15613793531E+03  0.00000000000E+00 0.  1.
         25    2    1    2    0    0  0.96634987898E+02 -0.12064024904E+03 -0.63367262988E+02  0.20869906993E+03  0.12508997240E+03 0.  0.
          5    1    3    3  502    0  0.87048798115E+01 -0.53783508033E+02 -0.80035098947E+02  0.96909907297E+02  0.41800000000E+01 0. -1.
         -5    1    3    3    0  502  0.87930108086E+02 -0.66856741003E+02  0.16667835960E+02  0.11178916263E+03  0.41800000000E+01 0. -1.
        -11    1    1    2    0    0 -0.10766664285E+03  0.99550055335E+02  0.36093956826E+03  0.38958913157E+03  0.00000000000E+00 0. -1.
         11    1    1    2    0    0  0.11031654953E+02  0.21090193700E+02  0.18722388921E+02  0.30282363320E+02  0.00000000000E+00 0.  1.
</event>
<event>
 7    1  0.2733606E-009  0.9398078E+02  0.7561462E-02  0.1293488E+00
         -4   -1    0    0    0  501 -0.00000000000E+00  0.00000000000E+00  0.81399381777E+03  0.81399381777E+03  0.00000000000E+00 0.  1.
          4   -1    0    0  501    0  0.00000000000E+00 -0.00000000000E+00 -0.28777625775E+02  0.28777625775E+02  0.00000000000E+00 0. -1.
         25    2    1    2    0    0 -0.24084263257E+02 -0.22394638115E+02  0.70776281328E+03  0.71948243362E+03  0.12508077741E+03 0.  0.
          5    1    3    3  502    0  0.17732765137E+02 -0.42132331140E+02  0.60475159952E+03  0.60649118197E+03  0.41800000000E+01 0. -1.
         -5    1    3    3    0  502 -0.41817028394E+02  0.19737693025E+02  0.10301121376E+03  0.11299125165E+03  0.41800000000E+01 0. -1.
        -11    1    1    2    0    0 -0.33195562378E+02  0.19000958065E+02  0.26305230399E+02  0.46421405788E+02  0.00000000000E+00 0.  1.
         11    1    1    2    0    0  0.57279825635E+02  0.33936800498E+01  0.51148148316E+02  0.76867604134E+02  0.00000000000E+00 0. -1.
</event>
<event>
 7    1  0.2733606E-009  0.1564656E+03  0.7561462E-02  0.1192746E+00
         -2   -1    0    0    0  501 -0.00000000000E+00  0.00000000000E+00  0.45650713549E+02  0.45650713549E+02  0.00000000000E+00 0. -1.
          2   -1    0    0  501    0  0.00000000000E+00 -0.00000000000E+00 -0.75847413718E+03  0.75847413718E+03  0.00000000000E+00 0.  1.
         25    2    1    2    0    0  0.90871392001E+02 -0.84877708766E+02 -0.55775575856E+03  0.58498157114E+03  0.12510042781E+03 0.  0.
          5    1    3    3  502    0  0.26889976769E+02  0.26951021143E+02 -0.22298194241E+03  0.22624731475E+03  0.41800000000E+01 0.  1.
         -5    1    3    3    0  502  0.63981415232E+02 -0.11182872991E+03 -0.33477381616E+03  0.35873425640E+03  0.41800000000E+01 0.  1.
        -11    1    1    2    0    0 -0.12263504408E+02 -0.14516515968E+02 -0.15682537232E+00  0.19003877774E+02  0.00000000000E+00 0. -1.
         11    1    1    2    0    0 -0.78607887593E+02  0.99394224734E+02 -0.15491083969E+03  0.20013940181E+03  0.00000000000E+00 0.  1.
</event>
<event>
 7    1  0.2733606E-009  0.1001689E+03  0.7561462E-02  0.1279941E+00
          1   -1    0    0  501    0  0.00000000000E+00  0.00000000000E+00  0.59909366187E+02  0.59909366187E+02  0.00000000000E+00 0. -1.
         -1   -1    0    0    0  501 -0.00000000000E+00 -0.00000000000E+00 -0.26739567431E+03  0.26739567431E+03  0.00000000000E+00 0.  1.
         25    2    1    2    0    0 -0.37070885057E+02 -0.22146958576E+02 -0.17829981456E+03  0.22204341079E+03  0.12509082345E+03 0.  0.
          5    1    3    3  502    0  0.24277779121E+02  0.28429537363E+02 -0.11291909117E+03  0.11902034576E+03  0.41800000000E+01 0.  1.
         -5    1    3    3    0  502 -0.61348664177E+02 -0.50576495939E+02 -0.65380723390E+02  0.10302306503E+03  0.41800000000E+01 0.  1.
        -11    1    1    2    0    0  0.58528086829E+02  0.14258333972E+02  0.88470777560E+01  0.60886023194E+02  0.00000000000E+00 0. -1.
         11    1    1    2    0    0 -0.21457201772E+02  0.78886246040E+01 -0.38033571315E+02  0.44375606509E+02  0.00000000000E+00 0.  1.
</event>
<event>
 7    1  0.3223969E-009  0.1774469E+03  0.7561462E-02  0.1170297E+00
         -2   -1    0    0    0  501 -0.00000000000E+00  0.00000000000E+00  0.60023845160E+02  0.60023845160E+02  0.00000000000E+00 0.  1.
          2   -1    0    0  501    0  0.00000000000E+00 -0.00000000000E+00 -0.59946684212E+03  0.59946684212E+03  0.00000000000E+00 0. -1.
         25    2    1    2    0    0  0.32925896265E+02 -0.15032581983E+03 -0.31554025852E+03  0.37268695594E+03  0.12509174882E+03 0.  0.
          5    1    3    3  502    0  0.41159174309E+02 -0.16345749732E+03 -0.22736962702E+03  0.28306686622E+03  0.41800000000E+01 0.  1.
         -5    1    3    3    0  502 -0.82332780433E+01  0.13131677489E+02 -0.88170631505E+02  0.89620089718E+02  0.41800000000E+01 0.  1.
        -11    1    1    2    0    0  0.17421797768E+02  0.89920261165E+02 -0.74878088184E+02  0.11830427082E+03  0.00000000000E+00 0.  1.
         11    1    1    2    0    0 -0.50347694033E+02  0.60405558668E+02 -0.14902465026E+03  0.16849946052E+03  0.00000000000E+00 0. -1.
</event>
<event>
 7    1  0.2733606E-009  0.1141691E+03  0.7561462E-02  0.1253038E+00
          1   -1    0    0  501    0  0.00000000000E+00  0.00000000000E+00  0.14609712133E+03  0.14609712133E+03  0.00000000000E+00 0. -1.
         -1   -1    0    0    0  501 -0.00000000000E+00 -0.00000000000E+00 -0.11083443248E+03  0.11083443248E+03  0.00000000000E+00 0.  1.
         25    2    1    2    0    0  0.40954268930E+02  0.53256316270E+02 -0.73858778111E+01  0.14218168668E+03  0.12509034124E+03 0.  0.
          5    1    3    3  502    0 -0.31248356936E+02  0.60758863225E+02  0.40747499034E+01  0.68572408871E+02  0.41800000000E+01 0.  1.
         -5    1    3    3    0  502  0.72202625865E+02 -0.75025469552E+01 -0.11460627714E+02  0.73609277814E+02  0.41800000000E+01 0.  1.
        -11    1    1    2    0    0 -0.53267294858E+02 -0.30709600596E+02 -0.38718942152E+01  0.61607433278E+02  0.00000000000E+00 0.  1.
         11    1    1    2    0    0  0.12313025928E+02 -0.22546715673E+02  0.46520460880E+02  0.53142433851E+02  0.00000000000E+00 0. -1.
</event>
<event>
 7    1  0.2733606E-009  0.1572691E+03  0.7561462E-02  0.1191815E+00
         -2   -1    0    0    0  501 -0.00000000000E+00  0.00000000000E+00  0.17305109193E+03  0.17305109193E+03  0.00000000000E+00 0. -1.
          2   -1    0    0  501    0  0.00000000000E+00 -0.00000000000E+00 -0.20213228214E+03  0.20213228214E+03  0.00000000000E+00 0.  1.
         25    2    1    2    0    0  0.71920981896E+02 -0.10568617476E+03  0.64089250611E+02  0.18999318800E+03  0.12509110389E+03 0.  0.
          5    1    3    3  502    0  0.60850431736E+02 -0.13421730438E+03  0.58473139222E+02  0.15859899195E+03  0.41800000000E+01 0.  1.
         -5    1    3    3    0  502  0.11070550160E+02  0.28531129623E+02  0.56161113890E+01  0.31394196049E+02  0.41800000000E+01 0.  1.
        -11    1    1    2    0    0 -0.78787637202E+02  0.93816280838E+02 -0.10918644020E+03  0.16410565209E+03  0.00000000000E+00 0.  1.
         11    1    1    2    0    0  0.68666553057E+01  0.11869893923E+02  0.16015999380E+02  0.21084533975E+02  0.00000000000E+00 0. -1.
</event>
<event>
 7    1  0.2733606E-009  0.1051447E+03  0.7561462E-02  0.1269835E+00
          2   -1    0    0  501    0  0.00000000000E+00  0.00000000000E+00  0.48669377844E+03  0.48669377844E+03  0.00000000000E+00 0.  1.
         -2   -1    0    0    0  501 -0.00000000000E+00 -0.00000000000E+00 -0.37998106629E+02  0.37998106629E+02  0.00000000000E+00 0. -1.
         25    2    1    2    0    0  0.21796636432E+02 -0.52129742618E+02  0.36015661991E+03  0.38542563803E+03  0.12509008021E+03 0.  0.
          5    1    3    3  502    0 -0.31109999841E+02 -0.12014795924E+01  0.19621210182E+02  0.37037007605E+02  0.41800000000E+01 0. -1.
         -5    1    3    3    0  502  0.52906636273E+02 -0.50928263026E+02  0.34053540972E+03  0.34838863043E+03  0.41800000000E+01 0. -1.
        -11    1    1    2    0    0  0.13334820705E+02 -0.20607291242E+02  0.33462401578E+02  0.41499520659E+02  0.00000000000E+00 0.  1.
         11    1    1    2    0    0 -0.35131457137E+02  0.72737033860E+02  0.55076650328E+02  0.97766726378E+02  0.00000000000E+00 0. -1.
</event>
<event>
 7    1  0.2733606E-009  0.1206636E+03  0.7561462E-02  0.1242006E+00
         -1   -1    0    0    0  501 -0.00000000000E+00  0.00000000000E+00  0.40218850639E+02  0.40218850639E+02  0.00000000000E+00 0.  1.
          1   -1    0    0  501    0  0.00000000000E+00 -0.00000000000E+00 -0.39101721133E+03  0.39101721133E+03  0.00000000000E+00 0. -1.
         25    2    1    2    0    0 -0.86175482742E+01  0.55110166265E+02 -0.14316249124E+03  0.19812991516E+03  0.12509425173E+03 0.  0.
          5    1    3    3  502    0  0.54418599441E+02  0.30403109204E+01 -0.65149451320E+02  0.85044405242E+02  0.41800000000E+01 0.  1.
         -5    1    3    3    0  502 -0.63036147716E+02  0.52069855345E+02 -0.78013039922E+02  0.11308550991E+03  0.41800000000E+01 0.  1.
        -11    1    1    2    0    0  0.31560008970E+02 -0.70451217357E+02 -0.13671573429E+03  0.15700509608E+03  0.00000000000E+00 0.  1.
         11    1    1    2    0    0 -0.22942460696E+02  0.15341051092E+02 -0.70920135154E+02  0.76101050726E+02  0.00000000000E+00 0. -1.
</event>
<event>
 7    1  0.2733606E-009  0.1185960E+03  0.7561462E-02  0.1245431E+00
         -2   -1    0    0    0  501 -0.00000000000E+00  0.00000000000E+00  0.15488801146E+03  0.15488801146E+03  0.00000000000E+00 0. -1.
          2   -1    0    0  501    0  0.00000000000E+00 -0.00000000000E+00 -0.10598859444E+03  0.10598859444E+03  0.00000000000E+00 0.  1.
         25    2    1    2    0    0  0.20338698192E+02 -0.70699995664E+01  0.62082930058E+02  0.14129994780E+03  0.12509091696E+03 0.  0.
          5    1    3    3  502    0  0.65523875069E+02 -0.30462960074E+02  0.52350575246E+02  0.89327628811E+02  0.41800000000E+01 0. -1.
         -5    1    3    3    0  502 -0.45185176877E+02  0.23392960508E+02  0.97323548117E+01  0.51972318987E+02  0.41800000000E+01 0. -1.
        -11    1    1    2    0    0 -0.66786603022E+02  0.82638000752E+01  0.93417201850E+01  0.67941213346E+02  0.00000000000E+00 0.  1.
         11    1    1    2    0    0  0.46447904831E+02 -0.11938005088E+01 -0.22525233226E+02  0.51635444752E+02  0.00000000000E+00 0. -1.
</event>
<event>
 7    1  0.2733606E-009  0.1410419E+03  0.7561462E-02  0.1211934E+00
         -1   -1    0    0    0  501 -0.00000000000E+00  0.00000000000E+00  0.48826989226E+02  0.48826989226E+02  0.00000000000E+00 0.  1.
          1   -1    0    0  501    0  0.00000000000E+00 -0.00000000000E+00 -0.48952884333E+03  0.48952884333E+03  0.00000000000E+00 0. -1.
         25    2    1    2    0    0  0.10075447654E+01 -0.10865151363E+03 -0.25589355743E+03  0.30485368917E+03  0.12509233592E+03 0.  0.
          5    1    3    3  502    0 -0.48265844253E+02 -0.95350128788E+02 -0.21182436732E+03  0.23729364461E+03  0.41800000000E+01 0.  1.
         -5    1    3    3    0  502  0.49273389018E+02 -0.13301384841E+02 -0.44069190104E+02  0.67560044556E+02  0.41800000000E+01 0.  1.
        -11    1    1    2    0    0 -0.28421814829E+02  0.76849366888E+02 -0.17046148402E+03  0.18913154757E+03  0.00000000000E+00 0. -1.
         11    1    1    2    0    0  0.27414270064E+02  0.31802146741E+02 -0.14346812655E+02  0.44370595824E+02  0.00000000000E+00 0.  1.
</event>
<event>
 7    1  0.2733606E-009  0.2022478E+03  0.7561462E-02  0.1147856E+00
         -2   -1    0    0    0  501 -0.00000000000E+00  0.00000000000E+00  0.23446904633E+03  0.23446904633E+03  0.00000000000E+00 0.  1.
          2   -1    0    0  501    0  0.00000000000E+00 -0.00000000000E+00 -0.20908659084E+03  0.20908659084E+03  0.00000000000E+00 0. -1.
         25    2    1    2    0    0  0.93410237569E+02  0.16714199557E+03  0.37998407035E+02  0.23184760875E+03  0.12509002990E+03 0.  0.
          5    1    3    3  502    0  0.58087094047E+01  0.26447741937E+02  0.58690749733E+02  0.64771140663E+02  0.41800000000E+01 0.  1.
         -5    1    3    3    0  502  0.87601528164E+02  0.14069425363E+03 -0.20692342698E+02  0.16707646809E+03  0.41800000000E+01 0.  1.
        -11    1    1    2    0    0 -0.83590623789E+02 -0.58042409937E+02 -0.44419904589E+01  0.10186287359E+03  0.00000000000E+00 0.  1.
         11    1    1    2    0    0 -0.98196137797E+01 -0.10909958563E+03 -0.81739610878E+01  0.10984515483E+03  0.00000000000E+00 0. -1.
</event>
<event>
 7    1  0.2733606E-009  0.1376669E+03  0.7561462E-02  0.1216503E+00
          2   -1    0    0  501    0  0.00000000000E+00  0.00000000000E+00  0.53632294230E+02  0.53632294230E+02  0.00000000000E+00 0.  1.
         -2   -1    0    0    0  501 -0.00000000000E+00 -0.00000000000E+00 -0.46060825664E+03  0.46060825664E+03  0.00000000000E+00 0. -1.
         25    2    1    2    0    0 -0.11249814727E+03 -0.13994449794E+02 -0.19681198781E+03  0.25929545592E+03  0.12508995624E+03 0.  0.
          5    1    3    3  502    0 -0.53305944784E+02 -0.63296971093E+02 -0.14287173106E+03  0.16516002614E+03  0.41800000000E+01 0. -1.
         -5    1    3    3    0  502 -0.59192202488E+02  0.49302521299E+02 -0.53940256751E+02  0.94135429782E+02  0.41800000000E+01 0. -1.
        -11    1    1    2    0    0  0.78414380147E+02 -0.17582988571E+00 -0.20262801054E+03  0.21727161937E+03  0.00000000000E+00 0. -1.
         11    1    1    2    0    0  0.34083767125E+02  0.14170279679E+02 -0.75359640615E+01  0.37673475576E+02  0.00000000000E+00 0.  1.
</event>
<event>
 7    1  0.2733606E-009  0.1033826E+03  0.7561462E-02  0.1273339E+00
          2   -1    0    0  501    0  0.00000000000E+00  0.00000000000E+00  0.65393140656E+02  0.65393140656E+02  0.00000000000E+00 0. -1.
         -2   -1    0    0    0  501 -0.00000000000E+00 -0.00000000000E+00 -0.37539687161E+03  0.37539687161E+03  0.00000000000E+00 0.  1.
         25    2    1    2    0    0 -0.63944111048E+01  0.54884388171E+02 -0.28577480669E+02  0.13969829159E+03  0.12508299530E+03 0.  0.
          5    1    3    3  502    0  0.43172205950E+02  0.40537763721E+02 -0.55566212725E+02  0.81315595372E+02  0.41800000000E+01 0. -1.
         -5    1    3    3    0  502 -0.49566617054E+02  0.14346624450E+02  0.26988732056E+02  0.58382696215E+02  0.41800000000E+01 0. -1.
        -11    1    1    2    0    0  0.29578901327E+02 -0.64164216792E+02 -0.13322056294E+03  0.15079680537E+03  0.00000000000E+00 0. -1.
         11    1    1    2    0    0 -0.23184490222E+02  0.92798286215E+01 -0.14820568735E+03  0.15029491531E+03  0.00000000000E+00 0.  1.
</event>
<event>
 7    1  0.2733606E-009  0.1031721E+03  0.7561462E-02  0.1273763E+00
         -1   -1    0    0    0  501 -0.00000000000E+00  0.00000000000E+00  0.20415303497E+02  0.20415303497E+02  0.00000000000E+00 0.  1.
          1   -1    0    0  501    0  0.00000000000E+00 -0.00000000000E+00 -0.70965503440E+03  0.70965503440E+03  0.00000000000E+00 0. -1.
         25    2    1    2    0    0  0.14723021624E+02  0.47983229157E+02 -0.35591874162E+03  0.38058489292E+03  0.12509017724E+03 0.  0.
          5    1    3    3  502    0  0.49613080862E+02  0.56255319515E+02 -0.11759642858E+03  0.13954393996E+03  0.41800000000E+01 0. -1.
         -5    1    3    3    0  502 -0.34890059238E+02 -0.82720903582E+01 -0.23832231304E+03  0.24104095296E+03  0.41800000000E+01 0. -1.
        -11    1    1    2    0    0  0.89489637663E+01  0.20657357589E+02 -0.29499061517E+02  0.37108018075E+02  0.00000000000E+00 0.  1.
         11    1    1    2    0    0 -0.23671985390E+02 -0.68640586746E+02 -0.30382192777E+03  0.31237742690E+03  0.00000000000E+00 0. -1.
</event>
<event>
 7    1  0.2733606E-009  0.1700913E+03  0.7561462E-02  0.1177753E+00
         -1   -1    0    0    0  501 -0.00000000000E+00  0.00000000000E+00  0.40531631598E+02  0.40531631598E+02  0.00000000000E+00 0.  1.
          1   -1    0    0  501    0  0.00000000000E+00 -0.00000000000E+00 -0.74157629902E+03  0.74157629902E+03  0.00000000000E+00 0. -1.
         25    2    1    2    0    0 -0.62255060316E+02  0.11853340161E+03 -0.41690005446E+03  0.45538851358E+03  0.12508870074E+03 0.  0.
          5    1    3    3  502    0  0.41172341670E+00 -0.25624719333E+02 -0.61295633255E+02  0.66568932793E+02  0.41800000000E+01 0. -1.
         -5    1    3    3    0  502 -0.62666783732E+02  0.14415812095E+03 -0.35560442121E+03  0.38881958078E+03  0.41800000000E+01 0. -1.
        -11    1    1    2    0    0 -0.10448961944E+02 -0.67109520012E+02 -0.16108966182E+03  0.17482204559E+03  0.00000000000E+00 0.  1.
         11    1    1    2    0    0  0.72704022260E+02 -0.51423881601E+02 -0.12305495114E+03  0.15189737145E+03  0.00000000000E+00 0. -1.
</event>
<event>
 7    1  0.2733606E-009  0.1087056E+03  0.7561462E-02  0.1262986E+00
          2   -1    0    0  501    0  0.00000000000E+00  0.00000000000E+00  0.37241885232E+03  0.37241885232E+03  0.00000000000E+00 0.  1.
         -2   -1    0    0    0  501 -0.00000000000E+00 -0.00000000000E+00 -0.49517379345E+02  0.49517379345E+02  0.00000000000E+00 0. -1.
         25    2    1    2    0    0 -0.12881761723E+02 -0.82846609132E+02  0.20905934551E+03  0.25765085843E+03  0.12509458212E+03 0.  0.
          5    1    3    3  502    0 -0.22186246912E+02  0.15229983041E+02  0.12544356898E+03  0.12836566260E+03  0.41800000000E+01 0.  1.
         -5    1    3    3    0  502  0.93044851884E+01 -0.98076592173E+02  0.83615776524E+02  0.12928519583E+03  0.41800000000E+01 0.  1.
        -11    1    1    2    0    0  0.25368836457E+02  0.44253283033E+02  0.89041079322E+01  0.51780440906E+02  0.00000000000E+00 0. -1.
         11    1    1    2    0    0 -0.12487074734E+02  0.38593326099E+02  0.10493801954E+03  0.11250493233E+03  0.00000000000E+00 0.  1.
</event>
<event>
 7    1  0.2733606E-009  0.1557654E+03  0.7561462E-02  0.1193562E+00
         -2   -1    0    0    0  501 -0.00000000000E+00  0.00000000000E+00  0.74307897305E+02  0.74307897305E+02  0.00000000000E+00 0.  1.
          2   -1    0    0  501    0  0.00000000000E+00 -0.00000000000E+00 -0.54075004449E+03  0.54075004449E+03  0.00000000000E+00 0. -1.
         25    2    1    2    0    0 -0.55971268740E+02 -0.14405874302E+03 -0.13887626374E+03  0.24252806716E+03  0.12509013695E+03 0.  0.
          5    1    3    3  502    0 -0.56778375459E+02 -0.13806812541E+03 -0.16077016093E+03  0.21943360777E+03  0.41800000000E+01 0.  1.
         -5    1    3    3    0  502  0.80710671819E+00 -0.59906176090E+01  0.21893897182E+02  0.23094459387E+02  0.41800000000E+01 0.  1.
        -11    1    1    2    0    0  0.37129589090E+02  0.82770201017E+02 -0.95289531007E+02  0.13156598072E+03  0.00000000000E+00 0.  1.
         11    1    1    2    0    0  0.18841679650E+02  0.61288542007E+02 -0.23227635244E+03  0.24096389393E+03  0.00000000000E+00 0. -1.
</event>
<event>
 7    1  0.2733606E-009  0.9065479E+02  0.7561462E-02  0.1301274E+00
         -2   -1    0    0    0  501 -0.00000000000E+00  0.00000000000E+00  0.22310311591E+03  0.22310311591E+03  0.00000000000E+00 0.  1.
          2   -1    0    0  501    0  0.00000000000E+00 -0.00000000000E+00 -0.10560969977E+03  0.10560969977E+03  0.00000000000E+00 0. -1.
         25    2    1    2    0    0 -0.69787055892E+02  0.29982756343E+02  0.14576119613E+03  0.20655044221E+03  0.12509020758E+03 0.  0.
          5    1    3    3  502    0 -0.58105490075E+02  0.79627670139E+01  0.18618558186E+00  0.58797624956E+02  0.41800000000E+01 0. -1.
         -5    1    3    3    0  502 -0.11681565817E+02  0.22019989329E+02  0.14557501055E+03  0.14775281726E+03  0.41800000000E+01 0. -1.
        -11    1    1    2    0    0  0.11971952398E-01  0.14493003314E+02 -0.36244027642E+02  0.39034303223E+02  0.00000000000E+00 0. -1.
         11    1    1    2    0    0  0.69775083940E+02 -0.44475759657E+02  0.79762476529E+01  0.83128070244E+02  0.00000000000E+00 0.  1.
</event>
<event>
 7    1  0.2733606E-009  0.4456042E+03  0.7561462E-02  0.1029041E+00
         -2   -1    0    0    0  501 -0.00000000000E+00  0.00000000000E+00  0.15051873244E+03  0.15051873244E+03  0.00000000000E+00 0.  1.
          2   -1    0    0  501    0  0.00000000000E+00 -0.00000000000E+00 -0.14798838362E+04  0.14798838362E+04  0.00000000000E+00 0. -1.
         25    2    1    2    0    0  0.19338665067E+03  0.39139022211E+03 -0.91565961354E+03  0.10220884107E+04  0.12508992328E+03 0.  0.
          5    1    3    3  502    0  0.53050536802E+01  0.13640735639E+03 -0.25066427508E+03  0.28545605910E+03  0.41800000000E+01 0.  1.
         -5    1    3    3    0  502  0.18808159699E+03  0.25498286572E+03 -0.66499533845E+03  0.73663235165E+03  0.41800000000E+01 0.  1.
        -11    1    1    2    0    0 -0.55283974590E+02 -0.81389058376E+02 -0.48245161234E+02  0.10958144119E+03  0.00000000000E+00 0.  1.
         11    1    1    2    0    0 -0.13810267608E+03 -0.31000116373E+03 -0.36546032900E+03  0.49873271672E+03  0.00000000000E+00 0. -1.
</event>
<event>
 7    1  0.2733606E-009  0.1835792E+03  0.7561462E-02  0.1164383E+00
         -1   -1    0    0    0  501 -0.00000000000E+00  0.00000000000E+00  0.25690499006E+03  0.25690499006E+03  0.00000000000E+00 0.  1.
          1   -1    0    0  501    0  0.00000000000E+00 -0.00000000000E+00 -0.14947428119E+03  0.14947428119E+03  0.00000000000E+00 0. -1.
         25    2    1    2    0    0  0.16041811406E+03 -0.25920510784E+02  0.37460669606E+02  0.20846863708E+03  0.12510006668E+03 0.  0.
          5    1    3    3  502    0 -0.10627113957E+01 -0.40919312581E+02  0.18571107658E+02  0.45142861421E+02  0.41800000000E+01 0.  1.
         -5    1    3    3    0  502  0.16148082546E+03  0.14998801797E+02  0.18889561948E+02  0.16332577566E+03  0.41800000000E+01 0.  1.
        -11    1    1    2    0    0 -0.58920942816E+02 -0.42298662161E+00  0.71992385571E+02  0.93030962589E+02  0.00000000000E+00 0.  1.
         11    1    1    2    0    0 -0.10149717124E+03  0.26343497406E+02 -0.20223463015E+01  0.10487967158E+03  0.00000000000E+00 0. -1.
</event>
<event>
 7    1  0.2733606E-009  0.1466231E+03  0.7561462E-02  0.1204685E+00
          1   -1    0    0  501    0  0.00000000000E+00  0.00000000000E+00  0.13210723686E+04  0.13210723686E+04  0.00000000000E+00 0. -1.
         -1   -1    0    0    0  501 -0.00000000000E+00 -0.00000000000E+00 -0.18692477818E+02  0.18692477818E+02  0.00000000000E+00 0.  1.
         25    2    1    2    0    0 -0.24900843697E+02 -0.95815580063E+02  0.94025916451E+03  0.95369684667E+03  0.12509876701E+03 0.  0.
          5    1    3    3  502    0 -0.43723708264E+02  0.15485181915E+02  0.27351943435E+03  0.27745613508E+03  0.41800000000E+01 0.  1.
         -5    1    3    3    0  502  0.18822864568E+02 -0.11130076198E+03  0.66673973016E+03  0.67624071159E+03  0.41800000000E+01 0.  1.
        -11    1    1    2    0    0  0.94231552854E+01  0.11137228082E+03  0.29589835159E+03  0.31630430801E+03  0.00000000000E+00 0.  1.
         11    1    1    2    0    0  0.15477688412E+02 -0.15556700754E+02  0.66222374712E+02  0.69763691770E+02  0.00000000000E+00 0. -1.
</event>
<event>
 7    1  0.2733606E-009  0.1201158E+03  0.7561462E-02  0.1242906E+00
          2   -1    0    0  501    0  0.00000000000E+00  0.00000000000E+00  0.21476651991E+02  0.21476651991E+02  0.00000000000E+00 0. -1.
         -2   -1    0    0    0  501 -0.00000000000E+00 -0.00000000000E+00 -0.97068027393E+03  0.97068027393E+03  0.00000000000E+00 0.  1.
         25    2    1    2    0    0 -0.13438332407E+02 -0.89885296498E+02 -0.60232250141E+03  0.62184959381E+03  0.12507824076E+03 0.  0.
          5    1    3    3  502    0 -0.30706961521E+02 -0.84478790846E+01 -0.31553584397E+02  0.45026494813E+02  0.41800000000E+01 0.  1.
         -5    1    3    3    0  502  0.17268629114E+02 -0.81437417414E+02 -0.57076891701E+03  0.57682309900E+03  0.41800000000E+01 0.  1.
        -11    1    1    2    0    0 -0.32051164412E+02  0.66017891910E+02 -0.25129622234E+03  0.26179272441E+03  0.00000000000E+00 0. -1.
         11    1    1    2    0    0  0.45489496819E+02  0.23867404589E+02 -0.95584898183E+02  0.10851460770E+03  0.00000000000E+00 0.  1.
</event>
<event>
 7    1  0.2733606E-009  0.6459916E+02  0.7561462E-02  0.1379486E+00
          2   -1    0    0  501    0  0.00000000000E+00  0.00000000000E+00  0.49015577781E+03  0.49015577781E+03  0.00000000000E+00 0. -1.
         -2   -1    0    0    0  501 -0.00000000000E+00 -0.00000000000E+00 -0.26915419559E+02  0.26915419559E+02  0.00000000000E+00 0.  1.
         25    2    1    2    0    0  0.26759825842E+02 -0.11290812636E+02  0.31494796111E+03  0.34012189003E+03  0.12508841329E+03 0.  0.
          5    1    3    3  502    0  0.37033843310E+02 -0.11924569163E+02  0.18182094502E+02  0.43148138552E+02  0.41800000000E+01 0. -1.
         -5    1    3    3    0  502 -0.10274017468E+02  0.63375652742E+00  0.29676586661E+03  0.29697375148E+03  0.41800000000E+01 0. -1.
        -11    1    1    2    0    0  0.16800468943E+02 -0.19406350884E+02  0.80146695441E+01  0.26890465583E+02  0.00000000000E+00 0.  1.
         11    1    1    2    0    0 -0.43560294786E+02  0.30697163520E+02  0.14027772760E+03  0.15005884176E+03  0.00000000000E+00 0. -1.
</event>
<event>
 7    1  0.2733606E-009  0.8417122E+02  0.7561462E-02  0.1317614E+00
         -3   -1    0    0    0  501 -0.00000000000E+00  0.00000000000E+00  0.32407930035E+03  0.32407930035E+03  0.00000000000E+00 0.  1.
          3   -1    0    0  501    0  0.00000000000E+00 -0.00000000000E+00 -0.42531119246E+02  0.42531119246E+02  0.00000000000E+00 0. -1.
         25    2    1    2    0    0  0.28542298002E+02  0.29545239734E+02  0.12766750141E+03  0.18339845238E+03  0.12509363474E+03 0.  0.
          5    1    3    3  502    0  0.39095409375E+02 -0.27629970078E+02  0.59238310970E+01  0.48419319032E+02  0.41800000000E+01 0. -1.
         -5    1    3    3    0  502 -0.10553111373E+02  0.57175209812E+02  0.12174367032E+03  0.13497913335E+03  0.41800000000E+01 0. -1.
        -11    1    1    2    0    0 -0.40732653746E+02 -0.15972508356E+02  0.15847097641E+03  0.16439987977E+03  0.00000000000E+00 0.  1.
         11    1    1    2    0    0  0.12190355744E+02 -0.13572731379E+02 -0.45902967165E+01  0.18812087449E+02  0.00000000000E+00 0. -1.
</event>
<event>
 7    1  0.2733606E-009  0.1324717E+03  0.7561462E-02  0.1223834E+00
         -1   -1    0    0    0  501 -0.00000000000E+00  0.00000000000E+00  0.56879992783E+03  0.56879992783E+03  0.00000000000E+00 0.  1.
          1   -1    0    0  501    0  0.00000000000E+00 -0.00000000000E+00 -0.40679031378E+02  0.40679031378E+02  0.00000000000E+00 0. -1.
         25    2    1    2    0    0  0.10028309125E+03 -0.23976243342E+02  0.30835979620E+03  0.34837472812E+03  0.12509048182E+03 0.  0.
          5    1    3    3  502    0  0.11085453356E+03 -0.36628343663E+02  0.31000464795E+03  0.33128645810E+03  0.41800000000E+01 0. -1.
         -5    1    3    3    0  502 -0.10571442308E+02  0.12652100321E+02 -0.16448517464E+01  0.17088270020E+02  0.41800000000E+01 0. -1.
        -11    1    1    2    0    0 -0.69241810000E+02 -0.24584109619E+02  0.73637826739E+02  0.10402565176E+03  0.00000000000E+00 0. -1.
         11    1    1    2    0    0 -0.31041281251E+02  0.48560352961E+02  0.14612327351E+03  0.15707857933E+03  0.00000000000E+00 0.  1.
</event>
<event>
 7    1  0.2733606E-009  0.5101407E+03  0.7561462E-02  0.1011165E+00
          2   -1    0    0  501    0  0.00000000000E+00  0.00000000000E+00  0.27261929712E+04  0.27261929712E+04  0.00000000000E+00 0. -1.
         -2   -1    0    0    0  501 -0.00000000000E+00 -0.00000000000E+00 -0.14028269926E+03  0.14028269926E+03  0.00000000000E+00 0.  1.
         25    2    1    2    0    0 -0.19269986262E+03 -0.46166245535E+03  0.21026812117E+04  0.21649900087E+04  0.12509196758E+03 0.  0.
          5    1    3    3  502    0 -0.13283594313E+03 -0.17413429182E+03  0.78676015880E+03  0.81668669589E+03  0.41800000000E+01 0.  1.
         -5    1    3    3    0  502 -0.59863919494E+02 -0.28752816353E+03  0.13159210529E+04  0.13483033128E+04  0.41800000000E+01 0.  1.
        -11    1    1    2    0    0  0.56198238575E+02  0.55373884589E+02  0.59829857051E+02  0.99015760908E+02  0.00000000000E+00 0. -1.
         11    1    1    2    0    0  0.13650162405E+03  0.40628857077E+03  0.42339920325E+03  0.60246990084E+03  0.00000000000E+00 0.  1.
</event>
<event>
 7    1  0.2733606E-009  0.1020990E+03  0.7561462E-02  0.1275943E+00
          2   -1    0    0  501    0  0.00000000000E+00  0.00000000000E+00  0.28766282678E+03  0.28766282678E+03  0.00000000000E+00 0. -1.
         -2   -1    0    0    0  501 -0.00000000000E+00 -0.00000000000E+00 -0.54601270515E+02  0.54601270515E+02  0.00000000000E+00 0.  1.
         25    2    1    2    0    0 -0.19097200869E+02 -0.65766971055E+02  0.15141169674E+03  0.20799621800E+03  0.12508767818E+03 0.  0.
          5    1    3    3  502    0  0.34245568072E+02 -0.69416917319E+02  0.12763644141E+03  0.14933184831E+03  0.41800000000E+01 0. -1.
         -5    1    3    3    0  502 -0.53342768941E+02  0.36499462640E+01  0.23775255328E+02  0.58664369697E+02  0.41800000000E+01 0. -1.
        -11    1    1    2    0    0  0.23047244795E+02  0.34224675609E+02 -0.53832405280E+01  0.41611094576E+02  0.00000000000E+00 0.  1.
         11    1    1    2    0    0 -0.39500439261E+01  0.31542295445E+02  0.87033100053E+02  0.92656784716E+02  0.00000000000E+00 0. -1.
</event>
<event>
 7    1  0.2733606E-009  0.1036472E+03  0.7561462E-02  0.1272808E+00
         -1   -1    0    0    0  501 -0.00000000000E+00  0.00000000000E+00  0.57956704193E+02  0.57956704193E+02  0.00000000000E+00 0.  1.
          1   -1    0    0  501    0  0.00000000000E+00 -0.00000000000E+00 -0.27177078878E+03  0.27177078878E+03  0.00000000000E+00 0. -1.
         25    2    1    2    0    0 -0.22140098240E+01 -0.19831488088E+02 -0.41289412190E+02  0.13322997676E+03  0.12508885397E+03 0.  0.
          5    1    3    3  502    0  0.60626670617E+02 -0.17240188883E+02 -0.14940262419E+02  0.64911486995E+02  0.41800000000E+01 0. -1.
         -5    1    3    3    0  502 -0.62840680441E+02 -0.25912992057E+01 -0.26349149771E+02  0.68318489763E+02  0.41800000000E+01 0. -1.
        -11    1    1    2    0    0 -0.62671760471E+01  0.49674402014E+02 -0.52578160326E+02  0.72603627005E+02  0.00000000000E+00 0.  1.
         11    1    1    2    0    0  0.84811858711E+01 -0.29842913926E+02 -0.11994651207E+03  0.12389388920E+03  0.00000000000E+00 0. -1.
</event>
<event>
 7    1  0.2733606E-009  0.1584490E+03  0.7561462E-02  0.1190459E+00
         -2   -1    0    0    0  501 -0.00000000000E+00  0.00000000000E+00  0.15849222119E+03  0.15849222119E+03  0.00000000000E+00 0.  1.
          2   -1    0    0  501    0  0.00000000000E+00 -0.00000000000E+00 -0.18026126279E+03  0.18026126279E+03  0.00000000000E+00 0. -1.
         25    2    1    2    0    0 -0.93700983554E+02 -0.88195523623E+02 -0.12741265221E+02  0.17991083207E+03  0.12508894016E+03 0.  0.
          5    1    3    3  502    0  0.25207801929E+02  0.60404407404E+01  0.61292370708E+01  0.26962198529E+02  0.41800000000E+01 0.  1.
         -5    1    3    3    0  502 -0.11890878548E+03 -0.94235964363E+02 -0.18870502292E+02  0.15294863354E+03  0.41800000000E+01 0.  1.
        -11    1    1    2    0    0  0.15082051565E+02  0.48497704113E+02 -0.40869290301E+02  0.65190447715E+02  0.00000000000E+00 0. -1.
         11    1    1    2    0    0  0.78618931989E+02  0.39697819510E+02  0.31841513927E+02  0.93652204193E+02  0.00000000000E+00 0.  1.
</event>
<event>
 7    1  0.2733606E-009  0.1166330E+03  0.7561462E-02  0.1248757E+00
         -2   -1    0    0    0  501 -0.00000000000E+00  0.00000000000E+00  0.44585625251E+02  0.44585625251E+02  0.00000000000E+00 0.  1.
          2   -1    0    0  501    0  0.00000000000E+00 -0.00000000000E+00 -0.35128117649E+03  0.35128117649E+03  0.00000000000E+00 0. -1.
         25    2    1    2    0    0  0.10517817898E+02  0.60588341316E+02 -0.14401820495E+03  0.20042476296E+03  0.12508905089E+03 0.  0.
          5    1    3    3  502    0 -0.48228426799E+02  0.10499945470E+02 -0.18243347162E+02  0.52787518620E+02  0.41800000000E+01 0.  1.
         -5    1    3    3    0  502  0.58746244696E+02  0.50088395846E+02 -0.12577485779E+03  0.14763724434E+03  0.41800000000E+01 0.  1.
        -11    1    1    2    0    0 -0.48397400749E+02 -0.25137179460E+02 -0.65057023245E+02  0.84891710219E+02  0.00000000000E+00 0.  1.
         11    1    1    2    0    0  0.37879582852E+02 -0.35451161857E+02 -0.97620323039E+02  0.11055032856E+03  0.00000000000E+00 0. -1.
</event>
<event>
 7    1  0.2733606E-009  0.1709706E+03  0.7561462E-02  0.1176839E+00
          2   -1    0    0  501    0  0.00000000000E+00  0.00000000000E+00  0.39250748954E+03  0.39250748954E+03  0.00000000000E+00 0. -1.
         -2   -1    0    0    0  501 -0.00000000000E+00 -0.00000000000E+00 -0.90551539842E+02  0.90551539842E+02  0.00000000000E+00 0.  1.
         25    2    1    2    0    0  0.23933687458E+02  0.13350545989E+03  0.25235077295E+03  0.31260707890E+03  0.12508294831E+03 0.  0.
          5    1    3    3  502    0 -0.40226666838E+02  0.51664477436E+01  0.50085625065E+02  0.64582653595E+02  0.41800000000E+01 0.  1.
         -5    1    3    3    0  502  0.64160354296E+02  0.12833901215E+03  0.20226514788E+03  0.24802442531E+03  0.41800000000E+01 0.  1.
        -11    1    1    2    0    0  0.20284027746E+01 -0.13157585945E+03  0.23668158231E+02  0.13370304006E+03  0.00000000000E+00 0.  1.
         11    1    1    2    0    0 -0.25962090232E+02 -0.19296004404E+01  0.25937018524E+02  0.36748910419E+02  0.00000000000E+00 0. -1.
</event>
<event>
 7    1  0.2733606E-009  0.1955437E+03  0.7561462E-02  0.1153554E+00
          1   -1    0    0  501    0  0.00000000000E+00  0.00000000000E+00  0.20717255694E+03  0.20717255694E+03  0.00000000000E+00 0. -1.
         -1   -1    0    0    0  501 -0.00000000000E+00 -0.00000000000E+00 -0.18845067747E+03  0.18845067747E+03  0.00000000000E+00 0.  1.
         25    2    1    2    0    0 -0.58167622838E+02  0.15274162386E+03  0.32696086121E+02  0.20839744864E+03  0.12508791526E+03 0.  0.
          5    1    3    3  502    0 -0.68788026735E+02  0.17095182105E+03  0.28817176593E+02  0.18655889100E+03  0.41800000000E+01 0. -1.
         -5    1    3    3    0  502  0.10620403897E+02 -0.18210197192E+02  0.38789095273E+01  0.21838557641E+02  0.41800000000E+01 0. -1.
        -11    1    1    2    0    0  0.16964101154E+00 -0.11731352525E+03  0.23223482819E+01  0.11733663233E+03  0.00000000000E+00 0. -1.
         11    1    1    2    0    0  0.57997981826E+02 -0.35428098608E+02 -0.16296554937E+02  0.69889153448E+02  0.00000000000E+00 0.  1.
</event>
<event>
 7    1  0.2733606E-009  0.9733076E+02  0.7561462E-02  0.1286011E+00
         -2   -1    0    0    0  501 -0.00000000000E+00  0.00000000000E+00  0.31835755980E+03  0.31835755980E+03  0.00000000000E+00 0.  1.
          2   -1    0    0  501    0  0.00000000000E+00 -0.00000000000E+00 -0.69408899485E+02  0.69408899485E+02  0.00000000000E+00 0. -1.
         25    2    1    2    0    0 -0.90071988689E+02 -0.21579362232E+02  0.23864647179E+03  0.28491885400E+03  0.12509189761E+03 0.  0.
          5    1    3    3  502    0 -0.14390561015E+02 -0.14836997210E+02 -0.11104120149E+02  0.23832721557E+02  0.41800000000E+01 0.  1.
         -5    1    3    3    0  502 -0.75681427674E+02 -0.67423650217E+01  0.24975059194E+03  0.26108613244E+03  0.41800000000E+01 0.  1.
        -11    1    1    2    0    0  0.30915226352E+02 -0.71233789247E+01 -0.11238057991E+02  0.33656911550E+02  0.00000000000E+00 0. -1.
         11    1    1    2    0    0  0.59156762337E+02  0.28702741156E+02  0.21540246524E+02  0.69190693741E+02  0.00000000000E+00 0.  1.
</event>
<event>
 7    1  0.2733606E-009  0.3443650E+03  0.7561462E-02  0.1064952E+00
         -2   -1    0    0    0  501 -0.00000000000E+00  0.00000000000E+00  0.29984726260E+03  0.29984726260E+03  0.00000000000E+00 0.  1.
          2   -1    0    0  501    0  0.00000000000E+00 -0.00000000000E+00 -0.41303190735E+03  0.41303190735E+03  0.00000000000E+00 0. -1.
         25    2    1    2    0    0  0.30343900841E+03  0.14570287136E+03 -0.51497395285E+02  0.36277130263E+03  0.12508588148E+03 0.  0.
          5    1    3    3  502    0  0.20005118109E+03  0.14562308251E+03 -0.64021191661E+00  0.24747613923E+03  0.41800000000E+01 0.  1.
         -5    1    3    3    0  502  0.10338782732E+03  0.79788846284E-01 -0.50857183368E+02  0.11529516340E+03  0.41800000000E+01 0.  1.
        -11    1    1    2    0    0 -0.16415398091E+03 -0.63223101761E+02  0.26205847595E+01  0.17592770535E+03  0.00000000000E+00 0. -1.
         11    1    1    2    0    0 -0.13928502750E+03 -0.82479769595E+02 -0.64307834221E+02  0.17418016196E+03  0.00000000000E+00 0.  1.
</event>
<event>
 7    1  0.2733606E-009  0.7119301E+02  0.7561462E-02  0.1356083E+00
         -2   -1    0    0    0  501 -0.00000000000E+00  0.00000000000E+00  0.28777307433E+02  0.28777307433E+02  0.00000000000E+00 0.  1.
          2   -1    0    0  501    0  0.00000000000E+00 -0.00000000000E+00 -0.46392094995E+03  0.46392094995E+03  0.00000000000E+00 0. -1.
         25    2    1    2    0    0  0.47648685715E+02  0.42284239515E+01 -0.24116954204E+03  0.27585969126E+03  0.12509014524E+03 0.  0.
          5    1    3    3  502    0  0.52843880589E+02  0.14123270239E+02 -0.26614858313E+02  0.60973482441E+02  0.41800000000E+01 0. -1.
         -5    1    3    3    0  502 -0.51951948743E+01 -0.98948462871E+01 -0.21455468373E+03  0.21488620882E+03  0.41800000000E+01 0. -1.
        -11    1    1    2    0    0  0.13876863078E+01 -0.23035108345E+02 -0.93657832803E+01  0.24905015282E+02  0.00000000000E+00 0.  1.
         11    1    1    2    0    0 -0.49036372022E+02  0.18806684393E+02 -0.18460831720E+03  0.19193355084E+03  0.00000000000E+00 0. -1.
</event>
<event>
 7    1  0.2733606E-009  0.1148243E+03  0.7561462E-02  0.1251888E+00
         -1   -1    0    0    0  501 -0.00000000000E+00  0.00000000000E+00  0.58121189686E+02  0.58121189686E+02  0.00000000000E+00 0.  1.
          1   -1    0    0  501    0  0.00000000000E+00 -0.00000000000E+00 -0.33621110739E+03  0.33621110739E+03  0.00000000000E+00 0. -1.
         25    2    1    2    0    0  0.81018570681E+02 -0.34515561614E+02 -0.15213273787E+03  0.21574690954E+03  0.12508807400E+03 0.  0.
          5    1    3    3  502    0  0.51572434949E+01 -0.59645392068E+02 -0.11000581848E+03  0.12531130218E+03  0.41800000000E+01 0. -1.
         -5    1    3    3    0  502  0.75861327186E+02  0.25129830454E+02 -0.42126919392E+02  0.90435607360E+02  0.41800000000E+01 0. -1.
        -11    1    1    2    0    0 -0.44170775335E+02  0.27699559647E+02 -0.13079300577E+03  0.14080175197E+03  0.00000000000E+00 0. -1.
         11    1    1    2    0    0 -0.36847795346E+02  0.68160019665E+01  0.48358259318E+01  0.37783635573E+02  0.00000000000E+00 0.  1.
</event>
<event>
 7    1  0.2733606E-009  0.7395222E+02  0.7561462E-02  0.1347147E+00
         -2   -1    0    0    0  501 -0.00000000000E+00  0.00000000000E+00  0.86021262536E+02  0.86021262536E+02  0.00000000000E+00 0.  1.
          2   -1    0    0  501    0  0.00000000000E+00 -0.00000000000E+00 -0.26088024491E+03  0.26088024491E+03  0.00000000000E+00 0. -1.
         25    2    1    2    0    0 -0.49401164914E+02 -0.33285373629E+02  0.40512151067E+01  0.13861136809E+03  0.12509319657E+03 0.  0.
          5    1    3    3  502    0 -0.34253919988E+02  0.10102587823E+02 -0.53738427331E+02  0.64658211290E+02  0.41800000000E+01 0.  1.
         -5    1    3    3    0  502 -0.15147244926E+02 -0.43387961452E+02  0.57789642437E+02  0.73953156801E+02  0.41800000000E+01 0.  1.
        -11    1    1    2    0    0  0.21292240797E+02  0.30990100283E+02 -0.17596157376E+03  0.17993393586E+03  0.00000000000E+00 0. -1.
         11    1    1    2    0    0  0.28108924117E+02  0.22952733462E+01 -0.29486237206E+01  0.28356203494E+02  0.00000000000E+00 0.  1.
</event>
<event>
 7    1  0.2733606E-009  0.1110659E+03  0.7561462E-02  0.1258609E+00
          1   -1    0    0  501    0  0.00000000000E+00  0.00000000000E+00  0.10618962521E+03  0.10618962521E+03  0.00000000000E+00 0. -1.
         -1   -1    0    0    0  501 -0.00000000000E+00 -0.00000000000E+00 -0.14866025894E+03  0.14866025894E+03  0.00000000000E+00 0.  1.
         25    2    1    2    0    0 -0.26741951267E+00  0.55467141269E+02  0.56716808395E+01  0.13696428954E+03  0.12510145231E+03 0.  0.
          5    1    3    3  502    0 -0.49501014141E+02  0.64863858831E+02  0.21049668473E+02  0.84369612576E+02  0.41800000000E+01 0.  1.
         -5    1    3    3    0  502  0.49233594628E+02 -0.93967175618E+01 -0.15377987634E+02  0.52594676961E+02  0.41800000000E+01 0.  1.
        -11    1    1    2    0    0 -0.26794085105E+02  0.17383674156E+01 -0.47540898470E+02  0.54599285208E+02  0.00000000000E+00 0.  1.
         11    1    1    2    0    0  0.27061504617E+02 -0.57205508685E+02 -0.60141609756E+00  0.63286309399E+02  0.00000000000E+00 0. -1.
</event>
<event>
 7    1  0.2733606E-009  0.1598732E+03  0.7561462E-02  0.1188840E+00
         -1   -1    0    0    0  501 -0.00000000000E+00  0.00000000000E+00  0.17054184710E+03  0.17054184710E+03  0.00000000000E+00 0. -1.
          1   -1    0    0  501    0  0.00000000000E+00 -0.00000000000E+00 -0.16611138150E+03  0.16611138150E+03  0.00000000000E+00 0.  1.
         25    2    1    2    0    0  0.52243901310E+02 -0.11102818730E+03  0.42997476429E+02  0.18042106837E+03  0.12508515233E+03 0.  0.
          5    1    3    3  502    0  0.74042590745E+02 -0.12628980926E+03  0.45523340505E+02  0.15336645037E+03  0.41800000000E+01 0. -1.
         -5    1    3    3    0  502 -0.21798689435E+02  0.15261621963E+02 -0.25258640765E+01  0.27054618005E+02  0.41800000000E+01 0. -1.
        -11    1    1    2    0    0 -0.10809948887E+02  0.10372025759E+03 -0.45168508942E+02  0.11364392209E+03  0.00000000000E+00 0.  1.
         11    1    1    2    0    0 -0.41433952423E+02  0.73079297127E+01  0.66014981050E+01  0.42588238133E+02  0.00000000000E+00 0. -1.
</event>
<event>
 7    1  0.2733606E-009  0.1795744E+03  0.7561462E-02  0.1168216E+00
         -1   -1    0    0    0  501 -0.00000000000E+00  0.00000000000E+00  0.12385852072E+04  0.12385852072E+04  0.00000000000E+00 0.  1.
          1   -1    0    0  501    0  0.00000000000E+00 -0.00000000000E+00 -0.30471736657E+02  0.30471736657E+02  0.00000000000E+00 0. -1.
         25    2    1    2    0    0  0.15674957820E+03  0.57144004095E+01  0.52589941652E+03  0.56286849578E+03  0.12509061758E+03 0.  0.
          5    1    3    3  502    0  0.17255339941E+03 -0.23811789824E+01  0.40004961329E+03  0.43570346700E+03  0.41800000000E+01 0.  1.
         -5    1    3    3    0  502 -0.15803821218E+02  0.80955793919E+01  0.12584980323E+03  0.12716502878E+03  0.41800000000E+01 0.  1.
        -11    1    1    2    0    0 -0.77762863735E+02  0.27663517262E+02  0.47192623746E+03  0.47908945591E+03  0.00000000000E+00 0.  1.
         11    1    1    2    0    0 -0.78986714461E+02 -0.33377917672E+02  0.21028781661E+03  0.22709899221E+03  0.00000000000E+00 0. -1.
</event>
<event>
 7    1  0.2733606E-009  0.1135645E+03  0.7561462E-02  0.1254108E+00
         -1   -1    0    0    0  501 -0.00000000000E+00  0.00000000000E+00  0.51725096618E+03  0.51725096618E+03  0.00000000000E+00 0.  1.
          1   -1    0    0  501    0  0.00000000000E+00 -0.00000000000E+00 -0.58707037539E+02  0.58707037539E+02  0.00000000000E+00 0. -1.
         25    2    1    2    0    0  0.91172924616E+02  0.62241606278E+02  0.11140270571E+03  0.20061188723E+03  0.12509215293E+03 0.  0.
          5    1    3    3  502    0  0.51820156744E+02  0.56419687492E+02 -0.56356510334E+01  0.76926866206E+02  0.41800000000E+01 0.  1.
         -5    1    3    3    0  502  0.39352767872E+02  0.58219187854E+01  0.11703835674E+03  0.12368502102E+03  0.41800000000E+01 0.  1.
        -11    1    1    2    0    0 -0.43737490315E+02 -0.31000591918E+02  0.51640576390E+02  0.74436240422E+02  0.00000000000E+00 0. -1.
         11    1    1    2    0    0 -0.47435434300E+02 -0.31241014360E+02  0.29550064655E+03  0.30090987607E+03  0.00000000000E+00 0.  1.
</event>
<event>
 7    1  0.2733606E-009  0.1711944E+03  0.7561462E-02  0.1176608E+00
         -2   -1    0    0    0  501 -0.00000000000E+00  0.00000000000E+00  0.49943089215E+02  0.49943089215E+02  0.00000000000E+00 0.  1.
          2   -1    0    0  501    0  0.00000000000E+00 -0.00000000000E+00 -0.81430198011E+03  0.81430198011E+03  0.00000000000E+00 0. -1.
         25    2    1    2    0    0 -0.39898808173E+02 -0.15824570637E+03 -0.28820819863E+03  0.35404141290E+03  0.12509091818E+03 0.  0.
          5    1    3    3  502    0 -0.15606010488E+02 -0.86642600178E+02 -0.44290325947E+02  0.98638699817E+02  0.41800000000E+01 0.  1.
         -5    1    3    3    0  502 -0.24292797685E+02 -0.71603106191E+02 -0.24391787269E+03  0.25540271308E+03  0.41800000000E+01 0.  1.
        -11    1    1    2    0    0  0.32555142915E+02  0.16332273159E+02 -0.57225689381E+02  0.67833325157E+02  0.00000000000E+00 0.  1.
         11    1    1    2    0    0  0.73436652576E+01  0.14191343321E+03 -0.41892500288E+03  0.44237033127E+03  0.00000000000E+00 0. -1.
</event>
<event>
 7    1  0.2733606E-009  0.1042488E+03  0.7561462E-02  0.1271607E+00
          1   -1    0    0  501    0  0.00000000000E+00  0.00000000000E+00  0.23350526959E+03  0.23350526959E+03  0.00000000000E+00 0. -1.
         -1   -1    0    0    0  501 -0.00000000000E+00 -0.00000000000E+00 -0.64282784546E+02  0.64282784546E+02  0.00000000000E+00 0.  1.
         25    2    1    2    0    0  0.46726757846E+02  0.26833293120E+02  0.12504516056E+03  0.18489562798E+03  0.12508671211E+03 0.  0.
          5    1    3    3  502    0  0.76280153084E+02 -0.10742873778E+02  0.39167116864E+02  0.86519399761E+02  0.41800000000E+01 0.  1.
         -5    1    3    3    0  502 -0.29553395238E+02  0.37576166898E+02  0.85878043697E+02  0.98376228217E+02  0.41800000000E+01 0.  1.
        -11    1    1    2    0    0 -0.41688330769E+02 -0.46855775531E+02  0.60065373839E+02  0.86840254245E+02  0.00000000000E+00 0. -1.
         11    1    1    2    0    0 -0.50384270773E+01  0.20022482411E+02 -0.15888049353E+02  0.26052171916E+02  0.00000000000E+00 0.  1.
</event>
<event>
 7    1  0.2733606E-009  0.1074948E+03  0.7561462E-02  0.1265281E+00
          2   -1    0    0  501    0  0.00000000000E+00  0.00000000000E+00  0.13033230047E+04  0.13033230047E+04  0.00000000000E+00 0. -1.
         -2   -1    0    0    0  501 -0.00000000000E+00 -0.00000000000E+00 -0.14117964928E+02  0.14117964928E+02  0.00000000000E+00 0.  1.
         25    2    1    2    0    0 -0.28166130935E+02 -0.35159912353E+02  0.10587778743E+04  0.10670929802E+04  0.12508913208E+03 0.  0.
          5    1    3    3  502    0 -0.21946668683E+02  0.44442368108E+02  0.29771590858E+03  0.30184269905E+03  0.41800000000E+01 0.  1.
         -5    1    3    3    0  502 -0.62194622520E+01 -0.79602280462E+02  0.76106196568E+03  0.76525028113E+03  0.41800000000E+01 0.  1.
        -11    1    1    2    0    0  0.50636159453E+02  0.10097628294E+02  0.73324461384E+02  0.89679760139E+02  0.00000000000E+00 0.  1.
         11    1    1    2    0    0 -0.22470028518E+02  0.25062284059E+02  0.15710270412E+03  0.16066822929E+03  0.00000000000E+00 0. -1.
</event>
<event>
 7    1  0.2733606E-009  0.2021322E+03  0.7561462E-02  0.1147952E+00
         -1   -1    0    0    0  501 -0.00000000000E+00  0.00000000000E+00  0.12744394057E+03  0.12744394057E+03  0.00000000000E+00 0.  1.
          1   -1    0    0  501    0  0.00000000000E+00 -0.00000000000E+00 -0.37116276089E+03  0.37116276089E+03  0.00000000000E+00 0. -1.
         25    2    1    2    0    0  0.70146952613E+02  0.17225874315E+03 -0.15899120177E+03  0.27481035726E+03  0.12509540625E+03 0.  0.
          5    1    3    3  502    0 -0.12554552411E+02  0.27236881438E+02 -0.88513050528E+02  0.93549436185E+02  0.41800000000E+01 0. -1.
         -5    1    3    3    0  502  0.82701505023E+02  0.14502186171E+03 -0.70478151243E+02  0.18126092108E+03  0.41800000000E+01 0. -1.
        -11    1    1    2    0    0 -0.86032916041E+02 -0.95236806755E+02 -0.56687261873E+02  0.14030380487E+03  0.00000000000E+00 0.  1.
         11    1    1    2    0    0  0.15885963429E+02 -0.77021936395E+02 -0.28040356673E+02  0.83492539322E+02  0.00000000000E+00 0. -1.
</event>
<event>
 7    1  0.2733606E-009  0.6700622E+02  0.7561462E-02  0.1370580E+00
         -1   -1    0    0    0  501 -0.00000000000E+00  0.00000000000E+00  0.11124458266E+03  0.11124458266E+03  0.00000000000E+00 0.  1.
          1   -1    0    0  501    0  0.00000000000E+00 -0.00000000000E+00 -0.11361833750E+03  0.11361833750E+03  0.00000000000E+00 0. -1.
         25    2    1    2    0    0  0.66597366884E+01 -0.26841260370E+02  0.39653581310E+01  0.12817432583E+03  0.12509247933E+03 0.  0.
          5    1    3    3  502    0 -0.19042335857E+02 -0.43649096934E+02  0.52236793975E+02  0.70809669275E+02  0.41800000000E+01 0.  1.
         -5    1    3    3    0  502  0.25702072545E+02  0.16807836564E+02 -0.48271435844E+02  0.57364656554E+02  0.41800000000E+01 0.  1.
        -11    1    1    2    0    0 -0.25599283294E+02  0.25647730310E+02  0.35511412110E+02  0.50736473718E+02  0.00000000000E+00 0.  1.
         11    1    1    2    0    0  0.18939546606E+02  0.11935300602E+01 -0.41850525079E+02  0.45952120615E+02  0.00000000000E+00 0. -1.
</event>
<event>
 7    1  0.4075682E-009  0.1431571E+03  0.7561462E-02  0.1209143E+00
          1   -1    0    0  501    0  0.00000000000E+00  0.00000000000E+00  0.37734624020E+03  0.37734624020E+03  0.00000000000E+00 0. -1.
         -1   -1    0    0    0  501 -0.00000000000E+00 -0.00000000000E+00 -0.65133501841E+02  0.65133501841E+02  0.00000000000E+00 0.  1.
         25    2    1    2    0    0  0.31665709263E+01  0.11268222760E+03  0.16942362623E+03  0.23886926852E+03  0.12508737237E+03 0.  0.
          5    1    3    3  502    0  0.40812218609E+02  0.33812860032E+01  0.10821611911E+02  0.42563481615E+02  0.41800000000E+01 0.  1.
         -5    1    3    3    0  502 -0.37645647683E+02  0.10930094160E+03  0.15860201432E+03  0.19630578690E+03  0.41800000000E+01 0.  1.
        -11    1    1    2    0    0  0.29500609889E+02 -0.67980243933E+02  0.33978651510E+02  0.81523912488E+02  0.00000000000E+00 0.  1.
         11    1    1    2    0    0 -0.32667180815E+02 -0.44701983669E+02  0.10881046062E+03  0.12208656104E+03  0.00000000000E+00 0. -1.
</event>
<event>
 7    1  0.2733606E-009  0.1301969E+03  0.7561462E-02  0.1227164E+00
         -1   -1    0    0    0  501 -0.00000000000E+00  0.00000000000E+00  0.36939639639E+03  0.36939639639E+03  0.00000000000E+00 0.  1.
          1   -1    0    0  501    0  0.00000000000E+00 -0.00000000000E+00 -0.51710930158E+02  0.51710930158E+02  0.00000000000E+00 0. -1.
         25    2    1    2    0    0 -0.26991096247E+02 -0.66400514411E+01  0.12032624130E+03  0.17577928233E+03  0.12508933685E+03 0.  0.
          5    1    3    3  502    0 -0.72741978370E+02  0.13019005895E+02  0.49285223792E+02  0.88923538030E+02  0.41800000000E+01 0.  1.
         -5    1    3    3    0  502  0.45750882123E+02 -0.19659057336E+02  0.71041017503E+02  0.86855744302E+02  0.41800000000E+01 0.  1.
        -11    1    1    2    0    0  0.58656547950E+02 -0.46294095398E+02  0.14992851240E+03  0.16751803699E+03  0.00000000000E+00 0.  1.
         11    1    1    2    0    0 -0.31665451703E+02  0.52934146840E+02  0.47430712543E+02  0.77810007233E+02  0.00000000000E+00 0. -1.
</event>
<event>
 7    1  0.3271088E-009  0.9836849E+02  0.7561462E-02  0.1283765E+00
          1   -1    0    0  501    0  0.00000000000E+00  0.00000000000E+00  0.41832616071E+03  0.41832616071E+03  0.00000000000E+00 0. -1.
         -1   -1    0    0    0  501 -0.00000000000E+00 -0.00000000000E+00 -0.55682554888E+02  0.55682554888E+02  0.00000000000E+00 0.  1.
         25    2    1    2    0    0 -0.40165001804E+02 -0.88463973575E+02  0.26468939292E+03  0.30845962189E+03  0.12509101335E+03 0.  0.
          5    1    3    3  502    0 -0.66792043847E+01 -0.34868324423E+02  0.23641158164E+03  0.23909897564E+03  0.41800000000E+01 0.  1.
         -5    1    3    3    0  502 -0.33485797419E+02 -0.53595649152E+02  0.28277811278E+02  0.69360646245E+02  0.41800000000E+01 0.  1.
        -11    1    1    2    0    0  0.19140698103E+02  0.30637609081E+02 -0.13232763322E+02  0.38472528370E+02  0.00000000000E+00 0.  1.
         11    1    1    2    0    0  0.21024303701E+02  0.57826364494E+02  0.11118697622E+03  0.12707656534E+03  0.00000000000E+00 0. -1.
</event>
<event>
 7    1  0.2733606E-009  0.1227045E+03  0.7561462E-02  0.1238701E+00
          2   -1    0    0  501    0  0.00000000000E+00  0.00000000000E+00  0.17914669214E+03  0.17914669214E+03  0.00000000000E+00 0. -1.
         -2   -1    0    0    0  501 -0.00000000000E+00 -0.00000000000E+00 -0.10669928031E+03  0.10669928031E+03  0.00000000000E+00 0.  1.
         25    2    1    2    0    0  0.80393803776E+02  0.11227973602E+02  0.13553415009E+02  0.14974320719E+03  0.12510036756E+03 0.  0.
          5    1    3    3  502    0  0.56765433090E+01 -0.47297546653E+02 -0.15713103280E+02  0.50335425676E+02  0.41800000000E+01 0.  1.
         -5    1    3    3    0  502  0.74717260467E+02  0.58525520255E+02  0.29266518289E+02  0.99407781514E+02  0.41800000000E+01 0.  1.
        -11    1    1    2    0    0 -0.37652780260E+02  0.26121286794E+02 -0.99325005404E+01  0.46890383364E+02  0.00000000000E+00 0.  1.
         11    1    1    2    0    0 -0.42741023515E+02 -0.37349260396E+02  0.68826497361E+02  0.89212381889E+02  0.00000000000E+00 0. -1.
</event>
<event>
 7    1  0.2733606E-009  0.1037877E+03  0.7561462E-02  0.1272527E+00
         -1   -1    0    0    0  501 -0.00000000000E+00  0.00000000000E+00  0.52458459648E+02  0.52458459648E+02  0.00000000000E+00 0.  1.
          1   -1    0    0  501    0  0.00000000000E+00 -0.00000000000E+00 -0.28997436524E+03  0.28997436524E+03  0.00000000000E+00 0. -1.
         25    2    1    2    0    0  0.21704854506E+01 -0.43219439593E+02 -0.80554152800E+02  0.15495298645E+03  0.12509526574E+03 0.  0.
          5    1    3    3  502    0 -0.31487707561E+02 -0.70299620675E+02 -0.18675691063E+02  0.79371066713E+02  0.41800000000E+01 0. -1.
         -5    1    3    3    0  502  0.33658193012E+02  0.27080181081E+02 -0.61878461737E+02  0.75581919737E+02  0.41800000000E+01 0. -1.
        -11    1    1    2    0    0  0.34783386415E+02  0.34649903979E+02 -0.13499106649E+03  0.14364222168E+03  0.00000000000E+00 0.  1.
         11    1    1    2    0    0 -0.36953871866E+02  0.85695356137E+01 -0.21970686300E+02  0.43837616758E+02  0.00000000000E+00 0. -1.
</event>
<event>
 7    1  0.2733606E-009  0.1510626E+03  0.7561462E-02  0.1199173E+00
         -2   -1    0    0    0  501 -0.00000000000E+00  0.00000000000E+00  0.55131122914E+02  0.55131122914E+02  0.00000000000E+00 0.  1.
          2   -1    0    0  501    0  0.00000000000E+00 -0.00000000000E+00 -0.45887717333E+03  0.45887717333E+03  0.00000000000E+00 0. -1.
         25    2    1    2    0    0 -0.49845146605E+02 -0.10625085564E+03 -0.24000530424E+03  0.29499735173E+03  0.12508840274E+03 0.  0.
          5    1    3    3  502    0  0.77407829163E+01  0.25027911155E+02 -0.24355213111E+02  0.36013398376E+02  0.41800000000E+01 0.  1.
         -5    1    3    3    0  502 -0.57585929521E+02 -0.13127876679E+03 -0.21565009113E+03  0.25898395335E+03  0.41800000000E+01 0.  1.
        -11    1    1    2    0    0  0.27491212540E+02  0.43201519777E+01 -0.81578746301E+02  0.86194676912E+02  0.00000000000E+00 0.  1.
         11    1    1    2    0    0  0.22353934065E+02  0.10193070366E+03 -0.82161999870E+02  0.13281626760E+03  0.00000000000E+00 0. -1.
</event>
<event>
 7    1  0.2733606E-009  0.1592645E+03  0.7561462E-02  0.1189530E+00
          1   -1    0    0  501    0  0.00000000000E+00  0.00000000000E+00  0.87032863442E+02  0.87032863442E+02  0.00000000000E+00 0. -1.
         -1   -1    0    0    0  501 -0.00000000000E+00 -0.00000000000E+00 -0.36277659540E+03  0.36277659540E+03  0.00000000000E+00 0.  1.
         25    2    1    2    0    0 -0.93018994019E+02 -0.10278187025E+03 -0.17336974958E+03  0.25479550031E+03  0.12508809221E+03 0.  0.
          5    1    3    3  502    0 -0.16743401855E+02 -0.82855576314E+02 -0.27599527040E+02  0.89020190546E+02  0.41800000000E+01 0. -1.
         -5    1    3    3    0  502 -0.76275592164E+02 -0.19926293931E+02 -0.14577022254E+03  0.16577530977E+03  0.41800000000E+01 0. -1.
        -11    1    1    2    0    0  0.16977393890E+02  0.70195569232E+02 -0.13275101113E+02  0.73429409317E+02  0.00000000000E+00 0. -1.
         11    1    1    2    0    0  0.76041600129E+02  0.32586301013E+02 -0.89098881267E+02  0.12158454921E+03  0.00000000000E+00 0.  1.
</event>
<event>
 7    1  0.2733606E-009  0.1511930E+03  0.7561462E-02  0.1199015E+00
         -2   -1    0    0    0  501 -0.00000000000E+00  0.00000000000E+00  0.10349264335E+03  0.10349264335E+03  0.00000000000E+00 0.  1.
          2   -1    0    0  501    0  0.00000000000E+00 -0.00000000000E+00 -0.27862502794E+03  0.27862502794E+03  0.00000000000E+00 0. -1.
         25    2    1    2    0    0  0.70405145563E+02  0.10876359757E+03 -0.10604710650E+03  0.20899843171E+03  0.12509177024E+03 0.  0.
          5    1    3    3  502    0  0.78853199307E+02  0.49418685704E+02 -0.73424133410E+01  0.93442051408E+02  0.41800000000E+01 0. -1.
         -5    1    3    3    0  502 -0.84480537433E+01  0.59344911866E+02 -0.98704693162E+02  0.11555638030E+03  0.41800000000E+01 0. -1.
        -11    1    1    2    0    0 -0.81190871805E+02 -0.64808724124E+02 -0.18989205288E+02  0.10560643117E+03  0.00000000000E+00 0. -1.
         11    1    1    2    0    0  0.10785726242E+02 -0.43954873445E+02 -0.50096072797E+02  0.67512808413E+02  0.00000000000E+00 0.  1.
</event>
<event>
 7    1  0.2733606E-009  0.9724924E+02  0.7561462E-02  0.1286189E+00
          2   -1    0    0  501    0  0.00000000000E+00  0.00000000000E+00  0.15212401525E+04  0.15212401525E+04  0.00000000000E+00 0. -1.
         -2   -1    0    0    0  501 -0.00000000000E+00 -0.00000000000E+00 -0.13944020583E+02  0.13944020583E+02  0.00000000000E+00 0.  1.
         25    2    1    2    0    0  0.16859013941E+02  0.48468316998E+02  0.12482519926E+04  0.12555530195E+04  0.12508774368E+03 0.  0.
          5    1    3    3  502    0 -0.10099733954E+02  0.63634405297E+02  0.30379779513E+03  0.31058318514E+03  0.41800000000E+01 0. -1.
         -5    1    3    3    0  502  0.26958747895E+02 -0.15166088299E+02  0.94445419749E+03  0.94496983437E+03  0.41800000000E+01 0. -1.
        -11    1    1    2    0    0  0.24047061424E+01  0.23803139190E+02  0.11349133695E+03  0.11598558363E+03  0.00000000000E+00 0. -1.
         11    1    1    2    0    0 -0.19263720084E+02 -0.72271456188E+02  0.14555280235E+03  0.16364556994E+03  0.00000000000E+00 0.  1.
</event>
<event>
 7    1  0.2733606E-009  0.1350934E+03  0.7561462E-02  0.1220088E+00
         -2   -1    0    0    0  501 -0.00000000000E+00  0.00000000000E+00  0.28981693654E+02  0.28981693654E+02  0.00000000000E+00 0.  1.
          2   -1    0    0  501    0  0.00000000000E+00 -0.00000000000E+00 -0.82881418120E+03  0.82881418120E+03  0.00000000000E+00 0. -1.
         25    2    1    2    0    0  0.94253063311E+02 -0.61147397322E+02 -0.41698488607E+03  0.44960702413E+03  0.12508971499E+03 0.  0.
          5    1    3    3  502    0  0.42819250967E+02 -0.67158502440E+02 -0.97690504000E+02  0.12611367759E+03  0.41800000000E+01 0. -1.
         -5    1    3    3    0  502  0.51433812344E+02  0.60111051173E+01 -0.31929438206E+03  0.32349334654E+03  0.41800000000E+01 0. -1.
        -11    1    1    2    0    0 -0.55360818265E+02  0.78362378451E+02 -0.30143090079E+03  0.31633221541E+03  0.00000000000E+00 0.  1.
         11    1    1    2    0    0 -0.38892245047E+02 -0.17214981129E+02 -0.81416700693E+02  0.91856635317E+02  0.00000000000E+00 0. -1.
</event>
<event>
 7    1  0.2733606E-009  0.5095656E+02  0.7561462E-02  0.1440249E+00
         -3   -1    0    0    0  501 -0.00000000000E+00  0.00000000000E+00  0.32362535865E+02  0.32362535865E+02  0.00000000000E+00 0.  1.
          3   -1    0    0  501    0  0.00000000000E+00 -0.00000000000E+00 -0.34575214236E+03  0.34575214236E+03  0.00000000000E+00 0. -1.
         25    2    1    2    0    0  0.12474262769E+02  0.37317783052E+01 -0.13805810147E+03  0.18675303330E+03  0.12508845937E+03 0.  0.
          5    1    3    3  502    0  0.93485373992E+01 -0.76894757675E+01  0.22401112531E+02  0.25803205841E+02  0.41800000000E+01 0. -1.
         -5    1    3    3    0  502  0.31257253696E+01  0.11421254073E+02 -0.16045921400E+03  0.16094982746E+03  0.41800000000E+01 0. -1.
        -11    1    1    2    0    0 -0.23928275363E+02  0.31468559604E+02 -0.95872015326E+02  0.10370282507E+03  0.00000000000E+00 0.  1.
         11    1    1    2    0    0  0.11454012594E+02 -0.35200337909E+02 -0.79459489700E+02  0.87658819846E+02  0.00000000000E+00 0. -1.
</event>
<event>
 7    1  0.2890129E-009  0.7192479E+02  0.7561462E-02  0.1353667E+00
          2   -1    0    0  501    0  0.00000000000E+00  0.00000000000E+00  0.60434668802E+03  0.60434668802E+03  0.00000000000E+00 0. -1.
         -2   -1    0    0    0  501 -0.00000000000E+00 -0.00000000000E+00 -0.24891257069E+02  0.24891257069E+02  0.00000000000E+00 0.  1.
         25    2    1    2    0    0  0.43379258819E+02 -0.28089413855E+02  0.38462419319E+03  0.40774284058E+03  0.12509068228E+03 0.  0.
          5    1    3    3  502    0  0.28051582817E+02  0.25622489688E+01  0.36856969193E+03  0.36966815744E+03  0.41800000000E+01 0. -1.
         -5    1    3    3    0  502  0.15327676002E+02 -0.30651662824E+02  0.16054501258E+02  0.38074683139E+02  0.41800000000E+01 0. -1.
        -11    1    1    2    0    0 -0.25850010025E+02 -0.18025535374E+02  0.14781025668E+02  0.34808356232E+02  0.00000000000E+00 0.  1.
         11    1    1    2    0    0 -0.17529248794E+02  0.46114949229E+02  0.18005021210E+03  0.18668674828E+03  0.00000000000E+00 0. -1.
</event>
<event>
 7    1  0.2733606E-009  0.7805925E+02  0.7561462E-02  0.1334651E+00
          2   -1    0    0  501    0  0.00000000000E+00  0.00000000000E+00  0.21529748646E+03  0.21529748646E+03  0.00000000000E+00 0. -1.
         -2   -1    0    0    0  501 -0.00000000000E+00 -0.00000000000E+00 -0.70313955076E+02  0.70313955076E+02  0.00000000000E+00 0.  1.
         25    2    1    2    0    0  0.37494299526E+02 -0.15042419753E+02  0.13616570741E+03  0.18926429139E+03  0.12509106775E+03 0.  0.
          5    1    3    3  502    0  0.68341315115E+02 -0.21272614370E+00  0.25027593870E+02  0.72900160898E+02  0.41800000000E+01 0. -1.
         -5    1    3    3    0  502 -0.30847015588E+02 -0.14829693610E+02  0.11113811354E+03  0.11636413049E+03  0.41800000000E+01 0. -1.
        -11    1    1    2    0    0 -0.38597178723E+02  0.51658953742E+00 -0.33800582966E+02  0.51307781856E+02  0.00000000000E+00 0.  1.
         11    1    1    2    0    0  0.11028791967E+01  0.14525830216E+02  0.42618406932E+02  0.45039368284E+02  0.00000000000E+00 0. -1.
</event>
<event>
 7    1  0.2733606E-009  0.1500543E+03  0.7561462E-02  0.1200406E+00
         -1   -1    0    0    0  501 -0.00000000000E+00  0.00000000000E+00  0.47597221938E+03  0.47597221938E+03  0.00000000000E+00 0.  1.
          1   -1    0    0  501    0  0.00000000000E+00 -0.00000000000E+00 -0.49481487255E+02  0.49481487255E+02  0.00000000000E+00 0. -1.
         25    2    1    2    0    0 -0.89266175451E+02  0.47290474174E+02  0.23464415878E+03  0.28444482041E+03  0.12508451376E+03 0.  0.
          5    1    3    3  502    0 -0.43194371284E+02  0.87776660255E+02  0.16185246969E+03  0.18916709582E+03  0.41800000000E+01 0.  1.
         -5    1    3    3    0  502 -0.46071804167E+02 -0.40486186081E+02  0.72791689088E+02  0.95277724589E+02  0.41800000000E+01 0.  1.
        -11    1    1    2    0    0 -0.15714505026E+02  0.12340345825E+02  0.90385276679E+01  0.21929997394E+02  0.00000000000E+00 0. -1.
         11    1    1    2    0    0  0.10498068048E+03 -0.59630819999E+02  0.18280804568E+03  0.21907888883E+03  0.00000000000E+00 0.  1.
</event>
<event>
 7    1  0.2733606E-009  0.1397150E+03  0.7561462E-02  0.1213713E+00
         -4   -1    0    0    0  501 -0.00000000000E+00  0.00000000000E+00  0.18062119585E+02  0.18062119585E+02  0.00000000000E+00 0. -1.
          4   -1    0    0  501    0  0.00000000000E+00 -0.00000000000E+00 -0.12292683812E+04  0.12292683812E+04  0.00000000000E+00 0.  1.
         25    2    1    2    0    0  0.96131059714E+02 -0.73151566797E+01 -0.52010663349E+03  0.54355779662E+03  0.12509786531E+03 0.  0.
          5    1    3    3  502    0  0.35712141828E+01 -0.45910959401E+02 -0.27225889404E+03  0.27615746875E+03  0.41800000000E+01 0.  1.
         -5    1    3    3    0  502  0.92559845531E+02  0.38595802721E+02 -0.24784773945E+03  0.26740032786E+03  0.41800000000E+01 0.  1.
        -11    1    1    2    0    0 -0.61603449329E+01  0.37436986560E+02 -0.21212405768E+03  0.21549035630E+03  0.00000000000E+00 0.  1.
         11    1    1    2    0    0 -0.89970714781E+02 -0.30121829880E+02 -0.47897557047E+03  0.48828234789E+03  0.00000000000E+00 0. -1.
</event>
<event>
 7    1  0.2733606E-009  0.1049549E+03  0.7561462E-02  0.1270209E+00
          1   -1    0    0  501    0  0.00000000000E+00  0.00000000000E+00  0.63460678668E+03  0.63460678668E+03  0.00000000000E+00 0. -1.
         -1   -1    0    0    0  501 -0.00000000000E+00 -0.00000000000E+00 -0.18754347491E+02  0.18754347491E+02  0.00000000000E+00 0.  1.
         25    2    1    2    0    0 -0.10878953537E+02 -0.18535958466E+02  0.36907746245E+03  0.39029202897E+03  0.12509101168E+03 0.  0.
          5    1    3    3  502    0  0.50955295951E+02 -0.35048242155E+02  0.15955334643E+03  0.17117115475E+03  0.41800000000E+01 0. -1.
         -5    1    3    3    0  502 -0.61834249488E+02  0.16512283689E+02  0.20952411602E+03  0.21912087422E+03  0.41800000000E+01 0. -1.
        -11    1    1    2    0    0 -0.17979351767E+02 -0.25461059557E+02  0.46372192526E+02  0.55873991118E+02  0.00000000000E+00 0.  1.
         11    1    1    2    0    0  0.28858305304E+02  0.43997018023E+02  0.20040278421E+03  0.20719511408E+03  0.00000000000E+00 0. -1.
</event>
<event>
 7    1  0.2733606E-009  0.1229711E+03  0.7561462E-02  0.1238275E+00
         -2   -1    0    0    0  501 -0.00000000000E+00  0.00000000000E+00  0.16624959879E+03  0.16624959879E+03  0.00000000000E+00 0. -1.
          2   -1    0    0  501    0  0.00000000000E+00 -0.00000000000E+00 -0.94904466564E+02  0.94904466564E+02  0.00000000000E+00 0.  1.
         25    2    1    2    0    0  0.34744560913E+02 -0.47358905411E+02  0.16572025148E+02  0.13918518911E+03  0.12509130431E+03 0.  0.
          5    1    3    3  502    0  0.71985626902E+00  0.41503330966E+02 -0.34373140540E+01  0.41860867194E+02  0.41800000000E+01 0.  1.
         -5    1    3    3    0  502  0.34024704644E+02 -0.88862236377E+02  0.20009339202E+02  0.97324321911E+02  0.41800000000E+01 0.  1.
        -11    1    1    2    0    0  0.27361623234E+02 -0.49157666100E+01  0.13733810639E+02  0.31007107928E+02  0.00000000000E+00 0. -1.
         11    1    1    2    0    0 -0.62106184147E+02  0.52274672021E+02  0.41039296441E+02  0.90961768323E+02  0.00000000000E+00 0.  1.
</event>
<event>
 7    1  0.2733606E-009  0.1139050E+03  0.7561462E-02  0.1253505E+00
         -2   -1    0    0    0  501 -0.00000000000E+00  0.00000000000E+00  0.37518397459E+03  0.37518397459E+03  0.00000000000E+00 0.  1.
          2   -1    0    0  501    0  0.00000000000E+00 -0.00000000000E+00 -0.41649023691E+02  0.41649023691E+02  0.00000000000E+00 0. -1.
         25    2    1    2    0    0 -0.51900105549E+02  0.37430767343E+02  0.19266588869E+03  0.23845704281E+03  0.12508770243E+03 0.  0.
          5    1    3    3  502    0  0.30286448511E+02  0.48394090577E+02  0.71810080142E+02  0.91833637499E+02  0.41800000000E+01 0. -1.
         -5    1    3    3    0  502 -0.82186554061E+02 -0.10963323234E+02  0.12085580855E+03  0.14662340531E+03  0.41800000000E+01 0. -1.
        -11    1    1    2    0    0  0.25193425328E+01  0.15182757408E+02  0.86942645768E+02  0.88294319537E+02  0.00000000000E+00 0.  1.
         11    1    1    2    0    0  0.49380763016E+02 -0.52613524752E+02  0.53926416443E+02  0.90081635938E+02  0.00000000000E+00 0. -1.
</event>
<event>
 7    1  0.2733606E-009  0.2780493E+03  0.7561462E-02  0.1096759E+00
          3   -1    0    0  501    0  0.00000000000E+00  0.00000000000E+00  0.57244407362E+03  0.57244407362E+03  0.00000000000E+00 0. -1.
         -3   -1    0    0    0  501 -0.00000000000E+00 -0.00000000000E+00 -0.15809285999E+03  0.15809285999E+03  0.00000000000E+00 0.  1.
         25    2    1    2    0    0 -0.24786422267E+03 -0.90233201961E+02  0.32461878828E+03  0.43657909713E+03  0.12508096069E+03 0.  0.
          5    1    3    3  502    0 -0.23206698337E+03 -0.38420668020E+02  0.24045324777E+03  0.33640224325E+03  0.41800000000E+01 0. -1.
         -5    1    3    3    0  502 -0.15797239300E+02 -0.51812533941E+02  0.84165540511E+02  0.10017685388E+03  0.41800000000E+01 0. -1.
        -11    1    1    2    0    0  0.71109137166E+02  0.44664066662E+02  0.71910040746E+02  0.11055515456E+03  0.00000000000E+00 0. -1.
         11    1    1    2    0    0  0.17675508550E+03  0.45569135299E+02  0.17822384600E+02  0.18340268192E+03  0.00000000000E+00 0.  1.
</event>
<event>
 7    1  0.2733606E-009  0.1316692E+03  0.7561462E-02  0.1225000E+00
          1   -1    0    0  501    0  0.00000000000E+00  0.00000000000E+00  0.27046931736E+02  0.27046931736E+02  0.00000000000E+00 0.  1.
         -1   -1    0    0    0  501 -0.00000000000E+00 -0.00000000000E+00 -0.85889832231E+03  0.85889832231E+03  0.00000000000E+00 0. -1.
         25    2    1    2    0    0  0.92122211302E+02  0.54045051009E+02 -0.49245881607E+03  0.51920421881E+03  0.12509982394E+03 0.  0.
          5    1    3    3  502    0  0.67936561800E+02 -0.22877097366E+02 -0.13686012689E+03  0.15455388946E+03  0.41800000000E+01 0. -1.
         -5    1    3    3    0  502  0.24185649502E+02  0.76922148375E+02 -0.35559868918E+03  0.36465032936E+03  0.41800000000E+01 0. -1.
        -11    1    1    2    0    0 -0.58599910020E+02 -0.17410701815E+02 -0.29118461351E+03  0.29753245393E+03  0.00000000000E+00 0. -1.
         11    1    1    2    0    0 -0.33522301282E+02 -0.36634349194E+02 -0.48207960988E+02  0.69208581309E+02  0.00000000000E+00 0.  1.
</event>
<event>
 7    1  0.2733606E-009  0.1119279E+03  0.7561462E-02  0.1257041E+00
          2   -1    0    0  501    0  0.00000000000E+00  0.00000000000E+00  0.21448494628E+03  0.21448494628E+03  0.00000000000E+00 0. -1.
         -2   -1    0    0    0  501 -0.00000000000E+00 -0.00000000000E+00 -0.71253066133E+02  0.71253066133E+02  0.00000000000E+00 0.  1.
         25    2    1    2    0    0 -0.90506296876E+01  0.59750218573E+02  0.94473722354E+02  0.16801557161E+03  0.12510773585E+03 0.  0.
          5    1    3    3  502    0  0.51424462056E+02  0.54339752560E+02  0.34226382006E+02  0.82378405127E+02  0.41800000000E+01 0. -1.
         -5    1    3    3    0  502 -0.60475091743E+02  0.54104660129E+01  0.60247340348E+02  0.85637166481E+02  0.41800000000E+01 0. -1.
        -11    1    1    2    0    0 -0.26108141004E+02 -0.39916558708E+02  0.59202768977E+02  0.76025880727E+02  0.00000000000E+00 0. -1.
         11    1    1    2    0    0  0.35158770691E+02 -0.19833659864E+02 -0.10444611179E+02  0.41696560084E+02  0.00000000000E+00 0.  1.
</event>
<event>
 7    1  0.2733606E-009  0.1248350E+03  0.7561462E-02  0.1235327E+00
         -1   -1    0    0    0  501 -0.00000000000E+00  0.00000000000E+00  0.39519298961E+02  0.39519298961E+02  0.00000000000E+00 0.  1.
          1   -1    0    0  501    0  0.00000000000E+00 -0.00000000000E+00 -0.53260061897E+03  0.53260061897E+03  0.00000000000E+00 0. -1.
         25    2    1    2    0    0 -0.66675522603E+02  0.67051392718E+02 -0.23614546330E+03  0.28346753708E+03  0.12509056783E+03 0.  0.
          5    1    3    3  502    0 -0.46067804241E+02 -0.20172896112E+02 -0.30161804327E+02  0.58791114681E+02  0.41800000000E+01 0. -1.
         -5    1    3    3    0  502 -0.20607718361E+02  0.87224288830E+02 -0.20598365897E+03  0.22467642240E+03  0.41800000000E+01 0. -1.
        -11    1    1    2    0    0  0.56050614307E+02 -0.76789491934E+02 -0.25723059540E+03  0.27423689877E+03  0.00000000000E+00 0. -1.
         11    1    1    2    0    0  0.10624908295E+02  0.97380992158E+01  0.29473869685E+00  0.14415482077E+02  0.00000000000E+00 0.  1.
</event>
<event>
 7    1  0.2733606E-009  0.1097741E+03  0.7561462E-02  0.1260989E+00
          3   -1    0    0  501    0  0.00000000000E+00  0.00000000000E+00  0.14987734338E+03  0.14987734338E+03  0.00000000000E+00 0. -1.
         -3   -1    0    0    0  501 -0.00000000000E+00 -0.00000000000E+00 -0.14709616525E+03  0.14709616525E+03  0.00000000000E+00 0.  1.
         25    2    1    2    0    0 -0.53496863320E+02  0.65059586668E+02  0.57318126387E+02  0.16132845559E+03  0.12508732456E+03 0.  0.
          5    1    3    3  502    0 -0.25563720894E+01 -0.17173379620E+02 -0.27378876236E+02  0.32688457745E+02  0.41800000000E+01 0. -1.
         -5    1    3    3    0  502 -0.50940491231E+02  0.82232966287E+02  0.84697002623E+02  0.12863999784E+03  0.41800000000E+01 0. -1.
        -11    1    1    2    0    0  0.46543140259E+02 -0.77622900059E+02 -0.70092547876E+02  0.11447507933E+03  0.00000000000E+00 0.  1.
         11    1    1    2    0    0  0.69537230610E+01  0.12563313392E+02  0.15555599620E+02  0.21169973721E+02  0.00000000000E+00 0. -1.
</event>
<event>
 7    1  0.2733606E-009  0.1080057E+03  0.7561462E-02  0.1264308E+00
         -1   -1    0    0    0  501 -0.00000000000E+00  0.00000000000E+00  0.92014412029E+03  0.92014412029E+03  0.00000000000E+00 0.  1.
          1   -1    0    0  501    0  0.00000000000E+00 -0.00000000000E+00 -0.14517170805E+02  0.14517170805E+02  0.00000000000E+00 0. -1.
         25    2    1    2    0    0 -0.71402945153E+02  0.21361338068E+02  0.60034755702E+03  0.61775361000E+03  0.12509055163E+03 0.  0.
          5    1    3    3  502    0 -0.94659266204E+02 -0.58341496573E+01  0.53287876936E+03  0.54126857401E+03  0.41800000000E+01 0. -1.
         -5    1    3    3    0  502  0.23256321052E+02  0.27195487725E+02  0.67468787662E+02  0.76485035987E+02  0.41800000000E+01 0. -1.
        -11    1    1    2    0    0  0.35916411675E+02  0.10439747253E+02  0.13593657664E+03  0.14098840314E+03  0.00000000000E+00 0.  1.
         11    1    1    2    0    0  0.35486533477E+02 -0.31801085321E+02  0.16934281582E+03  0.17591927795E+03  0.00000000000E+00 0. -1.
</event>
<event>
 7    1  0.2733606E-009  0.1009519E+03  0.7561462E-02  0.1278307E+00
         -2   -1    0    0    0  501 -0.00000000000E+00  0.00000000000E+00  0.54789643478E+02  0.54789643478E+02  0.00000000000E+00 0.  1.
          2   -1    0    0  501    0  0.00000000000E+00 -0.00000000000E+00 -0.27253072695E+03  0.27253072695E+03  0.00000000000E+00 0. -1.
         25    2    1    2    0    0 -0.27248375970E+02 -0.14711197021E+02 -0.18601986036E+03  0.22629342843E+03  0.12508570659E+03 0.  0.
          5    1    3    3  502    0  0.38397644833E+02  0.28039460960E+02 -0.48994971884E+02  0.68400074339E+02  0.41800000000E+01 0. -1.
         -5    1    3    3    0  502 -0.65646020803E+02 -0.42750657980E+02 -0.13702488848E+03  0.15789335410E+03  0.41800000000E+01 0. -1.
        -11    1    1    2    0    0 -0.23507196555E+02  0.38701194084E+01  0.17451262875E+02  0.29531554142E+02  0.00000000000E+00 0.  1.
         11    1    1    2    0    0  0.50755572525E+02  0.10841077612E+02 -0.49172485984E+02  0.71495387852E+02  0.00000000000E+00 0. -1.
</event>
<event>
 7    1  0.2733606E-009  0.6480724E+02  0.7561462E-02  0.1378698E+00
         -2   -1    0    0    0  501 -0.00000000000E+00  0.00000000000E+00  0.12814123126E+03  0.12814123126E+03  0.00000000000E+00 0. -1.
          2   -1    0    0  501    0  0.00000000000E+00 -0.00000000000E+00 -0.10447651404E+03  0.10447651404E+03  0.00000000000E+00 0.  1.
         25    2    1    2    0    0 -0.15091775548E+02 -0.38690325722E+02  0.20045626455E+02  0.13331525020E+03  0.12508567385E+03 0.  0.
          5    1    3    3  502    0  0.14106322866E+02  0.14792262958E+02  0.57841867354E+02  0.61489457692E+02  0.41800000000E+01 0. -1.
         -5    1    3    3    0  502 -0.29198098414E+02 -0.53482588680E+02 -0.37796240899E+02  0.71825792505E+02  0.41800000000E+01 0. -1.
        -11    1    1    2    0    0 -0.51383144340E+01  0.18074526143E+02 -0.41599339711E+02  0.45646421929E+02  0.00000000000E+00 0.  1.
         11    1    1    2    0    0  0.20230089982E+02  0.20615799579E+02  0.45218430481E+02  0.53656073171E+02  0.00000000000E+00 0. -1.
</event>
<event>
 7    1  0.2733606E-009  0.7442573E+02  0.7561462E-02  0.1345659E+00
          1   -1    0    0  501    0  0.00000000000E+00  0.00000000000E+00  0.24190454288E+02  0.24190454288E+02  0.00000000000E+00 0. -1.
         -1   -1    0    0    0  501 -0.00000000000E+00 -0.00000000000E+00 -0.55760438910E+03  0.55760438910E+03  0.00000000000E+00 0.  1.
         25    2    1    2    0    0 -0.40298663373E+02  0.56745008739E+01 -0.28216303117E+03  0.31131898269E+03  0.12508937044E+03 0.  0.
          5    1    3    3  502    0 -0.33236261526E+02  0.14663922145E+02 -0.87033893787E+01  0.37588576451E+02  0.41800000000E+01 0.  1.
         -5    1    3    3    0  502 -0.70624018463E+01 -0.89894212715E+01 -0.27345964179E+03  0.27373040624E+03  0.41800000000E+01 0.  1.
        -11    1    1    2    0    0  0.16413414636E+02  0.42927443854E+02 -0.11161350088E+03  0.12070517468E+03  0.00000000000E+00 0.  1.
         11    1    1    2    0    0  0.23885248737E+02 -0.48601944728E+02 -0.13963740277E+03  0.14977068602E+03  0.00000000000E+00 0. -1.
</event>
<event>
 7    1  0.2733606E-009  0.1295941E+03  0.7561462E-02  0.1228059E+00
          2   -1    0    0  501    0  0.00000000000E+00  0.00000000000E+00  0.41429909088E+03  0.41429909088E+03  0.00000000000E+00 0. -1.
         -2   -1    0    0    0  501 -0.00000000000E+00 -0.00000000000E+00 -0.88019855523E+02  0.88019855523E+02  0.00000000000E+00 0.  1.
         25    2    1    2    0    0 -0.50286967651E+02 -0.66114723680E+02  0.34664054219E+03  0.37776755379E+03  0.12509485762E+03 0.  0.
          5    1    3    3  502    0 -0.14263399447E+02 -0.91080405610E+02  0.29890965745E+03  0.31283148909E+03  0.41800000000E+01 0.  1.
         -5    1    3    3    0  502 -0.36023568204E+02  0.24965681930E+02  0.47730884740E+02  0.64936064698E+02  0.41800000000E+01 0.  1.
        -11    1    1    2    0    0  0.53489927594E+01 -0.22709201756E+02 -0.40239369887E+01  0.23675126965E+02  0.00000000000E+00 0.  1.
         11    1    1    2    0    0  0.44937974891E+02  0.88823925436E+02 -0.16337369847E+02  0.10087626565E+03  0.00000000000E+00 0. -1.
</event>
<event>
 7    1  0.2733606E-009  0.9698250E+02  0.7561462E-02  0.1286772E+00
          2   -1    0    0  501    0  0.00000000000E+00  0.00000000000E+00  0.18098021124E+03  0.18098021124E+03  0.00000000000E+00 0. -1.
         -2   -1    0    0    0  501 -0.00000000000E+00 -0.00000000000E+00 -0.75181842057E+02  0.75181842057E+02  0.00000000000E+00 0.  1.
         25    2    1    2    0    0 -0.24492923069E+02  0.58266418431E+01  0.10146683300E+03  0.16302539251E+03  0.12509159592E+03 0.  0.
          5    1    3    3  502    0  0.36661137469E+02 -0.35986060095E+02  0.55498723449E+02  0.75740453036E+02  0.41800000000E+01 0. -1.
         -5    1    3    3    0  502 -0.61154060538E+02  0.41812701938E+02  0.45968109548E+02  0.87284939475E+02  0.41800000000E+01 0. -1.
        -11    1    1    2    0    0  0.11037979448E+02 -0.34676471552E+02 -0.29380044618E+02  0.46770521607E+02  0.00000000000E+00 0.  1.
         11    1    1    2    0    0  0.13454943621E+02  0.28849829709E+02  0.33711580808E+02  0.46366139182E+02  0.00000000000E+00 0. -1.
</event>
<event>
 7    1  0.2733606E-009  0.6308157E+02  0.7561462E-02  0.1385337E+00
         -2   -1    0    0    0  501 -0.00000000000E+00  0.00000000000E+00  0.76475635087E+02  0.76475635087E+02  0.00000000000E+00 0.  1.
          2   -1    0    0  501    0  0.00000000000E+00 -0.00000000000E+00 -0.22250864139E+03  0.22250864139E+03  0.00000000000E+00 0. -1.
         25    2    1    2    0    0 -0.46170413707E+01 -0.40976610171E+02 -0.14735717806E+03  0.19763632305E+03  0.12508228736E+03 0.  0.
          5    1    3    3  502    0  0.79952891285E+01 -0.36598957432E+02  0.10524357109E+02  0.39136208629E+02  0.41800000000E+01 0. -1.
         -5    1    3    3    0  502 -0.12612330499E+02 -0.43776527398E+01 -0.15788153517E+03  0.15850011442E+03  0.41800000000E+01 0. -1.
        -11    1    1    2    0    0  0.23828492968E+02  0.48348671105E+02  0.33274280393E+02  0.63344840440E+02  0.00000000000E+00 0.  1.
         11    1    1    2    0    0 -0.19211451598E+02 -0.73720609331E+01 -0.31950108637E+02  0.38003112988E+02  0.00000000000E+00 0. -1.
</event>
<event>
 7    1  0.2733606E-009  0.1126390E+03  0.7561462E-02  0.1255759E+00
          2   -1    0    0  501    0  0.00000000000E+00  0.00000000000E+00  0.10250841720E+03  0.10250841720E+03  0.00000000000E+00 0.  1.
         -2   -1    0    0    0  501 -0.00000000000E+00 -0.00000000000E+00 -0.16038151826E+03  0.16038151826E+03  0.00000000000E+00 0. -1.
         25    2    1    2    0    0 -0.46597277958E+02  0.49752523978E+02 -0.39813620278E+02  0.14791228403E+03  0.12508516879E+03 0.  0.
          5    1    3    3  502    0 -0.76315618983E+02  0.37437157480E+02 -0.64798039656E+02  0.10696669016E+03  0.41800000000E+01 0.  1.
         -5    1    3    3    0  502  0.29718341025E+02  0.12315366498E+02  0.24984419378E+02  0.40945593864E+02  0.41800000000E+01 0.  1.
        -11    1    1    2    0    0  0.70238662543E+02 -0.45563041494E+02 -0.28986448404E+02  0.88598389698E+02  0.00000000000E+00 0.  1.
         11    1    1    2    0    0 -0.23641384585E+02 -0.41894824844E+01  0.10926967615E+02  0.26379261738E+02  0.00000000000E+00 0. -1.
</event>
<event>
 7    1  0.2733606E-009  0.3211029E+03  0.7561462E-02  0.1075143E+00
         -2   -1    0    0    0  501 -0.00000000000E+00  0.00000000000E+00  0.27150103009E+03  0.27150103009E+03  0.00000000000E+00 0.  1.
          2   -1    0    0  501    0  0.00000000000E+00 -0.00000000000E+00 -0.46102976036E+03  0.46102976036E+03  0.00000000000E+00 0. -1.
         25    2    1    2    0    0 -0.24400487642E+01  0.30925224093E+03  0.44034538705E+02  0.33649628989E+03  0.12509120733E+03 0.  0.
          5    1    3    3  502    0  0.24058568714E+02  0.11807750118E+02  0.25566490447E+02  0.37274059682E+02  0.41800000000E+01 0.  1.
         -5    1    3    3    0  502 -0.26498617478E+02  0.29744449082E+03  0.18468048258E+02  0.29922223021E+03  0.41800000000E+01 0.  1.
        -11    1    1    2    0    0  0.32274364285E+02 -0.21923083941E+03 -0.18901286628E+03  0.29125531610E+03  0.00000000000E+00 0.  1.
         11    1    1    2    0    0 -0.29834315520E+02 -0.90021401519E+02 -0.44550402707E+02  0.10477918446E+03  0.00000000000E+00 0. -1.
</event>
<event>
 7    1  0.2733606E-009  0.1388793E+03  0.7561462E-02  0.1214845E+00
          1   -1    0    0  501    0  0.00000000000E+00  0.00000000000E+00  0.94256137780E+02  0.94256137780E+02  0.00000000000E+00 0. -1.
         -1   -1    0    0    0  501 -0.00000000000E+00 -0.00000000000E+00 -0.33773508572E+03  0.33773508572E+03  0.00000000000E+00 0.  1.
         25    2    1    2    0    0  0.12017640826E+03  0.52961122763E+02 -0.10563599307E+03  0.20988518956E+03  0.12508229347E+03 0.  0.
          5    1    3    3  502    0  0.87803737468E+02  0.55631867390E+01 -0.12161269327E+03  0.15015846604E+03  0.41800000000E+01 0. -1.
         -5    1    3    3    0  502  0.32372670794E+02  0.47397936024E+02  0.15976700195E+02  0.59726723523E+02  0.41800000000E+01 0. -1.
        -11    1    1    2    0    0 -0.64070301956E+02 -0.36119033828E+02 -0.14549514056E+03  0.16302890579E+03  0.00000000000E+00 0.  1.
         11    1    1    2    0    0 -0.56106106306E+02 -0.16842088935E+02  0.76521856863E+01  0.59077128149E+02  0.00000000000E+00 0. -1.
</event>
<event>
 7    1  0.2733606E-009  0.1242057E+03  0.7561462E-02  0.1236316E+00
          1   -1    0    0  501    0  0.00000000000E+00  0.00000000000E+00  0.15602256034E+03  0.15602256034E+03  0.00000000000E+00 0.  1.
         -1   -1    0    0    0  501 -0.00000000000E+00 -0.00000000000E+00 -0.13553894666E+03  0.13553894666E+03  0.00000000000E+00 0. -1.
         25    2    1    2    0    0 -0.88011136937E+02  0.36632133721E+02  0.17533201861E+02  0.15824157634E+03  0.12508041361E+03 0.  0.
          5    1    3    3  502    0 -0.52243410799E+02 -0.25857847926E+02  0.52071613910E+02  0.78274693526E+02  0.41800000000E+01 0. -1.
         -5    1    3    3    0  502 -0.35767726137E+02  0.62489981647E+02 -0.34538412050E+02  0.79966882809E+02  0.41800000000E+01 0. -1.
        -11    1    1    2    0    0  0.83747585179E+02 -0.28503714697E+01 -0.26931409750E+02  0.88017517984E+02  0.00000000000E+00 0. -1.
         11    1    1    2    0    0  0.42635517578E+01 -0.33781762252E+02  0.29881821565E+02  0.45302412678E+02  0.00000000000E+00 0.  1.
</event>
<event>
 7    1  0.2733606E-009  0.1022003E+03  0.7561462E-02  0.1275736E+00
          2   -1    0    0  501    0  0.00000000000E+00  0.00000000000E+00  0.23808823714E+03  0.23808823714E+03  0.00000000000E+00 0. -1.
         -2   -1    0    0    0  501 -0.00000000000E+00 -0.00000000000E+00 -0.82427001850E+02  0.82427001850E+02  0.00000000000E+00 0.  1.
         25    2    1    2    0    0 -0.38271174349E+02 -0.62238407747E+02  0.14228637533E+03  0.20305044165E+03  0.12508304068E+03 0.  0.
          5    1    3    3  502    0  0.16219461413E+02 -0.90285058102E+01 -0.17588834370E+02  0.25911857135E+02  0.41800000000E+01 0. -1.
         -5    1    3    3    0  502 -0.54490635762E+02 -0.53209901937E+02  0.15987520970E+03  0.17713858452E+03  0.41800000000E+01 0. -1.
        -11    1    1    2    0    0  0.63893481613E+02  0.42234041945E+02  0.28357519666E+02  0.81671538576E+02  0.00000000000E+00 0. -1.
         11    1    1    2    0    0 -0.25622307264E+02  0.20004365802E+02 -0.14982659706E+02  0.35793258758E+02  0.00000000000E+00 0.  1.
</event>
<event>
 7    1  0.2733606E-009  0.1733339E+03  0.7561462E-02  0.1174415E+00
         -2   -1    0    0    0  501 -0.00000000000E+00  0.00000000000E+00  0.72547673103E+03  0.72547673103E+03  0.00000000000E+00 0.  1.
          2   -1    0    0  501    0  0.00000000000E+00 -0.00000000000E+00 -0.45885516521E+02  0.45885516521E+02  0.00000000000E+00 0. -1.
         25    2    1    2    0    0  0.10532495198E+03  0.10050346683E+03  0.37579426420E+03  0.42197288311E+03  0.12508194402E+03 0.  0.
          5    1    3    3  502    0 -0.16435087700E+02  0.56412096222E+02  0.82861704578E+02  0.10166597854E+03  0.41800000000E+01 0. -1.
         -5    1    3    3    0  502  0.12176003968E+03  0.44091370612E+02  0.29293255963E+03  0.32030690457E+03  0.41800000000E+01 0. -1.
        -11    1    1    2    0    0 -0.41286825011E+02 -0.81562095102E+02  0.10269395667E+03  0.13748827591E+03  0.00000000000E+00 0. -1.
         11    1    1    2    0    0 -0.64038126971E+02 -0.18941371731E+02  0.20110299364E+03  0.21190108853E+03  0.00000000000E+00 0.  1.
</event>
<event>
 7    1  0.2733606E-009  0.2095412E+03  0.7561462E-02  0.1141930E+00
          2   -1    0    0  501    0  0.00000000000E+00  0.00000000000E+00  0.52607335202E+03  0.52607335202E+03  0.00000000000E+00 0.  1.
         -2   -1    0    0    0  501 -0.00000000000E+00 -0.00000000000E+00 -0.11468341453E+03  0.11468341453E+03  0.00000000000E+00 0. -1.
         25    2    1    2    0    0  0.16698388812E+03  0.83757013964E+02  0.59480027578E+02  0.23256120797E+03  0.12509190819E+03 0.  0.
          5    1    3    3  502    0  0.24262055267E+02  0.78146466891E+02  0.21530701998E+02  0.84714586358E+02  0.41800000000E+01 0. -1.
         -5    1    3    3    0  502  0.14272183285E+03  0.56105470737E+01  0.37949325580E+02  0.14784662162E+03  0.41800000000E+01 0. -1.
        -11    1    1    2    0    0 -0.15176948966E+03 -0.91465832889E+02  0.25953004025E+03  0.31425438481E+03  0.00000000000E+00 0. -1.
         11    1    1    2    0    0 -0.15214398456E+02  0.77088189244E+01  0.92379869658E+02  0.93941173762E+02  0.00000000000E+00 0.  1.
</event>
<event>
 7    1  0.2733606E-009  0.1832907E+03  0.7561462E-02  0.1164656E+00
         -1   -1    0    0    0  501 -0.00000000000E+00  0.00000000000E+00  0.29902935476E+02  0.29902935476E+02  0.00000000000E+00 0.  1.
          1   -1    0    0  501    0  0.00000000000E+00 -0.00000000000E+00 -0.14149778785E+04  0.14149778785E+04  0.00000000000E+00 0. -1.
         25    2    1    2    0    0  0.74828549930E+02 -0.15470621390E+03 -0.61635885271E+03  0.65198028400E+03  0.12508689345E+03 0.  0.
          5    1    3    3  502    0  0.40779566728E+02 -0.94971600308E+02 -0.53710231909E+03  0.54697253268E+03  0.41800000000E+01 0.  1.
         -5    1    3    3    0  502  0.34048983202E+02 -0.59734613590E+02 -0.79256533613E+02  0.10500775132E+03  0.41800000000E+01 0.  1.
        -11    1    1    2    0    0  0.14722355973E+02  0.68113174033E+02 -0.26489870565E+03  0.27391143915E+03  0.00000000000E+00 0. -1.
         11    1    1    2    0    0 -0.89550905904E+02  0.86593039865E+02 -0.50381738465E+03  0.51898909081E+03  0.00000000000E+00 0.  1.
</event>
<event>
 7    1  0.2733606E-009  0.1350797E+03  0.7561462E-02  0.1220107E+00
         -2   -1    0    0    0  501 -0.00000000000E+00  0.00000000000E+00  0.69494855343E+02  0.69494855343E+02  0.00000000000E+00 0.  1.
          2   -1    0    0  501    0  0.00000000000E+00 -0.00000000000E+00 -0.34260309156E+03  0.34260309156E+03  0.00000000000E+00 0. -1.
         25    2    1    2    0    0  0.69159305684E+02  0.75959018499E+02 -0.19979230962E+03  0.25713524534E+03  0.12509510525E+03 0.  0.
          5    1    3    3  502    0 -0.21902096681E+02  0.12004779391E+02 -0.11341217627E+03  0.11620503730E+03  0.41800000000E+01 0. -1.
         -5    1    3    3    0  502  0.91061402364E+02  0.63954239108E+02 -0.86380133352E+02  0.14093020804E+03  0.41800000000E+01 0. -1.
        -11    1    1    2    0    0  0.54229731462E+01  0.14944143256E+02  0.88840313113E+00  0.15922478310E+02  0.00000000000E+00 0.  1.
         11    1    1    2    0    0 -0.74582278830E+02 -0.90903161755E+02 -0.74204329727E+02  0.13904022326E+03  0.00000000000E+00 0. -1.
</event>
<event>
 7    1  0.2733606E-009  0.1080689E+03  0.7561462E-02  0.1264188E+00
          1   -1    0    0  501    0  0.00000000000E+00  0.00000000000E+00  0.35908442374E+03  0.35908442374E+03  0.00000000000E+00 0. -1.
         -1   -1    0    0    0  501 -0.00000000000E+00 -0.00000000000E+00 -0.54196953312E+02  0.54196953312E+02  0.00000000000E+00 0.  1.
         25    2    1    2    0    0 -0.87758100906E+02  0.49580750856E+01  0.17012025627E+03  0.22872281053E+03  0.12508859132E+03 0.  0.
          5    1    3    3  502    0 -0.45386521302E+02 -0.17627012840E+02 -0.30569646652E+01  0.48963918660E+02  0.41800000000E+01 0. -1.
         -5    1    3    3    0  502 -0.42371579604E+02  0.22585087926E+02  0.17317722094E+03  0.17975889187E+03  0.41800000000E+01 0. -1.
        -11    1    1    2    0    0  0.84495410321E+02 -0.33096383661E+02  0.72501124870E+02  0.11615187508E+03  0.00000000000E+00 0.  1.
         11    1    1    2    0    0  0.32626905850E+01  0.28138308575E+02  0.62266089281E+02  0.68406691440E+02  0.00000000000E+00 0. -1.
</event>
<event>
 7    1  0.2733606E-009  0.7059653E+02  0.7561462E-02  0.1358076E+00
          2   -1    0    0  501    0  0.00000000000E+00  0.00000000000E+00  0.21540029125E+02  0.21540029125E+02  0.00000000000E+00 0.  1.
         -2   -1    0    0    0  501 -0.00000000000E+00 -0.00000000000E+00 -0.61530553534E+03  0.61530553534E+03  0.00000000000E+00 0. -1.
         25    2    1    2    0    0  0.11574909723E+02  0.21851051117E+02 -0.43238350687E+03  0.45079362944E+03  0.12509177574E+03 0.  0.
          5    1    3    3  502    0  0.20949360502E+02  0.56532211159E+02 -0.10292470470E+03  0.11935549355E+03  0.41800000000E+01 0. -1.
         -5    1    3    3    0  502 -0.93744507793E+01 -0.34681160042E+02 -0.32945880218E+03  0.33143813589E+03  0.41800000000E+01 0. -1.
        -11    1    1    2    0    0 -0.17602471832E+01 -0.31073531777E+02 -0.16813120894E+03  0.17098762022E+03  0.00000000000E+00 0. -1.
         11    1    1    2    0    0 -0.98146625396E+01  0.92224806608E+01  0.67492096032E+01  0.15064314806E+02  0.00000000000E+00 0.  1.
</event>
<event>
 7    1  0.2733606E-009  0.1121236E+03  0.7561462E-02  0.1256687E+00
         -1   -1    0    0    0  501 -0.00000000000E+00  0.00000000000E+00  0.67116734181E+02  0.67116734181E+02  0.00000000000E+00 0.  1.
          1   -1    0    0  501    0  0.00000000000E+00 -0.00000000000E+00 -0.23046671762E+03  0.23046671762E+03  0.00000000000E+00 0. -1.
         25    2    1    2    0    0 -0.57191992726E+02  0.14517573826E+02 -0.68596836109E+02  0.15438529047E+03  0.12509039934E+03 0.  0.
          5    1    3    3  502    0 -0.63959867051E+02 -0.42083107786E+02 -0.58264434465E+02  0.96301969231E+02  0.41800000000E+01 0.  1.
         -5    1    3    3    0  502  0.67678743258E+01  0.56600681613E+02 -0.10332401645E+02  0.58083321235E+02  0.41800000000E+01 0.  1.
        -11    1    1    2    0    0  0.35067434766E+02 -0.42269291002E+02 -0.16619548544E+02  0.57381419786E+02  0.00000000000E+00 0.  1.
         11    1    1    2    0    0  0.22124557960E+02  0.27751717176E+02 -0.78133598790E+02  0.85816741554E+02  0.00000000000E+00 0. -1.
</event>
<event>
 7    1  0.2733606E-009  0.1651964E+03  0.7561462E-02  0.1182952E+00
         -1   -1    0    0    0  501 -0.00000000000E+00  0.00000000000E+00  0.14319517767E+04  0.14319517767E+04  0.00000000000E+00 0.  1.
          1   -1    0    0  501    0  0.00000000000E+00 -0.00000000000E+00 -0.21920562316E+02  0.21920562316E+02  0.00000000000E+00 0. -1.
         25    2    1    2    0    0 -0.10433787705E+03  0.92767736713E+02  0.74430002196E+03  0.76754279664E+03  0.12508867426E+03 0.  0.
          5    1    3    3  502    0 -0.10952958594E+03  0.49128644405E+02  0.67335490627E+03  0.68398439755E+03  0.41800000000E+01 0.  1.
         -5    1    3    3    0  502  0.51917088876E+01  0.43639092309E+02  0.70945115691E+02  0.83558399094E+02  0.41800000000E+01 0.  1.
        -11    1    1    2    0    0  0.35445485283E+02 -0.90509262732E+02  0.35693333565E+03  0.36993204128E+03  0.00000000000E+00 0. -1.
         11    1    1    2    0    0  0.68892391767E+02 -0.22584739807E+01  0.30879785679E+03  0.31639750110E+03  0.00000000000E+00 0.  1.
</event>
<event>
 7    1  0.2733606E-009  0.1582667E+03  0.7561462E-02  0.1190668E+00
         -2   -1    0    0    0  501 -0.00000000000E+00  0.00000000000E+00  0.78763350198E+03  0.78763350198E+03  0.00000000000E+00 0.  1.
          2   -1    0    0  501    0  0.00000000000E+00 -0.00000000000E+00 -0.38231633924E+02  0.38231633924E+02  0.00000000000E+00 0. -1.
         25    2    1    2    0    0 -0.60141658424E+02  0.10870034166E+03  0.27122248992E+03  0.32348405410E+03  0.12509001105E+03 0.  0.
          5    1    3    3  502    0 -0.51483662732E+02  0.13597577727E+03  0.24213907896E+03  0.28246908767E+03  0.41800000000E+01 0. -1.
         -5    1    3    3    0  502 -0.86579956922E+01 -0.27275435618E+02  0.29083410962E+02  0.41014966423E+02  0.41800000000E+01 0. -1.
        -11    1    1    2    0    0  0.68159998041E+02 -0.54234619805E+02  0.19033541581E+03  0.20931973110E+03  0.00000000000E+00 0. -1.
         11    1    1    2    0    0 -0.80183396175E+01 -0.54465721850E+02  0.28784396233E+03  0.29306135070E+03  0.00000000000E+00 0.  1.
</event>
<event>
 7    1  0.2733606E-009  0.1123166E+03  0.7561462E-02  0.1256339E+00
          2   -1    0    0  501    0  0.00000000000E+00  0.00000000000E+00  0.35490700023E+03  0.35490700023E+03  0.00000000000E+00 0. -1.
         -2   -1    0    0    0  501 -0.00000000000E+00 -0.00000000000E+00 -0.90741548825E+02  0.90741548825E+02  0.00000000000E+00 0.  1.
         25    2    1    2    0    0  0.57501457771E+02  0.87519196155E+02  0.20390330168E+02  0.16440349180E+03  0.12508683068E+03 0.  0.
          5    1    3    3  502    0  0.44864207656E+02  0.27378211631E+02 -0.48747791346E+02  0.71806567679E+02  0.41800000000E+01 0. -1.
         -5    1    3    3    0  502  0.12637250115E+02  0.60140984524E+02  0.69138121515E+02  0.92596924120E+02  0.41800000000E+01 0. -1.
        -11    1    1    2    0    0 -0.31251861274E+02 -0.74959189897E+02  0.23813662603E+03  0.25160407715E+03  0.00000000000E+00 0. -1.
         11    1    1    2    0    0 -0.26249596497E+02 -0.12560006258E+02  0.56384952116E+01  0.29640980107E+02  0.00000000000E+00 0.  1.
</event>
<event>
 7    1  0.2733606E-009  0.1630905E+03  0.7561462E-02  0.1185251E+00
         -2   -1    0    0    0  501 -0.00000000000E+00  0.00000000000E+00  0.36667841188E+02  0.36667841188E+02  0.00000000000E+00 0.  1.
          2   -1    0    0  501    0  0.00000000000E+00 -0.00000000000E+00 -0.96342341517E+03  0.96342341517E+03  0.00000000000E+00 0. -1.
         25    2    1    2    0    0 -0.37085986994E+02 -0.14642811715E+03 -0.56342963723E+03  0.59659090552E+03  0.12510471019E+03 0.  0.
          5    1    3    3  502    0 -0.52325939412E+02 -0.40722804150E+02 -0.36701359701E+03  0.37297828825E+03  0.41800000000E+01 0.  1.
         -5    1    3    3    0  502  0.15239952418E+02 -0.10570531300E+03 -0.19641604021E+03  0.22361261727E+03  0.41800000000E+01 0.  1.
        -11    1    1    2    0    0 -0.32100925134E+01  0.17280862774E+02 -0.20149959543E+01  0.17691611596E+02  0.00000000000E+00 0.  1.
         11    1    1    2    0    0  0.40296079508E+02  0.12914725438E+03 -0.36131094080E+03  0.38580873924E+03  0.00000000000E+00 0. -1.
</event>
<event>
 7    1  0.2733606E-009  0.1183427E+03  0.7561462E-02  0.1245856E+00
          2   -1    0    0  501    0  0.00000000000E+00  0.00000000000E+00  0.15851431128E+04  0.15851431128E+04  0.00000000000E+00 0. -1.
         -2   -1    0    0    0  501 -0.00000000000E+00 -0.00000000000E+00 -0.25302410159E+02  0.25302410159E+02  0.00000000000E+00 0.  1.
         25    2    1    2    0    0 -0.39961384711E+02  0.10278412925E+03  0.13261725216E+04  0.13366159354E+04  0.12508841774E+03 0.  0.
          5    1    3    3  502    0 -0.19726591946E+02  0.99790578471E+02  0.12956060305E+04  0.12995998448E+04  0.41800000000E+01 0.  1.
         -5    1    3    3    0  502 -0.20234792765E+02  0.29935507814E+01  0.30566491090E+02  0.37016090583E+02  0.41800000000E+01 0.  1.
        -11    1    1    2    0    0 -0.36180744703E+01 -0.21195967334E+02 -0.10653459990E+01  0.21528921389E+02  0.00000000000E+00 0.  1.
         11    1    1    2    0    0  0.43579459181E+02 -0.81588161919E+02  0.23473352705E+03  0.25230066617E+03  0.00000000000E+00 0. -1.
</event>
<event>
 7    1  0.2733606E-009  0.1169905E+03  0.7561462E-02  0.1248146E+00
          1   -1    0    0  501    0  0.00000000000E+00  0.00000000000E+00  0.19558342142E+03  0.19558342142E+03  0.00000000000E+00 0. -1.
         -1   -1    0    0    0  501 -0.00000000000E+00 -0.00000000000E+00 -0.97795535956E+02  0.97795535956E+02  0.00000000000E+00 0.  1.
         25    2    1    2    0    0 -0.47613678357E+02  0.23775920436E+02  0.12732548879E+03  0.18625944406E+03  0.12509373944E+03 0.  0.
          5    1    3    3  502    0  0.36609165290E+02 -0.14731152783E+02  0.19989788500E+02  0.44433117039E+02  0.41800000000E+01 0. -1.
         -5    1    3    3    0  502 -0.84222843647E+02  0.38507073220E+02  0.10733570029E+03  0.14182632702E+03  0.41800000000E+01 0. -1.
        -11    1    1    2    0    0  0.19123908865E+02 -0.55650581113E+02 -0.84435035301E+01  0.59447487923E+02  0.00000000000E+00 0. -1.
         11    1    1    2    0    0  0.28489769492E+02  0.31874660676E+02 -0.21094099794E+02  0.47672025393E+02  0.00000000000E+00 0.  1.
</event>
<event>
 7    1  0.2733606E-009  0.7957530E+02  0.7561462E-02  0.1330261E+00
          1   -1    0    0  501    0  0.00000000000E+00  0.00000000000E+00  0.83340882616E+02  0.83340882616E+02  0.00000000000E+00 0. -1.
         -1   -1    0    0    0  501 -0.00000000000E+00 -0.00000000000E+00 -0.16723350058E+03  0.16723350058E+03  0.00000000000E+00 0.  1.
         25    2    1    2    0    0  0.91696741979E+01  0.47047576622E+02 -0.50530328030E+02  0.14317379031E+03  0.12509141773E+03 0.  0.
          5    1    3    3  502    0  0.49875233586E+02  0.24082324034E+02 -0.72525862636E+02  0.91350809560E+02  0.41800000000E+01 0.  1.
         -5    1    3    3    0  502 -0.40705559388E+02  0.22965252588E+02  0.21995534606E+02  0.51822980753E+02  0.41800000000E+01 0.  1.
        -11    1    1    2    0    0  0.85278863054E+01 -0.33015562286E+02 -0.62102285801E+02  0.70848049371E+02  0.00000000000E+00 0.  1.
         11    1    1    2    0    0 -0.17697560503E+02 -0.14032014337E+02  0.28739995872E+02  0.36552543507E+02  0.00000000000E+00 0. -1.
</event>
<event>
 7    1  0.2733606E-009  0.1614900E+03  0.7561462E-02  0.1187025E+00
          1   -1    0    0  501    0  0.00000000000E+00  0.00000000000E+00  0.52374616144E+02  0.52374616144E+02  0.00000000000E+00 0. -1.
         -1   -1    0    0    0  501 -0.00000000000E+00 -0.00000000000E+00 -0.60685206808E+03  0.60685206808E+03  0.00000000000E+00 0.  1.
         25    2    1    2    0    0  0.11307754053E+03 -0.83594875950E+02 -0.31634252770E+03  0.36809637545E+03  0.12509082033E+03 0.  0.
          5    1    3    3  502    0  0.10527237052E+02  0.23936111048E+02 -0.11357607529E+02  0.28813673505E+02  0.41800000000E+01 0.  1.
         -5    1    3    3    0  502  0.10255030348E+03 -0.10753098700E+03 -0.30498492017E+03  0.33928270195E+03  0.41800000000E+01 0.  1.
        -11    1    1    2    0    0 -0.33713449028E+01  0.21551815694E+02 -0.13004514778E+00  0.21814298932E+02  0.00000000000E+00 0. -1.
         11    1    1    2    0    0 -0.10970619563E+03  0.62043060256E+02 -0.23800487908E+03  0.26931600984E+03  0.00000000000E+00 0.  1.
</event>
<event>
 7    1  0.2733606E-009  0.9025369E+02  0.7561462E-02  0.1302239E+00
         -1   -1    0    0    0  501 -0.00000000000E+00  0.00000000000E+00  0.29144553767E+02  0.29144553767E+02  0.00000000000E+00 0.  1.
          1   -1    0    0  501    0  0.00000000000E+00 -0.00000000000E+00 -0.48251890464E+03  0.48251890464E+03  0.00000000000E+00 0. -1.
         25    2    1    2    0    0 -0.19623969736E+02  0.41804937733E+02 -0.28079662110E+03  0.31085094687E+03  0.12509522670E+03 0.  0.
          5    1    3    3  502    0 -0.15949722140E+00 -0.34197649576E+02 -0.23190978313E+02  0.41530694083E+02  0.41800000000E+01 0.  1.
         -5    1    3    3    0  502 -0.19464472514E+02  0.76002587309E+02 -0.25760564279E+03  0.26932025279E+03  0.41800000000E+01 0.  1.
        -11    1    1    2    0    0  0.87756186855E+01  0.10720397732E+02  0.54451213773E+01  0.14885824051E+02  0.00000000000E+00 0.  1.
         11    1    1    2    0    0  0.10848351050E+02 -0.52525335466E+02 -0.17802285115E+03  0.18592668749E+03  0.00000000000E+00 0. -1.
</event>
<event>
 7    1  0.2733606E-009  0.1115313E+03  0.7561462E-02  0.1257760E+00
          2   -1    0    0  501    0  0.00000000000E+00  0.00000000000E+00  0.42962871795E+02  0.42962871795E+02  0.00000000000E+00 0.  1.
         -2   -1    0    0    0  501 -0.00000000000E+00 -0.00000000000E+00 -0.64000997320E+03  0.64000997320E+03  0.00000000000E+00 0. -1.
         25    2    1    2    0    0  0.53871594385E+02 -0.43834105030E+02 -0.10670352491E+03  0.17848498698E+03  0.12509065075E+03 0.  0.
          5    1    3    3  502    0 -0.23152266490E+01 -0.51183934646E+02  0.65061651482E+01  0.51816580601E+02  0.41800000000E+01 0. -1.
         -5    1    3    3    0  502  0.56186821034E+02  0.73498296156E+01 -0.11320969005E+03  0.12666840638E+03  0.41800000000E+01 0. -1.
        -11    1    1    2    0    0  0.12299284684E+02  0.47007405576E+02 -0.27235110130E+03  0.27665156960E+03  0.00000000000E+00 0.  1.
         11    1    1    2    0    0 -0.66170879069E+02 -0.31733005455E+01 -0.21799247520E+03  0.22783628841E+03  0.00000000000E+00 0. -1.
</event>
<event>
 7    1  0.2733606E-009  0.1756196E+03  0.7561462E-02  0.1172111E+00
          1   -1    0    0  501    0  0.00000000000E+00  0.00000000000E+00  0.67808240007E+02  0.67808240007E+02  0.00000000000E+00 0. -1.
         -1   -1    0    0    0  501 -0.00000000000E+00 -0.00000000000E+00 -0.50101292377E+03  0.50101292377E+03  0.00000000000E+00 0.  1.
         25    2    1    2    0    0  0.72596600883E+02 -0.13004239733E+03 -0.22870231800E+03  0.30022359953E+03  0.12509263725E+03 0.  0.
          5    1    3    3  502    0  0.86591155531E+02 -0.14708945227E+03 -0.18967454360E+03  0.25520039200E+03  0.41800000000E+01 0.  1.
         -5    1    3    3    0  502 -0.13994554648E+02  0.17047054941E+02 -0.39027774402E+02  0.45023207535E+02  0.41800000000E+01 0.  1.
        -11    1    1    2    0    0 -0.24603207432E+02  0.96284291467E+02 -0.17875085523E+03  0.20451858313E+03  0.00000000000E+00 0.  1.
         11    1    1    2    0    0 -0.47993393450E+02  0.33758105863E+02 -0.25751510532E+02  0.64078981117E+02  0.00000000000E+00 0. -1.
</event>
<event>
 7    1  0.2733606E-009  0.1210320E+03  0.7561462E-02  0.1241404E+00
          2   -1    0    0  501    0  0.00000000000E+00  0.00000000000E+00  0.11767092222E+03  0.11767092222E+03  0.00000000000E+00 0. -1.
         -2   -1    0    0    0  501 -0.00000000000E+00 -0.00000000000E+00 -0.13528769318E+03  0.13528769318E+03  0.00000000000E+00 0.  1.
         25    2    1    2    0    0 -0.11706427971E+02 -0.57329552471E+02 -0.44865816759E+02  0.14520550982E+03  0.12509188833E+03 0.  0.
          5    1    3    3  502    0  0.43363577254E+02 -0.69045621346E+02 -0.26105018568E+02  0.85712554820E+02  0.41800000000E+01 0.  1.
         -5    1    3    3    0  502 -0.55070005225E+02  0.11716068875E+02 -0.18760798191E+02  0.59492954996E+02  0.41800000000E+01 0.  1.
        -11    1    1    2    0    0  0.47837325310E+02  0.19513825125E+02  0.95622593544E+01  0.52541753566E+02  0.00000000000E+00 0.  1.
         11    1    1    2    0    0 -0.36130897339E+02  0.37815727345E+02  0.17686786437E+02  0.55211352018E+02  0.00000000000E+00 0. -1.
</event>
<event>
 7    1  0.2733606E-009  0.1992675E+03  0.7561462E-02  0.1150358E+00
         -1   -1    0    0    0  501 -0.00000000000E+00  0.00000000000E+00  0.33609344734E+02  0.33609344734E+02  0.00000000000E+00 0.  1.
          1   -1    0    0  501    0  0.00000000000E+00 -0.00000000000E+00 -0.12786106466E+04  0.12786106466E+04  0.00000000000E+00 0. -1.
         25    2    1    2    0    0  0.11193097888E+03 -0.12542727063E+03 -0.47816810865E+03  0.52206626853E+03  0.12509158388E+03 0.  0.
          5    1    3    3  502    0  0.12339397119E+03 -0.51760372153E+02 -0.33071498247E+03  0.35678436104E+03  0.41800000000E+01 0. -1.
         -5    1    3    3    0  502 -0.11462992311E+02 -0.73666898475E+02 -0.14745312618E+03  0.16528190749E+03  0.41800000000E+01 0. -1.
        -11    1    1    2    0    0 -0.64135824111E+02  0.12688322713E+03 -0.59906025608E+03  0.61569955959E+03  0.00000000000E+00 0. -1.
         11    1    1    2    0    0 -0.47795154770E+02 -0.14559564981E+01 -0.16777293717E+03  0.17445416325E+03  0.00000000000E+00 0.  1.
</event>
<event>
 7    1  0.2733606E-009  0.1917025E+03  0.7561462E-02  0.1156935E+00
         -1   -1    0    0    0  501 -0.00000000000E+00  0.00000000000E+00  0.11934308156E+03  0.11934308156E+03  0.00000000000E+00 0.  1.
          1   -1    0    0  501    0  0.00000000000E+00 -0.00000000000E+00 -0.49904535404E+03  0.49904535404E+03  0.00000000000E+00 0. -1.
         25    2    1    2    0    0 -0.13637674145E+03  0.10429834993E+03 -0.33971370598E+03  0.40065969317E+03  0.12508407692E+03 0.  0.
          5    1    3    3  502    0 -0.11563566486E+03  0.11416852908E+02 -0.20479003198E+03  0.23549603206E+03  0.41800000000E+01 0. -1.
         -5    1    3    3    0  502 -0.20741076587E+02  0.92881497022E+02 -0.13492367399E+03  0.16516366111E+03  0.41800000000E+01 0. -1.
        -11    1    1    2    0    0  0.10109507156E+03 -0.72860065815E+02  0.34691125726E+02  0.12935330258E+03  0.00000000000E+00 0.  1.
         11    1    1    2    0    0  0.35281669887E+02 -0.31438284114E+02 -0.74679692227E+02  0.88375439853E+02  0.00000000000E+00 0. -1.
</event>
<event>
 7    1  0.2733606E-009  0.1006075E+03  0.7561462E-02  0.1279024E+00
          2   -1    0    0  501    0  0.00000000000E+00  0.00000000000E+00  0.31431850120E+03  0.31431850120E+03  0.00000000000E+00 0. -1.
         -2   -1    0    0    0  501 -0.00000000000E+00 -0.00000000000E+00 -0.38061457254E+02  0.38061457254E+02  0.00000000000E+00 0.  1.
         25    2    1    2    0    0  0.36285038013E+01 -0.92221201963E+01  0.10291916452E+03  0.16229089962E+03  0.12509103938E+03 0.  0.
          5    1    3    3  502    0  0.27119953975E+02  0.52381022165E+02  0.54102817317E+02  0.80148927805E+02  0.41800000000E+01 0.  1.
         -5    1    3    3    0  502 -0.23491450173E+02 -0.61603142361E+02  0.48816347201E+02  0.82141971817E+02  0.41800000000E+01 0.  1.
        -11    1    1    2    0    0  0.25883404630E+02  0.30227578991E+02  0.69146641350E+02  0.79780418505E+02  0.00000000000E+00 0.  1.
         11    1    1    2    0    0 -0.29511908431E+02 -0.21005458795E+02  0.10419123808E+03  0.11030864033E+03  0.00000000000E+00 0. -1.
</event>
<event>
 7    1  0.2733606E-009  0.1011016E+03  0.7561462E-02  0.1277996E+00
          4   -1    0    0  501    0  0.00000000000E+00  0.00000000000E+00  0.54031738222E+03  0.54031738222E+03  0.00000000000E+00 0. -1.
         -4   -1    0    0    0  501 -0.00000000000E+00 -0.00000000000E+00 -0.26076820513E+02  0.26076820513E+02  0.00000000000E+00 0.  1.
         25    2    1    2    0    0 -0.38816064977E+02  0.25583048139E+02  0.25079618396E+03  0.28409288221E+03  0.12509540590E+03 0.  0.
          5    1    3    3  502    0 -0.26745719262E+02 -0.47633610822E+02  0.14319737000E+03  0.15332075382E+03  0.41800000000E+01 0.  1.
         -5    1    3    3    0  502 -0.12070345715E+02  0.73216658961E+02  0.10759881397E+03  0.13077212838E+03  0.41800000000E+01 0.  1.
        -11    1    1    2    0    0  0.47175659466E+02 -0.36282420272E+02  0.26196817370E+03  0.26864340844E+03  0.00000000000E+00 0. -1.
         11    1    1    2    0    0 -0.83595944891E+01  0.10699372133E+02  0.14762040392E+01  0.13657912082E+02  0.00000000000E+00 0.  1.
</event>
<event>
 7    1  0.2733606E-009  0.9936513E+02  0.7561462E-02  0.1281637E+00
         -1   -1    0    0    0  501 -0.00000000000E+00  0.00000000000E+00  0.18341111396E+02  0.18341111396E+02  0.00000000000E+00 0.  1.
          1   -1    0    0  501    0  0.00000000000E+00 -0.00000000000E+00 -0.79609425394E+03  0.79609425394E+03  0.00000000000E+00 0. -1.
         25    2    1    2    0    0  0.47671159344E+01 -0.11750055455E+02 -0.61234922852E+03  0.62512379989E+03  0.12508956123E+03 0.  0.
          5    1    3    3  502    0 -0.34255102519E+02  0.44232662156E+02 -0.32053388890E+03  0.32540649469E+03  0.41800000000E+01 0. -1.
         -5    1    3    3    0  502  0.39022218453E+02 -0.55982717611E+02 -0.29181533961E+03  0.29971730520E+03  0.41800000000E+01 0. -1.
        -11    1    1    2    0    0 -0.30009047033E+02 -0.18195859978E+02 -0.23830922350E+02  0.42421045299E+02  0.00000000000E+00 0.  1.
         11    1    1    2    0    0  0.25241931099E+02  0.29945915433E+02 -0.14157299167E+03  0.14689052014E+03  0.00000000000E+00 0. -1.
</event>
<event>
 7    1  0.2733606E-009  0.2053345E+03  0.7561462E-02  0.1145315E+00
         -2   -1    0    0    0  501 -0.00000000000E+00  0.00000000000E+00  0.56699110124E+02  0.56699110124E+02  0.00000000000E+00 0.  1.
          2   -1    0    0  501    0  0.00000000000E+00 -0.00000000000E+00 -0.15805562639E+04  0.15805562639E+04  0.00000000000E+00 0. -1.
         25    2    1    2    0    0 -0.18417510634E+03  0.44597484864E+02 -0.13347512102E+04  0.13539269000E+04  0.12509137451E+03 0.  0.
          5    1    3    3  502    0 -0.77401066101E+02  0.62650784618E+02 -0.91499437762E+03  0.92040655654E+03  0.41800000000E+01 0. -1.
         -5    1    3    3    0  502 -0.10677404024E+03 -0.18053299754E+02 -0.41975683260E+03  0.43352034349E+03  0.41800000000E+01 0. -1.
        -11    1    1    2    0    0  0.18779262491E+03 -0.33239459123E+02 -0.19245928266E+03  0.27094557959E+03  0.00000000000E+00 0. -1.
         11    1    1    2    0    0 -0.36175185727E+01 -0.11358025740E+02  0.33533391567E+01  0.12382894365E+02  0.00000000000E+00 0.  1.
</event>
<event>
 7    1  0.2733606E-009  0.2147102E+03  0.7561462E-02  0.1137889E+00
         -2   -1    0    0    0  501 -0.00000000000E+00  0.00000000000E+00  0.11126268214E+03  0.11126268214E+03  0.00000000000E+00 0. -1.
          2   -1    0    0  501    0  0.00000000000E+00 -0.00000000000E+00 -0.46766912731E+03  0.46766912731E+03  0.00000000000E+00 0.  1.
         25    2    1    2    0    0  0.60156915690E+01 -0.20031754328E+03 -0.19125606583E+03  0.30395472718E+03  0.12508511809E+03 0.  0.
          5    1    3    3  502    0  0.53377925782E+02 -0.76783437968E+02 -0.36908140425E+02  0.10062098457E+03  0.41800000000E+01 0. -1.
         -5    1    3    3    0  502 -0.47362234213E+02 -0.12353410531E+03 -0.15434792541E+03  0.20333374261E+03  0.41800000000E+01 0. -1.
        -11    1    1    2    0    0  0.12599950256E+02  0.37363824904E+02 -0.82226914187E+02  0.91192541223E+02  0.00000000000E+00 0.  1.
         11    1    1    2    0    0 -0.18615641825E+02  0.16295371838E+03 -0.82923465149E+02  0.18378454104E+03  0.00000000000E+00 0. -1.
</event>
<event>
 7    1  0.2733606E-009  0.3063431E+03  0.7561462E-02  0.1082112E+00
         -1   -1    0    0    0  501 -0.00000000000E+00  0.00000000000E+00  0.78743702321E+02  0.78743702321E+02  0.00000000000E+00 0.  1.
          1   -1    0    0  501    0  0.00000000000E+00 -0.00000000000E+00 -0.12738214321E+04  0.12738214321E+04  0.00000000000E+00 0. -1.
         25    2    1    2    0    0 -0.29352772810E+03 -0.37360742992E+02 -0.54653711742E+03  0.63395789398E+03  0.12508172664E+03 0.  0.
          5    1    3    3  502    0 -0.14196105424E+03  0.33822205563E+02 -0.32446839786E+03  0.35580064097E+03  0.41800000000E+01 0. -1.
         -5    1    3    3    0  502 -0.15156667387E+03 -0.71182948555E+02 -0.22206871956E+03  0.27815725301E+03  0.41800000000E+01 0. -1.
        -11    1    1    2    0    0  0.34459074026E+02  0.19291655868E+02 -0.16587481731E+03  0.17051114564E+03  0.00000000000E+00 0. -1.
         11    1    1    2    0    0  0.25906865408E+03  0.18069087124E+02 -0.48266579508E+03  0.54809609484E+03  0.00000000000E+00 0.  1.
</event>
<event>
 7    1  0.2733606E-009  0.1509552E+03  0.7561462E-02  0.1199304E+00
         -1   -1    0    0    0  501 -0.00000000000E+00  0.00000000000E+00  0.57412779973E+02  0.57412779973E+02  0.00000000000E+00 0.  1.
          1   -1    0    0  501    0  0.00000000000E+00 -0.00000000000E+00 -0.54393630404E+03  0.54393630404E+03  0.00000000000E+00 0. -1.
         25    2    1    2    0    0 -0.10339435375E+03 -0.87863116117E+02 -0.20600137232E+03  0.27657621703E+03  0.12509004306E+03 0.  0.
          5    1    3    3  502    0 -0.38460018210E+02 -0.51616036853E+02 -0.79633375134E+01  0.64994425957E+02  0.41800000000E+01 0. -1.
         -5    1    3    3    0  502 -0.64934335538E+02 -0.36247079264E+02 -0.19803803480E+03  0.21158179108E+03  0.41800000000E+01 0. -1.
        -11    1    1    2    0    0  0.75188563228E+02  0.49597710896E+01 -0.14520120297E+03  0.16358884043E+03  0.00000000000E+00 0. -1.
         11    1    1    2    0    0  0.28205790520E+02  0.82903345027E+02 -0.13532094878E+03  0.16118402655E+03  0.00000000000E+00 0.  1.
</event>
<event>
 7    1  0.2733606E-009  0.9744398E+02  0.7561462E-02  0.1285765E+00
         -1   -1    0    0    0  501 -0.00000000000E+00  0.00000000000E+00  0.27325273166E+02  0.27325273166E+02  0.00000000000E+00 0.  1.
          1   -1    0    0  501    0  0.00000000000E+00 -0.00000000000E+00 -0.45192300693E+03  0.45192300693E+03  0.00000000000E+00 0. -1.
         25    2    1    2    0    0 -0.12742853511E+02 -0.98493308564E+01 -0.28398021218E+03  0.31072752351E+03  0.12508974110E+03 0.  0.
          5    1    3    3  502    0  0.22909787646E+02 -0.57927400600E+02 -0.18193958796E+03  0.19235365392E+03  0.41800000000E+01 0.  1.
         -5    1    3    3    0  502 -0.35652641157E+02  0.48078069743E+02 -0.10204062421E+03  0.11837386959E+03  0.41800000000E+01 0.  1.
        -11    1    1    2    0    0 -0.13714780569E+02 -0.25110122628E+02 -0.11331649373E+03  0.11687275651E+03  0.00000000000E+00 0. -1.
         11    1    1    2    0    0  0.26457634080E+02  0.34959453484E+02 -0.27301027866E+02  0.51648000074E+02  0.00000000000E+00 0.  1.
</event>
<event>
 7    1  0.2733606E-009  0.1020008E+03  0.7561462E-02  0.1276144E+00
          1   -1    0    0  501    0  0.00000000000E+00  0.00000000000E+00  0.37223960861E+03  0.37223960861E+03  0.00000000000E+00 0. -1.
         -1   -1    0    0    0  501 -0.00000000000E+00 -0.00000000000E+00 -0.73863390957E+02  0.73863390957E+02  0.00000000000E+00 0.  1.
         25    2    1    2    0    0 -0.29183446618E+02 -0.30433243258E+02  0.31680887306E+03  0.34321046810E+03  0.12509079706E+03 0.  0.
          5    1    3    3  502    0 -0.52198563080E+02 -0.58069616405E+02  0.12089245850E+03  0.14397648856E+03  0.41800000000E+01 0.  1.
         -5    1    3    3    0  502  0.23015116461E+02  0.27636373147E+02  0.19591641457E+03  0.19923397954E+03  0.41800000000E+01 0.  1.
        -11    1    1    2    0    0 -0.52640455143E+01 -0.24336401383E+02 -0.28019521335E+02  0.37484185776E+02  0.00000000000E+00 0.  1.
         11    1    1    2    0    0  0.34447492133E+02  0.54769644641E+02  0.95868659314E+01  0.65408345696E+02  0.00000000000E+00 0. -1.
</event>
<event>
 7    1  0.2733606E-009  0.9962040E+02  0.7561462E-02  0.1281096E+00
          2   -1    0    0  501    0  0.00000000000E+00  0.00000000000E+00  0.30335088803E+02  0.30335088803E+02  0.00000000000E+00 0. -1.
         -2   -1    0    0    0  501 -0.00000000000E+00 -0.00000000000E+00 -0.67203584056E+03  0.67203584056E+03  0.00000000000E+00 0.  1.
         25    2    1    2    0    0 -0.39711262020E+02 -0.15282137680E+02 -0.55493016089E+03  0.57044354361E+03  0.12509126634E+03 0.  0.
          5    1    3    3  502    0 -0.50564092760E+02 -0.46144137506E+02 -0.15923197395E+03  0.17337330484E+03  0.41800000000E+01 0. -1.
         -5    1    3    3    0  502  0.10852830740E+02  0.30861999826E+02 -0.39569818694E+03  0.39707023877E+03  0.41800000000E+01 0. -1.
        -11    1    1    2    0    0  0.24473341333E+01  0.48016298869E+02 -0.30591234568E+02  0.56985770451E+02  0.00000000000E+00 0.  1.
         11    1    1    2    0    0  0.37263927887E+02 -0.32734161189E+02 -0.56179356300E+02  0.74941615306E+02  0.00000000000E+00 0. -1.
</event>
<event>
 7    1  0.2733606E-009  0.1211459E+03  0.7561462E-02  0.1241219E+00
          2   -1    0    0  501    0  0.00000000000E+00  0.00000000000E+00  0.12301143429E+04  0.12301143429E+04  0.00000000000E+00 0. -1.
         -2   -1    0    0    0  501 -0.00000000000E+00 -0.00000000000E+00 -0.14760202902E+02  0.14760202902E+02  0.00000000000E+00 0.  1.
         25    2    1    2    0    0 -0.63088300919E+02  0.47845123949E+02  0.70235612431E+03  0.71779036950E+03  0.12509835971E+03 0.  0.
          5    1    3    3  502    0 -0.85019001765E+02  0.52134471349E+02  0.33061785385E+03  0.34535759938E+03  0.41800000000E+01 0.  1.
         -5    1    3    3    0  502  0.21930700846E+02 -0.42893473997E+01  0.37173827046E+03  0.37243277013E+03  0.41800000000E+01 0.  1.
        -11    1    1    2    0    0 -0.23325169791E+02 -0.90960470364E+01  0.78942088802E+02  0.82816997059E+02  0.00000000000E+00 0.  1.
         11    1    1    2    0    0  0.86413470711E+02 -0.38749076913E+02  0.43405592693E+03  0.44426717928E+03  0.00000000000E+00 0. -1.
</event>
<event>
 7    1  0.2733606E-009  0.7513451E+02  0.7561462E-02  0.1343455E+00
         -1   -1    0    0    0  501 -0.00000000000E+00  0.00000000000E+00  0.22355154129E+02  0.22355154129E+02  0.00000000000E+00 0.  1.
          1   -1    0    0  501    0  0.00000000000E+00 -0.00000000000E+00 -0.52413399497E+03  0.52413399497E+03  0.00000000000E+00 0. -1.
         25    2    1    2    0    0 -0.88358059477E+00  0.96837201479E+01 -0.29233644731E+03  0.31812589055E+03  0.12509567803E+03 0.  0.
          5    1    3    3  502    0 -0.74333284515E+00  0.40963927430E+02 -0.23445735493E+02  0.47389564326E+02  0.41800000000E+01 0.  1.
         -5    1    3    3    0  502 -0.14024774962E+00 -0.31280207282E+02 -0.26889071181E+03  0.27073632622E+03  0.41800000000E+01 0.  1.
        -11    1    1    2    0    0 -0.41797072808E+01 -0.43315310968E+02 -0.17352497579E+03  0.17889830446E+03  0.00000000000E+00 0. -1.
         11    1    1    2    0    0  0.50632878756E+01  0.33631590820E+02 -0.35917417741E+02  0.49464954082E+02  0.00000000000E+00 0.  1.
</event>
<event>
 7    1  0.2733606E-009  0.9337696E+02  0.7561462E-02  0.1294874E+00
         -2   -1    0    0    0  501 -0.00000000000E+00  0.00000000000E+00  0.14953484305E+03  0.14953484305E+03  0.00000000000E+00 0.  1.
          2   -1    0    0  501    0  0.00000000000E+00 -0.00000000000E+00 -0.13098023388E+03  0.13098023388E+03  0.00000000000E+00 0. -1.
         25    2    1    2    0    0  0.38777637575E+02  0.71570406991E+02  0.39598693577E+02  0.15441184978E+03  0.12509570132E+03 0.  0.
          5    1    3    3  502    0  0.12658543960E+02  0.59241032824E+02 -0.37914262597E+02  0.71587026852E+02  0.41800000000E+01 0. -1.
         -5    1    3    3    0  502  0.26119093614E+02  0.12329374166E+02  0.77512956174E+02  0.82824822930E+02  0.41800000000E+01 0. -1.
        -11    1    1    2    0    0  0.13232115466E+02 -0.14034528858E+02  0.28248469068E+02  0.34205743445E+02  0.00000000000E+00 0.  1.
         11    1    1    2    0    0 -0.52009753041E+02 -0.57535878133E+02 -0.49292553472E+02  0.91897483707E+02  0.00000000000E+00 0. -1.
</event>
<event>
 7    1  0.2733606E-009  0.2300250E+03  0.7561462E-02  0.1126622E+00
          1   -1    0    0  501    0  0.00000000000E+00  0.00000000000E+00  0.61937142819E+03  0.61937142819E+03  0.00000000000E+00 0.  1.
         -1   -1    0    0    0  501 -0.00000000000E+00 -0.00000000000E+00 -0.14654155641E+03  0.14654155641E+03  0.00000000000E+00 0. -1.
         25    2    1    2    0    0  0.10370357625E+03  0.20109111006E+03  0.32270374602E+02  0.26053853212E+03  0.12508750285E+03 0.  0.
          5    1    3    3  502    0  0.43170531272E+02  0.12330728360E+03  0.77556369256E+02  0.15198961732E+03  0.41800000000E+01 0. -1.
         -5    1    3    3    0  502  0.60533044982E+02  0.77783826456E+02 -0.45285994654E+02  0.10854891480E+03  0.41800000000E+01 0. -1.
        -11    1    1    2    0    0 -0.76737004151E+02 -0.99941228235E+02  0.14647663495E+03  0.19321547943E+03  0.00000000000E+00 0. -1.
         11    1    1    2    0    0 -0.26966572103E+02 -0.10114988182E+03  0.29408286223E+03  0.31215897306E+03  0.00000000000E+00 0.  1.
</event>
<event>
 7    1  0.2733606E-009  0.9984916E+02  0.7561462E-02  0.1280613E+00
          1   -1    0    0  501    0  0.00000000000E+00  0.00000000000E+00  0.99802297946E+02  0.99802297946E+02  0.00000000000E+00 0. -1.
         -1   -1    0    0    0  501 -0.00000000000E+00 -0.00000000000E+00 -0.12794463444E+03  0.12794463444E+03  0.00000000000E+00 0.  1.
         25    2    1    2    0    0  0.25293411856E+02  0.82671130010E+01 -0.33771181251E+02  0.13227695586E+03  0.12509435849E+03 0.  0.
          5    1    3    3  502    0 -0.14153575787E+02 -0.39583689488E+02  0.22997221279E+02  0.48099238742E+02  0.41800000000E+01 0. -1.
         -5    1    3    3    0  502  0.39446987643E+02  0.47850802489E+02 -0.56768402530E+02  0.84177717115E+02  0.41800000000E+01 0. -1.
        -11    1    1    2    0    0 -0.37480501461E+02 -0.43850340845E+02  0.28918921565E+01  0.57758145938E+02  0.00000000000E+00 0. -1.
         11    1    1    2    0    0  0.12187089605E+02  0.35583227844E+02  0.27369526025E+01  0.37711830589E+02  0.00000000000E+00 0.  1.
</event>
<event>
 7    1  0.2733606E-009  0.1083353E+03  0.7561462E-02  0.1263684E+00
          2   -1    0    0  501    0  0.00000000000E+00  0.00000000000E+00  0.32930145244E+03  0.32930145244E+03  0.00000000000E+00 0. -1.
         -2   -1    0    0    0  501 -0.00000000000E+00 -0.00000000000E+00 -0.47474481956E+02  0.47474481956E+02  0.00000000000E+00 0.  1.
         25    2    1    2    0    0  0.22857852982E+02 -0.26242631276E+01  0.23202496111E+03  0.26459889731E+03  0.12509046999E+03 0.  0.
          5    1    3    3  502    0  0.61704959393E+02  0.33155496116E+02  0.16396160289E+03  0.17834704527E+03  0.41800000000E+01 0. -1.
         -5    1    3    3    0  502 -0.38847106411E+02 -0.35779759243E+02  0.68063358221E+02  0.86251852040E+02  0.41800000000E+01 0. -1.
        -11    1    1    2    0    0 -0.19619428718E+01  0.45647339829E+02  0.38515093897E+01  0.45851531904E+02  0.00000000000E+00 0.  1.
         11    1    1    2    0    0 -0.20895910110E+02 -0.43023076702E+02  0.45950499986E+02  0.66325505178E+02  0.00000000000E+00 0. -1.
</event>
<event>
 7    1  0.2733606E-009  0.1251167E+03  0.7561462E-02  0.1234887E+00
         -1   -1    0    0    0  501 -0.00000000000E+00  0.00000000000E+00  0.26174446587E+02  0.26174446587E+02  0.00000000000E+00 0.  1.
          1   -1    0    0  501    0  0.00000000000E+00 -0.00000000000E+00 -0.11701480677E+04  0.11701480677E+04  0.00000000000E+00 0. -1.
         25    2    1    2    0    0 -0.44173787351E+02 -0.48375955688E+02 -0.10198251165E+04  0.10295554591E+04  0.12509843585E+03 0.  0.
          5    1    3    3  502    0  0.40729210409E+02  0.16256142727E+01 -0.37504300068E+03  0.37727474864E+03  0.41800000000E+01 0.  1.
         -5    1    3    3    0  502 -0.84902997760E+02 -0.50001569961E+02 -0.64478211578E+03  0.65228071048E+03  0.41800000000E+01 0.  1.
        -11    1    1    2    0    0 -0.13012733347E+02  0.51740150230E+02 -0.69299106992E+02  0.87457078644E+02  0.00000000000E+00 0. -1.
         11    1    1    2    0    0  0.57186520698E+02 -0.33641945425E+01 -0.54849397683E+02  0.79309976552E+02  0.00000000000E+00 0.  1.
</event>
<event>
 7    1  0.2733606E-009  0.1747750E+03  0.7561462E-02  0.1172958E+00
         -2   -1    0    0    0  501 -0.00000000000E+00  0.00000000000E+00  0.26123575734E+03  0.26123575734E+03  0.00000000000E+00 0.  1.
          2   -1    0    0  501    0  0.00000000000E+00 -0.00000000000E+00 -0.12004545575E+03  0.12004545575E+03  0.00000000000E+00 0. -1.
         25    2    1    2    0    0  0.11412334791E+03  0.77677364784E+02  0.72462805763E+02  0.19989038828E+03  0.12508955820E+03 0.  0.
          5    1    3    3  502    0  0.64534304189E+02  0.10779767048E+03  0.34245423167E+02  0.13028904630E+03  0.41800000000E+01 0. -1.
         -5    1    3    3    0  502  0.49589043726E+02 -0.30120305698E+02  0.38217382595E+02  0.69601341980E+02  0.41800000000E+01 0. -1.
        -11    1    1    2    0    0 -0.62392334711E+01 -0.55098131616E+02  0.94805898834E+01  0.56254899577E+02  0.00000000000E+00 0. -1.
         11    1    1    2    0    0 -0.10788411444E+03 -0.22579233167E+02  0.59246905948E+02  0.12513592523E+03  0.00000000000E+00 0.  1.
</event>
<event>
 7    1  0.2733606E-009  0.8533690E+02  0.7561462E-02  0.1314554E+00
         -2   -1    0    0    0  501 -0.00000000000E+00  0.00000000000E+00  0.48371168930E+02  0.48371168930E+02  0.00000000000E+00 0. -1.
          2   -1    0    0  501    0  0.00000000000E+00 -0.00000000000E+00 -0.32211638972E+03  0.32211638972E+03  0.00000000000E+00 0.  1.
         25    2    1    2    0    0 -0.17996232025E+02  0.56696098524E+02 -0.18328270551E+03  0.22973463436E+03  0.12508852918E+03 0.  0.
          5    1    3    3  502    0 -0.34454294823E+01  0.40006666031E+02 -0.19848743226E+03  0.20255156745E+03  0.41800000000E+01 0.  1.
         -5    1    3    3    0  502 -0.14550802543E+02  0.16689432493E+02  0.15204726746E+02  0.27183066917E+02  0.41800000000E+01 0.  1.
        -11    1    1    2    0    0  0.50044094295E+02 -0.98413015409E+01 -0.40399059229E+02  0.65064172756E+02  0.00000000000E+00 0. -1.
         11    1    1    2    0    0 -0.32047862270E+02 -0.46854796983E+02 -0.50063456053E+02  0.75688751531E+02  0.00000000000E+00 0.  1.
</event>
<event>
 7    1  0.2733606E-009  0.1486019E+03  0.7561462E-02  0.1202202E+00
         -1   -1    0    0    0  501 -0.00000000000E+00  0.00000000000E+00  0.54401442735E+02  0.54401442735E+02  0.00000000000E+00 0.  1.
          1   -1    0    0  501    0  0.00000000000E+00 -0.00000000000E+00 -0.80724956362E+03  0.80724956362E+03  0.00000000000E+00 0. -1.
         25    2    1    2    0    0 -0.81950776767E+02 -0.91639068740E+02 -0.65947588276E+03  0.68240008623E+03  0.12509112287E+03 0.  0.
          5    1    3    3  502    0 -0.96247836638E+02 -0.82794807514E+02 -0.65069533255E+03  0.66297851731E+03  0.41800000000E+01 0. -1.
         -5    1    3    3    0  502  0.14297059871E+02 -0.88442612259E+01 -0.87805502058E+01  0.19421568925E+02  0.41800000000E+01 0. -1.
        -11    1    1    2    0    0  0.97736188945E+02  0.53152658361E+02 -0.64279147530E+02  0.12848881869E+03  0.00000000000E+00 0.  1.
         11    1    1    2    0    0 -0.15785412178E+02  0.38486410379E+02 -0.29093090599E+02  0.50762101435E+02  0.00000000000E+00 0. -1.
</event>
<event>
 7    1  0.2733606E-009  0.1152576E+03  0.7561462E-02  0.1251132E+00
         -2   -1    0    0    0  501 -0.00000000000E+00  0.00000000000E+00  0.26215995823E+02  0.26215995823E+02  0.00000000000E+00 0. -1.
          2   -1    0    0  501    0  0.00000000000E+00 -0.00000000000E+00 -0.91085898748E+03  0.91085898748E+03  0.00000000000E+00 0.  1.
         25    2    1    2    0    0  0.64803873513E+02 -0.71751879669E+02 -0.62267028773E+03  0.64242687862E+03  0.12508450300E+03 0.  0.
          5    1    3    3  502    0  0.60658304106E+02 -0.57530711132E+02 -0.16995695264E+03  0.18945197474E+03  0.41800000000E+01 0.  1.
         -5    1    3    3    0  502  0.41455694069E+01 -0.14221168536E+02 -0.45271333509E+03  0.45297490388E+03  0.41800000000E+01 0.  1.
        -11    1    1    2    0    0 -0.26002148090E+02 -0.19340064327E+02 -0.39179862470E+02  0.50844974350E+02  0.00000000000E+00 0. -1.
         11    1    1    2    0    0 -0.38801725424E+02  0.91091943995E+02 -0.22279284146E+03  0.24380313033E+03  0.00000000000E+00 0.  1.
</event>
<event>
 7    1  0.2733606E-009  0.2064933E+03  0.7561462E-02  0.1144373E+00
         -1   -1    0    0    0  501 -0.00000000000E+00  0.00000000000E+00  0.12974254369E+03  0.12974254369E+03  0.00000000000E+00 0.  1.
          1   -1    0    0  501    0  0.00000000000E+00 -0.00000000000E+00 -0.44898208394E+03  0.44898208394E+03  0.00000000000E+00 0. -1.
         25    2    1    2    0    0 -0.16084263759E+03  0.10749871639E+03 -0.27638710184E+03  0.35980974801E+03  0.12508755576E+03 0.  0.
          5    1    3    3  502    0 -0.11676099000E+03  0.11409013297E+03 -0.26863612044E+03  0.31437640629E+03  0.41800000000E+01 0. -1.
         -5    1    3    3    0  502 -0.44081647592E+02 -0.65914165835E+01 -0.77509813982E+01  0.45433341718E+02  0.41800000000E+01 0. -1.
        -11    1    1    2    0    0  0.16650845853E+03 -0.96255464585E+02 -0.56393021937E+02  0.20042543289E+03  0.00000000000E+00 0.  1.
         11    1    1    2    0    0 -0.56658209416E+01 -0.11243251805E+02  0.13540583527E+02  0.18489446729E+02  0.00000000000E+00 0. -1.
</event>
<event>
 7    1  0.2733606E-009  0.1318087E+03  0.7561462E-02  0.1224796E+00
         -1   -1    0    0    0  501 -0.00000000000E+00  0.00000000000E+00  0.64170968322E+02  0.64170968322E+02  0.00000000000E+00 0.  1.
          1   -1    0    0  501    0  0.00000000000E+00 -0.00000000000E+00 -0.36534270364E+03  0.36534270364E+03  0.00000000000E+00 0. -1.
         25    2    1    2    0    0 -0.17345306146E+02  0.10453398130E+03 -0.13523721336E+03  0.21251291527E+03  0.12507766542E+03 0.  0.
          5    1    3    3  502    0  0.36005862118E+01 -0.98598552194E+01  0.17294868936E+02  0.20658312069E+02  0.41800000000E+01 0.  1.
         -5    1    3    3    0  502 -0.20945892358E+02  0.11439383652E+03 -0.15253208229E+03  0.19185460320E+03  0.41800000000E+01 0.  1.
        -11    1    1    2    0    0  0.26513760807E+02 -0.11728424166E+03 -0.12638319877E+03  0.17444565281E+03  0.00000000000E+00 0.  1.
         11    1    1    2    0    0 -0.91684546609E+01  0.12750260363E+02 -0.39551323187E+02  0.42555103878E+02  0.00000000000E+00 0. -1.
</event>
<event>
 7    1  0.2733606E-009  0.1281266E+03  0.7561462E-02  0.1230262E+00
          1   -1    0    0  501    0  0.00000000000E+00  0.00000000000E+00  0.16285953287E+03  0.16285953287E+03  0.00000000000E+00 0.  1.
         -1   -1    0    0    0  501 -0.00000000000E+00 -0.00000000000E+00 -0.21380422957E+03  0.21380422957E+03  0.00000000000E+00 0. -1.
         25    2    1    2    0    0 -0.53740837521E+02 -0.94308361393E+02 -0.13353787022E+03  0.21274004359E+03  0.12507525222E+03 0.  0.
          5    1    3    3  502    0 -0.21645221302E+02  0.18988317692E+02  0.64111649686E+01  0.29793409510E+02  0.41800000000E+01 0.  1.
         -5    1    3    3    0  502 -0.32095616219E+02 -0.11329667909E+03 -0.13994903519E+03  0.18294663408E+03  0.41800000000E+01 0.  1.
        -11    1    1    2    0    0  0.48095147927E+02  0.74049625331E+02  0.10611950985E+02  0.88933142132E+02  0.00000000000E+00 0. -1.
         11    1    1    2    0    0  0.56456895943E+01  0.20258736063E+02  0.71981222540E+02  0.74990576716E+02  0.00000000000E+00 0.  1.
</event>
<event>
 7    1  0.2733606E-009  0.1663553E+03  0.7561462E-02  0.1181703E+00
         -2   -1    0    0    0  501 -0.00000000000E+00  0.00000000000E+00  0.50655331246E+03  0.50655331246E+03  0.00000000000E+00 0.  1.
          2   -1    0    0  501    0  0.00000000000E+00 -0.00000000000E+00 -0.62536869827E+02  0.62536869827E+02  0.00000000000E+00 0. -1.
         25    2    1    2    0    0  0.10524165825E+03 -0.88009031568E+02  0.18607450416E+03  0.26285378113E+03  0.12508794061E+03 0.  0.
          5    1    3    3  502    0  0.29494062731E+02  0.25657967117E+02  0.11129646597E+02  0.40860401935E+02  0.41800000000E+01 0. -1.
         -5    1    3    3    0  502  0.75747595519E+02 -0.11366699868E+03  0.17494485756E+03  0.22199337919E+03  0.41800000000E+01 0. -1.
        -11    1    1    2    0    0 -0.68050668556E+02  0.96985729974E+02  0.23045652429E+03  0.25912802801E+03  0.00000000000E+00 0.  1.
         11    1    1    2    0    0 -0.37190989695E+02 -0.89766984057E+01  0.27485414188E+02  0.47108373161E+02  0.00000000000E+00 0. -1.
</event>
<event>
 7    1  0.2733606E-009  0.6898855E+02  0.7561462E-02  0.1363567E+00
         -2   -1    0    0    0  501 -0.00000000000E+00  0.00000000000E+00  0.84228406363E+02  0.84228406363E+02  0.00000000000E+00 0.  1.
          2   -1    0    0  501    0  0.00000000000E+00 -0.00000000000E+00 -0.19254847177E+03  0.19254847177E+03  0.00000000000E+00 0. -1.
         25    2    1    2    0    0 -0.51312611606E+01 -0.15596349105E+02  0.92752098404E+01  0.12650684927E+03  0.12509347484E+03 0.  0.
          5    1    3    3  502    0  0.35823785051E+02 -0.10119864486E+02 -0.44752850063E+02  0.58361333272E+02  0.41800000000E+01 0. -1.
         -5    1    3    3    0  502 -0.40955046211E+02 -0.54764846184E+01  0.54028059903E+02  0.68145515999E+02  0.41800000000E+01 0. -1.
        -11    1    1    2    0    0 -0.25847599649E+02  0.84583568684E+01  0.12709569315E+01  0.27226045252E+02  0.00000000000E+00 0.  1.
         11    1    1    2    0    0  0.30978860810E+02  0.71379922362E+01 -0.11886623218E+03  0.12304398361E+03  0.00000000000E+00 0. -1.
</event>
<event>
 7    1  0.2733606E-009  0.1216249E+03  0.7561462E-02  0.1240440E+00
         -1   -1    0    0    0  501 -0.00000000000E+00  0.00000000000E+00  0.18625774181E+02  0.18625774181E+02  0.00000000000E+00 0.  1.
          1   -1    0    0  501    0  0.00000000000E+00 -0.00000000000E+00 -0.11493630174E+04  0.11493630174E+04  0.00000000000E+00 0. -1.
         25    2    1    2    0    0  0.91488964306E+02 -0.26649119122E+02 -0.68322042579E+03  0.70108306287E+03  0.12508758806E+03 0.  0.
          5    1    3    3  502    0  0.76081649792E+02  0.34207800906E+02 -0.25667296918E+03  0.26992050049E+03  0.41800000000E+01 0.  1.
         -5    1    3    3    0  502  0.15407314514E+02 -0.60856920028E+02 -0.42654745661E+03  0.43116256238E+03  0.41800000000E+01 0.  1.
        -11    1    1    2    0    0 -0.17183311884E+02 -0.17303666373E+01 -0.60021805078E+01  0.18283504775E+02  0.00000000000E+00 0.  1.
         11    1    1    2    0    0 -0.74305652421E+02  0.28379485760E+02 -0.44151463691E+03  0.44862222393E+03  0.00000000000E+00 0. -1.
</event>
<event>
 7    1  0.2733606E-009  0.9304567E+02  0.7561462E-02  0.1295639E+00
         -2   -1    0    0    0  501 -0.00000000000E+00  0.00000000000E+00  0.91285317814E+02  0.91285317814E+02  0.00000000000E+00 0.  1.
          2   -1    0    0  501    0  0.00000000000E+00 -0.00000000000E+00 -0.98824464025E+02  0.98824464025E+02  0.00000000000E+00 0. -1.
         25    2    1    2    0    0 -0.38696419862E+02  0.17032409390E+02 -0.49139137263E+01  0.13213160907E+03  0.12508836752E+03 0.  0.
          5    1    3    3  502    0  0.41642919274E+02  0.24147588252E+02  0.11615534157E+02  0.49695389905E+02  0.41800000000E+01 0.  1.
         -5    1    3    3    0  502 -0.80339339137E+02 -0.71151788624E+01 -0.16529447883E+02  0.82436219167E+02  0.41800000000E+01 0.  1.
        -11    1    1    2    0    0  0.70368633887E+01 -0.23643112865E+02 -0.62100283365E+01  0.25437741335E+02  0.00000000000E+00 0.  1.
         11    1    1    2    0    0  0.31659556474E+02  0.66107034750E+01  0.35847958517E+01  0.32540431433E+02  0.00000000000E+00 0. -1.
</event>
<event>
 7    1  0.2733606E-009  0.1144220E+03  0.7561462E-02  0.1252593E+00
          2   -1    0    0  501    0  0.00000000000E+00  0.00000000000E+00  0.77780761784E+02  0.77780761784E+02  0.00000000000E+00 0. -1.
         -2   -1    0    0    0  501 -0.00000000000E+00 -0.00000000000E+00 -0.40171009847E+03  0.40171009847E+03  0.00000000000E+00 0.  1.
         25    2    1    2    0    0 -0.46188504492E+02 -0.94790265464E+02 -0.29416854664E+03  0.33660413762E+03  0.12509452130E+03 0.  0.
          5    1    3    3  502    0 -0.21489577335E+02 -0.31021890309E+02 -0.25474500069E+03  0.25755901729E+03  0.41800000000E+01 0.  1.
         -5    1    3    3    0  502 -0.24698927157E+02 -0.63768375155E+02 -0.39423545948E+02  0.79045120328E+02  0.41800000000E+01 0.  1.
        -11    1    1    2    0    0  0.60038989655E+02  0.88984430208E+02 -0.49397634265E+02  0.11816528834E+03  0.00000000000E+00 0.  1.
         11    1    1    2    0    0 -0.13850485162E+02  0.58058352559E+01  0.19636844219E+02  0.24721434286E+02  0.00000000000E+00 0. -1.
</event>
<event>
 7    1  0.2733606E-009  0.1193046E+03  0.7561462E-02  0.1244249E+00
          1   -1    0    0  501    0  0.00000000000E+00  0.00000000000E+00  0.93976723351E+03  0.93976723351E+03  0.00000000000E+00 0.  1.
         -1   -1    0    0    0  501 -0.00000000000E+00 -0.00000000000E+00 -0.30239916502E+02  0.30239916502E+02  0.00000000000E+00 0. -1.
         25    2    1    2    0    0 -0.54056841091E+02 -0.51210276678E+02  0.78296470984E+03  0.79638153918E+03  0.12508071227E+03 0.  0.
          5    1    3    3  502    0  0.10754188736E+02 -0.61155703706E+02  0.57317877918E+03  0.57654753315E+03  0.41800000000E+01 0. -1.
         -5    1    3    3    0  502 -0.64811029827E+02  0.99454270274E+01  0.20978593066E+03  0.21983400603E+03  0.41800000000E+01 0. -1.
        -11    1    1    2    0    0  0.43263933977E+02 -0.13302193463E+02  0.22088199293E+02  0.50364718625E+02  0.00000000000E+00 0. -1.
         11    1    1    2    0    0  0.10792907113E+02  0.64512470142E+02  0.10447440788E+03  0.12326089221E+03  0.00000000000E+00 0.  1.
</event>
<event>
 7    1  0.2733606E-009  0.1573355E+03  0.7561462E-02  0.1191738E+00
          2   -1    0    0  501    0  0.00000000000E+00  0.00000000000E+00  0.81662575134E+03  0.81662575134E+03  0.00000000000E+00 0. -1.
         -2   -1    0    0    0  501 -0.00000000000E+00 -0.00000000000E+00 -0.34585359517E+02  0.34585359517E+02  0.00000000000E+00 0.  1.
         25    2    1    2    0    0  0.11497090756E+03 -0.31619839596E+02  0.53862902542E+03  0.56567458429E+03  0.12509350283E+03 0.  0.
          5    1    3    3  502    0 -0.16736369777E+02  0.24151618267E+02  0.87511761715E+02  0.92407724659E+02  0.41800000000E+01 0. -1.
         -5    1    3    3    0  502  0.13170727733E+03 -0.55771457863E+02  0.45111726371E+03  0.47326685963E+03  0.41800000000E+01 0. -1.
        -11    1    1    2    0    0 -0.12144598705E+03  0.42978706471E+02  0.23939786414E+03  0.27185958570E+03  0.00000000000E+00 0.  1.
         11    1    1    2    0    0  0.64750794943E+01 -0.11358866876E+02  0.40135022681E+01  0.13676940872E+02  0.00000000000E+00 0. -1.
</event>
<event>
 7    1  0.2733606E-009  0.4334164E+02  0.7561462E-02  0.1484968E+00
          2   -1    0    0  501    0  0.00000000000E+00  0.00000000000E+00  0.10916765822E+03  0.10916765822E+03  0.00000000000E+00 0. -1.
         -2   -1    0    0    0  501 -0.00000000000E+00 -0.00000000000E+00 -0.15009728252E+03  0.15009728252E+03  0.00000000000E+00 0.  1.
         25    2    1    2    0    0 -0.25094164179E+02 -0.15465419074E+02  0.38617183487E+02  0.13419393983E+03  0.12509128812E+03 0.  0.
          5    1    3    3  502    0 -0.45487655128E+01 -0.65283853912E+01 -0.45841383528E+02  0.46714194066E+02  0.41800000000E+01 0. -1.
         -5    1    3    3    0  502 -0.20545398666E+02 -0.89370336826E+01  0.84458567015E+02  0.87479745768E+02  0.41800000000E+01 0. -1.
        -11    1    1    2    0    0  0.26085404384E+02 -0.11079111272E+02  0.11232279724E+02  0.30485392178E+02  0.00000000000E+00 0. -1.
         11    1    1    2    0    0 -0.99124020559E+00  0.26544530346E+02 -0.90779087510E+02  0.94585608723E+02  0.00000000000E+00 0.  1.
</event>
<event>
 7    1  0.2733606E-009  0.9258035E+02  0.7561462E-02  0.1296721E+00
          2   -1    0    0  501    0  0.00000000000E+00  0.00000000000E+00  0.17585790941E+03  0.17585790941E+03  0.00000000000E+00 0. -1.
         -2   -1    0    0    0  501 -0.00000000000E+00 -0.00000000000E+00 -0.10601591432E+03  0.10601591432E+03  0.00000000000E+00 0.  1.
         25    2    1    2    0    0 -0.57497885909E+02 -0.56916612205E+02  0.58845746606E+02  0.16017969172E+03  0.12509677901E+03 0.  0.
          5    1    3    3  502    0 -0.11647517549E+01 -0.23643599919E+02 -0.36960483600E+02  0.44089978586E+02  0.41800000000E+01 0.  1.
         -5    1    3    3    0  502 -0.56333134154E+02 -0.33273012286E+02  0.95806230206E+02  0.11608971314E+03  0.41800000000E+01 0.  1.
        -11    1    1    2    0    0  0.90107894449E+01  0.44647737908E+02  0.42736026668E+02  0.62457848203E+02  0.00000000000E+00 0. -1.
         11    1    1    2    0    0  0.48487096464E+02  0.12268874296E+02 -0.31739778186E+02  0.59236283807E+02  0.00000000000E+00 0.  1.
</event>
<event>
 7    1  0.2733606E-009  0.1098172E+03  0.7561462E-02  0.1260909E+00
         -3   -1    0    0    0  501 -0.00000000000E+00  0.00000000000E+00  0.41116209513E+03  0.41116209513E+03  0.00000000000E+00 0.  1.
          3   -1    0    0  501    0  0.00000000000E+00 -0.00000000000E+00 -0.35615285460E+02  0.35615285460E+02  0.00000000000E+00 0. -1.
         25    2    1    2    0    0 -0.29413591870E+02  0.27543704750E+02  0.27983386956E+03  0.30915643221E+03  0.12508752921E+03 0.  0.
          5    1    3    3  502    0 -0.64580294471E+02 -0.20520785134E+02  0.18533102595E+03  0.19737471630E+03  0.41800000000E+01 0.  1.
         -5    1    3    3    0  502  0.35166702601E+02  0.48064489884E+02  0.94502843611E+02  0.11178171590E+03  0.41800000000E+01 0.  1.
        -11    1    1    2    0    0  0.56875319335E+02 -0.61051584685E+01  0.33424900413E+02  0.66251783953E+02  0.00000000000E+00 0.  1.
         11    1    1    2    0    0 -0.27461727465E+02 -0.21438546282E+02  0.62288039696E+02  0.71369164428E+02  0.00000000000E+00 0. -1.
</event>
<event>
 7    1  0.2733606E-009  0.1106402E+03  0.7561462E-02  0.1259389E+00
         -1   -1    0    0    0  501 -0.00000000000E+00  0.00000000000E+00  0.21514161522E+03  0.21514161522E+03  0.00000000000E+00 0.  1.
          1   -1    0    0  501    0  0.00000000000E+00 -0.00000000000E+00 -0.95591622786E+02  0.95591622786E+02  0.00000000000E+00 0. -1.
         25    2    1    2    0    0 -0.13278811627E+02 -0.62684398267E+02  0.13871502894E+03  0.19747107980E+03  0.12508919810E+03 0.  0.
          5    1    3    3  502    0 -0.31058406086E+02 -0.88303343011E+02  0.13697896368E+03  0.16596027798E+03  0.41800000000E+01 0.  1.
         -5    1    3    3    0  502  0.17779594458E+02  0.25618944744E+02  0.17360652549E+01  0.31510801822E+02  0.41800000000E+01 0.  1.
        -11    1    1    2    0    0 -0.94680300452E+00 -0.16065566924E+02  0.18750433043E+02  0.24709868794E+02  0.00000000000E+00 0. -1.
         11    1    1    2    0    0  0.14225614632E+02  0.78749965191E+02 -0.37915469546E+02  0.88552289412E+02  0.00000000000E+00 0.  1.
</event>
<event>
 7    1  0.2733606E-009  0.1734467E+03  0.7561462E-02  0.1174300E+00
          2   -1    0    0  501    0  0.00000000000E+00  0.00000000000E+00  0.24539661126E+03  0.24539661126E+03  0.00000000000E+00 0. -1.
         -2   -1    0    0    0  501 -0.00000000000E+00 -0.00000000000E+00 -0.13039498587E+03  0.13039498587E+03  0.00000000000E+00 0.  1.
         25    2    1    2    0    0 -0.13740277716E+03 -0.17111808163E+02  0.26396766817E+02  0.18846120419E+03  0.12509396083E+03 0.  0.
          5    1    3    3  502    0 -0.63052604789E+02  0.53670386017E+02  0.23305452450E+01  0.82940009326E+02  0.41800000000E+01 0.  1.
         -5    1    3    3    0  502 -0.74350172371E+02 -0.70782194180E+02  0.24066221572E+02  0.10552119486E+03  0.41800000000E+01 0.  1.
        -11    1    1    2    0    0  0.10491055777E+03 -0.25202896614E+02  0.39732640581E+02  0.11497866696E+03  0.00000000000E+00 0.  1.
         11    1    1    2    0    0  0.32492219394E+02  0.42314704777E+02  0.48872217994E+02  0.72351725986E+02  0.00000000000E+00 0. -1.
</event>
<event>
 7    1  0.2733606E-009  0.7412127E+02  0.7561462E-02  0.1346614E+00
          1   -1    0    0  501    0  0.00000000000E+00  0.00000000000E+00  0.57370974022E+03  0.57370974022E+03  0.00000000000E+00 0. -1.
         -1   -1    0    0    0  501 -0.00000000000E+00 -0.00000000000E+00 -0.29728067146E+02  0.29728067146E+02  0.00000000000E+00 0.  1.
         25    2    1    2    0    0 -0.37409940521E+02  0.59188684005E+02  0.25410433146E+03  0.29174381983E+03  0.12507054481E+03 0.  0.
          5    1    3    3  502    0 -0.19857468098E+02  0.55723731675E+02  0.29222392718E+02  0.66112585392E+02  0.41800000000E+01 0.  1.
         -5    1    3    3    0  502 -0.17552472423E+02  0.34649523304E+01  0.22488193874E+03  0.22563123444E+03  0.41800000000E+01 0.  1.
        -11    1    1    2    0    0  0.15577696283E+02 -0.16966672324E+02  0.59147004029E+01  0.23780586033E+02  0.00000000000E+00 0.  1.
         11    1    1    2    0    0  0.21832244238E+02 -0.42222011682E+02  0.28396264121E+03  0.28791340149E+03  0.00000000000E+00 0. -1.
</event>
<event>
 7    1  0.2733606E-009  0.1106449E+03  0.7561462E-02  0.1259380E+00
          2   -1    0    0  501    0  0.00000000000E+00  0.00000000000E+00  0.28426627032E+03  0.28426627032E+03  0.00000000000E+00 0. -1.
         -2   -1    0    0    0  501 -0.00000000000E+00 -0.00000000000E+00 -0.19310462559E+03  0.19310462559E+03  0.00000000000E+00 0.  1.
         25    2    1    2    0    0 -0.47616299582E+02  0.80691489462E+02  0.23586813959E+03  0.28294935852E+03  0.12509249281E+03 0.  0.
          5    1    3    3  502    0 -0.45733008455E+02  0.30582449499E+02  0.22474187590E+03  0.23141559468E+03  0.41800000000E+01 0.  1.
         -5    1    3    3    0  502 -0.18832911273E+01  0.50109039963E+02  0.11126263688E+02  0.51533763837E+02  0.41800000000E+01 0.  1.
        -11    1    1    2    0    0  0.58857696857E+02 -0.34428905492E+02 -0.12600392619E+03  0.14327095808E+03  0.00000000000E+00 0.  1.
         11    1    1    2    0    0 -0.11241397275E+02 -0.46262583971E+02 -0.18702568668E+02  0.51150579304E+02  0.00000000000E+00 0. -1.
</event>
<event>
 7    1  0.2733606E-009  0.1053495E+03  0.7561462E-02  0.1269433E+00
          2   -1    0    0  501    0  0.00000000000E+00  0.00000000000E+00  0.54954057570E+03  0.54954057570E+03  0.00000000000E+00 0. -1.
         -2   -1    0    0    0  501 -0.00000000000E+00 -0.00000000000E+00 -0.22048345634E+02  0.22048345634E+02  0.00000000000E+00 0.  1.
         25    2    1    2    0    0  0.39116465072E+01 -0.21182354997E+02  0.30846827780E+03  0.33356365559E+03  0.12509212916E+03 0.  0.
          5    1    3    3  502    0  0.24051747734E+02  0.46891008779E+02  0.16798287729E+03  0.17610500485E+03  0.41800000000E+01 0.  1.
         -5    1    3    3    0  502 -0.20140101227E+02 -0.68073363776E+02  0.14048540052E+03  0.15745865073E+03  0.41800000000E+01 0.  1.
        -11    1    1    2    0    0  0.38722442246E+02  0.21075904048E+02  0.15466662183E+03  0.16082719040E+03  0.00000000000E+00 0.  1.
         11    1    1    2    0    0 -0.42634088753E+02  0.10645094921E+00  0.64357330436E+02  0.77198075342E+02  0.00000000000E+00 0. -1.
</event>
<event>
 7    1  0.2733606E-009  0.3386445E+03  0.7561462E-02  0.1067375E+00
         -2   -1    0    0    0  501 -0.00000000000E+00  0.00000000000E+00  0.15541290610E+03  0.15541290610E+03  0.00000000000E+00 0.  1.
          2   -1    0    0  501    0  0.00000000000E+00 -0.00000000000E+00 -0.10935256567E+04  0.10935256567E+04  0.00000000000E+00 0. -1.
         25    2    1    2    0    0  0.31124446035E+03 -0.97529448148E+02 -0.82023476560E+03  0.89152550628E+03  0.12509016868E+03 0.  0.
          5    1    3    3  502    0  0.31143599037E+03 -0.10722230209E+03 -0.81630301125E+03  0.88025966438E+03  0.41800000000E+01 0. -1.
         -5    1    3    3    0  502 -0.19153002179E+00  0.96928539457E+01 -0.39317543446E+01  0.11265841894E+02  0.41800000000E+01 0. -1.
        -11    1    1    2    0    0 -0.26358966809E+03  0.46774392345E+02 -0.96808962753E+02  0.28467408061E+03  0.00000000000E+00 0.  1.
         11    1    1    2    0    0 -0.47654792259E+02  0.50755055804E+02 -0.21069022223E+02  0.72738975882E+02  0.00000000000E+00 0. -1.
</event>
<event>
 7    1  0.2733606E-009  0.1053372E+03  0.7561462E-02  0.1269457E+00
         -4   -1    0    0    0  501 -0.00000000000E+00  0.00000000000E+00  0.23756608714E+02  0.23756608714E+02  0.00000000000E+00 0.  1.
          4   -1    0    0  501    0  0.00000000000E+00 -0.00000000000E+00 -0.64260781508E+03  0.64260781508E+03  0.00000000000E+00 0. -1.
         25    2    1    2    0    0 -0.21304177158E+02 -0.48888960588E+02 -0.41452862783E+03  0.43626198266E+03  0.12508611351E+03 0.  0.
          5    1    3    3  502    0 -0.52576023381E+02  0.14058325912E+01 -0.32220232447E+03  0.32649352964E+03  0.41800000000E+01 0. -1.
         -5    1    3    3    0  502  0.31271846223E+02 -0.50294793179E+02 -0.92326303353E+02  0.10976845302E+03  0.41800000000E+01 0. -1.
        -11    1    1    2    0    0 -0.29276452290E+02  0.35893111335E+02 -0.13873684845E+03  0.14626462053E+03  0.00000000000E+00 0. -1.
         11    1    1    2    0    0  0.50580629448E+02  0.12995849253E+02 -0.65585730087E+02  0.83837820608E+02  0.00000000000E+00 0.  1.
</event>
<event>
 7    1  0.2733606E-009  0.2570438E+03  0.7561462E-02  0.1108932E+00
         -2   -1    0    0    0  501 -0.00000000000E+00  0.00000000000E+00  0.95502193275E+02  0.95502193275E+02  0.00000000000E+00 0.  1.
          2   -1    0    0  501    0  0.00000000000E+00 -0.00000000000E+00 -0.85413344851E+03  0.85413344851E+03  0.00000000000E+00 0. -1.
         25    2    1    2    0    0 -0.20060207736E+03 -0.12240360650E+03 -0.18780076141E+03  0.32579003761E+03  0.12508471648E+03 0.  0.
          5    1    3    3  502    0 -0.21492927235E+03 -0.12655219278E+03 -0.16845147630E+03  0.30100402303E+03  0.41800000000E+01 0.  1.
         -5    1    3    3    0  502  0.14327194996E+02  0.41485862833E+01 -0.19349285108E+02  0.24786014581E+02  0.41800000000E+01 0.  1.
        -11    1    1    2    0    0  0.24029718793E+02 -0.12356915848E+02 -0.38537036883E+02  0.47066165833E+02  0.00000000000E+00 0.  1.
         11    1    1    2    0    0  0.17657235856E+03  0.13476052234E+03 -0.53229345695E+03  0.57677943834E+03  0.00000000000E+00 0. -1.
</event>
<event>
 7    1  0.2733606E-009  0.1622111E+03  0.7561462E-02  0.1186223E+00
         -1   -1    0    0    0  501 -0.00000000000E+00  0.00000000000E+00  0.26091985232E+03  0.26091985232E+03  0.00000000000E+00 0.  1.
          1   -1    0    0  501    0  0.00000000000E+00 -0.00000000000E+00 -0.13378368981E+03  0.13378368981E+03  0.00000000000E+00 0. -1.
         25    2    1    2    0    0  0.13675613624E+03 -0.17234434156E+02  0.75906656439E+00  0.18613815916E+03  0.12509025380E+03 0.  0.
          5    1    3    3  502    0  0.37786032208E+02  0.52305619677E+02 -0.58610561427E+01  0.64926777672E+02  0.41800000000E+01 0. -1.
         -5    1    3    3    0  502  0.98970104030E+02 -0.69540053832E+02  0.66201227071E+01  0.12121138149E+03  0.41800000000E+01 0. -1.
        -11    1    1    2    0    0 -0.35303273913E+02  0.11444753522E+02  0.95347579806E+02  0.10231551450E+03  0.00000000000E+00 0.  1.
         11    1    1    2    0    0 -0.10145286232E+03  0.57896806335E+01  0.31029516141E+02  0.10624986846E+03  0.00000000000E+00 0. -1.
</event>
<event>
 7    1  0.2733606E-009  0.8527064E+02  0.7561462E-02  0.1314726E+00
         -2   -1    0    0    0  501 -0.00000000000E+00  0.00000000000E+00  0.58608969209E+02  0.58608969209E+02  0.00000000000E+00 0.  1.
          2   -1    0    0  501    0  0.00000000000E+00 -0.00000000000E+00 -0.44829821936E+03  0.44829821936E+03  0.00000000000E+00 0. -1.
         25    2    1    2    0    0 -0.35206665979E+02 -0.62909843726E+02 -0.58052299231E+02  0.15561093308E+03  0.12509010864E+03 0.  0.
          5    1    3    3  502    0 -0.18469083946E+02 -0.23627958354E+01 -0.85009814960E+02  0.87125374636E+02  0.41800000000E+01 0.  1.
         -5    1    3    3    0  502 -0.16737582034E+02 -0.60547047891E+02  0.26957515729E+02  0.68485558441E+02  0.41800000000E+01 0.  1.
        -11    1    1    2    0    0  0.36470912873E+02  0.13216216699E+02 -0.41015466375E+02  0.56454090655E+02  0.00000000000E+00 0.  1.
         11    1    1    2    0    0 -0.12642468938E+01  0.49693627027E+02 -0.29062148454E+03  0.29484216483E+03  0.00000000000E+00 0. -1.
</event>
<event>
 7    1  0.2733606E-009  0.1063291E+03  0.7561462E-02  0.1267523E+00
          1   -1    0    0  501    0  0.00000000000E+00  0.00000000000E+00  0.13193755850E+03  0.13193755850E+03  0.00000000000E+00 0. -1.
         -1   -1    0    0    0  501 -0.00000000000E+00 -0.00000000000E+00 -0.10505277143E+03  0.10505277143E+03  0.00000000000E+00 0.  1.
         25    2    1    2    0    0 -0.33630460046E+02 -0.12199691637E+02 -0.16641755811E+02  0.13116812807E+03  0.12509312318E+03 0.  0.
          5    1    3    3  502    0  0.28797746202E+02 -0.47899031704E+02 -0.18757090670E+02  0.59101000625E+02  0.41800000000E+01 0. -1.
         -5    1    3    3    0  502 -0.62428206248E+02  0.35699340067E+02  0.21153348591E+01  0.72067127444E+02  0.41800000000E+01 0. -1.
        -11    1    1    2    0    0  0.57808488251E+02  0.16278835022E+02  0.51446492978E+01  0.60276771645E+02  0.00000000000E+00 0.  1.
         11    1    1    2    0    0 -0.24178028205E+02 -0.40791433853E+01  0.38381893584E+02  0.45545430218E+02  0.00000000000E+00 0. -1.
</event>
<event>
 7    1  0.2733606E-009  0.3321830E+03  0.7561462E-02  0.1070175E+00
          1   -1    0    0  501    0  0.00000000000E+00  0.00000000000E+00  0.89938102861E+03  0.89938102861E+03  0.00000000000E+00 0. -1.
         -1   -1    0    0    0  501 -0.00000000000E+00 -0.00000000000E+00 -0.22281878311E+03  0.22281878311E+03  0.00000000000E+00 0.  1.
         25    2    1    2    0    0 -0.28219471539E+03  0.17074670161E+03 -0.12157901393E+02  0.35296392230E+03  0.12508965735E+03 0.  0.
          5    1    3    3  502    0 -0.13773618677E+03  0.11380200273E+03  0.50119296780E+02  0.18561133931E+03  0.41800000000E+01 0. -1.
         -5    1    3    3    0  502 -0.14445852862E+03  0.56944698883E+02 -0.62277198173E+02  0.16735258300E+03  0.41800000000E+01 0. -1.
        -11    1    1    2    0    0  0.15290085502E+03 -0.82067198136E+02  0.25856611016E+03  0.31140027264E+03  0.00000000000E+00 0.  1.
         11    1    1    2    0    0  0.12929386038E+03 -0.88679503473E+02  0.43015403674E+03  0.45783561678E+03  0.00000000000E+00 0. -1.
</event>
<event>
 7    1  0.2733606E-009  0.1054055E+03  0.7561462E-02  0.1269323E+00
          1   -1    0    0  501    0  0.00000000000E+00  0.00000000000E+00  0.12020839984E+03  0.12020839984E+03  0.00000000000E+00 0.  1.
         -1   -1    0    0    0  501 -0.00000000000E+00 -0.00000000000E+00 -0.22557898522E+03  0.22557898522E+03  0.00000000000E+00 0. -1.
         25    2    1    2    0    0  0.47209639309E+02  0.46496019476E+02  0.53097596565E+02  0.15118262754E+03  0.12508478020E+03 0.  0.
          5    1    3    3  502    0  0.58363377554E+02  0.83405739109E+02  0.30760020972E+02  0.10642580724E+03  0.41800000000E+01 0. -1.
         -5    1    3    3    0  502 -0.11153738245E+02 -0.36909719634E+02  0.22337575593E+02  0.44756820303E+02  0.41800000000E+01 0. -1.
        -11    1    1    2    0    0 -0.21734470418E+02 -0.37086319347E+02 -0.10613577312E+02  0.44276746836E+02  0.00000000000E+00 0.  1.
         11    1    1    2    0    0 -0.25475168891E+02 -0.94097001294E+01 -0.14785460463E+03  0.15032801068E+03  0.00000000000E+00 0. -1.
</event>
<event>
 7    1  0.2733606E-009  0.1222474E+03  0.7561462E-02  0.1239435E+00
         -1   -1    0    0    0  501 -0.00000000000E+00  0.00000000000E+00  0.44306958945E+02  0.44306958945E+02  0.00000000000E+00 0.  1.
          1   -1    0    0  501    0  0.00000000000E+00 -0.00000000000E+00 -0.42290676485E+03  0.42290676485E+03  0.00000000000E+00 0. -1.
         25    2    1    2    0    0  0.81611267189E+02  0.99430409387E+01 -0.20883325498E+03  0.25694018886E+03  0.12509064420E+03 0.  0.
          5    1    3    3  502    0  0.35589659167E+02  0.63913770644E+02 -0.13999126507E+03  0.15800829286E+03  0.41800000000E+01 0.  1.
         -5    1    3    3    0  502  0.46021608022E+02 -0.53970729705E+02 -0.68841989919E+02  0.98931895998E+02  0.41800000000E+01 0.  1.
        -11    1    1    2    0    0 -0.37395630104E+02  0.23993962503E+02 -0.14041999394E+03  0.14728176427E+03  0.00000000000E+00 0. -1.
         11    1    1    2    0    0 -0.44215637084E+02 -0.33937003442E+02 -0.29346556975E+02  0.62991770666E+02  0.00000000000E+00 0.  1.
</event>
<event>
 7    1  0.2733606E-009  0.2141526E+03  0.7561462E-02  0.1138319E+00
         -1   -1    0    0    0  501 -0.00000000000E+00  0.00000000000E+00  0.22458780204E+03  0.22458780204E+03  0.00000000000E+00 0. -1.
          1   -1    0    0  501    0  0.00000000000E+00 -0.00000000000E+00 -0.22612452688E+03  0.22612452688E+03  0.00000000000E+00 0.  1.
         25    2    1    2    0    0 -0.46041765078E+02  0.18408213453E+03  0.59404757774E+02  0.23490774331E+03  0.12508655496E+03 0.  0.
          5    1    3    3  502    0 -0.59353097820E+02  0.20656946871E+02  0.11398430194E+02  0.64007001849E+02  0.41800000000E+01 0. -1.
         -5    1    3    3    0  502  0.13311332743E+02  0.16342518766E+03  0.48006327580E+02  0.17090074146E+03  0.41800000000E+01 0. -1.
        -11    1    1    2    0    0  0.63491917822E+02 -0.13436085331E+03 -0.66519664800E+02  0.16281562682E+03  0.00000000000E+00 0.  1.
         11    1    1    2    0    0 -0.17450152744E+02 -0.49721281227E+02  0.55781821886E+01  0.52988958795E+02  0.00000000000E+00 0. -1.
</event>
<event>
 7    1  0.2733606E-009  0.1350998E+03  0.7561462E-02  0.1220079E+00
          2   -1    0    0  501    0  0.00000000000E+00  0.00000000000E+00  0.22343720132E+03  0.22343720132E+03  0.00000000000E+00 0. -1.
         -2   -1    0    0    0  501 -0.00000000000E+00 -0.00000000000E+00 -0.12986200260E+03  0.12986200260E+03  0.00000000000E+00 0.  1.
         25    2    1    2    0    0 -0.73874951308E+02 -0.64938804367E+02  0.14029782784E+03  0.21214254186E+03  0.12508565396E+03 0.  0.
          5    1    3    3  502    0  0.23225543201E+02 -0.14705942954E+02  0.85249337545E+02  0.89669462845E+02  0.41800000000E+01 0.  1.
         -5    1    3    3    0  502 -0.97100494508E+02 -0.50232861413E+02  0.55048490296E+02  0.12247307901E+03  0.41800000000E+01 0.  1.
        -11    1    1    2    0    0  0.57884381033E+02  0.87755821488E+02 -0.33660705196E+02  0.11038445926E+03  0.00000000000E+00 0. -1.
         11    1    1    2    0    0  0.15990570274E+02 -0.22817017122E+02 -0.13061923922E+02  0.30772202790E+02  0.00000000000E+00 0.  1.
</event>
<event>
 7    1  0.2733606E-009  0.7589554E+02  0.7561462E-02  0.1341120E+00
         -1   -1    0    0    0  501 -0.00000000000E+00  0.00000000000E+00  0.42980289872E+03  0.42980289872E+03  0.00000000000E+00 0.  1.
          1   -1    0    0  501    0  0.00000000000E+00 -0.00000000000E+00 -0.44484987524E+02  0.44484987524E+02  0.00000000000E+00 0. -1.
         25    2    1    2    0    0  0.16661046203E+02  0.21339051369E+02  0.35153820603E+03  0.37411146426E+03  0.12508929540E+03 0.  0.
          5    1    3    3  502    0 -0.14179104314E+02 -0.12025735755E+02  0.31521875422E+03  0.31579423796E+03  0.41800000000E+01 0. -1.
         -5    1    3    3    0  502  0.30840150517E+02  0.33364787123E+02  0.36319451811E+02  0.58317226302E+02  0.41800000000E+01 0. -1.
        -11    1    1    2    0    0 -0.35599150918E+02  0.20572892184E+02 -0.30874238674E+01  0.41231973334E+02  0.00000000000E+00 0.  1.
         11    1    1    2    0    0  0.18938104715E+02 -0.41911943552E+02  0.36867129031E+02  0.58944448641E+02  0.00000000000E+00 0. -1.
</event>
<event>
 7    1  0.2733606E-009  0.9294870E+02  0.7561462E-02  0.1295864E+00
         -1   -1    0    0    0  501 -0.00000000000E+00  0.00000000000E+00  0.28182179220E+02  0.28182179220E+02  0.00000000000E+00 0.  1.
          1   -1    0    0  501    0  0.00000000000E+00 -0.00000000000E+00 -0.47598424141E+03  0.47598424141E+03  0.00000000000E+00 0. -1.
         25    2    1    2    0    0  0.86937092955E+01 -0.27071298531E+02 -0.21868427644E+03  0.25353261121E+03  0.12509011313E+03 0.  0.
          5    1    3    3  502    0 -0.19671981173E+02  0.34677356143E+02 -0.15572744967E+03  0.16080428121E+03  0.41800000000E+01 0. -1.
         -5    1    3    3    0  502  0.28365690468E+02 -0.61748654674E+02 -0.62956826762E+02  0.92728330006E+02  0.41800000000E+01 0. -1.
        -11    1    1    2    0    0  0.31754284727E+02  0.67502065461E+01 -0.23459910841E+02  0.40053305777E+02  0.00000000000E+00 0.  1.
         11    1    1    2    0    0 -0.40447994023E+02  0.20321091985E+02 -0.20565787492E+03  0.21058050365E+03  0.00000000000E+00 0. -1.
</event>
<event>
 7    1  0.2733606E-009  0.1038597E+03  0.7561462E-02  0.1272383E+00
         -4   -1    0    0    0  501 -0.00000000000E+00  0.00000000000E+00  0.30229232674E+02  0.30229232674E+02  0.00000000000E+00 0. -1.
          4   -1    0    0  501    0  0.00000000000E+00 -0.00000000000E+00 -0.48942078101E+03  0.48942078101E+03  0.00000000000E+00 0.  1.
         25    2    1    2    0    0 -0.42015608042E+02 -0.54045137613E+01 -0.18432148924E+03  0.22675211221E+03  0.12509032300E+03 0.  0.
          5    1    3    3  502    0  0.23128212362E+02  0.26495909819E+02 -0.83749156186E+01  0.36394492108E+02  0.41800000000E+01 0.  1.
         -5    1    3    3    0  502 -0.65143820404E+02 -0.31900423580E+02 -0.17594657362E+03  0.19035762010E+03  0.41800000000E+01 0.  1.
        -11    1    1    2    0    0  0.22288666474E+02  0.47879736568E+02 -0.17072660687E+03  0.17870878020E+03  0.00000000000E+00 0. -1.
         11    1    1    2    0    0  0.19726941568E+02 -0.42475222806E+02 -0.10414345223E+03  0.11418912127E+03  0.00000000000E+00 0.  1.
</event>
<event>
 7    1  0.2733606E-009  0.1647245E+03  0.7561462E-02  0.1183464E+00
         -1   -1    0    0    0  501 -0.00000000000E+00  0.00000000000E+00  0.39474190548E+03  0.39474190548E+03  0.00000000000E+00 0.  1.
          1   -1    0    0  501    0  0.00000000000E+00 -0.00000000000E+00 -0.55711847681E+03  0.55711847681E+03  0.00000000000E+00 0. -1.
         25    2    1    2    0    0 -0.19254718277E+02  0.13886481262E+03  0.35891723897E+03  0.40512194322E+03  0.12509206244E+03 0.  0.
          5    1    3    3  502    0 -0.53641660707E+02  0.10076470161E+03  0.14234233926E+03  0.18250963482E+03  0.41800000000E+01 0.  1.
         -5    1    3    3    0  502  0.34386942429E+02  0.38100111014E+02  0.21657489971E+03  0.22261230840E+03  0.41800000000E+01 0.  1.
        -11    1    1    2    0    0  0.47607896321E+02 -0.12145993531E+03 -0.43900937826E+03  0.45798281832E+03  0.00000000000E+00 0. -1.
         11    1    1    2    0    0 -0.28353178043E+02 -0.17404877316E+02 -0.82284432042E+02  0.88755620757E+02  0.00000000000E+00 0.  1.
</event>
<event>
 7    1  0.2733606E-009  0.1102807E+03  0.7561462E-02  0.1260051E+00
          1   -1    0    0  501    0  0.00000000000E+00  0.00000000000E+00  0.40020166627E+02  0.40020166627E+02  0.00000000000E+00 0. -1.
         -1   -1    0    0    0  501 -0.00000000000E+00 -0.00000000000E+00 -0.47197480103E+03  0.47197480103E+03  0.00000000000E+00 0.  1.
         25    2    1    2    0    0 -0.14453177283E+02 -0.49123896096E+02 -0.36277456011E+03  0.38713624559E+03  0.12508812769E+03 0.  0.
          5    1    3    3  502    0  0.38842054930E+02 -0.67995268986E+02 -0.21584432841E+03  0.22964822739E+03  0.41800000000E+01 0. -1.
         -5    1    3    3    0  502 -0.53295232213E+02  0.18871372890E+02 -0.14693023169E+03  0.15748801820E+03  0.41800000000E+01 0. -1.
        -11    1    1    2    0    0 -0.15259352742E+02  0.53304066594E+02 -0.76012564560E+02  0.94085500118E+02  0.00000000000E+00 0.  1.
         11    1    1    2    0    0  0.29712530024E+02 -0.41801704976E+01  0.68324902636E+01  0.30773221948E+02  0.00000000000E+00 0. -1.
</event>
<event>
 7    1  0.2733606E-009  0.9767311E+02  0.7561462E-02  0.1285267E+00
         -1   -1    0    0    0  501 -0.00000000000E+00  0.00000000000E+00  0.62714339105E+02  0.62714339105E+02  0.00000000000E+00 0.  1.
          1   -1    0    0  501    0  0.00000000000E+00 -0.00000000000E+00 -0.27587944878E+03  0.27587944878E+03  0.00000000000E+00 0. -1.
         25    2    1    2    0    0  0.53708958581E+02 -0.33812864784E+02 -0.16850438794E+03  0.21924439196E+03  0.12508562106E+03 0.  0.
          5    1    3    3  502    0  0.78643754788E+02 -0.39580942786E+02 -0.57471228536E+02  0.10522312345E+03  0.41800000000E+01 0.  1.
         -5    1    3    3    0  502 -0.24934796207E+02  0.57680780018E+01 -0.11103315941E+03  0.11402126851E+03  0.41800000000E+01 0.  1.
        -11    1    1    2    0    0 -0.13576345409E+02 -0.13557749228E+02 -0.53316262313E+02  0.56663511590E+02  0.00000000000E+00 0. -1.
         11    1    1    2    0    0 -0.40132613173E+02  0.47370614012E+02  0.86555405785E+01  0.62685884333E+02  0.00000000000E+00 0.  1.
</event>
<event>
 7    1  0.2733606E-009  0.1351454E+03  0.7561462E-02  0.1220015E+00
          1   -1    0    0  501    0  0.00000000000E+00  0.00000000000E+00  0.90657790126E+02  0.90657790126E+02  0.00000000000E+00 0. -1.
         -1   -1    0    0    0  501 -0.00000000000E+00 -0.00000000000E+00 -0.39145584899E+03  0.39145584899E+03  0.00000000000E+00 0.  1.
         25    2    1    2    0    0 -0.88373128829E+02 -0.87067351669E+02 -0.27191850926E+03  0.32400123442E+03  0.12508633258E+03 0.  0.
          5    1    3    3  502    0 -0.90972292212E+02 -0.97846908984E+02 -0.27957935541E+03  0.30989040631E+03  0.41800000000E+01 0.  1.
         -5    1    3    3    0  502  0.25991633827E+01  0.10779557314E+02  0.76608461501E+01  0.14110828109E+02  0.41800000000E+01 0.  1.
        -11    1    1    2    0    0  0.33855141913E+02  0.42625375724E+02  0.33653388464E+02  0.63997217476E+02  0.00000000000E+00 0. -1.
         11    1    1    2    0    0  0.54517986916E+02  0.44441975946E+02 -0.62532938066E+02  0.94115187225E+02  0.00000000000E+00 0.  1.
</event>
<event>
 7    1  0.2733606E-009  0.1743533E+03  0.7561462E-02  0.1173383E+00
          1   -1    0    0  501    0  0.00000000000E+00  0.00000000000E+00  0.23856534893E+03  0.23856534893E+03  0.00000000000E+00 0. -1.
         -1   -1    0    0    0  501 -0.00000000000E+00 -0.00000000000E+00 -0.13465420408E+03  0.13465420408E+03  0.00000000000E+00 0.  1.
         25    2    1    2    0    0 -0.68150688533E+02  0.11850839299E+03  0.96968352489E+02  0.20913877654E+03  0.12508961151E+03 0.  0.
          5    1    3    3  502    0  0.25428363495E+02  0.79910253875E+02  0.45640036337E+02  0.95565347596E+02  0.41800000000E+01 0.  1.
         -5    1    3    3    0  502 -0.93579052029E+02  0.38598139120E+02  0.51328316152E+02  0.11357342894E+03  0.41800000000E+01 0.  1.
        -11    1    1    2    0    0 -0.38640720845E+00  0.14128086609E+02  0.42513463735E+01  0.14758932474E+02  0.00000000000E+00 0.  1.
         11    1    1    2    0    0  0.68537095742E+02 -0.13263647960E+03  0.26914459915E+01  0.14932184400E+03  0.00000000000E+00 0. -1.
</event>
<event>
 7    1  0.2733606E-009  0.6317132E+02  0.7561462E-02  0.1384985E+00
          1   -1    0    0  501    0  0.00000000000E+00  0.00000000000E+00  0.19036359088E+03  0.19036359088E+03  0.00000000000E+00 0. -1.
         -1   -1    0    0    0  501 -0.00000000000E+00 -0.00000000000E+00 -0.76258331933E+02  0.76258331933E+02  0.00000000000E+00 0.  1.
         25    2    1    2    0    0 -0.19072626053E+02 -0.26781645484E+02  0.11237125125E+03  0.17133359103E+03  0.12508748821E+03 0.  0.
          5    1    3    3  502    0 -0.14274373750E+02 -0.32878609804E+02  0.13883121724E+03  0.14344455377E+03  0.41800000000E+01 0. -1.
         -5    1    3    3    0  502 -0.47982523023E+01  0.60969643197E+01 -0.26459965982E+02  0.27889037252E+02  0.41800000000E+01 0. -1.
        -11    1    1    2    0    0 -0.11125546392E+02 -0.21665470361E+02  0.23829273035E+02  0.34073518190E+02  0.00000000000E+00 0. -1.
         11    1    1    2    0    0  0.30198172444E+02  0.48447115845E+02 -0.22095265345E+02  0.61214813594E+02  0.00000000000E+00 0.  1.
</event>
<event>
 7    1  0.2733606E-009  0.1303286E+03  0.7561462E-02  0.1226969E+00
          2   -1    0    0  501    0  0.00000000000E+00  0.00000000000E+00  0.21483839590E+03  0.21483839590E+03  0.00000000000E+00 0. -1.
         -2   -1    0    0    0  501 -0.00000000000E+00 -0.00000000000E+00 -0.10990113341E+03  0.10990113341E+03  0.00000000000E+00 0.  1.
         25    2    1    2    0    0  0.18963333584E+02 -0.99459652606E+02  0.11799329772E+02  0.16136484871E+03  0.12509020625E+03 0.  0.
          5    1    3    3  502    0  0.71508024372E+02 -0.61919084419E+02 -0.39434931888E+01  0.94764941320E+02  0.41800000000E+01 0.  1.
         -5    1    3    3    0  502 -0.52544690788E+02 -0.37540568187E+02  0.15742822961E+02  0.66599907392E+02  0.41800000000E+01 0.  1.
        -11    1    1    2    0    0 -0.13352811111E+02  0.73462021930E+02  0.90874786172E+01  0.75216676995E+02  0.00000000000E+00 0.  1.
         11    1    1    2    0    0 -0.56105224722E+01  0.25997630677E+02  0.84050454101E+02  0.88158003595E+02  0.00000000000E+00 0. -1.
</event>
<event>
 7    1  0.2733606E-009  0.1001485E+03  0.7561462E-02  0.1279984E+00
         -2   -1    0    0    0  501 -0.00000000000E+00  0.00000000000E+00  0.70338647095E+02  0.70338647095E+02  0.00000000000E+00 0. -1.
          2   -1    0    0  501    0  0.00000000000E+00 -0.00000000000E+00 -0.24240043459E+03  0.24240043459E+03  0.00000000000E+00 0.  1.
         25    2    1    2    0    0  0.55165453539E+02  0.43344670218E+02 -0.11478513491E+03  0.18369410375E+03  0.12508360747E+03 0.  0.
          5    1    3    3  502    0  0.80374903290E+02  0.89631199919E+00 -0.30793988161E+02  0.86178132730E+02  0.41800000000E+01 0. -1.
         -5    1    3    3    0  502 -0.25209449751E+02  0.42448358219E+02 -0.83991146748E+02  0.97515971021E+02  0.41800000000E+01 0. -1.
        -11    1    1    2    0    0 -0.20656965159E+02 -0.13893723102E+02  0.24879045141E+02  0.35195349669E+02  0.00000000000E+00 0. -1.
         11    1    1    2    0    0 -0.34508488380E+02 -0.29450947117E+02 -0.82155697730E+02  0.93849628267E+02  0.00000000000E+00 0.  1.
</event>
<event>
 7    1  0.2733606E-009  0.1175201E+03  0.7561462E-02  0.1247245E+00
          2   -1    0    0  501    0  0.00000000000E+00  0.00000000000E+00  0.37250166300E+03  0.37250166300E+03  0.00000000000E+00 0. -1.
         -2   -1    0    0    0  501 -0.00000000000E+00 -0.00000000000E+00 -0.46042948050E+02  0.46042948050E+02  0.00000000000E+00 0.  1.
         25    2    1    2    0    0 -0.21907529551E+02  0.74261765198E+02  0.18685565161E+03  0.23781553740E+03  0.12508575327E+03 0.  0.
          5    1    3    3  502    0 -0.61425495558E+02  0.38193838018E+01  0.52536356282E+02  0.81026047223E+02  0.41800000000E+01 0.  1.
         -5    1    3    3    0  502  0.39517966007E+02  0.70442381397E+02  0.13431929533E+03  0.15678949018E+03  0.41800000000E+01 0.  1.
        -11    1    1    2    0    0  0.35664617636E+02 -0.31596011014E+02  0.12469191915E+03  0.13348538334E+03  0.00000000000E+00 0. -1.
         11    1    1    2    0    0 -0.13757088085E+02 -0.42665754184E+02  0.14911144187E+02  0.47243690305E+02  0.00000000000E+00 0.  1.
</event>
<event>
 7    1  0.2733606E-009  0.1174162E+03  0.7561462E-02  0.1247421E+00
          2   -1    0    0  501    0  0.00000000000E+00  0.00000000000E+00  0.66078564414E+03  0.66078564414E+03  0.00000000000E+00 0.  1.
         -2   -1    0    0    0  501 -0.00000000000E+00 -0.00000000000E+00 -0.27947298451E+02  0.27947298451E+02  0.00000000000E+00 0. -1.
         25    2    1    2    0    0 -0.92938552585E+01 -0.60526253527E+02  0.50219967078E+03  0.52115456992E+03  0.12509106003E+03 0.  0.
          5    1    3    3  502    0 -0.57122747922E+02 -0.68273436839E+02  0.28647620734E+03  0.30001726663E+03  0.41800000000E+01 0.  1.
         -5    1    3    3    0  502  0.47828892664E+02  0.77471833113E+01  0.21572346345E+03  0.22113730328E+03  0.41800000000E+01 0.  1.
        -11    1    1    2    0    0  0.29035626755E+02 -0.42689407018E+01  0.72855634191E+02  0.78544477267E+02  0.00000000000E+00 0.  1.
         11    1    1    2    0    0 -0.19741771497E+02  0.64795194229E+02  0.57783040716E+02  0.89033895407E+02  0.00000000000E+00 0. -1.
</event>
<event>
 7    1  0.2733606E-009  0.1090431E+03  0.7561462E-02  0.1262352E+00
         -2   -1    0    0    0  501 -0.00000000000E+00  0.00000000000E+00  0.19047512842E+03  0.19047512842E+03  0.00000000000E+00 0.  1.
          2   -1    0    0  501    0  0.00000000000E+00 -0.00000000000E+00 -0.91921004286E+02  0.91921004286E+02  0.00000000000E+00 0. -1.
         25    2    1    2    0    0  0.54837595835E+02  0.48416205333E+02  0.75907838608E+02  0.16358717751E+03  0.12508986301E+03 0.  0.
          5    1    3    3  502    0  0.91049993809E+02  0.10570200651E+02  0.55376182481E+02  0.10717193896E+03  0.41800000000E+01 0. -1.
         -5    1    3    3    0  502 -0.36212397974E+02  0.37846004683E+02  0.20531656127E+02  0.56415238551E+02  0.41800000000E+01 0. -1.
        -11    1    1    2    0    0 -0.82469874401E+01 -0.12411172087E+02  0.51232084766E+02  0.53355191911E+02  0.00000000000E+00 0.  1.
         11    1    1    2    0    0 -0.46590608395E+02 -0.36005033246E+02 -0.28585799241E+02  0.65453763283E+02  0.00000000000E+00 0. -1.
</event>
<event>
 7    1  0.2733606E-009  0.9966928E+02  0.7561462E-02  0.1280993E+00
         -3   -1    0    0    0  501 -0.00000000000E+00  0.00000000000E+00  0.19277311408E+02  0.19277311408E+02  0.00000000000E+00 0.  1.
          3   -1    0    0  501    0  0.00000000000E+00 -0.00000000000E+00 -0.65260994646E+03  0.65260994646E+03  0.00000000000E+00 0. -1.
         25    2    1    2    0    0  0.90049046113E+01 -0.27665730022E+02 -0.35512734597E+03  0.37763707824E+03  0.12509136692E+03 0.  0.
          5    1    3    3  502    0 -0.21694028823E+02  0.34256819556E+02 -0.23886384492E+03  0.24231708439E+03  0.41800000000E+01 0.  1.
         -5    1    3    3    0  502  0.30698933435E+02 -0.61922549578E+02 -0.11626350105E+03  0.13531999385E+03  0.41800000000E+01 0.  1.
        -11    1    1    2    0    0  0.37262461685E+02  0.43234434734E+01 -0.67065353763E+02  0.76843639227E+02  0.00000000000E+00 0.  1.
         11    1    1    2    0    0 -0.46267366296E+02  0.23342286549E+02 -0.21113993531E+03  0.21740654040E+03  0.00000000000E+00 0. -1.
</event>
<event>
 7    1  0.2733606E-009  0.9913885E+02  0.7561462E-02  0.1282117E+00
         -2   -1    0    0    0  501 -0.00000000000E+00  0.00000000000E+00  0.49923641972E+02  0.49923641972E+02  0.00000000000E+00 0.  1.
          2   -1    0    0  501    0  0.00000000000E+00 -0.00000000000E+00 -0.42273920130E+03  0.42273920130E+03  0.00000000000E+00 0. -1.
         25    2    1    2    0    0 -0.46152259530E+02 -0.13408136380E+01 -0.34102923077E+03  0.36616937706E+03  0.12508895881E+03 0.  0.
          5    1    3    3  502    0 -0.10272958230E+02  0.57554399992E+02 -0.10518426759E+03  0.12041281152E+03  0.41800000000E+01 0.  1.
         -5    1    3    3    0  502 -0.35879301300E+02 -0.58895213630E+02 -0.23584496318E+03  0.24575656554E+03  0.41800000000E+01 0.  1.
        -11    1    1    2    0    0 -0.71367910494E+01 -0.13488682658E+02  0.23672642604E+02  0.28165091056E+02  0.00000000000E+00 0.  1.
         11    1    1    2    0    0  0.53289050579E+02  0.14829496296E+02 -0.55458971167E+02  0.78328375159E+02  0.00000000000E+00 0. -1.
</event>
<event>
 7    1  0.2733606E-009  0.8778499E+02  0.7561462E-02  0.1308306E+00
          2   -1    0    0  501    0  0.00000000000E+00  0.00000000000E+00  0.16599207184E+03  0.16599207184E+03  0.00000000000E+00 0. -1.
         -2   -1    0    0    0  501 -0.00000000000E+00 -0.00000000000E+00 -0.88096555761E+02  0.88096555761E+02  0.00000000000E+00 0.  1.
         25    2    1    2    0    0 -0.10966438268E+02 -0.44107897233E+02  0.17070913721E+02  0.13417508291E+03  0.12508304206E+03 0.  0.
          5    1    3    3  502    0  0.23703114700E+02 -0.11354135284E+02  0.62652056212E+02  0.68069865448E+02  0.41800000000E+01 0.  1.
         -5    1    3    3    0  502 -0.34669552968E+02 -0.32753761948E+02 -0.45581142491E+02  0.66105217461E+02  0.41800000000E+01 0.  1.
        -11    1    1    2    0    0  0.35712420501E+02 -0.13659349686E+02  0.11210832444E+02  0.39845170046E+02  0.00000000000E+00 0. -1.
         11    1    1    2    0    0 -0.24745982233E+02  0.57767246919E+02  0.49613769911E+02  0.80068374643E+02  0.00000000000E+00 0.  1.
</event>
<event>
 7    1  0.2733606E-009  0.1003620E+03  0.7561462E-02  0.1279537E+00
         -1   -1    0    0    0  501 -0.00000000000E+00  0.00000000000E+00  0.41025683478E+03  0.41025683478E+03  0.00000000000E+00 0.  1.
          1   -1    0    0  501    0  0.00000000000E+00 -0.00000000000E+00 -0.50486827672E+02  0.50486827672E+02  0.00000000000E+00 0. -1.
         25    2    1    2    0    0 -0.67931248817E+02  0.46281627454E+02  0.12139859310E+03  0.19272113390E+03  0.12508866232E+03 0.  0.
          5    1    3    3  502    0 -0.90202959637E+00 -0.69147589934E+01  0.10521765891E+03  0.10553130198E+03  0.41800000000E+01 0. -1.
         -5    1    3    3    0  502 -0.67029219220E+02  0.53196386447E+02  0.16180934189E+02  0.87189831927E+02  0.41800000000E+01 0. -1.
        -11    1    1    2    0    0  0.35049716704E+02  0.14406515817E+02  0.15608850921E+03  0.16062270402E+03  0.00000000000E+00 0.  1.
         11    1    1    2    0    0  0.32881532112E+02 -0.60688143271E+02  0.82282904800E+02  0.10739982453E+03  0.00000000000E+00 0. -1.
</event>
<event>
 7    1  0.2733606E-009  0.8998259E+02  0.7561462E-02  0.1302894E+00
          2   -1    0    0  501    0  0.00000000000E+00  0.00000000000E+00  0.53689615220E+03  0.53689615220E+03  0.00000000000E+00 0. -1.
         -2   -1    0    0    0  501 -0.00000000000E+00 -0.00000000000E+00 -0.28644346177E+02  0.28644346177E+02  0.00000000000E+00 0.  1.
         25    2    1    2    0    0  0.39767173065E+02  0.45798761680E+02  0.28910913565E+03  0.32079665556E+03  0.12508975689E+03 0.  0.
          5    1    3    3  502    0 -0.10208172590E+02  0.51061921306E+02  0.25408882133E+03  0.25940340807E+03  0.41800000000E+01 0. -1.
         -5    1    3    3    0  502  0.49975345654E+02 -0.52631596253E+01  0.35020314323E+02  0.61393247493E+02  0.41800000000E+01 0. -1.
        -11    1    1    2    0    0 -0.50782444758E+02 -0.33748688333E+02  0.22010006163E+03  0.22838972785E+03  0.00000000000E+00 0. -1.
         11    1    1    2    0    0  0.11015271693E+02 -0.12050073348E+02 -0.95739125452E+00  0.16354114961E+02  0.00000000000E+00 0.  1.
</event>
<event>
 7    1  0.2733606E-009  0.1053628E+03  0.7561462E-02  0.1269406E+00
          1   -1    0    0  501    0  0.00000000000E+00  0.00000000000E+00  0.27544559240E+02  0.27544559240E+02  0.00000000000E+00 0. -1.
         -1   -1    0    0    0  501 -0.00000000000E+00 -0.00000000000E+00 -0.48957596740E+03  0.48957596740E+03  0.00000000000E+00 0.  1.
         25    2    1    2    0    0  0.18979838041E+02 -0.53554451389E+01 -0.34838706965E+03  0.37068704125E+03  0.12508563949E+03 0.  0.
          5    1    3    3  502    0  0.11315269385E+02 -0.63866162308E+02 -0.14562547834E+03  0.15947154715E+03  0.41800000000E+01 0.  1.
         -5    1    3    3    0  502  0.76645686562E+01  0.58510717169E+02 -0.20276159131E+03  0.21121549409E+03  0.41800000000E+01 0.  1.
        -11    1    1    2    0    0 -0.52636512344E+02  0.54226626515E+01 -0.43008437625E+02  0.68188953716E+02  0.00000000000E+00 0. -1.
         11    1    1    2    0    0  0.33656674302E+02 -0.67217512576E-01 -0.70635900886E+02  0.78244531676E+02  0.00000000000E+00 0.  1.
</event>
<event>
 7    1  0.2733606E-009  0.1648383E+03  0.7561462E-02  0.1183340E+00
         -1   -1    0    0    0  501 -0.00000000000E+00  0.00000000000E+00  0.66550194987E+02  0.66550194987E+02  0.00000000000E+00 0.  1.
          1   -1    0    0  501    0  0.00000000000E+00 -0.00000000000E+00 -0.52880998537E+03  0.52880998537E+03  0.00000000000E+00 0. -1.
         25    2    1    2    0    0  0.11288638027E+03 -0.10242645359E+03 -0.23154169595E+03  0.30412681994E+03  0.12508817848E+03 0.  0.
          5    1    3    3  502    0  0.10956551345E+03 -0.98467499837E+02 -0.11379157243E+03  0.18618927095E+03  0.41800000000E+01 0. -1.
         -5    1    3    3    0  502  0.33208668176E+01 -0.39589537558E+01 -0.11775012352E+03  0.11793754898E+03  0.41800000000E+01 0. -1.
        -11    1    1    2    0    0 -0.32289308513E+02  0.88059541005E+02 -0.14508929709E+03  0.17276569780E+03  0.00000000000E+00 0. -1.
         11    1    1    2    0    0 -0.80597071755E+02  0.14366912588E+02 -0.85628797350E+02  0.11846766263E+03  0.00000000000E+00 0.  1.
</event>
<event>
 7    1  0.2733606E-009  0.1036331E+03  0.7561462E-02  0.1272836E+00
         -1   -1    0    0    0  501 -0.00000000000E+00  0.00000000000E+00  0.13864094801E+03  0.13864094801E+03  0.00000000000E+00 0.  1.
          1   -1    0    0  501    0  0.00000000000E+00 -0.00000000000E+00 -0.94783981283E+02  0.94783981283E+02  0.00000000000E+00 0. -1.
         25    2    1    2    0    0  0.38535104549E+02 -0.93961233396E+01  0.32914271341E+02  0.13529480293E+03  0.12509233800E+03 0.  0.
          5    1    3    3  502    0  0.88227271874E+01  0.46580244393E+02 -0.20967827380E+02  0.52006556007E+02  0.41800000000E+01 0.  1.
         -5    1    3    3    0  502  0.29712377361E+02 -0.55976367732E+02  0.53882098721E+02  0.83288246923E+02  0.41800000000E+01 0.  1.
        -11    1    1    2    0    0  0.25838122246E+02  0.17608623383E+02 -0.40410409451E+01  0.31527800281E+02  0.00000000000E+00 0.  1.
         11    1    1    2    0    0 -0.64373226795E+02 -0.82125000433E+01  0.14983736331E+02  0.66602326081E+02  0.00000000000E+00 0. -1.
</event>
<event>
 7    1  0.2733606E-009  0.1022675E+03  0.7561462E-02  0.1275599E+00
          2   -1    0    0  501    0  0.00000000000E+00  0.00000000000E+00  0.22854957877E+03  0.22854957877E+03  0.00000000000E+00 0.  1.
         -2   -1    0    0    0  501 -0.00000000000E+00 -0.00000000000E+00 -0.79511763791E+02  0.79511763791E+02  0.00000000000E+00 0. -1.
         25    2    1    2    0    0 -0.16975603816E+02  0.26843595899E+02  0.16615026158E+03  0.21038652768E+03  0.12509129403E+03 0.  0.
          5    1    3    3  502    0  0.14591506087E+02 -0.46127214506E+02  0.51290977222E+02  0.70631924173E+02  0.41800000000E+01 0. -1.
         -5    1    3    3    0  502 -0.31567109903E+02  0.72970810405E+02  0.11485928435E+03  0.13975460350E+03  0.41800000000E+01 0. -1.
        -11    1    1    2    0    0  0.29030005186E+02 -0.45603772441E+02  0.17220180544E+02  0.56736054498E+02  0.00000000000E+00 0.  1.
         11    1    1    2    0    0 -0.12054401370E+02  0.18760176542E+02 -0.34332627135E+02  0.40938760391E+02  0.00000000000E+00 0. -1.
</event>
<event>
 7    1  0.2733606E-009  0.1722218E+03  0.7561462E-02  0.1175550E+00
         -1   -1    0    0    0  501 -0.00000000000E+00  0.00000000000E+00  0.95585281589E+03  0.95585281589E+03  0.00000000000E+00 0.  1.
          1   -1    0    0  501    0  0.00000000000E+00 -0.00000000000E+00 -0.33120168649E+02  0.33120168649E+02  0.00000000000E+00 0. -1.
         25    2    1    2    0    0  0.11187423075E+03 -0.82552564634E+02  0.54584548341E+03  0.57699404497E+03  0.12507624373E+03 0.  0.
          5    1    3    3  502    0  0.11777534634E+03 -0.10819391269E+03  0.48018870580E+03  0.50613794614E+03  0.41800000000E+01 0.  1.
         -5    1    3    3    0  502 -0.59011155914E+01  0.25641348059E+02  0.65656777609E+02  0.70856098831E+02  0.41800000000E+01 0.  1.
        -11    1    1    2    0    0 -0.23284023011E+02  0.62905983385E+02  0.98454960537E+02  0.11913306731E+03  0.00000000000E+00 0.  1.
         11    1    1    2    0    0 -0.88590207740E+02  0.19646581249E+02  0.27843220330E+03  0.29284587225E+03  0.00000000000E+00 0. -1.
</event>
<event>
 7    1  0.2733606E-009  0.1040868E+03  0.7561462E-02  0.1271929E+00
         -2   -1    0    0    0  501 -0.00000000000E+00  0.00000000000E+00  0.95163616455E+02  0.95163616455E+02  0.00000000000E+00 0.  1.
          2   -1    0    0  501    0  0.00000000000E+00 -0.00000000000E+00 -0.26421904083E+03  0.26421904083E+03  0.00000000000E+00 0. -1.
         25    2    1    2    0    0 -0.43936463274E+02  0.68078849626E+02 -0.18607731316E+03  0.23840746408E+03  0.12509280509E+03 0.  0.
          5    1    3    3  502    0 -0.12063160597E+02 -0.98273410557E+01 -0.14272809600E+03  0.14363453019E+03  0.41800000000E+01 0.  1.
         -5    1    3    3    0  502 -0.31873302677E+02  0.77906190682E+02 -0.43349217165E+02  0.94772933894E+02  0.41800000000E+01 0.  1.
        -11    1    1    2    0    0  0.32328437672E+02  0.59327025561E+01 -0.18875319849E+02  0.37902540038E+02  0.00000000000E+00 0. -1.
         11    1    1    2    0    0  0.11608025602E+02 -0.74011552182E+02  0.35897208640E+02  0.83072653159E+02  0.00000000000E+00 0.  1.
</event>
<event>
 7    1  0.2733606E-009  0.1897169E+03  0.7561462E-02  0.1158717E+00
          1   -1    0    0  501    0  0.00000000000E+00  0.00000000000E+00  0.80559251812E+03  0.80559251812E+03  0.00000000000E+00 0. -1.
         -1   -1    0    0    0  501 -0.00000000000E+00 -0.00000000000E+00 -0.55158840750E+02  0.55158840750E+02  0.00000000000E+00 0.  1.
         25    2    1    2    0    0 -0.46771150021E+02 -0.16766949862E+03  0.29258878139E+03  0.36270639720E+03  0.12508850600E+03 0.  0.
          5    1    3    3  502    0  0.98264439173E+01 -0.80182946830E+02  0.22331096731E+03  0.23751026185E+03  0.41800000000E+01 0.  1.
         -5    1    3    3    0  502 -0.56597593939E+02 -0.87486551786E+02  0.69277814076E+02  0.12519613535E+03  0.41800000000E+01 0.  1.
        -11    1    1    2    0    0  0.44811294552E+02  0.17809865699E+03  0.41350365793E+03  0.45245160942E+03  0.00000000000E+00 0.  1.
         11    1    1    2    0    0  0.19598554691E+01 -0.10429158376E+02  0.44341238051E+02  0.45593352255E+02  0.00000000000E+00 0. -1.
</event>
<event>
 7    1  0.2733606E-009  0.1621481E+03  0.7561462E-02  0.1186293E+00
          1   -1    0    0  501    0  0.00000000000E+00  0.00000000000E+00  0.57202328382E+03  0.57202328382E+03  0.00000000000E+00 0. -1.
         -1   -1    0    0    0  501 -0.00000000000E+00 -0.00000000000E+00 -0.74600051396E+02  0.74600051396E+02  0.00000000000E+00 0.  1.
         25    2    1    2    0    0  0.15206495427E+03  0.39741465376E+02  0.38043497473E+03  0.43021051320E+03  0.12508869368E+03 0.  0.
          5    1    3    3  502    0  0.39962288145E+02  0.58844987155E+01  0.25633129666E+03  0.25952806755E+03  0.41800000000E+01 0. -1.
         -5    1    3    3    0  502  0.11210266612E+03  0.33856966661E+02  0.12410367806E+03  0.17068244565E+03  0.41800000000E+01 0. -1.
        -11    1    1    2    0    0 -0.48131724870E+01  0.99874189847E+01  0.42761975533E+02  0.44175804677E+02  0.00000000000E+00 0. -1.
         11    1    1    2    0    0 -0.14725178178E+03 -0.49728884361E+02  0.74226282164E+02  0.17223701734E+03  0.00000000000E+00 0.  1.
</event>
<event>
 7    1  0.2733606E-009  0.9878392E+02  0.7561462E-02  0.1282874E+00
          1   -1    0    0  501    0  0.00000000000E+00  0.00000000000E+00  0.26779794045E+03  0.26779794045E+03  0.00000000000E+00 0. -1.
         -1   -1    0    0    0  501 -0.00000000000E+00 -0.00000000000E+00 -0.47760640693E+02  0.47760640693E+02  0.00000000000E+00 0.  1.
         25    2    1    2    0    0 -0.34591624881E+02  0.16564613897E+02  0.12606052703E+03  0.18167754580E+03  0.12507800457E+03 0.  0.
          5    1    3    3  502    0 -0.67601078262E+02 -0.21693180821E+02  0.10490131403E+03  0.12673696368E+03  0.41800000000E+01 0. -1.
         -5    1    3    3    0  502  0.33009453381E+02  0.38257794718E+02  0.21159212998E+02  0.54940582121E+02  0.41800000000E+01 0. -1.
        -11    1    1    2    0    0  0.49041835376E+02 -0.28746436511E+02  0.24537521788E+02  0.61915662030E+02  0.00000000000E+00 0.  1.
         11    1    1    2    0    0 -0.14450210495E+02  0.12181822614E+02  0.69439250936E+02  0.71965373313E+02  0.00000000000E+00 0. -1.
</event>
<event>
 7    1  0.2733606E-009  0.1527989E+03  0.7561462E-02  0.1197075E+00
          4   -1    0    0  501    0  0.00000000000E+00  0.00000000000E+00  0.34188451211E+03  0.34188451211E+03  0.00000000000E+00 0.  1.
         -4   -1    0    0    0  501 -0.00000000000E+00 -0.00000000000E+00 -0.72529213950E+02  0.72529213950E+02  0.00000000000E+00 0. -1.
         25    2    1    2    0    0  0.70958441614E+02 -0.93238632735E+02  0.14426271817E+03  0.22402626336E+03  0.12508993466E+03 0.  0.
          5    1    3    3  502    0  0.10085932562E+03 -0.81534279332E+02  0.81025078885E+02  0.15298031925E+03  0.41800000000E+01 0. -1.
         -5    1    3    3    0  502 -0.29900884001E+02 -0.11704353402E+02  0.63237639285E+02  0.71045944113E+02  0.41800000000E+01 0. -1.
        -11    1    1    2    0    0 -0.88791172120E+02  0.64931094903E+02  0.98373079705E+02  0.14757093936E+03  0.00000000000E+00 0. -1.
         11    1    1    2    0    0  0.17832730506E+02  0.28307537832E+02  0.26719500281E+02  0.42816523337E+02  0.00000000000E+00 0.  1.
</event>
<event>
 7    1  0.2733606E-009  0.1746284E+03  0.7561462E-02  0.1173105E+00
          1   -1    0    0  501    0  0.00000000000E+00  0.00000000000E+00  0.11831125903E+04  0.11831125903E+04  0.00000000000E+00 0. -1.
         -1   -1    0    0    0  501 -0.00000000000E+00 -0.00000000000E+00 -0.27825998651E+02  0.27825998651E+02  0.00000000000E+00 0.  1.
         25    2    1    2    0    0 -0.13603794671E+02  0.14758916650E+03  0.64895980882E+03  0.67732134877E+03  0.12509096986E+03 0.  0.
          5    1    3    3  502    0  0.39002307321E+02  0.11680232946E+03  0.52311688288E+03  0.53743158606E+03  0.41800000000E+01 0. -1.
         -5    1    3    3    0  502 -0.52606101993E+02  0.30786837040E+02  0.12584292594E+03  0.13988976271E+03  0.41800000000E+01 0. -1.
        -11    1    1    2    0    0  0.41441208472E+02 -0.59086257882E+02  0.27667058288E+03  0.28592861183E+03  0.00000000000E+00 0. -1.
         11    1    1    2    0    0 -0.27837413801E+02 -0.88502908618E+02  0.22965619998E+03  0.24768862838E+03  0.00000000000E+00 0.  1.
</event>
<event>
 7    1  0.2733606E-009  0.7018734E+02  0.7561462E-02  0.1359457E+00
          2   -1    0    0  501    0  0.00000000000E+00  0.00000000000E+00  0.66848093137E+02  0.66848093137E+02  0.00000000000E+00 0. -1.
         -2   -1    0    0    0  501 -0.00000000000E+00 -0.00000000000E+00 -0.21810484194E+03  0.21810484194E+03  0.00000000000E+00 0.  1.
         25    2    1    2    0    0  0.42502260508E+02  0.29049459088E+02 -0.79782875785E+02  0.15704614631E+03  0.12509145287E+03 0.  0.
          5    1    3    3  502    0 -0.63118714611E+01  0.28463869467E+01  0.31576657338E+02  0.32596001728E+02  0.41800000000E+01 0.  1.
         -5    1    3    3    0  502  0.48814131969E+02  0.26203072141E+02 -0.11135953312E+03  0.12445014458E+03  0.41800000000E+01 0.  1.
        -11    1    1    2    0    0 -0.41113934111E+02  0.60878734565E+01  0.67831907523E+01  0.42112105838E+02  0.00000000000E+00 0. -1.
         11    1    1    2    0    0 -0.13883263964E+01 -0.35137332545E+02 -0.78257063766E+02  0.85794682923E+02  0.00000000000E+00 0.  1.
</event>
<event>
 7    1  0.2733606E-009  0.7494701E+02  0.7561462E-02  0.1344035E+00
         -2   -1    0    0    0  501 -0.00000000000E+00  0.00000000000E+00  0.15925348129E+02  0.15925348129E+02  0.00000000000E+00 0.  1.
          2   -1    0    0  501    0  0.00000000000E+00 -0.00000000000E+00 -0.88545505312E+03  0.88545505312E+03  0.00000000000E+00 0. -1.
         25    2    1    2    0    0 -0.12761925343E+02  0.45856117364E+02 -0.50400361359E+03  0.52147136674E+03  0.12508834312E+03 0.  0.
          5    1    3    3  502    0  0.14345548689E+01  0.41487231196E+00  0.69723783742E+01  0.82653812314E+01  0.41800000000E+01 0. -1.
         -5    1    3    3    0  502 -0.14196480212E+02  0.45441245052E+02 -0.51097599196E+03  0.51320598551E+03  0.41800000000E+01 0. -1.
        -11    1    1    2    0    0  0.47132822148E+02 -0.10365800851E+02 -0.11775747666E+03  0.12726262633E+03  0.00000000000E+00 0.  1.
         11    1    1    2    0    0 -0.34370896804E+02 -0.35490316513E+02 -0.24776861475E+03  0.25264640819E+03  0.00000000000E+00 0. -1.
</event>
<event>
 7    1  0.2733606E-009  0.8078827E+02  0.7561462E-02  0.1326829E+00
          2   -1    0    0  501    0  0.00000000000E+00  0.00000000000E+00  0.11303332034E+04  0.11303332034E+04  0.00000000000E+00 0. -1.
         -2   -1    0    0    0  501 -0.00000000000E+00 -0.00000000000E+00 -0.11985105214E+02  0.11985105214E+02  0.00000000000E+00 0.  1.
         25    2    1    2    0    0  0.67982145660E+01 -0.24711653114E+02  0.80932902955E+03  0.81934032357E+03  0.12509279047E+03 0.  0.
          5    1    3    3  502    0  0.39304366524E+01  0.22384658111E+02  0.26833110124E+02  0.35411995848E+02  0.41800000000E+01 0.  1.
         -5    1    3    3    0  502  0.28677779136E+01 -0.47096311224E+02  0.78249591943E+03  0.78392832772E+03  0.41800000000E+01 0.  1.
        -11    1    1    2    0    0  0.84796693977E+01 -0.31617899764E+02  0.15143737028E+03  0.15493506219E+03  0.00000000000E+00 0.  1.
         11    1    1    2    0    0 -0.15277883964E+02  0.56329552878E+02  0.15758169837E+03  0.16804292287E+03  0.00000000000E+00 0. -1.
</event>
<event>
 7    1  0.2733606E-009  0.1172974E+03  0.7561462E-02  0.1247623E+00
         -1   -1    0    0    0  501 -0.00000000000E+00  0.00000000000E+00  0.95770283150E+02  0.95770283150E+02  0.00000000000E+00 0. -1.
          1   -1    0    0  501    0  0.00000000000E+00 -0.00000000000E+00 -0.22169716137E+03  0.22169716137E+03  0.00000000000E+00 0.  1.
         25    2    1    2    0    0 -0.75280076720E+02  0.50804206251E+02 -0.30781469774E+02  0.15761550942E+03  0.12508793948E+03 0.  0.
          5    1    3    3  502    0 -0.17330884402E+02 -0.35182936603E+02 -0.36422442296E+02  0.53686732858E+02  0.41800000000E+01 0. -1.
         -5    1    3    3    0  502 -0.57949192318E+02  0.85987142854E+02  0.56409725221E+01  0.10392877656E+03  0.41800000000E+01 0. -1.
        -11    1    1    2    0    0  0.39398349317E+02 -0.32625767044E+02  0.55174171590E+01  0.51450097145E+02  0.00000000000E+00 0. -1.
         11    1    1    2    0    0  0.35881727402E+02 -0.18178439206E+02 -0.10066282561E+03  0.10840183796E+03  0.00000000000E+00 0.  1.
</event>
<event>
 7    1  0.2733606E-009  0.1053373E+03  0.7561462E-02  0.1269457E+00
         -1   -1    0    0    0  501 -0.00000000000E+00  0.00000000000E+00  0.11535541627E+02  0.11535541627E+02  0.00000000000E+00 0.  1.
          1   -1    0    0  501    0  0.00000000000E+00 -0.00000000000E+00 -0.12671132918E+04  0.12671132918E+04  0.00000000000E+00 0. -1.
         25    2    1    2    0    0  0.17094276170E+01 -0.16824513257E+01 -0.97903929266E+03  0.98700112308E+03  0.12509007793E+03 0.  0.
          5    1    3    3  502    0 -0.52216858020E+02 -0.31251033714E+02 -0.58467681361E+03  0.58785004563E+03  0.41800000000E+01 0.  1.
         -5    1    3    3    0  502  0.53926285637E+02  0.29568582389E+02 -0.39436247904E+03  0.39915107745E+03  0.41800000000E+01 0.  1.
        -11    1    1    2    0    0 -0.32354490290E+02 -0.29880707610E+02 -0.18381238339E+03  0.18901497828E+03  0.00000000000E+00 0. -1.
         11    1    1    2    0    0  0.30645062673E+02  0.31563158936E+02 -0.92726074110E+02  0.10263273205E+03  0.00000000000E+00 0.  1.
</event>
<event>
 7    1  0.2733606E-009  0.8859242E+02  0.7561462E-02  0.1306297E+00
         -1   -1    0    0    0  501 -0.00000000000E+00  0.00000000000E+00  0.24053515718E+03  0.24053515718E+03  0.00000000000E+00 0.  1.
          1   -1    0    0  501    0  0.00000000000E+00 -0.00000000000E+00 -0.70990581309E+02  0.70990581309E+02  0.00000000000E+00 0. -1.
         25    2    1    2    0    0 -0.71526608769E+02 -0.58377839933E+01  0.79021708560E+02  0.16443912046E+03  0.12508260642E+03 0.  0.
          5    1    3    3  502    0 -0.17717168210E+02  0.24448659428E+02 -0.27624233939E+02  0.41136427870E+02  0.41800000000E+01 0. -1.
         -5    1    3    3    0  502 -0.53809440559E+02 -0.30286443421E+02  0.10664594250E+03  0.12330269259E+03  0.41800000000E+01 0. -1.
        -11    1    1    2    0    0  0.57994969649E+02  0.23491260450E+02  0.10378631101E+03  0.12118933193E+03  0.00000000000E+00 0.  1.
         11    1    1    2    0    0  0.13531639120E+02 -0.17653476456E+02 -0.13263443698E+02  0.25897286093E+02  0.00000000000E+00 0. -1.
</event>
<event>
 7    1  0.2733606E-009  0.1019648E+03  0.7561462E-02  0.1276218E+00
         -2   -1    0    0    0  501 -0.00000000000E+00  0.00000000000E+00  0.50562145679E+02  0.50562145679E+02  0.00000000000E+00 0.  1.
          2   -1    0    0  501    0  0.00000000000E+00 -0.00000000000E+00 -0.28233181725E+03  0.28233181725E+03  0.00000000000E+00 0. -1.
         25    2    1    2    0    0  0.68982252747E+00  0.28292885469E+02 -0.19134264260E+03  0.23034895431E+03  0.12509064972E+03 0.  0.
          5    1    3    3  502    0 -0.25410646822E+02 -0.42977859292E+02 -0.97159819032E+02  0.10931742860E+03  0.41800000000E+01 0. -1.
         -5    1    3    3    0  502  0.26100469349E+02  0.71270744761E+02 -0.94182823570E+02  0.12103152571E+03  0.41800000000E+01 0. -1.
        -11    1    1    2    0    0  0.33785832431E+02 -0.27107784022E+02  0.70217567974E+01  0.43881881183E+02  0.00000000000E+00 0.  1.
         11    1    1    2    0    0 -0.34475654959E+02 -0.11851014462E+01 -0.47448785762E+02  0.58663127436E+02  0.00000000000E+00 0. -1.
</event>
<event>
 7    1  0.2733606E-009  0.1002073E+03  0.7561462E-02  0.1279861E+00
          2   -1    0    0  501    0  0.00000000000E+00  0.00000000000E+00  0.31588687630E+03  0.31588687630E+03  0.00000000000E+00 0. -1.
         -2   -1    0    0    0  501 -0.00000000000E+00 -0.00000000000E+00 -0.64911548833E+02  0.64911548833E+02  0.00000000000E+00 0.  1.
         25    2    1    2    0    0  0.14657831534E+02  0.21180222382E+02  0.25532475102E+03  0.28548409942E+03  0.12508792385E+03 0.  0.
          5    1    3    3  502    0  0.23088868679E+02  0.68787735141E+02  0.19473508742E+03  0.20785589969E+03  0.41800000000E+01 0.  1.
         -5    1    3    3    0  502 -0.84310371453E+01 -0.47607512758E+02  0.60589663600E+02  0.77628199731E+02  0.41800000000E+01 0.  1.
        -11    1    1    2    0    0 -0.60244600713E+01 -0.49363862836E+02 -0.28402631233E+02  0.57269490431E+02  0.00000000000E+00 0.  1.
         11    1    1    2    0    0 -0.86333714628E+01  0.28183640454E+02  0.24053207682E+02  0.38044835285E+02  0.00000000000E+00 0. -1.
</event>
<event>
 7    1  0.2733606E-009  0.1096873E+03  0.7561462E-02  0.1261150E+00
         -2   -1    0    0    0  501 -0.00000000000E+00  0.00000000000E+00  0.13036568089E+02  0.13036568089E+02  0.00000000000E+00 0. -1.
          2   -1    0    0  501    0  0.00000000000E+00 -0.00000000000E+00 -0.13993833439E+04  0.13993833439E+04  0.00000000000E+00 0.  1.
         25    2    1    2    0    0  0.21310670187E+02 -0.43577223687E+02 -0.10897212291E+04  0.10979497849E+04  0.12509298141E+03 0.  0.
          5    1    3    3  502    0  0.58067471527E+02  0.17575831659E+01 -0.81436548803E+03  0.81644567537E+03  0.41800000000E+01 0. -1.
         -5    1    3    3    0  502 -0.36756801340E+02 -0.45334806853E+02 -0.27535574108E+03  0.28150410957E+03  0.41800000000E+01 0. -1.
        -11    1    1    2    0    0 -0.30215562514E+02  0.69190410183E+02 -0.19002000423E+03  0.20446979016E+03  0.00000000000E+00 0. -1.
         11    1    1    2    0    0  0.89048923268E+01 -0.25613186497E+02 -0.10660554246E+03  0.11000033688E+03  0.00000000000E+00 0.  1.
</event>
<event>
 7    1  0.2733606E-009  0.8543606E+02  0.7561462E-02  0.1314296E+00
         -1   -1    0    0    0  501 -0.00000000000E+00  0.00000000000E+00  0.36153042980E+02  0.36153042980E+02  0.00000000000E+00 0.  1.
          1   -1    0    0  501    0  0.00000000000E+00 -0.00000000000E+00 -0.35577602992E+03  0.35577602992E+03  0.00000000000E+00 0. -1.
         25    2    1    2    0    0  0.28327792303E+02  0.90094979324E+01 -0.22598098461E+03  0.25999851206E+03  0.12509270961E+03 0.  0.
          5    1    3    3  502    0  0.10196942440E+02 -0.49424760066E+02 -0.16850503294E+03  0.17594943327E+03  0.41800000000E+01 0.  1.
         -5    1    3    3    0  502  0.18130849864E+02  0.58434257998E+02 -0.57475951670E+02  0.84049078787E+02  0.41800000000E+01 0.  1.
        -11    1    1    2    0    0 -0.29518472556E+02  0.16199536207E+02  0.12950903842E+01  0.33696327017E+02  0.00000000000E+00 0.  1.
         11    1    1    2    0    0  0.11906802524E+01 -0.25209034139E+02 -0.94937092724E+02  0.98234233832E+02  0.00000000000E+00 0. -1.
</event>
<event>
 7    1  0.2733606E-009  0.1086033E+03  0.7561462E-02  0.1263178E+00
         -2   -1    0    0    0  501 -0.00000000000E+00  0.00000000000E+00  0.57765520244E+03  0.57765520244E+03  0.00000000000E+00 0.  1.
          2   -1    0    0  501    0  0.00000000000E+00 -0.00000000000E+00 -0.28066674323E+02  0.28066674323E+02  0.00000000000E+00 0. -1.
         25    2    1    2    0    0  0.25414901174E+02 -0.58051857285E+02  0.25548497527E+03  0.29143812503E+03  0.12509065831E+03 0.  0.
          5    1    3    3  502    0 -0.40231199580E+02 -0.86740754974E+01  0.16071477993E+03  0.16595331239E+03  0.41800000000E+01 0.  1.
         -5    1    3    3    0  502  0.65646100755E+02 -0.49377781788E+02  0.94770195342E+02  0.12548481264E+03  0.41800000000E+01 0.  1.
        -11    1    1    2    0    0 -0.34937104737E+01  0.68998539528E+02  0.27404141893E+03  0.28261582362E+03  0.00000000000E+00 0.  1.
         11    1    1    2    0    0 -0.21921190701E+02 -0.10946682242E+02  0.20062133918E+02  0.31667928116E+02  0.00000000000E+00 0. -1.
</event>
<event>
 7    1  0.2733606E-009  0.1488295E+03  0.7561462E-02  0.1201919E+00
         -2   -1    0    0    0  501 -0.00000000000E+00  0.00000000000E+00  0.46414836092E+03  0.46414836092E+03  0.00000000000E+00 0.  1.
          2   -1    0    0  501    0  0.00000000000E+00 -0.00000000000E+00 -0.65039286012E+02  0.65039286012E+02  0.00000000000E+00 0. -1.
         25    2    1    2    0    0 -0.88142820942E+02 -0.73117843789E+02  0.10221228339E+03  0.19801581525E+03  0.12509011252E+03 0.  0.
          5    1    3    3  502    0 -0.11303036577E+03 -0.85102179400E+02  0.82653210830E+02  0.16391238570E+03  0.41800000000E+01 0.  1.
         -5    1    3    3    0  502  0.24887544831E+02  0.11984335612E+02  0.19559072560E+02  0.34103429551E+02  0.41800000000E+01 0.  1.
        -11    1    1    2    0    0  0.48397249901E+02  0.73997437782E+02  0.26748355582E+03  0.28171859582E+03  0.00000000000E+00 0.  1.
         11    1    1    2    0    0  0.39745571041E+02 -0.87959399293E+00  0.29413235701E+02  0.49453235863E+02  0.00000000000E+00 0. -1.
</event>
<event>
 7    1  0.2733606E-009  0.9902075E+02  0.7561462E-02  0.1282369E+00
          1   -1    0    0  501    0  0.00000000000E+00  0.00000000000E+00  0.99750936348E+03  0.99750936348E+03  0.00000000000E+00 0. -1.
         -1   -1    0    0    0  501 -0.00000000000E+00 -0.00000000000E+00 -0.13773591860E+02  0.13773591860E+02  0.00000000000E+00 0.  1.
         25    2    1    2    0    0 -0.21091560039E+02  0.34596904061E+02  0.64944074042E+03  0.66261736776E+03  0.12508677413E+03 0.  0.
          5    1    3    3  502    0 -0.21267813732E+02 -0.43373046631E+02  0.34181175672E+03  0.34523367522E+03  0.41800000000E+01 0.  1.
         -5    1    3    3    0  502  0.17625369342E+00  0.77969950692E+02  0.30762898370E+03  0.31738369254E+03  0.41800000000E+01 0.  1.
        -11    1    1    2    0    0  0.66571886939E+01  0.16808399912E+02  0.11371540711E+02  0.21357724763E+02  0.00000000000E+00 0.  1.
         11    1    1    2    0    0  0.14434371345E+02 -0.51405303973E+02  0.32292349049E+03  0.32730786282E+03  0.00000000000E+00 0. -1.
</event>
<event>
 7    1  0.2733606E-009  0.1096920E+03  0.7561462E-02  0.1261141E+00
          4   -1    0    0  501    0  0.00000000000E+00  0.00000000000E+00  0.47710761952E+02  0.47710761952E+02  0.00000000000E+00 0. -1.
         -4   -1    0    0    0  501 -0.00000000000E+00 -0.00000000000E+00 -0.39154124355E+03  0.39154124355E+03  0.00000000000E+00 0.  1.
         25    2    1    2    0    0  0.82846577789E+02 -0.39398439091E+01 -0.18382876025E+03  0.23731736539E+03  0.12508973180E+03 0.  0.
          5    1    3    3  502    0  0.58520560165E+02 -0.25318306381E+02 -0.19307950232E+03  0.20337856135E+03  0.41800000000E+01 0.  1.
         -5    1    3    3    0  502  0.24326017624E+02  0.21378462472E+02  0.92507420716E+01  0.33938804044E+02  0.41800000000E+01 0.  1.
        -11    1    1    2    0    0 -0.29073324253E+02  0.46098897820E+02 -0.63336421417E+02  0.83557578001E+02  0.00000000000E+00 0. -1.
         11    1    1    2    0    0 -0.53773253536E+02 -0.42159053911E+02 -0.96665299929E+02  0.11837706211E+03  0.00000000000E+00 0.  1.
</event>
<event>
 7    1  0.2733606E-009  0.6959800E+02  0.7561462E-02  0.1361465E+00
         -1   -1    0    0    0  501 -0.00000000000E+00  0.00000000000E+00  0.25243639748E+03  0.25243639748E+03  0.00000000000E+00 0.  1.
          1   -1    0    0  501    0  0.00000000000E+00 -0.00000000000E+00 -0.46909919547E+02  0.46909919547E+02  0.00000000000E+00 0. -1.
         25    2    1    2    0    0 -0.41873370629E+01  0.13906274183E+02  0.14288567654E+03  0.19045983018E+03  0.12509081540E+03 0.  0.
          5    1    3    3  502    0 -0.12314860492E+02 -0.23582699183E+02  0.14898002835E+03  0.15139458622E+03  0.41800000000E+01 0. -1.
         -5    1    3    3    0  502  0.81275234290E+01  0.37488973366E+02 -0.60943518138E+01  0.39065243953E+02  0.41800000000E+01 0. -1.
        -11    1    1    2    0    0  0.19067603943E+02 -0.39619880023E+02  0.65662418385E+02  0.79024436735E+02  0.00000000000E+00 0.  1.
         11    1    1    2    0    0 -0.14880266880E+02  0.25713605840E+02 -0.30216169934E+01  0.29862050113E+02  0.00000000000E+00 0. -1.
</event>
<event>
 7    1  0.2733606E-009  0.2999266E+03  0.7561462E-02  0.1085277E+00
          1   -1    0    0  501    0  0.00000000000E+00  0.00000000000E+00  0.24959907090E+03  0.24959907090E+03  0.00000000000E+00 0. -1.
         -1   -1    0    0    0  501 -0.00000000000E+00 -0.00000000000E+00 -0.36952993597E+03  0.36952993597E+03  0.00000000000E+00 0.  1.
         25    2    1    2    0    0 -0.23784839382E+03  0.15392028325E+03 -0.60210578787E+02  0.31549266935E+03  0.12508796336E+03 0.  0.
          5    1    3    3  502    0 -0.18031986478E+03  0.16485061982E+03 -0.21771383855E+02  0.24532110803E+03  0.41800000000E+01 0. -1.
         -5    1    3    3    0  502 -0.57528529036E+02 -0.10930336573E+02 -0.38439194932E+02  0.70171561318E+02  0.41800000000E+01 0. -1.
        -11    1    1    2    0    0  0.15093534571E+03 -0.45109068921E+02 -0.19835001996E+02  0.15877573489E+03  0.00000000000E+00 0.  1.
         11    1    1    2    0    0  0.86913048104E+02 -0.10881121432E+03 -0.39885284288E+02  0.14486060264E+03  0.00000000000E+00 0. -1.
</event>
<event>
 7    1  0.2733606E-009  0.1124195E+03  0.7561462E-02  0.1256154E+00
          2   -1    0    0  501    0  0.00000000000E+00  0.00000000000E+00  0.86355182583E+03  0.86355182583E+03  0.00000000000E+00 0. -1.
         -2   -1    0    0    0  501 -0.00000000000E+00 -0.00000000000E+00 -0.15530634588E+02  0.15530634588E+02  0.00000000000E+00 0.  1.
         25    2    1    2    0    0  0.30625495276E+02  0.46661950725E+01  0.40911021213E+03  0.42892957618E+03  0.12509884620E+03 0.  0.
          5    1    3    3  502    0  0.44858771765E+00  0.61635864976E+02  0.24214043811E+03  0.24989726940E+03  0.41800000000E+01 0.  1.
         -5    1    3    3    0  502  0.30176907558E+02 -0.56969669903E+02  0.16696977402E+03  0.17903230679E+03  0.41800000000E+01 0.  1.
        -11    1    1    2    0    0 -0.90356547821E+01 -0.48637909948E+02  0.25957140895E+03  0.26424345912E+03  0.00000000000E+00 0.  1.
         11    1    1    2    0    0 -0.21589840494E+02  0.43971714875E+02  0.17933957015E+03  0.18590942511E+03  0.00000000000E+00 0. -1.
</event>
<event>
 7    1  0.2733606E-009  0.1121002E+03  0.7561462E-02  0.1256729E+00
          2   -1    0    0  501    0  0.00000000000E+00  0.00000000000E+00  0.26550397519E+03  0.26550397519E+03  0.00000000000E+00 0. -1.
         -2   -1    0    0    0  501 -0.00000000000E+00 -0.00000000000E+00 -0.58020704447E+02  0.58020704447E+02  0.00000000000E+00 0.  1.
         25    2    1    2    0    0  0.20194391133E+02  0.57685469741E+02  0.12021331686E+03  0.18394024735E+03  0.12508935283E+03 0.  0.
          5    1    3    3  502    0 -0.71357141650E+01  0.93538743216E+02  0.78952983350E+02  0.12268439542E+03  0.41800000000E+01 0.  1.
         -5    1    3    3    0  502  0.27330105298E+02 -0.35853273475E+02  0.41260333505E+02  0.61255851928E+02  0.41800000000E+01 0.  1.
        -11    1    1    2    0    0 -0.24479116627E+02 -0.68845043886E+02  0.26616787807E+02  0.77764520263E+02  0.00000000000E+00 0.  1.
         11    1    1    2    0    0  0.42847254937E+01  0.11159574145E+02  0.60653166078E+02  0.61819912027E+02  0.00000000000E+00 0. -1.
</event>
<event>
 7    1  0.2733606E-009  0.1110611E+03  0.7561462E-02  0.1258617E+00
         -1   -1    0    0    0  501 -0.00000000000E+00  0.00000000000E+00  0.15519840456E+03  0.15519840456E+03  0.00000000000E+00 0.  1.
          1   -1    0    0  501    0  0.00000000000E+00 -0.00000000000E+00 -0.13671583536E+03  0.13671583536E+03  0.00000000000E+00 0. -1.
         25    2    1    2    0    0 -0.23304293770E+02  0.86548942287E+02  0.49289232422E+02  0.16158797910E+03  0.12508971596E+03 0.  0.
          5    1    3    3  502    0  0.13013895976E+02  0.77238062425E+02 -0.21537059136E+02  0.81341238569E+02  0.41800000000E+01 0. -1.
         -5    1    3    3    0  502 -0.36318189746E+02  0.93108798618E+01  0.70826291558E+02  0.80246740533E+02  0.41800000000E+01 0. -1.
        -11    1    1    2    0    0 -0.11614656518E+02 -0.62475601591E+02 -0.52737017765E+02  0.82579017208E+02  0.00000000000E+00 0. -1.
         11    1    1    2    0    0  0.34918950288E+02 -0.24073340696E+02  0.21930354541E+02  0.47747243604E+02  0.00000000000E+00 0.  1.
</event>
<event>
 7    1  0.2733606E-009  0.9658558E+02  0.7561462E-02  0.1287644E+00
         -2   -1    0    0    0  501 -0.00000000000E+00  0.00000000000E+00  0.25054822233E+02  0.25054822233E+02  0.00000000000E+00 0.  1.
          2   -1    0    0  501    0  0.00000000000E+00 -0.00000000000E+00 -0.72795330571E+03  0.72795330571E+03  0.00000000000E+00 0. -1.
         25    2    1    2    0    0  0.24709067089E+02  0.70745479954E+02 -0.30389801056E+03  0.33707166635E+03  0.12509135264E+03 0.  0.
          5    1    3    3  502    0 -0.21239986776E+02  0.24986924970E+02 -0.25131393958E+03  0.25347909595E+03  0.41800000000E+01 0. -1.
         -5    1    3    3    0  502  0.45949053865E+02  0.45758554984E+02 -0.52584070976E+02  0.83592570398E+02  0.41800000000E+01 0. -1.
        -11    1    1    2    0    0 -0.31668542698E+02 -0.89023958011E+01 -0.40993329669E+02  0.52560463515E+02  0.00000000000E+00 0.  1.
         11    1    1    2    0    0  0.69594756090E+01 -0.61843084153E+02 -0.35800714325E+03  0.36337599808E+03  0.00000000000E+00 0. -1.
</event>
<event>
 7    1  0.2733606E-009  0.6652102E+02  0.7561462E-02  0.1372340E+00
         -1   -1    0    0    0  501 -0.00000000000E+00  0.00000000000E+00  0.16606700591E+02  0.16606700591E+02  0.00000000000E+00 0.  1.
          1   -1    0    0  501    0  0.00000000000E+00 -0.00000000000E+00 -0.73795213983E+03  0.73795213983E+03  0.00000000000E+00 0. -1.
         25    2    1    2    0    0 -0.20678002172E+02 -0.12905308282E+02 -0.49552714028E+03  0.51165336824E+03  0.12509154937E+03 0.  0.
          5    1    3    3  502    0  0.76664260170E+01  0.82735357919E+01 -0.46376892222E+03  0.46392489812E+03  0.41800000000E+01 0. -1.
         -5    1    3    3    0  502 -0.28344428189E+02 -0.21178844074E+02 -0.31758218066E+02  0.47728470125E+02  0.41800000000E+01 0. -1.
        -11    1    1    2    0    0  0.51293989025E+02 -0.19990304774E+01 -0.98013235834E+02  0.11064205273E+03  0.00000000000E+00 0. -1.
         11    1    1    2    0    0 -0.30615986853E+02  0.14904338760E+02 -0.12780506312E+03  0.13226341945E+03  0.00000000000E+00 0.  1.
</event>
<event>
 7    1  0.2733606E-009  0.9240346E+02  0.7561462E-02  0.1297134E+00
          1   -1    0    0  501    0  0.00000000000E+00  0.00000000000E+00  0.20167564948E+03  0.20167564948E+03  0.00000000000E+00 0.  1.
         -1   -1    0    0    0  501 -0.00000000000E+00 -0.00000000000E+00 -0.85770040474E+02  0.85770040474E+02  0.00000000000E+00 0. -1.
         25    2    1    2    0    0  0.20880530230E+02 -0.20420673212E+02  0.13715805153E+03  0.18790793605E+03  0.12507622034E+03 0.  0.
          5    1    3    3  502    0  0.68661542223E+02 -0.91935800801E+01  0.42997588383E+02  0.81640641239E+02  0.41800000000E+01 0. -1.
         -5    1    3    3    0  502 -0.47781011993E+02 -0.11227093132E+02  0.94160463148E+02  0.10626729482E+03  0.41800000000E+01 0. -1.
        -11    1    1    2    0    0 -0.40856858904E+02  0.55263993749E+01 -0.47802599256E+02  0.63126163397E+02  0.00000000000E+00 0. -1.
         11    1    1    2    0    0  0.19976328674E+02  0.14894273837E+02  0.26550156734E+02  0.36411590504E+02  0.00000000000E+00 0.  1.
</event>
<event>
 7    1  0.2733606E-009  0.9020869E+02  0.7561462E-02  0.1302347E+00
         -1   -1    0    0    0  501 -0.00000000000E+00  0.00000000000E+00  0.12457354995E+03  0.12457354995E+03  0.00000000000E+00 0.  1.
          1   -1    0    0  501    0  0.00000000000E+00 -0.00000000000E+00 -0.12270008667E+03  0.12270008667E+03  0.00000000000E+00 0. -1.
         25    2    1    2    0    0  0.87137212934E+00 -0.14605856660E+02 -0.58885946553E+02  0.13903123016E+03  0.12509211774E+03 0.  0.
          5    1    3    3  502    0  0.23413357616E+02  0.39540046738E+02 -0.65219483052E+02  0.79891513820E+02  0.41800000000E+01 0.  1.
         -5    1    3    3    0  502 -0.22541985487E+02 -0.54145903398E+02  0.63335364996E+01  0.59139716343E+02  0.41800000000E+01 0.  1.
        -11    1    1    2    0    0 -0.17201879216E+02  0.40986372698E+02  0.53934787597E+01  0.44775852964E+02  0.00000000000E+00 0. -1.
         11    1    1    2    0    0  0.16330507087E+02 -0.26380516038E+02  0.55365931072E+02  0.63466553488E+02  0.00000000000E+00 0.  1.
</event>
<event>
 7    1  0.2733606E-009  0.1608062E+03  0.7561462E-02  0.1187790E+00
         -1   -1    0    0    0  501 -0.00000000000E+00  0.00000000000E+00  0.23549014977E+03  0.23549014977E+03  0.00000000000E+00 0.  1.
          1   -1    0    0  501    0  0.00000000000E+00 -0.00000000000E+00 -0.20387916854E+03  0.20387916854E+03  0.00000000000E+00 0. -1.
         25    2    1    2    0    0 -0.89842628639E+02  0.37569761215E+02 -0.10499125963E+03  0.19014152091E+03  0.12508976176E+03 0.  0.
          5    1    3    3  502    0  0.62152458514E+01 -0.16016310705E+02  0.17901105926E+02  0.25160951551E+02  0.41800000000E+01 0. -1.
         -5    1    3    3    0  502 -0.96057874490E+02  0.53586071920E+02 -0.12289236556E+03  0.16498056936E+03  0.41800000000E+01 0. -1.
        -11    1    1    2    0    0 -0.37825110720E+02 -0.53158516769E+02  0.92635617930E+02  0.11330456573E+03  0.00000000000E+00 0.  1.
         11    1    1    2    0    0  0.12766773936E+03  0.15588755554E+02  0.43966622933E+02  0.13592323166E+03  0.00000000000E+00 0. -1.
</event>
<event>
 7    1  0.2733606E-009  0.1120207E+03  0.7561462E-02  0.1256873E+00
         -3   -1    0    0    0  501 -0.00000000000E+00  0.00000000000E+00  0.18493318447E+03  0.18493318447E+03  0.00000000000E+00 0.  1.
          3   -1    0    0  501    0  0.00000000000E+00 -0.00000000000E+00 -0.93967506535E+02  0.93967506535E+02  0.00000000000E+00 0. -1.
         25    2    1    2    0    0  0.50913045003E+02 -0.21713627026E+02  0.10599528883E+03  0.17304775054E+03  0.12508758116E+03 0.  0.
          5    1    3    3  502    0 -0.31115270797E+02  0.18158461935E+02  0.45264344222E+01  0.36549293088E+02  0.41800000000E+01 0. -1.
         -5    1    3    3    0  502  0.82028315800E+02 -0.39872088961E+02  0.10146885441E+03  0.13649845745E+03  0.41800000000E+01 0. -1.
        -11    1    1    2    0    0 -0.52117373206E+02  0.47584934348E+02 -0.29147979559E+02  0.76355427307E+02  0.00000000000E+00 0.  1.
         11    1    1    2    0    0  0.12043282029E+01 -0.25871307322E+02  0.14118368665E+02  0.29497513162E+02  0.00000000000E+00 0. -1.
</event>
<event>
 7    1  0.2972975E-009  0.1227004E+03  0.7561462E-02  0.1238708E+00
          2   -1    0    0  501    0  0.00000000000E+00  0.00000000000E+00  0.55500511874E+03  0.55500511874E+03  0.00000000000E+00 0. -1.
         -2   -1    0    0    0  501 -0.00000000000E+00 -0.00000000000E+00 -0.36638855587E+02  0.36638855587E+02  0.00000000000E+00 0.  1.
         25    2    1    2    0    0  0.40364812426E+02  0.59821065911E+02  0.16343369375E+03  0.21809629208E+03  0.12509013693E+03 0.  0.
          5    1    3    3  502    0  0.23063651158E+02 -0.34011074889E+02  0.85026560771E+02  0.94528692239E+02  0.41800000000E+01 0.  1.
         -5    1    3    3    0  502  0.17301161269E+02  0.93832140801E+02  0.78407132976E+02  0.12356759984E+03  0.41800000000E+01 0.  1.
        -11    1    1    2    0    0 -0.38225214753E+02  0.93770298026E+01  0.20021632699E+03  0.20404821323E+03  0.00000000000E+00 0.  1.
         11    1    1    2    0    0 -0.21395976733E+01 -0.69198095714E+02  0.15471624241E+03  0.16949946901E+03  0.00000000000E+00 0. -1.
</event>
<event>
 7    1  0.2733606E-009  0.1248606E+03  0.7561462E-02  0.1235287E+00
         -1   -1    0    0    0  501 -0.00000000000E+00  0.00000000000E+00  0.31345274994E+03  0.31345274994E+03  0.00000000000E+00 0.  1.
          1   -1    0    0  501    0  0.00000000000E+00 -0.00000000000E+00 -0.59657309874E+02  0.59657309874E+02  0.00000000000E+00 0. -1.
         25    2    1    2    0    0  0.66540947912E+02 -0.22433996334E+01  0.20731356014E+03  0.25111557057E+03  0.12508951584E+03 0.  0.
          5    1    3    3  502    0 -0.18113475172E+02 -0.40032310100E+02  0.99584817892E+02  0.10892792199E+03  0.41800000000E+01 0.  1.
         -5    1    3    3    0  502  0.84654423084E+02  0.37788910467E+02  0.10772874225E+03  0.14218764858E+03  0.41800000000E+01 0.  1.
        -11    1    1    2    0    0 -0.16763964141E+02 -0.42603678187E+02  0.18114722713E+02  0.49236643547E+02  0.00000000000E+00 0. -1.
         11    1    1    2    0    0 -0.49776983771E+02  0.44847077820E+02  0.28367157213E+02  0.72757845699E+02  0.00000000000E+00 0.  1.
</event>
<event>
 7    1  0.2733606E-009  0.1328746E+03  0.7561462E-02  0.1223252E+00
          1   -1    0    0  501    0  0.00000000000E+00  0.00000000000E+00  0.19071417611E+03  0.19071417611E+03  0.00000000000E+00 0. -1.
         -1   -1    0    0    0  501 -0.00000000000E+00 -0.00000000000E+00 -0.15227741387E+03  0.15227741387E+03  0.00000000000E+00 0.  1.
         25    2    1    2    0    0  0.35469653785E+02 -0.92133206639E+02 -0.68537319740E+02  0.17347315824E+03  0.12509575663E+03 0.  0.
          5    1    3    3  502    0 -0.32382380282E+02 -0.73369005359E+02 -0.83144462258E+01  0.80735567851E+02  0.41800000000E+01 0. -1.
         -5    1    3    3    0  502  0.67852034067E+02 -0.18764201279E+02 -0.60222873514E+02  0.92737590388E+02  0.41800000000E+01 0. -1.
        -11    1    1    2    0    0 -0.41825456117E+02  0.27682234945E+02  0.89242427199E+02  0.10237131299E+03  0.00000000000E+00 0. -1.
         11    1    1    2    0    0  0.63558023315E+01  0.64450971694E+02  0.17731654774E+02  0.67147118751E+02  0.00000000000E+00 0.  1.
</event>
<event>
 7    1  0.2733606E-009  0.1680522E+03  0.7561462E-02  0.1179894E+00
         -2   -1    0    0    0  501 -0.00000000000E+00  0.00000000000E+00  0.13619878836E+03  0.13619878836E+03  0.00000000000E+00 0.  1.
          2   -1    0    0  501    0  0.00000000000E+00 -0.00000000000E+00 -0.24250645423E+03  0.24250645423E+03  0.00000000000E+00 0. -1.
         25    2    1    2    0    0  0.29845132653E+02 -0.14148754385E+03 -0.76818313604E+02  0.20605341537E+03  0.12508996631E+03 0.  0.
          5    1    3    3  502    0  0.39940539477E+02 -0.21522359291E+02 -0.72359421304E+02  0.85509162636E+02  0.41800000000E+01 0. -1.
         -5    1    3    3    0  502 -0.10095406825E+02 -0.11996518456E+03 -0.44588923003E+01  0.12054425273E+03  0.41800000000E+01 0. -1.
        -11    1    1    2    0    0 -0.60547325295E+01  0.14578009513E+03 -0.24080482366E+02  0.14787956435E+03  0.00000000000E+00 0. -1.
         11    1    1    2    0    0 -0.23790400123E+02 -0.42925512752E+01 -0.54088698937E+01  0.24772262876E+02  0.00000000000E+00 0.  1.
</event>
<event>
 7    1  0.2733606E-009  0.1644321E+03  0.7561462E-02  0.1183782E+00
          1   -1    0    0  501    0  0.00000000000E+00  0.00000000000E+00  0.13579607228E+04  0.13579607228E+04  0.00000000000E+00 0. -1.
         -1   -1    0    0    0  501 -0.00000000000E+00 -0.00000000000E+00 -0.21843614470E+02  0.21843614470E+02  0.00000000000E+00 0.  1.
         25    2    1    2    0    0 -0.78112762703E+02 -0.10271455918E+03  0.83750279521E+03  0.85656924453E+03  0.12509218330E+03 0.  0.
          5    1    3    3  502    0 -0.75678711132E+02 -0.12679156985E+03  0.60498394336E+03  0.62275710644E+03  0.41800000000E+01 0. -1.
         -5    1    3    3    0  502 -0.24340515712E+01  0.24077010668E+02  0.23251885185E+03  0.23381213808E+03  0.41800000000E+01 0. -1.
        -11    1    1    2    0    0  0.91601084386E+02  0.54647497465E+02  0.29840919592E+03  0.31689928345E+03  0.00000000000E+00 0.  1.
         11    1    1    2    0    0 -0.13488321682E+02  0.48067061720E+02  0.20020511724E+03  0.20633580934E+03  0.00000000000E+00 0. -1.
</event>
<event>
 7    1  0.2733606E-009  0.1013251E+03  0.7561462E-02  0.1277534E+00
          2   -1    0    0  501    0  0.00000000000E+00  0.00000000000E+00  0.33913738276E+03  0.33913738276E+03  0.00000000000E+00 0. -1.
         -2   -1    0    0    0  501 -0.00000000000E+00 -0.00000000000E+00 -0.97026407713E+02  0.97026407713E+02  0.00000000000E+00 0.  1.
         25    2    1    2    0    0 -0.33217096653E+02 -0.78918466136E+02  0.26740250776E+03  0.30738110699E+03  0.12509014338E+03 0.  0.
          5    1    3    3  502    0  0.23632024390E+02 -0.40252295053E+02  0.20678891836E+02  0.51223127602E+02  0.41800000000E+01 0.  1.
         -5    1    3    3    0  502 -0.56849121042E+02 -0.38666171083E+02  0.24672361592E+03  0.25615797939E+03  0.41800000000E+01 0.  1.
        -11    1    1    2    0    0  0.43314825833E+01  0.28278113294E+02 -0.56004394838E+02  0.62888040787E+02  0.00000000000E+00 0.  1.
         11    1    1    2    0    0  0.28885614069E+02  0.50640352841E+02  0.30712862126E+02  0.65894642696E+02  0.00000000000E+00 0. -1.
</event>
<event>
 7    1  0.2733606E-009  0.1214890E+03  0.7561462E-02  0.1240661E+00
         -3   -1    0    0    0  501 -0.00000000000E+00  0.00000000000E+00  0.18175722077E+03  0.18175722077E+03  0.00000000000E+00 0.  1.
          3   -1    0    0  501    0  0.00000000000E+00 -0.00000000000E+00 -0.11232571276E+03  0.11232571276E+03  0.00000000000E+00 0. -1.
         25    2    1    2    0    0 -0.25210197407E+02 -0.65455561052E+02  0.98778280853E+02  0.17414614318E+03  0.12509894441E+03 0.  0.
          5    1    3    3  502    0  0.14803180055E+02 -0.92457381831E+02  0.75690213789E+02  0.12047399080E+03  0.41800000000E+01 0.  1.
         -5    1    3    3    0  502 -0.40013377463E+02  0.27001820779E+02  0.23088067064E+02  0.53672152389E+02  0.41800000000E+01 0.  1.
        -11    1    1    2    0    0 -0.21551081045E+02  0.44725620012E+02  0.15395474593E+02  0.51979330677E+02  0.00000000000E+00 0. -1.
         11    1    1    2    0    0  0.46761278453E+02  0.20729941040E+02 -0.44742247443E+02  0.67957459666E+02  0.00000000000E+00 0.  1.
</event>
<event>
 7    1  0.2733606E-009  0.9201032E+02  0.7561462E-02  0.1298055E+00
         -1   -1    0    0    0  501 -0.00000000000E+00  0.00000000000E+00  0.38573258134E+03  0.38573258134E+03  0.00000000000E+00 0.  1.
          1   -1    0    0  501    0  0.00000000000E+00 -0.00000000000E+00 -0.37869281650E+02  0.37869281650E+02  0.00000000000E+00 0. -1.
         25    2    1    2    0    0  0.53435063735E+01 -0.48226854555E+02  0.25252258292E+03  0.28595734279E+03  0.12509821922E+03 0.  0.
          5    1    3    3  502    0  0.22524750169E+02  0.94064082036E+01 -0.15663847148E+01  0.24814730435E+02  0.41800000000E+01 0.  1.
         -5    1    3    3    0  502 -0.17181243796E+02 -0.57633262759E+02  0.25408896763E+03  0.26114261236E+03  0.41800000000E+01 0.  1.
        -11    1    1    2    0    0 -0.45860562783E+02  0.23961930088E+02  0.55240201183E+02  0.75689134881E+02  0.00000000000E+00 0. -1.
         11    1    1    2    0    0  0.40517056409E+02  0.24264924467E+02  0.40100515587E+02  0.61955385317E+02  0.00000000000E+00 0.  1.
</event>
<event>
 7    1  0.2733606E-009  0.9758484E+02  0.7561462E-02  0.1285458E+00
         -2   -1    0    0    0  501 -0.00000000000E+00  0.00000000000E+00  0.15958248026E+02  0.15958248026E+02  0.00000000000E+00 0.  1.
          2   -1    0    0  501    0  0.00000000000E+00 -0.00000000000E+00 -0.10917983434E+04  0.10917983434E+04  0.00000000000E+00 0. -1.
         25    2    1    2    0    0  0.56969585207E+02 -0.26435649997E+02 -0.69437951721E+03  0.70834574027E+03  0.12508555717E+03 0.  0.
          5    1    3    3  502    0  0.25557666609E+02 -0.38605574696E+02 -0.76379280329E+02  0.89413933946E+02  0.41800000000E+01 0. -1.
         -5    1    3    3    0  502  0.31411918599E+02  0.12169924699E+02 -0.61800023688E+03  0.61893180632E+03  0.41800000000E+01 0. -1.
        -11    1    1    2    0    0 -0.78811412303E+02 -0.20541651025E+01 -0.21187884288E+03  0.22607101177E+03  0.00000000000E+00 0.  1.
         11    1    1    2    0    0  0.21841827096E+02  0.28489815099E+02 -0.16958173532E+03  0.17333983942E+03  0.00000000000E+00 0. -1.
</event>
<event>
 7    1  0.2733606E-009  0.1079813E+03  0.7561462E-02  0.1264354E+00
         -1   -1    0    0    0  501 -0.00000000000E+00  0.00000000000E+00  0.19101236901E+03  0.19101236901E+03  0.00000000000E+00 0.  1.
          1   -1    0    0  501    0  0.00000000000E+00 -0.00000000000E+00 -0.88444136760E+02  0.88444136760E+02  0.00000000000E+00 0. -1.
         25    2    1    2    0    0 -0.45228401373E+02  0.24072014052E+02 -0.22067911909E+01  0.13519120439E+03  0.12508685648E+03 0.  0.
          5    1    3    3  502    0  0.18176604227E+02 -0.39520474435E+02  0.89373150203E+01  0.44604986723E+02  0.41800000000E+01 0.  1.
         -5    1    3    3    0  502 -0.63405005600E+02  0.63592488487E+02 -0.11144106211E+02  0.90586217662E+02  0.41800000000E+01 0.  1.
        -11    1    1    2    0    0  0.40240757047E+02 -0.45280184688E+02  0.10638093552E+03  0.12241943103E+03  0.00000000000E+00 0.  1.
         11    1    1    2    0    0  0.49876443261E+01  0.21208170636E+02 -0.16059120789E+01  0.21845870348E+02  0.00000000000E+00 0. -1.
</event>
<event>
 7    1  0.2733606E-009  0.1204073E+03  0.7561462E-02  0.1242427E+00
          1   -1    0    0  501    0  0.00000000000E+00  0.00000000000E+00  0.24661260391E+03  0.24661260391E+03  0.00000000000E+00 0. -1.
         -1   -1    0    0    0  501 -0.00000000000E+00 -0.00000000000E+00 -0.69203132965E+02  0.69203132965E+02  0.00000000000E+00 0.  1.
         25    2    1    2    0    0  0.26517413491E+02 -0.46367828709E+02  0.15905382939E+03  0.20928063338E+03  0.12508842515E+03 0.  0.
          5    1    3    3  502    0 -0.44174771178E+02 -0.47618115652E+02  0.72133712329E+02  0.97157810809E+02  0.41800000000E+01 0.  1.
         -5    1    3    3    0  502  0.70692184668E+02  0.12502869427E+01  0.86920117061E+02  0.11212282257E+03  0.41800000000E+01 0.  1.
        -11    1    1    2    0    0  0.32191689255E+02  0.29876078054E+02  0.62106159106E+01  0.44356021541E+02  0.00000000000E+00 0.  1.
         11    1    1    2    0    0 -0.58709102745E+02  0.16491750655E+02  0.12145025642E+02  0.62179081954E+02  0.00000000000E+00 0. -1.
</event>
<event>
 7    1  0.2733606E-009  0.1776474E+03  0.7561462E-02  0.1170100E+00
         -1   -1    0    0    0  501 -0.00000000000E+00  0.00000000000E+00  0.59674348516E+02  0.59674348516E+02  0.00000000000E+00 0.  1.
          1   -1    0    0  501    0  0.00000000000E+00 -0.00000000000E+00 -0.69527404073E+03  0.69527404073E+03  0.00000000000E+00 0. -1.
         25    2    1    2    0    0  0.14229531929E+03 -0.18155237724E+02 -0.15574202268E+03  0.24592841666E+03  0.12509051901E+03 0.  0.
          5    1    3    3  502    0 -0.11572331430E+02  0.25204226266E+02 -0.38530723532E+02  0.47657747873E+02  0.41800000000E+01 0. -1.
         -5    1    3    3    0  502  0.15386765072E+03 -0.43359463990E+02 -0.11721129914E+03  0.19827066879E+03  0.41800000000E+01 0. -1.
        -11    1    1    2    0    0 -0.78245071622E+02  0.52915471346E+02 -0.22695115224E+03  0.24582344038E+03  0.00000000000E+00 0.  1.
         11    1    1    2    0    0 -0.64050247670E+02 -0.34760233622E+02 -0.25290651730E+03  0.26319653220E+03  0.00000000000E+00 0. -1.
</event>
<event>
 7    1  0.2733606E-009  0.1553881E+03  0.7561462E-02  0.1194004E+00
         -3   -1    0    0    0  501 -0.00000000000E+00  0.00000000000E+00  0.87822331707E+02  0.87822331707E+02  0.00000000000E+00 0.  1.
          3   -1    0    0  501    0  0.00000000000E+00 -0.00000000000E+00 -0.35764304263E+03  0.35764304263E+03  0.00000000000E+00 0. -1.
         25    2    1    2    0    0  0.13665236013E+03  0.27166682250E+02 -0.17121244284E+03  0.25371792893E+03  0.12508873140E+03 0.  0.
          5    1    3    3  502    0  0.12916485604E+03 -0.55995603003E+00 -0.67058397222E+02  0.14559592929E+03  0.41800000000E+01 0.  1.
         -5    1    3    3    0  502  0.74875040911E+01  0.27726638280E+02 -0.10415404562E+03  0.10812199964E+03  0.41800000000E+01 0.  1.
        -11    1    1    2    0    0 -0.91479223655E+02  0.12592683976E+02 -0.93404440930E+02  0.13134463687E+03  0.00000000000E+00 0. -1.
         11    1    1    2    0    0 -0.45173136476E+02 -0.39759366226E+02 -0.52038271527E+01  0.60402808535E+02  0.00000000000E+00 0.  1.
</event>
<event>
 7    1  0.2733606E-009  0.9434259E+02  0.7561462E-02  0.1292664E+00
         -2   -1    0    0    0  501 -0.00000000000E+00  0.00000000000E+00  0.37994326759E+02  0.37994326759E+02  0.00000000000E+00 0.  1.
          2   -1    0    0  501    0  0.00000000000E+00 -0.00000000000E+00 -0.34574424398E+03  0.34574424398E+03  0.00000000000E+00 0. -1.
         25    2    1    2    0    0 -0.21721065270E+02 -0.28768675380E+02 -0.16721798140E+03  0.21191883225E+03  0.12509315248E+03 0.  0.
          5    1    3    3  502    0 -0.31121920044E+02  0.40972143570E+02 -0.35907647831E+02  0.62881809999E+02  0.41800000000E+01 0. -1.
         -5    1    3    3    0  502  0.94008547744E+01 -0.69740818950E+02 -0.13131033357E+03  0.14903702225E+03  0.41800000000E+01 0. -1.
        -11    1    1    2    0    0  0.27340805051E+02 -0.86913565145E+01 -0.26291829977E+01  0.28809232932E+02  0.00000000000E+00 0.  1.
         11    1    1    2    0    0 -0.56197397810E+01  0.37460031894E+02 -0.13790275282E+03  0.14301050556E+03  0.00000000000E+00 0. -1.
</event>
<event>
 7    1  0.2733606E-009  0.1025723E+03  0.7561462E-02  0.1274978E+00
         -2   -1    0    0    0  501 -0.00000000000E+00  0.00000000000E+00  0.50190296259E+02  0.50190296259E+02  0.00000000000E+00 0.  1.
          2   -1    0    0  501    0  0.00000000000E+00 -0.00000000000E+00 -0.22723256183E+03  0.22723256183E+03  0.00000000000E+00 0. -1.
         25    2    1    2    0    0  0.49142696316E+01  0.99276483486E+01 -0.10474209759E+03  0.16352640982E+03  0.12508905409E+03 0.  0.
          5    1    3    3  502    0  0.60660491583E+02  0.10411890200E+02 -0.25971084316E+02  0.66933342343E+02  0.41800000000E+01 0. -1.
         -5    1    3    3    0  502 -0.55746221951E+02 -0.48424185140E+00 -0.78771013278E+02  0.96593067478E+02  0.41800000000E+01 0. -1.
        -11    1    1    2    0    0  0.18813199862E+02  0.33295500113E+02 -0.37370168489E+02  0.53470144097E+02  0.00000000000E+00 0.  1.
         11    1    1    2    0    0 -0.23727469493E+02 -0.43223148462E+02 -0.34929999484E+02  0.60426304169E+02  0.00000000000E+00 0. -1.
</event>
<event>
 7    1  0.2733606E-009  0.1481908E+03  0.7561462E-02  0.1202714E+00
         -2   -1    0    0    0  501 -0.00000000000E+00  0.00000000000E+00  0.28167959525E+02  0.28167959525E+02  0.00000000000E+00 0.  1.
          2   -1    0    0  501    0  0.00000000000E+00 -0.00000000000E+00 -0.12488413828E+04  0.12488413828E+04  0.00000000000E+00 0. -1.
         25    2    1    2    0    0 -0.71384506858E+02 -0.68094297105E+02 -0.10261976085E+04  0.10384896107E+04  0.12508620498E+03 0.  0.
          5    1    3    3  502    0 -0.39013189553E+02  0.33766250751E+02 -0.37751297507E+03  0.38104554505E+03  0.41800000000E+01 0. -1.
         -5    1    3    3    0  502 -0.32371317305E+02 -0.10186054786E+03 -0.64868463340E+03  0.65744406561E+03  0.41800000000E+01 0. -1.
        -11    1    1    2    0    0  0.93660215314E+02  0.67357814956E+02 -0.16961954925E+03  0.20513435269E+03  0.00000000000E+00 0.  1.
         11    1    1    2    0    0 -0.22275708456E+02  0.73648214899E+00 -0.24856265603E+02  0.33385379028E+02  0.00000000000E+00 0. -1.
</event>
<event>
 7    1  0.2733606E-009  0.1082560E+03  0.7561462E-02  0.1263834E+00
         -2   -1    0    0    0  501 -0.00000000000E+00  0.00000000000E+00  0.12129602539E+03  0.12129602539E+03  0.00000000000E+00 0.  1.
          2   -1    0    0  501    0  0.00000000000E+00 -0.00000000000E+00 -0.13243334400E+03  0.13243334400E+03  0.00000000000E+00 0. -1.
         25    2    1    2    0    0  0.22816305780E+02 -0.60013678211E+02 -0.96589960207E+01  0.14093589025E+03  0.12508958220E+03 0.  0.
          5    1    3    3  502    0  0.30655412505E+02 -0.78491380690E+02 -0.48282799840E+02  0.97207779107E+02  0.41800000000E+01 0.  1.
         -5    1    3    3    0  502 -0.78391067257E+01  0.18477702478E+02  0.38623803819E+02  0.43728111148E+02  0.41800000000E+01 0.  1.
        -11    1    1    2    0    0 -0.47372661291E+02  0.62672722225E+00 -0.85490367420E+01  0.48141955236E+02  0.00000000000E+00 0.  1.
         11    1    1    2    0    0  0.24556355511E+02  0.59386950989E+02  0.70707141519E+01  0.64651523898E+02  0.00000000000E+00 0. -1.
</event>
<event>
 7    1  0.2733606E-009  0.1672587E+03  0.7561462E-02  0.1180737E+00
          1   -1    0    0  501    0  0.00000000000E+00  0.00000000000E+00  0.29968890112E+03  0.29968890112E+03  0.00000000000E+00 0. -1.
         -1   -1    0    0    0  501 -0.00000000000E+00 -0.00000000000E+00 -0.11525555897E+03  0.11525555897E+03  0.00000000000E+00 0.  1.
         25    2    1    2    0    0 -0.30953300069E+02  0.13216364152E+03  0.23852135384E+02  0.18612364097E+03  0.12509096866E+03 0.  0.
          5    1    3    3  502    0 -0.68470943690E+02  0.31030246053E+02 -0.12243276872E+01  0.75300183786E+02  0.41800000000E+01 0.  1.
         -5    1    3    3    0  502  0.37517643621E+02  0.10113339546E+03  0.25076463071E+02  0.11082345718E+03  0.41800000000E+01 0.  1.
        -11    1    1    2    0    0  0.50472033031E+02 -0.11374884160E+03  0.90772132021E+02  0.15403183124E+03  0.00000000000E+00 0.  1.
         11    1    1    2    0    0 -0.19518732961E+02 -0.18414799916E+02  0.69809074740E+02  0.74788987882E+02  0.00000000000E+00 0. -1.
</event>
<event>
 7    1  0.2733606E-009  0.1499546E+03  0.7561462E-02  0.1200529E+00
          1   -1    0    0  501    0  0.00000000000E+00  0.00000000000E+00  0.57925473515E+03  0.57925473515E+03  0.00000000000E+00 0. -1.
         -1   -1    0    0    0  501 -0.00000000000E+00 -0.00000000000E+00 -0.40072190938E+02  0.40072190938E+02  0.00000000000E+00 0.  1.
         25    2    1    2    0    0  0.93565259377E+02  0.49196548342E+02  0.30522785328E+03  0.34639024386E+03  0.12508956987E+03 0.  0.
          5    1    3    3  502    0  0.12018725093E+03  0.20188029783E+02  0.20363738530E+03  0.23735667028E+03  0.41800000000E+01 0.  1.
         -5    1    3    3    0  502 -0.26621991555E+02  0.29008518559E+02  0.10159046798E+03  0.10903357358E+03  0.41800000000E+01 0.  1.
        -11    1    1    2    0    0  0.16692762706E+02 -0.16252577917E+02  0.59999155797E+02  0.64363757753E+02  0.00000000000E+00 0. -1.
         11    1    1    2    0    0 -0.11025802208E+03 -0.32943970424E+02  0.17395553513E+03  0.20857292447E+03  0.00000000000E+00 0.  1.
</event>
<event>
 7    1  0.2733606E-009  0.1745356E+03  0.7561462E-02  0.1173199E+00
          2   -1    0    0  501    0  0.00000000000E+00  0.00000000000E+00  0.10057446315E+03  0.10057446315E+03  0.00000000000E+00 0. -1.
         -2   -1    0    0    0  501 -0.00000000000E+00 -0.00000000000E+00 -0.33197668886E+03  0.33197668886E+03  0.00000000000E+00 0.  1.
         25    2    1    2    0    0 -0.11934813770E+03  0.84745255125E+02 -0.11145267898E+03  0.22247149511E+03  0.12508449242E+03 0.  0.
          5    1    3    3  502    0 -0.94491213934E+02  0.11531898081E+03 -0.10482004966E+03  0.18229583664E+03  0.41800000000E+01 0.  1.
         -5    1    3    3    0  502 -0.24856923761E+02 -0.30573725687E+02 -0.66326293206E+01  0.40175658463E+02  0.41800000000E+01 0.  1.
        -11    1    1    2    0    0  0.33846160915E+02 -0.63875669356E+02 -0.93486497230E+02  0.11817524660E+03  0.00000000000E+00 0. -1.
         11    1    1    2    0    0  0.85501976780E+02 -0.20869585769E+02 -0.26463049499E+02  0.91904410298E+02  0.00000000000E+00 0.  1.
</event>
<event>
 7    1  0.2733606E-009  0.1196474E+03  0.7561462E-02  0.1243680E+00
          1   -1    0    0  501    0  0.00000000000E+00  0.00000000000E+00  0.60580684744E+02  0.60580684744E+02  0.00000000000E+00 0. -1.
         -1   -1    0    0    0  501 -0.00000000000E+00 -0.00000000000E+00 -0.43962851212E+03  0.43962851212E+03  0.00000000000E+00 0.  1.
         25    2    1    2    0    0 -0.41131532158E+02 -0.90976721662E+02 -0.30994944405E+03  0.34883154758E+03  0.12508486678E+03 0.  0.
          5    1    3    3  502    0 -0.43038373845E+02  0.48253484092E+01 -0.19169688742E+03  0.19657251755E+03  0.41800000000E+01 0. -1.
         -5    1    3    3    0  502  0.19068416879E+01 -0.95802070072E+02 -0.11825255663E+03  0.15225903003E+03  0.41800000000E+01 0. -1.
        -11    1    1    2    0    0  0.27365101698E+02  0.57646277170E+02 -0.89519925145E+02  0.10993524940E+03  0.00000000000E+00 0.  1.
         11    1    1    2    0    0  0.13766430459E+02  0.33330444492E+02  0.20421541822E+02  0.41442399882E+02  0.00000000000E+00 0. -1.
</event>
<event>
 7    1  0.2733606E-009  0.1155300E+03  0.7561462E-02  0.1250659E+00
         -1   -1    0    0    0  501 -0.00000000000E+00  0.00000000000E+00  0.37545030670E+03  0.37545030670E+03  0.00000000000E+00 0.  1.
          1   -1    0    0  501    0  0.00000000000E+00 -0.00000000000E+00 -0.66351653957E+02  0.66351653957E+02  0.00000000000E+00 0. -1.
         25    2    1    2    0    0  0.44244813543E+02 -0.53718748867E+01  0.31189041394E+03  0.33898333329E+03  0.12509040481E+03 0.  0.
          5    1    3    3  502    0 -0.42643515878E+02  0.94119851987E+01  0.12035107040E+03  0.12809725781E+03  0.41800000000E+01 0. -1.
         -5    1    3    3    0  502  0.86888329422E+02 -0.14783860085E+02  0.19153934354E+03  0.21088607548E+03  0.41800000000E+01 0. -1.
        -11    1    1    2    0    0  0.26634590583E+02 -0.56385468915E+01 -0.13340355681E+02  0.30317646944E+02  0.00000000000E+00 0. -1.
         11    1    1    2    0    0 -0.70879404126E+02  0.11010421778E+02  0.10548594489E+02  0.72500980426E+02  0.00000000000E+00 0.  1.
</event>
<event>
 7    1  0.2733606E-009  0.1413004E+03  0.7561462E-02  0.1211590E+00
         -2   -1    0    0    0  501 -0.00000000000E+00  0.00000000000E+00  0.14547082792E+02  0.14547082792E+02  0.00000000000E+00 0.  1.
          2   -1    0    0  501    0  0.00000000000E+00 -0.00000000000E+00 -0.17018322784E+04  0.17018322784E+04  0.00000000000E+00 0. -1.
         25    2    1    2    0    0  0.72979529011E+02 -0.54689215830E+02 -0.12773022008E+04  0.12866491051E+04  0.12509230829E+03 0.  0.
          5    1    3    3  502    0  0.82243579181E+02  0.15503200038E+02 -0.67040689500E+03  0.67562358810E+03  0.41800000000E+01 0. -1.
         -5    1    3    3    0  502 -0.92640501701E+01 -0.70192415867E+02 -0.60689530576E+03  0.61102551700E+03  0.41800000000E+01 0. -1.
        -11    1    1    2    0    0 -0.51902741442E+02 -0.15842242821E+02 -0.19935672073E+03  0.20661068057E+03  0.00000000000E+00 0. -1.
         11    1    1    2    0    0 -0.21076787569E+02  0.70531458651E+02 -0.21062627414E+03  0.22311957555E+03  0.00000000000E+00 0.  1.
</event>
<event>
 7    1  0.2733606E-009  0.1077899E+03  0.7561462E-02  0.1264718E+00
          1   -1    0    0  501    0  0.00000000000E+00  0.00000000000E+00  0.13519668971E+03  0.13519668971E+03  0.00000000000E+00 0. -1.
         -1   -1    0    0    0  501 -0.00000000000E+00 -0.00000000000E+00 -0.15340290056E+03  0.15340290056E+03  0.00000000000E+00 0.  1.
         25    2    1    2    0    0 -0.45795536914E+02 -0.41633999643E+01 -0.92873863933E+02  0.16244377295E+03  0.12509140525E+03 0.  0.
          5    1    3    3  502    0 -0.27483981014E+02 -0.63667834602E+02 -0.37130687194E+02  0.78772601245E+02  0.41800000000E+01 0.  1.
         -5    1    3    3    0  502 -0.18311555900E+02  0.59504434638E+02 -0.55743176739E+02  0.83671171702E+02  0.41800000000E+01 0.  1.
        -11    1    1    2    0    0  0.61261357851E+02  0.17036977868E+02  0.18094812944E+02  0.66110777005E+02  0.00000000000E+00 0.  1.
         11    1    1    2    0    0 -0.15465820937E+02 -0.12873577904E+02  0.56572840138E+02  0.60045040316E+02  0.00000000000E+00 0. -1.
</event>
<event>
 7    1  0.2733606E-009  0.1005282E+03  0.7561462E-02  0.1279189E+00
          3   -1    0    0  501    0  0.00000000000E+00  0.00000000000E+00  0.28311196810E+03  0.28311196810E+03  0.00000000000E+00 0. -1.
         -3   -1    0    0    0  501 -0.00000000000E+00 -0.00000000000E+00 -0.99082324187E+02  0.99082324187E+02  0.00000000000E+00 0.  1.
         25    2    1    2    0    0 -0.85390012579E+02 -0.11602904568E+01 -0.10031349403E+02  0.15179332264E+03  0.12509110402E+03 0.  0.
          5    1    3    3  502    0 -0.60096744875E+02  0.30152975790E+02  0.46798480363E+02  0.82026769154E+02  0.41800000000E+01 0.  1.
         -5    1    3    3    0  502 -0.25293267705E+02 -0.31313266247E+02 -0.56829829766E+02  0.69766553487E+02  0.41800000000E+01 0.  1.
        -11    1    1    2    0    0  0.56711858950E+02 -0.17086113233E+02  0.37297676695E+02  0.69994906228E+02  0.00000000000E+00 0.  1.
         11    1    1    2    0    0  0.28678153629E+02  0.18246403690E+02  0.15676331662E+03  0.16040606342E+03  0.00000000000E+00 0. -1.
</event>
<event>
 7    1  0.2918212E-009  0.9916332E+02  0.7561462E-02  0.1282065E+00
         -2   -1    0    0    0  501 -0.00000000000E+00  0.00000000000E+00  0.79745963185E+02  0.79745963185E+02  0.00000000000E+00 0.  1.
          2   -1    0    0  501    0  0.00000000000E+00 -0.00000000000E+00 -0.18062364877E+03  0.18062364877E+03  0.00000000000E+00 0. -1.
         25    2    1    2    0    0  0.13884234630E+02  0.34681091651E+02 -0.18228585318E+02  0.13182169336E+03  0.12509647249E+03 0.  0.
          5    1    3    3  502    0 -0.24083003512E+02 -0.38399193225E+02  0.59100778245E+01  0.45900877098E+02  0.41800000000E+01 0. -1.
         -5    1    3    3    0  502  0.37967238142E+02  0.73080284876E+02 -0.24138663143E+02  0.85920816267E+02  0.41800000000E+01 0. -1.
        -11    1    1    2    0    0 -0.22052252151E+02 -0.49072472841E+02 -0.10871001831E+02  0.54887048531E+02  0.00000000000E+00 0.  1.
         11    1    1    2    0    0  0.81680175211E+01  0.14391381190E+02 -0.71778098438E+02  0.73660870061E+02  0.00000000000E+00 0. -1.
</event>
<event>
 7    1  0.2733606E-009  0.1185784E+03  0.7561462E-02  0.1245461E+00
          1   -1    0    0  501    0  0.00000000000E+00  0.00000000000E+00  0.81394688055E+03  0.81394688055E+03  0.00000000000E+00 0. -1.
         -1   -1    0    0    0  501 -0.00000000000E+00 -0.00000000000E+00 -0.19715034133E+02  0.19715034133E+02  0.00000000000E+00 0.  1.
         25    2    1    2    0    0 -0.59591914035E+02 -0.17242504921E+02  0.38511137925E+03  0.40964243141E+03  0.12509055515E+03 0.  0.
          5    1    3    3  502    0 -0.85318836044E+02 -0.40519540235E+02  0.33807234077E+03  0.35104346870E+03  0.41800000000E+01 0. -1.
         -5    1    3    3    0  502  0.25726922009E+02  0.23277035313E+02  0.47039038484E+02  0.58598962708E+02  0.41800000000E+01 0. -1.
        -11    1    1    2    0    0 -0.21461539766E+02  0.15714177016E+02  0.15547203722E+03  0.15773106037E+03  0.00000000000E+00 0. -1.
         11    1    1    2    0    0  0.81053453801E+02  0.15283279058E+01  0.25364842994E+03  0.26628842290E+03  0.00000000000E+00 0.  1.
</event>
<event>
 7    1  0.2733606E-009  0.1003521E+03  0.7561462E-02  0.1279557E+00
         -2   -1    0    0    0  501 -0.00000000000E+00  0.00000000000E+00  0.36125240842E+02  0.36125240842E+02  0.00000000000E+00 0.  1.
          2   -1    0    0  501    0  0.00000000000E+00 -0.00000000000E+00 -0.37893278952E+03  0.37893278952E+03  0.00000000000E+00 0. -1.
         25    2    1    2    0    0  0.27698221548E+02  0.30614614181E+02 -0.17560887114E+03  0.21952543641E+03  0.12509394682E+03 0.  0.
          5    1    3    3  502    0 -0.28673735880E+02  0.32245472693E+02 -0.99489001145E+01  0.44479283403E+02  0.41800000000E+01 0.  1.
         -5    1    3    3    0  502  0.56371957429E+02 -0.16308585123E+01 -0.16565997102E+03  0.17504615301E+03  0.41800000000E+01 0.  1.
        -11    1    1    2    0    0 -0.60571826304E+02 -0.30744604251E+02 -0.10256858069E+03  0.12302231739E+03  0.00000000000E+00 0. -1.
         11    1    1    2    0    0  0.32873604756E+02  0.12999006976E+00 -0.64630096851E+02  0.72510276555E+02  0.00000000000E+00 0.  1.
</event>
<event>
 7    1  0.2733606E-009  0.7361113E+02  0.7561462E-02  0.1348227E+00
          2   -1    0    0  501    0  0.00000000000E+00  0.00000000000E+00  0.33184140735E+03  0.33184140735E+03  0.00000000000E+00 0. -1.
         -2   -1    0    0    0  501 -0.00000000000E+00 -0.00000000000E+00 -0.35600746013E+02  0.35600746013E+02  0.00000000000E+00 0.  1.
         25    2    1    2    0    0  0.10676486206E+02 -0.61537447860E+01  0.13539702569E+03  0.18474492513E+03  0.12508587795E+03 0.  0.
          5    1    3    3  502    0  0.40403547233E+02 -0.21248082650E+02  0.14310799644E+03  0.15027075128E+03  0.41800000000E+01 0.  1.
         -5    1    3    3    0  502 -0.29727061027E+02  0.15094337864E+02 -0.77109707446E+01  0.34474173851E+02  0.41800000000E+01 0.  1.
        -11    1    1    2    0    0  0.28370958053E+02  0.94022585333E+00  0.15985537900E+02  0.32578101656E+02  0.00000000000E+00 0.  1.
         11    1    1    2    0    0 -0.39047444259E+02  0.52135189327E+01  0.14485809774E+03  0.15011912657E+03  0.00000000000E+00 0. -1.
</event>
<event>
 7    1  0.2733606E-009  0.1486579E+03  0.7561462E-02  0.1202132E+00
          2   -1    0    0  501    0  0.00000000000E+00  0.00000000000E+00  0.19739423083E+03  0.19739423083E+03  0.00000000000E+00 0. -1.
         -2   -1    0    0    0  501 -0.00000000000E+00 -0.00000000000E+00 -0.16647133667E+03  0.16647133667E+03  0.00000000000E+00 0.  1.
         25    2    1    2    0    0  0.65891561653E+02 -0.12453264813E+03 -0.21600796868E+02  0.18964226743E+03  0.12509003487E+03 0.  0.
          5    1    3    3  502    0  0.14031607283E+02 -0.95171383362E+02  0.39601168676E+02  0.10411629639E+03  0.41800000000E+01 0. -1.
         -5    1    3    3    0  502  0.51859954369E+02 -0.29361264769E+02 -0.61201965544E+02  0.85525971041E+02  0.41800000000E+01 0. -1.
        -11    1    1    2    0    0 -0.46891293017E+02  0.77833525923E+02 -0.12737994581E+02  0.91755695324E+02  0.00000000000E+00 0.  1.
         11    1    1    2    0    0 -0.19000268636E+02  0.46699122208E+02  0.65261685615E+02  0.82467604746E+02  0.00000000000E+00 0. -1.
</event>
<event>
 7    1  0.2733606E-009  0.9412837E+02  0.7561462E-02  0.1293151E+00
          1   -1    0    0  501    0  0.00000000000E+00  0.00000000000E+00  0.15890622011E+03  0.15890622011E+03  0.00000000000E+00 0. -1.
         -1   -1    0    0    0  501 -0.00000000000E+00 -0.00000000000E+00 -0.80956504731E+02  0.80956504731E+02  0.00000000000E+00 0.  1.
         25    2    1    2    0    0  0.27448194394E+02 -0.17139073328E+02  0.58353436341E+02  0.14177974020E+03  0.12509684244E+03 0.  0.
          5    1    3    3  502    0  0.50203396928E+02  0.31659136358E+02 -0.35807807497E+01  0.59606848338E+02  0.41800000000E+01 0.  1.
         -5    1    3    3    0  502 -0.22755202534E+02 -0.48798209686E+02  0.61934217090E+02  0.82172891865E+02  0.41800000000E+01 0.  1.
        -11    1    1    2    0    0  0.14507487658E+02  0.27893345628E+02 -0.21729276372E+02  0.38218678419E+02  0.00000000000E+00 0.  1.
         11    1    1    2    0    0 -0.41955682052E+02 -0.10754272299E+02  0.41325555415E+02  0.59864306223E+02  0.00000000000E+00 0. -1.
</event>
<event>
 7    1  0.2733606E-009  0.1098600E+03  0.7561462E-02  0.1260829E+00
          2   -1    0    0  501    0  0.00000000000E+00  0.00000000000E+00  0.33938215864E+03  0.33938215864E+03  0.00000000000E+00 0. -1.
         -2   -1    0    0    0  501 -0.00000000000E+00 -0.00000000000E+00 -0.49720093579E+02  0.49720093579E+02  0.00000000000E+00 0.  1.
         25    2    1    2    0    0  0.16075531963E+02 -0.70427113530E+02  0.17372281426E+03  0.22593534717E+03  0.12509501933E+03 0.  0.
          5    1    3    3  502    0  0.49600064238E+00 -0.87748798805E+02  0.52325852169E+02  0.10225245676E+03  0.41800000000E+01 0. -1.
         -5    1    3    3    0  502  0.15579531321E+02  0.17321685275E+02  0.12139696209E+03  0.12368289041E+03  0.41800000000E+01 0. -1.
        -11    1    1    2    0    0  0.28435612089E+02  0.53485881092E+02  0.37023310019E+02  0.70993302471E+02  0.00000000000E+00 0.  1.
         11    1    1    2    0    0 -0.44511144052E+02  0.16941232439E+02  0.78915940789E+02  0.92173602577E+02  0.00000000000E+00 0. -1.
</event>
<event>
 7    1  0.2733606E-009  0.1297656E+03  0.7561462E-02  0.1227804E+00
          1   -1    0    0  501    0  0.00000000000E+00  0.00000000000E+00  0.40849741881E+02  0.40849741881E+02  0.00000000000E+00 0. -1.
         -1   -1    0    0    0  501 -0.00000000000E+00 -0.00000000000E+00 -0.73285886882E+03  0.73285886882E+03  0.00000000000E+00 0.  1.
         25    2    1    2    0    0 -0.90729186592E+02  0.10435468555E+02 -0.54789034465E+03  0.56936024503E+03  0.12508626846E+03 0.  0.
          5    1    3    3  502    0 -0.63133327493E+02  0.56922665417E+02 -0.20127475834E+03  0.21852919169E+03  0.41800000000E+01 0. -1.
         -5    1    3    3    0  502 -0.27595859099E+02 -0.46487196862E+02 -0.34661558631E+03  0.35083105334E+03  0.41800000000E+01 0. -1.
        -11    1    1    2    0    0  0.41958604789E+02  0.34166634575E+02 -0.12395506388E+03  0.13525066098E+03  0.00000000000E+00 0.  1.
         11    1    1    2    0    0  0.48770581802E+02 -0.44602103130E+02 -0.20163718407E+02  0.69097704687E+02  0.00000000000E+00 0. -1.
</event>
<event>
 7    1  0.2733606E-009  0.2822529E+03  0.7561462E-02  0.1094465E+00
         -1   -1    0    0    0  501 -0.00000000000E+00  0.00000000000E+00  0.45352582745E+03  0.45352582745E+03  0.00000000000E+00 0.  1.
          1   -1    0    0  501    0  0.00000000000E+00 -0.00000000000E+00 -0.25949295702E+03  0.25949295702E+03  0.00000000000E+00 0. -1.
         25    2    1    2    0    0 -0.65187145464E+02 -0.25592457111E+03 -0.92303839294E+02  0.30645308893E+03  0.12508695747E+03 0.  0.
          5    1    3    3  502    0 -0.87337870333E+02 -0.15546204627E+03 -0.97666137316E+02  0.20335313669E+03  0.41800000000E+01 0.  1.
         -5    1    3    3    0  502  0.22150724869E+02 -0.10046252485E+03  0.53622980214E+01  0.10309995223E+03  0.41800000000E+01 0.  1.
        -11    1    1    2    0    0 -0.12591764843E+02  0.15622273724E+03  0.11880863443E+03  0.19667126833E+03  0.00000000000E+00 0. -1.
         11    1    1    2    0    0  0.77778910307E+02  0.99701833878E+02  0.16752807529E+03  0.20989442722E+03  0.00000000000E+00 0.  1.
</event>
<event>
 7    1  0.2733606E-009  0.8369028E+02  0.7561462E-02  0.1318894E+00
         -1   -1    0    0    0  501 -0.00000000000E+00  0.00000000000E+00  0.38067275090E+02  0.38067275090E+02  0.00000000000E+00 0.  1.
          1   -1    0    0  501    0  0.00000000000E+00 -0.00000000000E+00 -0.38776128991E+03  0.38776128991E+03  0.00000000000E+00 0. -1.
         25    2    1    2    0    0 -0.32269597240E+00 -0.36941912716E+02 -0.26782130188E+03  0.29789326500E+03  0.12508932227E+03 0.  0.
          5    1    3    3  502    0  0.17858670280E+02 -0.67199990309E+02 -0.77180337946E+02  0.10396657043E+03  0.41800000000E+01 0. -1.
         -5    1    3    3    0  502 -0.18181366252E+02  0.30258077593E+02 -0.19064096393E+03  0.19392669457E+03  0.41800000000E+01 0. -1.
        -11    1    1    2    0    0  0.14833023015E+02  0.43714512395E+02 -0.17156125073E+01  0.46194377277E+02  0.00000000000E+00 0.  1.
         11    1    1    2    0    0 -0.14510327043E+02 -0.67725996790E+01 -0.80157100434E+02  0.81740922721E+02  0.00000000000E+00 0. -1.
</event>
<event>
 7    1  0.2733606E-009  0.6812729E+02  0.7561462E-02  0.1366580E+00
          1   -1    0    0  501    0  0.00000000000E+00  0.00000000000E+00  0.53018803674E+03  0.53018803674E+03  0.00000000000E+00 0. -1.
         -1   -1    0    0    0  501 -0.00000000000E+00 -0.00000000000E+00 -0.25829381752E+02  0.25829381752E+02  0.00000000000E+00 0.  1.
         25    2    1    2    0    0 -0.12050936418E+02  0.25391488486E+02  0.35970402270E+03  0.38186872692E+03  0.12508712123E+03 0.  0.
          5    1    3    3  502    0 -0.18693453421E+02  0.25023873063E+02  0.11454890100E+02  0.33530975695E+02  0.41800000000E+01 0.  1.
         -5    1    3    3    0  502  0.66425170031E+01  0.36761542315E+00  0.34824913260E+03  0.34833775122E+03  0.41800000000E+01 0.  1.
        -11    1    1    2    0    0 -0.37126182525E+02 -0.29664017672E+02  0.67331844168E+02  0.82412891057E+02  0.00000000000E+00 0.  1.
         11    1    1    2    0    0  0.49177118943E+02  0.42725291857E+01  0.77322788125E+02  0.91735800518E+02  0.00000000000E+00 0. -1.
</event>
<event>
 7    1  0.2733606E-009  0.1242351E+03  0.7561462E-02  0.1236269E+00
         -2   -1    0    0    0  501 -0.00000000000E+00  0.00000000000E+00  0.14950291975E+02  0.14950291975E+02  0.00000000000E+00 0.  1.
          2   -1    0    0  501    0  0.00000000000E+00 -0.00000000000E+00 -0.19098549525E+04  0.19098549525E+04  0.00000000000E+00 0. -1.
         25    2    1    2    0    0 -0.27047482365E+02 -0.54940487236E+02 -0.16555070787E+04  0.16613551426E+04  0.12508876376E+03 0.  0.
          5    1    3    3  502    0 -0.80088622146E+01  0.40631944465E+02 -0.46547494656E+03  0.46733231759E+03  0.41800000000E+01 0. -1.
         -5    1    3    3    0  502 -0.19038620150E+02 -0.95572431701E+02 -0.11900321321E+04  0.11940228250E+04  0.41800000000E+01 0. -1.
        -11    1    1    2    0    0 -0.33529698213E+02  0.24384211917E+02 -0.77059315702E+02  0.87504106130E+02  0.00000000000E+00 0.  1.
         11    1    1    2    0    0  0.60577180577E+02  0.30556275319E+02 -0.16233826616E+03  0.17594599577E+03  0.00000000000E+00 0. -1.
</event>
<event>
 7    1  0.2733606E-009  0.1229200E+03  0.7561462E-02  0.1238356E+00
         -1   -1    0    0    0  501 -0.00000000000E+00  0.00000000000E+00  0.71106013341E+03  0.71106013341E+03  0.00000000000E+00 0.  1.
          1   -1    0    0  501    0  0.00000000000E+00 -0.00000000000E+00 -0.28923620914E+02  0.28923620914E+02  0.00000000000E+00 0. -1.
         25    2    1    2    0    0 -0.57121836320E+02 -0.71382091554E+02  0.29080602442E+03  0.32950584146E+03  0.12509056136E+03 0.  0.
          5    1    3    3  502    0  0.19479401413E+02 -0.33184256800E+02  0.16413528068E+02  0.42041863451E+02  0.41800000000E+01 0.  1.
         -5    1    3    3    0  502 -0.76601237733E+02 -0.38197834754E+02  0.27439249635E+03  0.28746397801E+03  0.41800000000E+01 0.  1.
        -11    1    1    2    0    0 -0.16177007006E+02  0.37186258090E+02  0.94693233519E+02  0.10301127036E+03  0.00000000000E+00 0. -1.
         11    1    1    2    0    0  0.73298843326E+02  0.34195833464E+02  0.29663725457E+03  0.30746664251E+03  0.00000000000E+00 0.  1.
</event>
<event>
 7    1  0.2733606E-009  0.9953001E+02  0.7561462E-02  0.1281287E+00
         -1   -1    0    0    0  501 -0.00000000000E+00  0.00000000000E+00  0.16548121880E+02  0.16548121880E+02  0.00000000000E+00 0.  1.
          1   -1    0    0  501    0  0.00000000000E+00 -0.00000000000E+00 -0.86423005596E+03  0.86423005596E+03  0.00000000000E+00 0. -1.
         25    2    1    2    0    0  0.41907172632E+02 -0.17708333342E+02 -0.59362468119E+03  0.60836254312E+03  0.12507967688E+03 0.  0.
          5    1    3    3  502    0  0.57118486680E+02  0.30096396142E+02 -0.47657914725E+03  0.48095059058E+03  0.41800000000E+01 0.  1.
         -5    1    3    3    0  502 -0.15211314048E+02 -0.47804729485E+02 -0.11704553393E+03  0.12741195254E+03  0.41800000000E+01 0.  1.
        -11    1    1    2    0    0 -0.47009901766E+01  0.40247624340E+02 -0.53050949149E+02  0.66756076722E+02  0.00000000000E+00 0.  1.
         11    1    1    2    0    0 -0.37206182456E+02 -0.22539290998E+02 -0.20100630375E+03  0.20565955800E+03  0.00000000000E+00 0. -1.
</event>
<event>
 7    1  0.2733606E-009  0.8127920E+02  0.7561462E-02  0.1325460E+00
          1   -1    0    0  501    0  0.00000000000E+00  0.00000000000E+00  0.20864519248E+03  0.20864519248E+03  0.00000000000E+00 0. -1.
         -1   -1    0    0    0  501 -0.00000000000E+00 -0.00000000000E+00 -0.64227421520E+02  0.64227421520E+02  0.00000000000E+00 0.  1.
         25    2    1    2    0    0  0.48991528256E+02 -0.61293042010E+01  0.84452734181E+02  0.15879837187E+03  0.12508765082E+03 0.  0.
          5    1    3    3  502    0  0.29598581078E+02 -0.46910584231E+02 -0.76376253823E+01  0.56146991337E+02  0.41800000000E+01 0.  1.
         -5    1    3    3    0  502  0.19392947178E+02  0.40781280030E+02  0.92090359563E+02  0.10265138053E+03  0.41800000000E+01 0.  1.
        -11    1    1    2    0    0 -0.32301063434E+02 -0.14195857537E+02 -0.12147553327E+02  0.37315467598E+02  0.00000000000E+00 0.  1.
         11    1    1    2    0    0 -0.16690464822E+02  0.20325161738E+02  0.72112590108E+02  0.76758774533E+02  0.00000000000E+00 0. -1.
</event>
<event>
 7    1  0.2733606E-009  0.1525761E+03  0.7561462E-02  0.1197343E+00
         -1   -1    0    0    0  501 -0.00000000000E+00  0.00000000000E+00  0.21121982813E+03  0.21121982813E+03  0.00000000000E+00 0.  1.
          1   -1    0    0  501    0  0.00000000000E+00 -0.00000000000E+00 -0.16168928545E+03  0.16168928545E+03  0.00000000000E+00 0. -1.
         25    2    1    2    0    0 -0.13055990704E+03 -0.51426079814E+01 -0.46904369854E+02  0.18686655027E+03  0.12508697756E+03 0.  0.
          5    1    3    3  502    0 -0.11706763802E+03  0.34105846733E+02 -0.68473071467E+02  0.13990737853E+03  0.41800000000E+01 0. -1.
         -5    1    3    3    0  502 -0.13492269021E+02 -0.39248454714E+02  0.21568701613E+02  0.46959171735E+02  0.41800000000E+01 0. -1.
        -11    1    1    2    0    0  0.32436065564E+02  0.25451710159E+02 -0.72369600210E+01  0.41860022571E+02  0.00000000000E+00 0. -1.
         11    1    1    2    0    0  0.98123841473E+02 -0.20309102177E+02  0.10367187255E+03  0.14418254074E+03  0.00000000000E+00 0.  1.
</event>
<event>
 7    1  0.2733606E-009  0.1792804E+03  0.7561462E-02  0.1168501E+00
         -1   -1    0    0    0  501 -0.00000000000E+00  0.00000000000E+00  0.32351250823E+02  0.32351250823E+02  0.00000000000E+00 0.  1.
          1   -1    0    0  501    0  0.00000000000E+00 -0.00000000000E+00 -0.10825410181E+04  0.10825410181E+04  0.00000000000E+00 0. -1.
         25    2    1    2    0    0  0.74500749430E+02  0.13416354332E+03 -0.50890990630E+03  0.54606518738E+03  0.12509067955E+03 0.  0.
          5    1    3    3  502    0  0.34628088786E+02 -0.93538372870E+01 -0.19829767757E+03  0.20155902394E+03  0.41800000000E+01 0. -1.
         -5    1    3    3    0  502  0.39872660644E+02  0.14351738060E+03 -0.31061222874E+03  0.34450616343E+03  0.41800000000E+01 0. -1.
        -11    1    1    2    0    0 -0.28079554525E+02 -0.12235746086E+03 -0.42239640063E+03  0.44065692878E+03  0.00000000000E+00 0.  1.
         11    1    1    2    0    0 -0.46421194906E+02 -0.11806082456E+02 -0.11888346038E+03  0.12817015281E+03  0.00000000000E+00 0. -1.
</event>
<event>
 7    1  0.2733606E-009  0.9594870E+02  0.7561462E-02  0.1289054E+00
          1   -1    0    0  501    0  0.00000000000E+00  0.00000000000E+00  0.40002093537E+02  0.40002093537E+02  0.00000000000E+00 0. -1.
         -1   -1    0    0    0  501 -0.00000000000E+00 -0.00000000000E+00 -0.36286833439E+03  0.36286833439E+03  0.00000000000E+00 0.  1.
         25    2    1    2    0    0  0.23716528288E+01 -0.26836480234E+02 -0.22253611134E+03  0.25669984407E+03  0.12508664071E+03 0.  0.
          5    1    3    3  502    0  0.40113723301E+02 -0.20212954053E+01 -0.13168512159E+02  0.42474445784E+02  0.41800000000E+01 0. -1.
         -5    1    3    3    0  502 -0.37742070472E+02 -0.24815184828E+02 -0.20936759918E+03  0.21422539828E+03  0.41800000000E+01 0. -1.
        -11    1    1    2    0    0  0.40074680411E+02  0.44759694917E+02 -0.60565361966E+02  0.85308694570E+02  0.00000000000E+00 0. -1.
         11    1    1    2    0    0 -0.42446333240E+02 -0.17923214684E+02 -0.39764767541E+02  0.60861889288E+02  0.00000000000E+00 0.  1.
</event>
<event>
 7    1  0.2733606E-009  0.2307304E+03  0.7561462E-02  0.1126127E+00
          2   -1    0    0  501    0  0.00000000000E+00  0.00000000000E+00  0.43558461960E+03  0.43558461960E+03  0.00000000000E+00 0. -1.
         -2   -1    0    0    0  501 -0.00000000000E+00 -0.00000000000E+00 -0.19413482991E+03  0.19413482991E+03  0.00000000000E+00 0.  1.
         25    2    1    2    0    0  0.12016868363E+03 -0.17642991143E+03  0.30555480008E+03  0.39316322856E+03  0.12508222202E+03 0.  0.
          5    1    3    3  502    0  0.13364960762E+03 -0.13093441977E+03  0.18331110652E+03  0.26196655144E+03  0.41800000000E+01 0. -1.
         -5    1    3    3    0  502 -0.13480923991E+02 -0.45495491661E+02  0.12224369356E+03  0.13119667712E+03  0.41800000000E+01 0. -1.
        -11    1    1    2    0    0 -0.12566170589E+02  0.83689107480E+02 -0.13163060419E+02  0.85644856902E+02  0.00000000000E+00 0.  1.
         11    1    1    2    0    0 -0.10760251304E+03  0.92740803951E+02 -0.50941949970E+02  0.15091136404E+03  0.00000000000E+00 0. -1.
</event>
<event>
 7    1  0.2733606E-009  0.1154005E+03  0.7561462E-02  0.1250884E+00
         -1   -1    0    0    0  501 -0.00000000000E+00  0.00000000000E+00  0.26231861570E+03  0.26231861570E+03  0.00000000000E+00 0.  1.
          1   -1    0    0  501    0  0.00000000000E+00 -0.00000000000E+00 -0.53298227026E+02  0.53298227026E+02  0.00000000000E+00 0. -1.
         25    2    1    2    0    0  0.38225695462E+01 -0.16524880100E+02  0.91247642135E+02  0.15575962732E+03  0.12508895078E+03 0.  0.
          5    1    3    3  502    0  0.26780689757E+02 -0.66092848701E+02  0.50553359828E+02  0.87513339458E+02  0.41800000000E+01 0.  1.
         -5    1    3    3    0  502 -0.22958120210E+02  0.49567968601E+02  0.40694282308E+02  0.68246287865E+02  0.41800000000E+01 0.  1.
        -11    1    1    2    0    0 -0.15247394464E+02  0.58822473982E+02  0.87781399595E+02  0.10676207472E+03  0.00000000000E+00 0.  1.
         11    1    1    2    0    0  0.11424824918E+02 -0.42297593881E+02  0.29991346940E+02  0.53095140680E+02  0.00000000000E+00 0. -1.
</event>
<event>
 7    1  0.2733606E-009  0.1239644E+03  0.7561462E-02  0.1236697E+00
         -2   -1    0    0    0  501 -0.00000000000E+00  0.00000000000E+00  0.29604588804E+02  0.29604588804E+02  0.00000000000E+00 0.  1.
          2   -1    0    0  501    0  0.00000000000E+00 -0.00000000000E+00 -0.57968630982E+03  0.57968630982E+03  0.00000000000E+00 0. -1.
         25    2    1    2    0    0  0.46433304104E+02  0.57544420964E+02 -0.30556082201E+03  0.33834584582E+03  0.12507231238E+03 0.  0.
          5    1    3    3  502    0 -0.42983084603E+02  0.11957930625E+02 -0.91093872448E+02  0.10151898179E+03  0.41800000000E+01 0.  1.
         -5    1    3    3    0  502  0.89416388707E+02  0.45586490340E+02 -0.21446694956E+03  0.23682686403E+03  0.41800000000E+01 0.  1.
        -11    1    1    2    0    0 -0.48317626918E+02 -0.33459610951E+01 -0.52568591449E+02  0.71478985259E+02  0.00000000000E+00 0.  1.
         11    1    1    2    0    0  0.18843228141E+01 -0.54198459869E+02 -0.19195230756E+03  0.19946606754E+03  0.00000000000E+00 0. -1.
</event>
<event>
 7    1  0.2733606E-009  0.1136081E+03  0.7561462E-02  0.1254030E+00
         -1   -1    0    0    0  501 -0.00000000000E+00  0.00000000000E+00  0.23205542138E+02  0.23205542138E+02  0.00000000000E+00 0.  1.
          1   -1    0    0  501    0  0.00000000000E+00 -0.00000000000E+00 -0.67051019013E+03  0.67051019013E+03  0.00000000000E+00 0. -1.
         25    2    1    2    0    0  0.11140996961E+02 -0.59921793521E+02 -0.36414709364E+03  0.38982698288E+03  0.12508887887E+03 0.  0.
          5    1    3    3  502    0 -0.33182786966E+02 -0.73870545947E+02 -0.29831325469E+03  0.30913787415E+03  0.41800000000E+01 0. -1.
         -5    1    3    3    0  502  0.44323783927E+02  0.13948752426E+02 -0.65833838948E+02  0.80689108723E+02  0.41800000000E+01 0. -1.
        -11    1    1    2    0    0 -0.31376802667E+02  0.70114365050E+02 -0.14701123528E+03  0.16586992262E+03  0.00000000000E+00 0.  1.
         11    1    1    2    0    0  0.20235805705E+02 -0.10192571529E+02 -0.13614631908E+03  0.13801882678E+03  0.00000000000E+00 0. -1.
</event>
<event>
 7    1  0.2733606E-009  0.9053918E+02  0.7561462E-02  0.1301551E+00
         -2   -1    0    0    0  501 -0.00000000000E+00  0.00000000000E+00  0.15897234292E+03  0.15897234292E+03  0.00000000000E+00 0.  1.
          2   -1    0    0  501    0  0.00000000000E+00 -0.00000000000E+00 -0.98764488263E+02  0.98764488263E+02  0.00000000000E+00 0. -1.
         25    2    1    2    0    0  0.26716991954E+02  0.70509301578E+00  0.92873396580E+02  0.15807244886E+03  0.12508851459E+03 0.  0.
          5    1    3    3  502    0  0.68977463505E+01 -0.49445806756E+02 -0.57235698701E+00  0.50102561840E+02  0.41800000000E+01 0. -1.
         -5    1    3    3    0  502  0.19819245604E+02  0.50150899772E+02  0.93445753567E+02  0.10796988702E+03  0.41800000000E+01 0. -1.
        -11    1    1    2    0    0  0.15664704310E+02 -0.23901857634E+02  0.14585976068E+02  0.32084769866E+02  0.00000000000E+00 0.  1.
         11    1    1    2    0    0 -0.42381696265E+02  0.23196764618E+02 -0.47251517990E+02  0.67579612454E+02  0.00000000000E+00 0. -1.
</event>
<event>
 7    1  0.2733606E-009  0.1929749E+03  0.7561462E-02  0.1155805E+00
         -1   -1    0    0    0  501 -0.00000000000E+00  0.00000000000E+00  0.24571466299E+02  0.24571466299E+02  0.00000000000E+00 0.  1.
          1   -1    0    0  501    0  0.00000000000E+00 -0.00000000000E+00 -0.15951828046E+04  0.15951828046E+04  0.00000000000E+00 0. -1.
         25    2    1    2    0    0  0.16009543900E+03 -0.40903209815E+02 -0.84986467493E+03  0.87476920094E+03  0.12509023568E+03 0.  0.
          5    1    3    3  502    0  0.17721071475E+03 -0.29991521850E+02 -0.81139094385E+03  0.83106910962E+03  0.41800000000E+01 0. -1.
         -5    1    3    3    0  502 -0.17115275751E+02 -0.10911687965E+02 -0.38473731082E+02  0.43700091323E+02  0.41800000000E+01 0. -1.
        -11    1    1    2    0    0 -0.67575495614E+02 -0.24787114566E+02 -0.34731251131E+03  0.35469258403E+03  0.00000000000E+00 0.  1.
         11    1    1    2    0    0 -0.92519943385E+02  0.65690324381E+02 -0.37343415204E+03  0.39029248590E+03  0.00000000000E+00 0. -1.
</event>
<event>
 7    1  0.2733606E-009  0.1186446E+03  0.7561462E-02  0.1245350E+00
         -2   -1    0    0    0  501 -0.00000000000E+00  0.00000000000E+00  0.39556348161E+02  0.39556348161E+02  0.00000000000E+00 0.  1.
          2   -1    0    0  501    0  0.00000000000E+00 -0.00000000000E+00 -0.42273679204E+03  0.42273679204E+03  0.00000000000E+00 0. -1.
         25    2    1    2    0    0 -0.60587122561E+02 -0.45735141747E+02 -0.24289249884E+03  0.28356066032E+03  0.12508948589E+03 0.  0.
          5    1    3    3  502    0 -0.91368469521E+02 -0.44982982557E+02 -0.22661496304E+03  0.24848235313E+03  0.41800000000E+01 0.  1.
         -5    1    3    3    0  502  0.30781346960E+02 -0.75215918958E+00 -0.16277535796E+02  0.35078307196E+02  0.41800000000E+01 0.  1.
        -11    1    1    2    0    0 -0.42929269783E+01  0.38803108117E+02 -0.25297881478E+02  0.46519815443E+02  0.00000000000E+00 0.  1.
         11    1    1    2    0    0  0.64880049539E+02  0.69320336298E+01 -0.11499006357E+03  0.13221266444E+03  0.00000000000E+00 0. -1.
</event>
<event>
 7    1  0.2733606E-009  0.1085867E+03  0.7561462E-02  0.1263210E+00
         -2   -1    0    0    0  501 -0.00000000000E+00  0.00000000000E+00  0.93125149634E+01  0.93125149634E+01  0.00000000000E+00 0.  1.
          2   -1    0    0  501    0  0.00000000000E+00 -0.00000000000E+00 -0.13325147253E+04  0.13325147253E+04  0.00000000000E+00 0. -1.
         25    2    1    2    0    0 -0.58993532902E+00  0.22543941744E+02 -0.82252702149E+03  0.83229012558E+03  0.12509026631E+03 0.  0.
          5    1    3    3  502    0 -0.45175356888E+02 -0.29445567545E+02 -0.47375939125E+03  0.47683675144E+03  0.41800000000E+01 0. -1.
         -5    1    3    3    0  502  0.44585421559E+02  0.51989509290E+02 -0.34876763023E+03  0.35545337414E+03  0.41800000000E+01 0. -1.
        -11    1    1    2    0    0  0.36044737072E+02 -0.40924268287E+02 -0.27488819196E+03  0.28024549396E+03  0.00000000000E+00 0.  1.
         11    1    1    2    0    0 -0.35454801743E+02  0.18380326542E+02 -0.22578699688E+03  0.22929162072E+03  0.00000000000E+00 0. -1.
</event>
<event>
 7    1  0.2733606E-009  0.1116278E+03  0.7561462E-02  0.1257585E+00
         -2   -1    0    0    0  501 -0.00000000000E+00  0.00000000000E+00  0.55001969493E+03  0.55001969493E+03  0.00000000000E+00 0.  1.
          2   -1    0    0  501    0  0.00000000000E+00 -0.00000000000E+00 -0.23321143103E+02  0.23321143103E+02  0.00000000000E+00 0. -1.
         25    2    1    2    0    0  0.33568326366E+02 -0.25268144676E+01  0.29347189534E+03  0.32079185922E+03  0.12509374988E+03 0.  0.
          5    1    3    3  502    0  0.78648521001E+02  0.12666785462E+02  0.15511453012E+03  0.17442484675E+03  0.41800000000E+01 0.  1.
         -5    1    3    3    0  502 -0.45080194635E+02 -0.15193599930E+02  0.13835736523E+03  0.14636701247E+03  0.41800000000E+01 0.  1.
        -11    1    1    2    0    0 -0.52859261281E+02  0.31042978694E+02  0.16724221857E+03  0.17812278827E+03  0.00000000000E+00 0. -1.
         11    1    1    2    0    0  0.19290934915E+02 -0.28516164227E+02  0.65984437910E+02  0.74426190540E+02  0.00000000000E+00 0.  1.
</event>
<event>
 7    1  0.2733606E-009  0.1198495E+03  0.7561462E-02  0.1243345E+00
          3   -1    0    0  501    0  0.00000000000E+00  0.00000000000E+00  0.58748277923E+02  0.58748277923E+02  0.00000000000E+00 0. -1.
         -3   -1    0    0    0  501 -0.00000000000E+00 -0.00000000000E+00 -0.30964579400E+03  0.30964579400E+03  0.00000000000E+00 0.  1.
         25    2    1    2    0    0 -0.57158439085E+02  0.16832830356E+02 -0.82849479081E+02  0.16143701752E+03  0.12508974021E+03 0.  0.
          5    1    3    3  502    0 -0.51247523361E+02 -0.38403368094E+02 -0.32223829074E+01  0.64257166785E+02  0.41800000000E+01 0.  1.
         -5    1    3    3    0  502 -0.59109157234E+01  0.55236198450E+02 -0.79627096173E+02  0.97179850735E+02  0.41800000000E+01 0.  1.
        -11    1    1    2    0    0  0.19494346957E+02 -0.59670019854E+02 -0.74844116127E+02  0.97684095694E+02  0.00000000000E+00 0. -1.
         11    1    1    2    0    0  0.37664092128E+02  0.42837189498E+02 -0.93203920870E+02  0.10927295871E+03  0.00000000000E+00 0.  1.
</event>
<event>
 7    1  0.2733606E-009  0.1599559E+03  0.7561462E-02  0.1188747E+00
          2   -1    0    0  501    0  0.00000000000E+00  0.00000000000E+00  0.16144469718E+04  0.16144469718E+04  0.00000000000E+00 0. -1.
         -2   -1    0    0    0  501 -0.00000000000E+00 -0.00000000000E+00 -0.21543458162E+02  0.21543458162E+02  0.00000000000E+00 0.  1.
         25    2    1    2    0    0  0.37057547494E+02 -0.12423358821E+03  0.89066871124E+03  0.90870529103E+03  0.12508919419E+03 0.  0.
          5    1    3    3  502    0  0.42304159347E+02 -0.64217806639E+02  0.18408067182E+03  0.19954131082E+03  0.41800000000E+01 0.  1.
         -5    1    3    3    0  502 -0.52466118527E+01 -0.60015781568E+02  0.70658803942E+03  0.70916398021E+03  0.41800000000E+01 0.  1.
        -11    1    1    2    0    0  0.41081170764E+02  0.86450282335E+02  0.46306431457E+03  0.47285290877E+03  0.00000000000E+00 0.  1.
         11    1    1    2    0    0 -0.78138718259E+02  0.37783305872E+02  0.23917048781E+03  0.25443223014E+03  0.00000000000E+00 0. -1.
</event>
<event>
 7    1  0.2733606E-009  0.3079240E+03  0.7561462E-02  0.1081345E+00
         -2   -1    0    0    0  501 -0.00000000000E+00  0.00000000000E+00  0.22289640186E+03  0.22289640186E+03  0.00000000000E+00 0. -1.
          2   -1    0    0  501    0  0.00000000000E+00 -0.00000000000E+00 -0.75288299985E+03  0.75288299985E+03  0.00000000000E+00 0.  1.
         25    2    1    2    0    0  0.21472642256E+03 -0.20001674394E+03  0.46824343163E+02  0.32241340584E+03  0.12507498053E+03 0.  0.
          5    1    3    3  502    0  0.15170171808E+02  0.15901899802E+02  0.14361272660E+02  0.26584263812E+02  0.41800000000E+01 0.  1.
         -5    1    3    3    0  502  0.19955625075E+03 -0.21591864374E+03  0.32463070503E+02  0.29582914203E+03  0.41800000000E+01 0.  1.
        -11    1    1    2    0    0 -0.11491366113E+03  0.66618122507E+02 -0.32852899452E+03  0.35436481766E+03  0.00000000000E+00 0.  1.
         11    1    1    2    0    0 -0.99812761425E+02  0.13339862143E+03 -0.24828194664E+03  0.29900117821E+03  0.00000000000E+00 0. -1.
</event>
<event>
 7    1  0.2733606E-009  0.1538508E+03  0.7561462E-02  0.1195819E+00
         -2   -1    0    0    0  501 -0.00000000000E+00  0.00000000000E+00  0.26135669900E+03  0.26135669900E+03  0.00000000000E+00 0.  1.
          2   -1    0    0  501    0  0.00000000000E+00 -0.00000000000E+00 -0.12409855507E+03  0.12409855507E+03  0.00000000000E+00 0. -1.
         25    2    1    2    0    0  0.10978300256E+03 -0.30409333536E+02 -0.19019258033E+02  0.17025404355E+03  0.12509065494E+03 0.  0.
          5    1    3    3  502    0  0.61492206805E+02 -0.74089622253E+02  0.13559774251E+02  0.97323704723E+02  0.41800000000E+01 0. -1.
         -5    1    3    3    0  502  0.48290795756E+02  0.43680288717E+02 -0.32579032284E+02  0.72930338829E+02  0.41800000000E+01 0. -1.
        -11    1    1    2    0    0 -0.22898776783E+02 -0.31823246515E+02  0.27683354444E+02  0.47994177878E+02  0.00000000000E+00 0. -1.
         11    1    1    2    0    0 -0.86884225778E+02  0.62232580050E+02  0.12859404752E+03  0.16720703265E+03  0.00000000000E+00 0.  1.
</event>
<event>
 7    1  0.2733606E-009  0.1043122E+03  0.7561462E-02  0.1271481E+00
          2   -1    0    0  501    0  0.00000000000E+00  0.00000000000E+00  0.42470741115E+03  0.42470741115E+03  0.00000000000E+00 0. -1.
         -2   -1    0    0    0  501 -0.00000000000E+00 -0.00000000000E+00 -0.34226338884E+02  0.34226338884E+02  0.00000000000E+00 0.  1.
         25    2    1    2    0    0 -0.38564927012E+02  0.19836512818E+02  0.33063265800E+03  0.35615501036E+03  0.12509075120E+03 0.  0.
          5    1    3    3  502    0  0.29962851295E+02  0.47621852151E+02  0.17348410439E+03  0.18242757504E+03  0.41800000000E+01 0.  1.
         -5    1    3    3    0  502 -0.68527778307E+02 -0.27785339333E+02  0.15714855360E+03  0.17372743532E+03  0.41800000000E+01 0.  1.
        -11    1    1    2    0    0  0.31370166324E+02  0.20299506598E+02  0.46966014592E+02  0.60016363018E+02  0.00000000000E+00 0. -1.
         11    1    1    2    0    0  0.71947606876E+01 -0.40136019416E+02  0.12882399683E+02  0.42762376659E+02  0.00000000000E+00 0.  1.
</event>
<event>
 7    1  0.2733606E-009  0.1053589E+03  0.7561462E-02  0.1269414E+00
          1   -1    0    0  501    0  0.00000000000E+00  0.00000000000E+00  0.15438690544E+02  0.15438690544E+02  0.00000000000E+00 0. -1.
         -1   -1    0    0    0  501 -0.00000000000E+00 -0.00000000000E+00 -0.84955131142E+03  0.84955131142E+03  0.00000000000E+00 0.  1.
         25    2    1    2    0    0  0.37270998450E+02  0.12220154697E+00 -0.45546004866E+03  0.47379378050E+03  0.12509016053E+03 0.  0.
          5    1    3    3  502    0  0.61550601151E+01 -0.54589530353E+02 -0.31551639589E+03  0.32029044641E+03  0.41800000000E+01 0.  1.
         -5    1    3    3    0  502  0.31115938335E+02  0.54711731900E+02 -0.13994365277E+03  0.15350333409E+03  0.41800000000E+01 0.  1.
        -11    1    1    2    0    0 -0.19421487935E+02  0.42285748036E+02 -0.25605671049E+03  0.26025049023E+03  0.00000000000E+00 0.  1.
         11    1    1    2    0    0 -0.17849510515E+02 -0.42407949583E+02 -0.12259586173E+03  0.13094573123E+03  0.00000000000E+00 0. -1.
</event>
<event>
 7    1  0.2733606E-009  0.1796282E+03  0.7561462E-02  0.1168163E+00
         -1   -1    0    0    0  501 -0.00000000000E+00  0.00000000000E+00  0.35943596303E+02  0.35943596303E+02  0.00000000000E+00 0.  1.
          1   -1    0    0  501    0  0.00000000000E+00 -0.00000000000E+00 -0.11277498365E+04  0.11277498365E+04  0.00000000000E+00 0. -1.
         25    2    1    2    0    0  0.13442711214E+03 -0.96068539437E+02 -0.45768291982E+03  0.50241476327E+03  0.12508847473E+03 0.  0.
          5    1    3    3  502    0  0.72524655931E+02 -0.10090175686E+02 -0.73358235876E+02  0.10373302528E+03  0.41800000000E+01 0.  1.
         -5    1    3    3    0  502  0.61902456209E+02 -0.85978363751E+02 -0.38432468394E+03  0.39868173799E+03  0.41800000000E+01 0.  1.
        -11    1    1    2    0    0 -0.11334389009E+02  0.45367172743E+02 -0.93967116339E+02  0.10495936209E+03  0.00000000000E+00 0.  1.
         11    1    1    2    0    0 -0.12309272313E+03  0.50701366695E+02 -0.54015620402E+03  0.55631930743E+03  0.00000000000E+00 0. -1.
</event>
<event>
 7    1  0.2733606E-009  0.1144774E+03  0.7561462E-02  0.1252496E+00
         -1   -1    0    0    0  501 -0.00000000000E+00  0.00000000000E+00  0.36388568190E+02  0.36388568190E+02  0.00000000000E+00 0.  1.
          1   -1    0    0  501    0  0.00000000000E+00 -0.00000000000E+00 -0.37454075193E+03  0.37454075193E+03  0.00000000000E+00 0. -1.
         25    2    1    2    0    0 -0.35080250504E+02  0.31564235616E+02 -0.20294337600E+03  0.24302218057E+03  0.12508733524E+03 0.  0.
          5    1    3    3  502    0  0.41160921061E+02 -0.15156501292E+02 -0.62245569650E+02  0.76262207515E+02  0.41800000000E+01 0. -1.
         -5    1    3    3    0  502 -0.76241171566E+02  0.46720736908E+02 -0.14069780635E+03  0.16675997305E+03  0.41800000000E+01 0. -1.
        -11    1    1    2    0    0  0.61612115425E+02 -0.30687787677E+02 -0.11690067636E+03  0.13565972583E+03  0.00000000000E+00 0. -1.
         11    1    1    2    0    0 -0.26531864921E+02 -0.87644793840E+00 -0.18308131374E+02  0.32247413719E+02  0.00000000000E+00 0.  1.
</event>
<event>
 7    1  0.2733606E-009  0.1243041E+03  0.7561462E-02  0.1236161E+00
          1   -1    0    0  501    0  0.00000000000E+00  0.00000000000E+00  0.71343293685E+03  0.71343293685E+03  0.00000000000E+00 0. -1.
         -1   -1    0    0    0  501 -0.00000000000E+00 -0.00000000000E+00 -0.25100453174E+02  0.25100453174E+02  0.00000000000E+00 0.  1.
         25    2    1    2    0    0  0.16481954377E+02 -0.61559601758E+02  0.50090817650E+03  0.52020868908E+03  0.12508732756E+03 0.  0.
          5    1    3    3  502    0 -0.30131067676E+02 -0.81989575249E+02  0.27364003276E+03  0.28727427942E+03  0.41800000000E+01 0.  1.
         -5    1    3    3    0  502  0.46613022053E+02  0.20429973491E+02  0.22726814374E+03  0.23293440965E+03  0.41800000000E+01 0.  1.
        -11    1    1    2    0    0  0.28106698422E+02 -0.63858401820E+01  0.32956735583E+02  0.43782552133E+02  0.00000000000E+00 0.  1.
         11    1    1    2    0    0 -0.44588652799E+02  0.67945441940E+02  0.15446757159E+03  0.17454214881E+03  0.00000000000E+00 0. -1.
</event>
<event>
 7    1  0.2733606E-009  0.1489280E+03  0.7561462E-02  0.1201796E+00
         -2   -1    0    0    0  501 -0.00000000000E+00  0.00000000000E+00  0.37968961129E+02  0.37968961129E+02  0.00000000000E+00 0.  1.
          2   -1    0    0  501    0  0.00000000000E+00 -0.00000000000E+00 -0.73893846230E+03  0.73893846230E+03  0.00000000000E+00 0. -1.
         25    2    1    2    0    0  0.12138474890E+03  0.37675936048E+02 -0.40068620347E+03  0.43857789070E+03  0.12508956445E+03 0.  0.
          5    1    3    3  502    0 -0.19096577547E+02  0.17705256223E+01 -0.13000606244E+03  0.13147951439E+03  0.41800000000E+01 0. -1.
         -5    1    3    3    0  502  0.14048132644E+03  0.35905410426E+02 -0.27068014104E+03  0.30709837631E+03  0.41800000000E+01 0. -1.
        -11    1    1    2    0    0 -0.38070362987E+02 -0.31877202127E+02 -0.36458344996E+02  0.61601294412E+02  0.00000000000E+00 0.  1.
         11    1    1    2    0    0 -0.83314385910E+02 -0.57987339212E+01 -0.26382495270E+03  0.27672823832E+03  0.00000000000E+00 0. -1.
</event>
<event>
 7    1  0.2733606E-009  0.1538571E+03  0.7561462E-02  0.1195812E+00
          1   -1    0    0  501    0  0.00000000000E+00  0.00000000000E+00  0.35944358385E+03  0.35944358385E+03  0.00000000000E+00 0. -1.
         -1   -1    0    0    0  501 -0.00000000000E+00 -0.00000000000E+00 -0.77294105793E+02  0.77294105793E+02  0.00000000000E+00 0.  1.
         25    2    1    2    0    0  0.58270271008E+00 -0.12537876139E+03  0.14058791219E+03  0.22612536851E+03  0.12509015901E+03 0.  0.
          5    1    3    3  502    0 -0.36327321310E+02 -0.11940719220E+03  0.14119529612E+03  0.18849757523E+03  0.41800000000E+01 0. -1.
         -5    1    3    3    0  502  0.36910024020E+02 -0.59715691848E+01 -0.60738392808E+00  0.37627793278E+02  0.41800000000E+01 0. -1.
        -11    1    1    2    0    0  0.36260438679E+02  0.66854932628E+02  0.35345313905E+02  0.83867113011E+02  0.00000000000E+00 0.  1.
         11    1    1    2    0    0 -0.36843141389E+02  0.58523828760E+02  0.10621625196E+03  0.12674520812E+03  0.00000000000E+00 0. -1.
</event>
<event>
 7    1  0.2733606E-009  0.2681721E+03  0.7561462E-02  0.1102330E+00
         -4   -1    0    0    0  501 -0.00000000000E+00  0.00000000000E+00  0.50805421302E+03  0.50805421302E+03  0.00000000000E+00 0.  1.
          4   -1    0    0  501    0  0.00000000000E+00 -0.00000000000E+00 -0.15899234887E+03  0.15899234887E+03  0.00000000000E+00 0. -1.
         25    2    1    2    0    0  0.21460407923E+03 -0.14809539106E+03  0.20789549327E+03  0.35616778600E+03  0.12509116668E+03 0.  0.
          5    1    3    3  502    0  0.15454877870E+03 -0.10975345810E+03  0.21232263092E+03  0.28465684352E+03  0.41800000000E+01 0. -1.
         -5    1    3    3    0  502  0.60055300535E+02 -0.38341932966E+02 -0.44271376520E+01  0.71510942475E+02  0.41800000000E+01 0. -1.
        -11    1    1    2    0    0 -0.97032457014E+02  0.15681594979E+02  0.66668780508E+02  0.11876841512E+03  0.00000000000E+00 0. -1.
         11    1    1    2    0    0 -0.11757162222E+03  0.13241379608E+03  0.74497590377E+02  0.19211036077E+03  0.00000000000E+00 0.  1.
</event>
<event>
 7    1  0.2733606E-009  0.2205296E+03  0.7561462E-02  0.1133489E+00
         -2   -1    0    0    0  501 -0.00000000000E+00  0.00000000000E+00  0.11908912048E+03  0.11908912048E+03  0.00000000000E+00 0. -1.
          2   -1    0    0  501    0  0.00000000000E+00 -0.00000000000E+00 -0.63736182220E+03  0.63736182220E+03  0.00000000000E+00 0.  1.
         25    2    1    2    0    0 -0.16038028025E+03  0.11395702560E+03 -0.48602144321E+03  0.53905090803E+03  0.12510395759E+03 0.  0.
          5    1    3    3  502    0 -0.10462010569E+03  0.57462100552E+01 -0.16288305883E+03  0.19371821984E+03  0.41800000000E+01 0.  1.
         -5    1    3    3    0  502 -0.55760174566E+02  0.10821081555E+03 -0.32313838438E+03  0.34533268819E+03  0.41800000000E+01 0.  1.
        -11    1    1    2    0    0  0.31875753739E+02 -0.72778444356E+02 -0.41316469900E+01  0.79560267384E+02  0.00000000000E+00 0. -1.
         11    1    1    2    0    0  0.12850452652E+03 -0.41178581246E+02 -0.28119611510E+02  0.13783976727E+03  0.00000000000E+00 0.  1.
</event>
<event>
 7    1  0.2733606E-009  0.9087796E+02  0.7561462E-02  0.1300739E+00
          2   -1    0    0  501    0  0.00000000000E+00  0.00000000000E+00  0.33080577212E+03  0.33080577212E+03  0.00000000000E+00 0.  1.
         -2   -1    0    0    0  501 -0.00000000000E+00 -0.00000000000E+00 -0.41425252419E+02  0.41425252419E+02  0.00000000000E+00 0. -1.
         25    2    1    2    0    0  0.16217029349E+02 -0.35780402315E+02  0.12788178988E+03  0.18315194204E+03  0.12509057702E+03 0.  0.
          5    1    3    3  502    0 -0.32222552691E+02  0.75969986040E+01 -0.63262771965E+01  0.33963237079E+02  0.41800000000E+01 0.  1.
         -5    1    3    3    0  502  0.48439582040E+02 -0.43377400919E+02  0.13420806708E+03  0.14918870496E+03  0.41800000000E+01 0.  1.
        -11    1    1    2    0    0 -0.44869001142E+02  0.13261930311E+02  0.37876530051E+02  0.60197488218E+02  0.00000000000E+00 0.  1.
         11    1    1    2    0    0  0.28651971793E+02  0.22518472005E+02  0.12362219977E+03  0.12888159428E+03  0.00000000000E+00 0. -1.
</event>
<event>
 7    1  0.2733606E-009  0.9232379E+02  0.7561462E-02  0.1297320E+00
         -1   -1    0    0    0  501 -0.00000000000E+00  0.00000000000E+00  0.97724709470E+02  0.97724709470E+02  0.00000000000E+00 0.  1.
          1   -1    0    0  501    0  0.00000000000E+00 -0.00000000000E+00 -0.16408446753E+03  0.16408446753E+03  0.00000000000E+00 0. -1.
         25    2    1    2    0    0 -0.23614983419E+02 -0.33439967401E+02  0.16653813510E+02  0.13265824992E+03  0.12507982613E+03 0.  0.
          5    1    3    3  502    0  0.22469623838E+02  0.27588192809E+02  0.38921020535E+02  0.52899060647E+02  0.41800000000E+01 0. -1.
         -5    1    3    3    0  502 -0.46084607256E+02 -0.61028160210E+02 -0.22267207025E+02  0.79759189272E+02  0.41800000000E+01 0. -1.
        -11    1    1    2    0    0  0.26853769869E+02  0.49250285716E+02 -0.94113854506E+02  0.10956337531E+03  0.00000000000E+00 0. -1.
         11    1    1    2    0    0 -0.32387864503E+01 -0.15810318315E+02  0.11100282941E+02  0.19587551768E+02  0.00000000000E+00 0.  1.
</event>
<event>
 7    1  0.2743873E-009  0.1515597E+03  0.7561462E-02  0.1198569E+00
         -2   -1    0    0    0  501 -0.00000000000E+00  0.00000000000E+00  0.21059636909E+02  0.21059636909E+02  0.00000000000E+00 0. -1.
          2   -1    0    0  501    0  0.00000000000E+00 -0.00000000000E+00 -0.13641520966E+04  0.13641520966E+04  0.00000000000E+00 0.  1.
         25    2    1    2    0    0 -0.10525606232E+03  0.17086141848E+02 -0.10197159390E+04  0.10328789485E+04  0.12509017204E+03 0.  0.
          5    1    3    3  502    0 -0.11960409479E+03 -0.22511359051E+02 -0.72985852256E+03  0.73994786041E+03  0.41800000000E+01 0. -1.
         -5    1    3    3    0  502  0.14348032465E+02  0.39597500899E+02 -0.28985741640E+03  0.29293108806E+03  0.41800000000E+01 0. -1.
        -11    1    1    2    0    0  0.19051268347E+02 -0.44626133314E+02 -0.94872764926E+02  0.10656117550E+03  0.00000000000E+00 0.  1.
         11    1    1    2    0    0  0.86204793974E+02  0.27539991466E+02 -0.22850375585E+03  0.24577160957E+03  0.00000000000E+00 0. -1.
</event>
<event>
 7    1  0.2733606E-009  0.1101805E+03  0.7561462E-02  0.1260236E+00
         -2   -1    0    0    0  501 -0.00000000000E+00  0.00000000000E+00  0.47815353931E+02  0.47815353931E+02  0.00000000000E+00 0.  1.
          2   -1    0    0  501    0  0.00000000000E+00 -0.00000000000E+00 -0.44312553769E+03  0.44312553769E+03  0.00000000000E+00 0. -1.
         25    2    1    2    0    0 -0.87043467893E+02 -0.37107872823E+02 -0.25547539328E+03  0.29978143638E+03  0.12509066112E+03 0.  0.
          5    1    3    3  502    0 -0.35476018609E+02 -0.57420021618E+02 -0.42956467080E+02  0.80114525792E+02  0.41800000000E+01 0. -1.
         -5    1    3    3    0  502 -0.51567449284E+02  0.20312148795E+02 -0.21251892620E+03  0.21966691059E+03  0.41800000000E+01 0. -1.
        -11    1    1    2    0    0  0.56815803139E+02  0.12492668574E+02 -0.14061092403E+03  0.15216942601E+03  0.00000000000E+00 0. -1.
         11    1    1    2    0    0  0.30227664753E+02  0.24615204249E+02  0.77613354816E+00  0.38990029237E+02  0.00000000000E+00 0.  1.
</event>
<event>
 7    1  0.2733606E-009  0.1060143E+03  0.7561462E-02  0.1268134E+00
          2   -1    0    0  501    0  0.00000000000E+00  0.00000000000E+00  0.19957840605E+03  0.19957840605E+03  0.00000000000E+00 0. -1.
         -2   -1    0    0    0  501 -0.00000000000E+00 -0.00000000000E+00 -0.74264008953E+02  0.74264008953E+02  0.00000000000E+00 0.  1.
         25    2    1    2    0    0 -0.55848006479E+02 -0.24240605934E+02  0.46109211849E+02  0.14656000372E+03  0.12508864244E+03 0.  0.
          5    1    3    3  502    0  0.33191978445E+02 -0.30239125365E+01 -0.14619496848E+02  0.36634049301E+02  0.41800000000E+01 0. -1.
         -5    1    3    3    0  502 -0.89039984924E+02 -0.21216693397E+02  0.60728708696E+02  0.10992595441E+03  0.41800000000E+01 0. -1.
        -11    1    1    2    0    0  0.48556875220E+02  0.44137425821E+02  0.27030290716E+02  0.70968437389E+02  0.00000000000E+00 0.  1.
         11    1    1    2    0    0  0.72911312582E+01 -0.19896819888E+02  0.52174894536E+02  0.56313973901E+02  0.00000000000E+00 0. -1.
</event>
<event>
 7    1  0.2733606E-009  0.1190983E+03  0.7561462E-02  0.1244592E+00
          2   -1    0    0  501    0  0.00000000000E+00  0.00000000000E+00  0.72528897848E+02  0.72528897848E+02  0.00000000000E+00 0.  1.
         -2   -1    0    0    0  501 -0.00000000000E+00 -0.00000000000E+00 -0.21541234582E+03  0.21541234582E+03  0.00000000000E+00 0. -1.
         25    2    1    2    0    0 -0.43505685935E+02  0.38986414510E+02 -0.61057260309E+02  0.15095622014E+03  0.12508839329E+03 0.  0.
          5    1    3    3  502    0 -0.67223610120E+02 -0.18961617614E+02 -0.11317340515E+02  0.70880965685E+02  0.41800000000E+01 0. -1.
         -5    1    3    3    0  502  0.23717924185E+02  0.57948032124E+02 -0.49739919793E+02  0.80075254453E+02  0.41800000000E+01 0. -1.
        -11    1    1    2    0    0  0.90791365890E+01  0.28391649914E+02 -0.41935200703E+02  0.51449757668E+02  0.00000000000E+00 0. -1.
         11    1    1    2    0    0  0.34426549346E+02 -0.67378064424E+02 -0.39890986960E+02  0.85535265862E+02  0.00000000000E+00 0.  1.
</event>
<event>
 7    1  0.2733606E-009  0.6914455E+02  0.7561462E-02  0.1363026E+00
          3   -1    0    0  501    0  0.00000000000E+00  0.00000000000E+00  0.18212528908E+02  0.18212528908E+02  0.00000000000E+00 0. -1.
         -3   -1    0    0    0  501 -0.00000000000E+00 -0.00000000000E+00 -0.76328770110E+03  0.76328770110E+03  0.00000000000E+00 0.  1.
         25    2    1    2    0    0  0.39228110580E+02  0.25938340054E+02 -0.45742232685E+03  0.47654868250E+03  0.12510723219E+03 0.  0.
          5    1    3    3  502    0  0.16646997509E+01  0.13216606479E+02  0.31011935502E+01  0.14301738129E+02  0.41800000000E+01 0. -1.
         -5    1    3    3    0  502  0.37563410829E+02  0.12721733575E+02 -0.46052352040E+03  0.46224694437E+03  0.41800000000E+01 0. -1.
        -11    1    1    2    0    0 -0.53194776829E+02  0.19801569912E+01 -0.25201120109E+03  0.25757183615E+03  0.00000000000E+00 0.  1.
         11    1    1    2    0    0  0.13966666249E+02 -0.27918497045E+02 -0.35641644255E+02  0.47379711361E+02  0.00000000000E+00 0. -1.
</event>
<event>
 7    1  0.3536261E-009  0.1760223E+03  0.7561462E-02  0.1171709E+00
          1   -1    0    0  501    0  0.00000000000E+00  0.00000000000E+00  0.11722204298E+04  0.11722204298E+04  0.00000000000E+00 0. -1.
         -1   -1    0    0    0  501 -0.00000000000E+00 -0.00000000000E+00 -0.27922481472E+02  0.27922481472E+02  0.00000000000E+00 0.  1.
         25    2    1    2    0    0 -0.14027269690E+03 -0.31811548246E+02  0.64827184772E+03  0.67571545526E+03  0.12508630553E+03 0.  0.
          5    1    3    3  502    0 -0.15962113208E+03 -0.19454633930E+02  0.48986942533E+03  0.51560344729E+03  0.41800000000E+01 0. -1.
         -5    1    3    3    0  502  0.19348435180E+02 -0.12356914316E+02  0.15840242239E+03  0.16011200797E+03  0.41800000000E+01 0. -1.
        -11    1    1    2    0    0  0.19120483817E+02  0.42126176123E+02  0.17906766785E+03  0.18494712024E+03  0.00000000000E+00 0. -1.
         11    1    1    2    0    0  0.12115221308E+03 -0.10314627876E+02  0.31695843279E+03  0.33948033581E+03  0.00000000000E+00 0.  1.
</event>
<event>
 7    1  0.2733606E-009  0.6101914E+02  0.7561462E-02  0.1393604E+00
         -1   -1    0    0    0  501 -0.00000000000E+00  0.00000000000E+00  0.30382700546E+03  0.30382700546E+03  0.00000000000E+00 0.  1.
          1   -1    0    0  501    0  0.00000000000E+00 -0.00000000000E+00 -0.41243095728E+02  0.41243095728E+02  0.00000000000E+00 0. -1.
         25    2    1    2    0    0  0.26734938187E+02 -0.84894896640E+01  0.16490815791E+03  0.20887532492E+03  0.12508945783E+03 0.  0.
          5    1    3    3  502    0  0.28644787707E+02 -0.17134737299E+02 -0.88960056755E+01  0.34795608948E+02  0.41800000000E+01 0.  1.
         -5    1    3    3    0  502 -0.19098495200E+01  0.86452476347E+01  0.17380416359E+03  0.17407971597E+03  0.41800000000E+01 0.  1.
        -11    1    1    2    0    0 -0.51956846760E+02 -0.12131851734E+00  0.22841076277E+02  0.56755998881E+02  0.00000000000E+00 0. -1.
         11    1    1    2    0    0  0.25221908573E+02  0.86108081814E+01  0.74834675537E+02  0.79438777384E+02  0.00000000000E+00 0.  1.
</event>
<event>
 7    1  0.2733606E-009  0.9118674E+02  0.7561462E-02  0.1300003E+00
         -3   -1    0    0    0  501 -0.00000000000E+00  0.00000000000E+00  0.46809859843E+03  0.46809859843E+03  0.00000000000E+00 0.  1.
          3   -1    0    0  501    0  0.00000000000E+00 -0.00000000000E+00 -0.30627789746E+02  0.30627789746E+02  0.00000000000E+00 0. -1.
         25    2    1    2    0    0  0.48393995680E+01 -0.27723639287E+02  0.16016977797E+03  0.20516975744E+03  0.12509297195E+03 0.  0.
          5    1    3    3  502    0 -0.27709713948E+02  0.15494956104E+02 -0.39935986630E+01  0.32269848807E+02  0.41800000000E+01 0. -1.
         -5    1    3    3    0  502  0.32549113516E+02 -0.43218595391E+02  0.16416337664E+03  0.17289990864E+03  0.41800000000E+01 0. -1.
        -11    1    1    2    0    0 -0.39444882488E+02 -0.14021103682E+02  0.11053339441E+03  0.11819526802E+03  0.00000000000E+00 0. -1.
         11    1    1    2    0    0  0.34605482920E+02  0.41744742969E+02  0.16676763630E+03  0.17536136270E+03  0.00000000000E+00 0.  1.
</event>
<event>
 7    1  0.2733606E-009  0.1783279E+03  0.7561462E-02  0.1169431E+00
          1   -1    0    0  501    0  0.00000000000E+00  0.00000000000E+00  0.59121066930E+03  0.59121066930E+03  0.00000000000E+00 0. -1.
         -1   -1    0    0    0  501 -0.00000000000E+00 -0.00000000000E+00 -0.89412994446E+02  0.89412994446E+02  0.00000000000E+00 0.  1.
         25    2    1    2    0    0  0.11401919785E+03 -0.12391351183E+03  0.92391568588E+02  0.22921182992E+03  0.12508766980E+03 0.  0.
          5    1    3    3  502    0  0.51723637755E+02 -0.80918208674E+02 -0.15480645672E+02  0.97366390444E+02  0.41800000000E+01 0. -1.
         -5    1    3    3    0  502  0.62295560095E+02 -0.42995303151E+02  0.10787221426E+03  0.13184543947E+03  0.41800000000E+01 0. -1.
        -11    1    1    2    0    0 -0.71048139899E+02  0.12263618896E+03  0.26216832973E+03  0.29802635142E+03  0.00000000000E+00 0. -1.
         11    1    1    2    0    0 -0.42971057951E+02  0.12773228639E+01  0.14723777654E+03  0.15338548241E+03  0.00000000000E+00 0.  1.
</event>
<event>
 7    1  0.2733606E-009  0.1791397E+03  0.7561462E-02  0.1168638E+00
          2   -1    0    0  501    0  0.00000000000E+00  0.00000000000E+00  0.94114650334E+03  0.94114650334E+03  0.00000000000E+00 0. -1.
         -2   -1    0    0    0  501 -0.00000000000E+00 -0.00000000000E+00 -0.62083011287E+02  0.62083011287E+02  0.00000000000E+00 0.  1.
         25    2    1    2    0    0 -0.14068255734E+03 -0.66202823010E+02  0.14379949430E+03  0.24596825407E+03  0.12509073401E+03 0.  0.
          5    1    3    3  502    0  0.16562917633E+02 -0.31498712767E+01  0.48557597024E+02  0.51570966234E+02  0.41800000000E+01 0.  1.
         -5    1    3    3    0  502 -0.15724547497E+03 -0.63052951733E+02  0.95241897276E+02  0.19439728783E+03  0.41800000000E+01 0.  1.
        -11    1    1    2    0    0  0.50005496723E+02  0.63365591983E+02  0.47079228843E+03  0.47766214713E+03  0.00000000000E+00 0. -1.
         11    1    1    2    0    0  0.90677060613E+02  0.28372310267E+01  0.26447170932E+03  0.27959911344E+03  0.00000000000E+00 0.  1.
</event>
<event>
 7    1  0.2733606E-009  0.2609398E+03  0.7561462E-02  0.1106580E+00
          2   -1    0    0  501    0  0.00000000000E+00  0.00000000000E+00  0.38367814531E+03  0.38367814531E+03  0.00000000000E+00 0. -1.
         -2   -1    0    0    0  501 -0.00000000000E+00 -0.00000000000E+00 -0.21514422052E+03  0.21514422052E+03  0.00000000000E+00 0.  1.
         25    2    1    2    0    0 -0.17175334629E+03 -0.19116045052E+03  0.14737304992E+02  0.28619189413E+03  0.12508829804E+03 0.  0.
          5    1    3    3  502    0 -0.61013965000E+02 -0.33544993214E+02 -0.46720073442E+02  0.83953607172E+02  0.41800000000E+01 0.  1.
         -5    1    3    3    0  502 -0.11073938129E+03 -0.15761545730E+03  0.61457378434E+02  0.20223828696E+03  0.41800000000E+01 0.  1.
        -11    1    1    2    0    0  0.13999390407E+03  0.13254426110E+03  0.68992495637E+02  0.20475897729E+03  0.00000000000E+00 0.  1.
         11    1    1    2    0    0  0.31759442220E+02  0.58616189419E+02  0.84804124156E+02  0.10787149441E+03  0.00000000000E+00 0. -1.
</event>
<event>
 7    1  0.2733606E-009  0.8769512E+02  0.7561462E-02  0.1308531E+00
          1   -1    0    0  501    0  0.00000000000E+00  0.00000000000E+00  0.92306627021E+03  0.92306627021E+03  0.00000000000E+00 0.  1.
         -1   -1    0    0    0  501 -0.00000000000E+00 -0.00000000000E+00 -0.15419020575E+02  0.15419020575E+02  0.00000000000E+00 0. -1.
         25    2    1    2    0    0 -0.44349950451E+02 -0.21102251416E+02  0.50323797779E+03  0.52087148343E+03  0.12508563804E+03 0.  0.
          5    1    3    3  502    0  0.14346399709E+02 -0.67603219464E+01  0.40587917856E+03  0.40621041485E+03  0.41800000000E+01 0. -1.
         -5    1    3    3    0  502 -0.58696350160E+02 -0.14341929469E+02  0.97358799224E+02  0.11466106859E+03  0.41800000000E+01 0. -1.
        -11    1    1    2    0    0  0.48690639384E+02 -0.23180348282E+02  0.15129531961E+03  0.16061874314E+03  0.00000000000E+00 0.  1.
         11    1    1    2    0    0 -0.43406889326E+01  0.44282599698E+02  0.25311395224E+03  0.25699506422E+03  0.00000000000E+00 0. -1.
</event>
<event>
 7    1  0.2733606E-009  0.9894470E+02  0.7561462E-02  0.1282531E+00
         -2   -1    0    0    0  501 -0.00000000000E+00  0.00000000000E+00  0.31310470330E+02  0.31310470330E+02  0.00000000000E+00 0.  1.
          2   -1    0    0  501    0  0.00000000000E+00 -0.00000000000E+00 -0.39854089632E+03  0.39854089632E+03  0.00000000000E+00 0. -1.
         25    2    1    2    0    0 -0.16635702443E+02 -0.22020528991E+02 -0.23414613926E+03  0.26689336833E+03  0.12508399271E+03 0.  0.
          5    1    3    3  502    0 -0.68499745111E+02 -0.15070582370E+02 -0.17038164109E+03  0.18430060649E+03  0.41800000000E+01 0.  1.
         -5    1    3    3    0  502  0.51864042668E+02 -0.69499466210E+01 -0.63764498178E+02  0.82592761837E+02  0.41800000000E+01 0.  1.
        -11    1    1    2    0    0  0.38287936400E+02  0.33278135405E+02 -0.12846828219E+03  0.13812132312E+03  0.00000000000E+00 0. -1.
         11    1    1    2    0    0 -0.21652233958E+02 -0.11257606414E+02 -0.46160045338E+01  0.24836675208E+02  0.00000000000E+00 0.  1.
</event>
<event>
 7    1  0.2733606E-009  0.1484777E+03  0.7561462E-02  0.1202356E+00
          1   -1    0    0  501    0  0.00000000000E+00  0.00000000000E+00  0.91225998329E+02  0.91225998329E+02  0.00000000000E+00 0. -1.
         -1   -1    0    0    0  501 -0.00000000000E+00 -0.00000000000E+00 -0.43075455022E+03  0.43075455022E+03  0.00000000000E+00 0.  1.
         25    2    1    2    0    0 -0.94883618392E+02  0.86165239983E+02 -0.39328675519E+02  0.18336064267E+03  0.12508809273E+03 0.  0.
          5    1    3    3  502    0 -0.21909112713E+02  0.58435350362E+02  0.38174686748E+02  0.73276725500E+02  0.41800000000E+01 0.  1.
         -5    1    3    3    0  502 -0.72974505679E+02  0.27729889621E+02 -0.77503362267E+02  0.11008391717E+03  0.41800000000E+01 0.  1.
        -11    1    1    2    0    0  0.10225242018E+03 -0.40510069820E+02 -0.22248933836E+03  0.24818970340E+03  0.00000000000E+00 0. -1.
         11    1    1    2    0    0 -0.73688017836E+01 -0.45655170163E+02 -0.77710538017E+02  0.90430202484E+02  0.00000000000E+00 0.  1.
</event>
<event>
 7    1  0.2733606E-009  0.1246703E+03  0.7561462E-02  0.1235585E+00
         -1   -1    0    0    0  501 -0.00000000000E+00  0.00000000000E+00  0.29096140148E+02  0.29096140148E+02  0.00000000000E+00 0.  1.
          1   -1    0    0  501    0  0.00000000000E+00 -0.00000000000E+00 -0.76456935309E+03  0.76456935309E+03  0.00000000000E+00 0. -1.
         25    2    1    2    0    0  0.99251036575E+02  0.17595904408E+02 -0.38023041202E+03  0.41277586820E+03  0.12509343320E+03 0.  0.
          5    1    3    3  502    0 -0.43455059316E+01  0.96654816460E+01  0.59421194743E+01  0.12848585179E+02  0.41800000000E+01 0.  1.
         -5    1    3    3    0  502  0.10359654251E+03  0.79304227623E+01 -0.38617253149E+03  0.39992728302E+03  0.41800000000E+01 0.  1.
        -11    1    1    2    0    0 -0.33044596268E+02  0.35939362891E+02 -0.17267144016E+03  0.17944082422E+03  0.00000000000E+00 0. -1.
         11    1    1    2    0    0 -0.66206440307E+02 -0.53535267299E+02 -0.18257136076E+03  0.20144880083E+03  0.00000000000E+00 0.  1.
</event>
<event>
 7    1  0.2733606E-009  0.1143350E+03  0.7561462E-02  0.1252746E+00
          2   -1    0    0  501    0  0.00000000000E+00  0.00000000000E+00  0.51813403807E+03  0.51813403807E+03  0.00000000000E+00 0. -1.
         -2   -1    0    0    0  501 -0.00000000000E+00 -0.00000000000E+00 -0.36495183342E+02  0.36495183342E+02  0.00000000000E+00 0.  1.
         25    2    1    2    0    0  0.37857693569E+01 -0.83793276124E+02  0.28406386227E+03  0.32152205738E+03  0.12509400611E+03 0.  0.
          5    1    3    3  502    0  0.11602505166E+02  0.77738891991E+01  0.18781312322E+03  0.18837805905E+03  0.41800000000E+01 0.  1.
         -5    1    3    3    0  502 -0.78167358088E+01 -0.91567165323E+02  0.96250739050E+02  0.13314399833E+03  0.41800000000E+01 0.  1.
        -11    1    1    2    0    0 -0.23912401993E+02 -0.10182156985E+02  0.28085695018E+02  0.38265984302E+02  0.00000000000E+00 0.  1.
         11    1    1    2    0    0  0.20126632636E+02  0.93975433109E+02  0.16948929744E+03  0.19484117972E+03  0.00000000000E+00 0. -1.
</event>
<event>
 7    1  0.2733606E-009  0.1036222E+03  0.7561462E-02  0.1272858E+00
          4   -1    0    0  501    0  0.00000000000E+00  0.00000000000E+00  0.11758129215E+03  0.11758129215E+03  0.00000000000E+00 0. -1.
         -4   -1    0    0    0  501 -0.00000000000E+00 -0.00000000000E+00 -0.11865336112E+03  0.11865336112E+03  0.00000000000E+00 0.  1.
         25    2    1    2    0    0  0.39820551907E+02 -0.30401265234E+01  0.25306604457E+02  0.13372500993E+03  0.12508811026E+03 0.  0.
          5    1    3    3  502    0  0.81270453887E+02 -0.90584276079E+00  0.38422283677E+02  0.89996952776E+02  0.41800000000E+01 0.  1.
         -5    1    3    3    0  502 -0.41449901980E+02 -0.21342837626E+01 -0.13115679220E+02  0.43728057158E+02  0.41800000000E+01 0.  1.
        -11    1    1    2    0    0 -0.41257319649E+02  0.33811300337E+02 -0.42072862492E+02  0.67937443383E+02  0.00000000000E+00 0.  1.
         11    1    1    2    0    0  0.14367677421E+01 -0.30771173814E+02  0.15694189065E+02  0.34572199957E+02  0.00000000000E+00 0. -1.
</event>
<event>
 7    1  0.2733606E-009  0.1590688E+03  0.7561462E-02  0.1189752E+00
          2   -1    0    0  501    0  0.00000000000E+00  0.00000000000E+00  0.17313510544E+04  0.17313510544E+04  0.00000000000E+00 0. -1.
         -2   -1    0    0    0  501 -0.00000000000E+00 -0.00000000000E+00 -0.20134252763E+02  0.20134252763E+02  0.00000000000E+00 0.  1.
         25    2    1    2    0    0  0.12412252079E+03 -0.63821722892E+02  0.11621244952E+04  0.11771410817E+04  0.12509265136E+03 0.  0.
          5    1    3    3  502    0  0.22242900208E+02  0.25271472516E+02  0.84696496020E+02  0.91237945893E+02  0.41800000000E+01 0.  1.
         -5    1    3    3    0  502  0.10187962058E+03 -0.89093195408E+02  0.10774279991E+04  0.10859031358E+04  0.41800000000E+01 0.  1.
        -11    1    1    2    0    0 -0.43136356871E+02 -0.37986494135E+01  0.59955864995E+02  0.73958642286E+02  0.00000000000E+00 0.  1.
         11    1    1    2    0    0 -0.80986163919E+02  0.67620372305E+02  0.48913644152E+03  0.50038558324E+03  0.00000000000E+00 0. -1.
</event>
<event>
 7    1  0.2733606E-009  0.1731361E+03  0.7561462E-02  0.1174616E+00
         -1   -1    0    0    0  501 -0.00000000000E+00  0.00000000000E+00  0.75662066519E+02  0.75662066519E+02  0.00000000000E+00 0.  1.
          1   -1    0    0  501    0  0.00000000000E+00 -0.00000000000E+00 -0.98872645994E+03  0.98872645994E+03  0.00000000000E+00 0. -1.
         25    2    1    2    0    0  0.10454313913E+03  0.10792961771E+03 -0.85839076337E+03  0.88037506022E+03  0.12508986246E+03 0.  0.
          5    1    3    3  502    0 -0.93395973085E+01 -0.21012255466E+02 -0.10983988897E+03  0.11229878257E+03  0.41800000000E+01 0.  1.
         -5    1    3    3    0  502  0.11388273644E+03  0.12894187317E+03 -0.74855087440E+03  0.76807627765E+03  0.41800000000E+01 0.  1.
        -11    1    1    2    0    0 -0.56304925783E+02 -0.67311645730E+02 -0.77369661552E+02  0.11699216575E+03  0.00000000000E+00 0. -1.
         11    1    1    2    0    0 -0.48238213348E+02 -0.40617971976E+02  0.22696031498E+02  0.67021300496E+02  0.00000000000E+00 0.  1.
</event>
<event>
 7    1  0.2733606E-009  0.2401829E+03  0.7561462E-02  0.1119671E+00
          2   -1    0    0  501    0  0.00000000000E+00  0.00000000000E+00  0.61818065476E+03  0.61818065476E+03  0.00000000000E+00 0. -1.
         -2   -1    0    0    0  501 -0.00000000000E+00 -0.00000000000E+00 -0.14514276297E+03  0.14514276297E+03  0.00000000000E+00 0.  1.
         25    2    1    2    0    0  0.33673891272E+02  0.23403265248E+03  0.52305344337E+02  0.27255774329E+03  0.12508661399E+03 0.  0.
          5    1    3    3  502    0  0.22650415877E+02  0.16935812031E+03  0.93654803698E+02  0.19489460975E+03  0.41800000000E+01 0. -1.
         -5    1    3    3    0  502  0.11023475394E+02  0.64674532169E+02 -0.41349459361E+02  0.77663133535E+02  0.41800000000E+01 0. -1.
        -11    1    1    2    0    0  0.14045325257E+02 -0.10861219731E+03  0.25496441020E+03  0.27749005574E+03  0.00000000000E+00 0. -1.
         11    1    1    2    0    0 -0.47719216528E+02 -0.12542045517E+03  0.16576813726E+03  0.21327561870E+03  0.00000000000E+00 0.  1.
</event>
<event>
 7    1  0.2733606E-009  0.1905602E+03  0.7561462E-02  0.1157957E+00
          2   -1    0    0  501    0  0.00000000000E+00  0.00000000000E+00  0.22287809657E+03  0.22287809657E+03  0.00000000000E+00 0. -1.
         -2   -1    0    0    0  501 -0.00000000000E+00 -0.00000000000E+00 -0.20282633967E+03  0.20282633967E+03  0.00000000000E+00 0.  1.
         25    2    1    2    0    0 -0.58128646144E+02 -0.16585147096E+03  0.61377146983E+02  0.22427452015E+03  0.12508499628E+03 0.  0.
          5    1    3    3  502    0 -0.69001913907E+02 -0.11631900707E+03 -0.11049062201E+02  0.13576056019E+03  0.41800000000E+01 0.  1.
         -5    1    3    3    0  502  0.10873267763E+02 -0.49532463895E+02  0.72426209185E+02  0.88513959963E+02  0.41800000000E+01 0.  1.
        -11    1    1    2    0    0 -0.12829718881E+02  0.90569711281E+02 -0.43816654288E+01  0.91578781822E+02  0.00000000000E+00 0.  1.
         11    1    1    2    0    0  0.70958365024E+02  0.75281759682E+02 -0.36943724652E+02  0.10985113426E+03  0.00000000000E+00 0. -1.
</event>
<event>
 7    1  0.2733606E-009  0.1047333E+03  0.7561462E-02  0.1270646E+00
         -2   -1    0    0    0  501 -0.00000000000E+00  0.00000000000E+00  0.56501779577E+02  0.56501779577E+02  0.00000000000E+00 0.  1.
          2   -1    0    0  501    0  0.00000000000E+00 -0.00000000000E+00 -0.23810251352E+03  0.23810251352E+03  0.00000000000E+00 0. -1.
         25    2    1    2    0    0  0.36028433990E+02 -0.25080970817E+02 -0.12976687220E+03  0.18551877475E+03  0.12510264389E+03 0.  0.
          5    1    3    3  502    0  0.53838579288E+02 -0.67067149696E+02 -0.75585088500E+02  0.11457387657E+03  0.41800000000E+01 0. -1.
         -5    1    3    3    0  502 -0.17810145298E+02  0.41986178879E+02 -0.54181783703E+02  0.70944898178E+02  0.41800000000E+01 0. -1.
        -11    1    1    2    0    0 -0.31295610392E+02  0.46265570321E+02 -0.63395166843E+02  0.84491806739E+02  0.00000000000E+00 0. -1.
         11    1    1    2    0    0 -0.47328235987E+01 -0.21184599504E+02  0.11561305100E+02  0.24593711615E+02  0.00000000000E+00 0.  1.
</event>
<event>
 7    1  0.2733606E-009  0.1186087E+03  0.7561462E-02  0.1245410E+00
          2   -1    0    0  501    0  0.00000000000E+00  0.00000000000E+00  0.74867876677E+02  0.74867876677E+02  0.00000000000E+00 0. -1.
         -2   -1    0    0    0  501 -0.00000000000E+00 -0.00000000000E+00 -0.22715070187E+03  0.22715070187E+03  0.00000000000E+00 0.  1.
         25    2    1    2    0    0  0.32844276458E+02 -0.50511993709E+02 -0.40151733429E+02  0.14453302421E+03  0.12508966938E+03 0.  0.
          5    1    3    3  502    0 -0.89643418481E+00  0.36201881099E+02 -0.36100811036E+02  0.51304198140E+02  0.41800000000E+01 0.  1.
         -5    1    3    3    0  502  0.33740710643E+02 -0.86713874808E+02 -0.40509223933E+01  0.93228826074E+02  0.41800000000E+01 0.  1.
        -11    1    1    2    0    0 -0.23763067059E+02  0.76493886864E+02 -0.66092225100E+02  0.10384690801E+03  0.00000000000E+00 0. -1.
         11    1    1    2    0    0 -0.90812093988E+01 -0.25981893155E+02 -0.46038866663E+02  0.53638646326E+02  0.00000000000E+00 0.  1.
</event>
<event>
 7    1  0.2733606E-009  0.1357573E+03  0.7561462E-02  0.1219155E+00
         -4   -1    0    0    0  501 -0.00000000000E+00  0.00000000000E+00  0.44419726422E+02  0.44419726422E+02  0.00000000000E+00 0.  1.
          4   -1    0    0  501    0  0.00000000000E+00 -0.00000000000E+00 -0.52134520090E+03  0.52134520090E+03  0.00000000000E+00 0. -1.
         25    2    1    2    0    0  0.70956082344E+02 -0.73979186314E+02 -0.23855698078E+03  0.28820520976E+03  0.12508047100E+03 0.  0.
          5    1    3    3  502    0  0.86974344644E+02 -0.48717131117E+02 -0.83124719657E+02  0.12986564946E+03  0.41800000000E+01 0.  1.
         -5    1    3    3    0  502 -0.16018262300E+02 -0.25262055197E+02 -0.15543226112E+03  0.15833956030E+03  0.41800000000E+01 0.  1.
        -11    1    1    2    0    0 -0.67565944055E+00 -0.22312795313E+02 -0.48140408344E+02  0.53064265432E+02  0.00000000000E+00 0.  1.
         11    1    1    2    0    0 -0.70280422904E+02  0.96291981627E+02 -0.19022808536E+03  0.22449545213E+03  0.00000000000E+00 0. -1.
</event>
<event>
 7    1  0.2733606E-009  0.1129785E+03  0.7561462E-02  0.1255151E+00
         -3   -1    0    0    0  501 -0.00000000000E+00  0.00000000000E+00  0.92236064504E+02  0.92236064504E+02  0.00000000000E+00 0.  1.
          3   -1    0    0  501    0  0.00000000000E+00 -0.00000000000E+00 -0.23537904030E+03  0.23537904030E+03  0.00000000000E+00 0. -1.
         25    2    1    2    0    0 -0.26409990395E+02 -0.79954715712E+02 -0.13639625021E+03  0.20332470605E+03  0.12508698918E+03 0.  0.
          5    1    3    3  502    0 -0.45003567546E+02  0.12614012570E+02 -0.14564451682E+02  0.49132779870E+02  0.41800000000E+01 0.  1.
         -5    1    3    3    0  502  0.18593577151E+02 -0.92568728282E+02 -0.12183179852E+03  0.15419192618E+03  0.41800000000E+01 0.  1.
        -11    1    1    2    0    0  0.11009905333E+02  0.22643832523E+02  0.41006157213E+02  0.48119290271E+02  0.00000000000E+00 0.  1.
         11    1    1    2    0    0  0.15400085061E+02  0.57310883189E+02 -0.47752882806E+02  0.76171108487E+02  0.00000000000E+00 0. -1.
</event>
<event>
 7    1  0.2733606E-009  0.8930657E+02  0.7561462E-02  0.1304540E+00
         -2   -1    0    0    0  501 -0.00000000000E+00  0.00000000000E+00  0.24906054727E+02  0.24906054727E+02  0.00000000000E+00 0.  1.
          2   -1    0    0  501    0  0.00000000000E+00 -0.00000000000E+00 -0.58788946396E+03  0.58788946396E+03  0.00000000000E+00 0. -1.
         25    2    1    2    0    0  0.29553172465E+02  0.20445933405E+02 -0.41476330726E+03  0.43470398044E+03  0.12509006101E+03 0.  0.
          5    1    3    3  502    0  0.61011139824E+02  0.35803720104E+02 -0.37467896595E+03  0.38132147262E+03  0.41800000000E+01 0. -1.
         -5    1    3    3    0  502 -0.31457967358E+02 -0.15357786699E+02 -0.40084341307E+02  0.53382507815E+02  0.41800000000E+01 0. -1.
        -11    1    1    2    0    0 -0.48916568847E+02 -0.20730791352E+02 -0.35914155378E+02  0.64128176135E+02  0.00000000000E+00 0.  1.
         11    1    1    2    0    0  0.19363396382E+02  0.28485794688E+00 -0.11230594659E+03  0.11396336211E+03  0.00000000000E+00 0. -1.
</event>
<event>
 7    1  0.2733606E-009  0.1072477E+03  0.7561462E-02  0.1265753E+00
         -4   -1    0    0    0  501 -0.00000000000E+00  0.00000000000E+00  0.73904526124E+02  0.73904526124E+02  0.00000000000E+00 0.  1.
          4   -1    0    0  501    0  0.00000000000E+00 -0.00000000000E+00 -0.18088688526E+03  0.18088688526E+03  0.00000000000E+00 0. -1.
         25    2    1    2    0    0 -0.26453016161E+02 -0.38250081472E+02 -0.65634669285E+02  0.14872280254E+03  0.12509089250E+03 0.  0.
          5    1    3    3  502    0 -0.52396594740E+02 -0.63034905165E+02 -0.75241936332E+02  0.11134461726E+03  0.41800000000E+01 0.  1.
         -5    1    3    3    0  502  0.25943578579E+02  0.24784823693E+02  0.96072670476E+01  0.37378185284E+02  0.41800000000E+01 0.  1.
        -11    1    1    2    0    0  0.57334328682E+02  0.22074942683E+02 -0.34765738745E+02  0.70591677486E+02  0.00000000000E+00 0.  1.
         11    1    1    2    0    0 -0.30881312521E+02  0.16175138789E+02 -0.65819511037E+01  0.35476931352E+02  0.00000000000E+00 0. -1.
</event>
<event>
 7    1  0.2733606E-009  0.1149737E+03  0.7561462E-02  0.1251627E+00
         -3   -1    0    0    0  501 -0.00000000000E+00  0.00000000000E+00  0.40138627641E+03  0.40138627641E+03  0.00000000000E+00 0.  1.
          3   -1    0    0  501    0  0.00000000000E+00 -0.00000000000E+00 -0.41373388733E+02  0.41373388733E+02  0.00000000000E+00 0. -1.
         25    2    1    2    0    0  0.62924802270E+02  0.28461035135E+02  0.19769759176E+03  0.24392970040E+03  0.12509116551E+03 0.  0.
          5    1    3    3  502    0  0.52309410258E+02  0.64044549074E+02  0.18784759636E+03  0.20528558285E+03  0.41800000000E+01 0. -1.
         -5    1    3    3    0  502  0.10615392011E+02 -0.35583513939E+02  0.98499953975E+01  0.38644117549E+02  0.41800000000E+01 0. -1.
        -11    1    1    2    0    0 -0.30059509715E+02 -0.58170945323E+02  0.66798409326E+02  0.93538550837E+02  0.00000000000E+00 0.  1.
         11    1    1    2    0    0 -0.32865292555E+02  0.29709910189E+02  0.95516886598E+02  0.10529141391E+03  0.00000000000E+00 0. -1.
</event>
<event>
 7    1  0.2733606E-009  0.1735201E+03  0.7561462E-02  0.1174226E+00
          1   -1    0    0  501    0  0.00000000000E+00  0.00000000000E+00  0.91983542722E+02  0.91983542722E+02  0.00000000000E+00 0. -1.
         -1   -1    0    0    0  501 -0.00000000000E+00 -0.00000000000E+00 -0.56809401570E+03  0.56809401570E+03  0.00000000000E+00 0.  1.
         25    2    1    2    0    0 -0.81708428597E+02 -0.11565390873E+03 -0.40441091295E+02  0.19322619335E+03  0.12509510791E+03 0.  0.
          5    1    3    3  502    0  0.64471325199E+01 -0.91817035238E+02 -0.43210677400E+02  0.10176722714E+03  0.41800000000E+01 0. -1.
         -5    1    3    3    0  502 -0.88155561117E+02 -0.23836873492E+02  0.27695861058E+01  0.91458966214E+02  0.41800000000E+01 0. -1.
        -11    1    1    2    0    0  0.64668368406E+02  0.22021859456E+02 -0.23551781353E+03  0.24522561175E+03  0.00000000000E+00 0.  1.
         11    1    1    2    0    0  0.17040060191E+02  0.93632049274E+02 -0.20015156815E+03  0.22162575332E+03  0.00000000000E+00 0. -1.
</event>
<event>
 7    1  0.2733606E-009  0.9461872E+02  0.7561462E-02  0.1292037E+00
          2   -1    0    0  501    0  0.00000000000E+00  0.00000000000E+00  0.40500176213E+03  0.40500176213E+03  0.00000000000E+00 0.  1.
         -2   -1    0    0    0  501 -0.00000000000E+00 -0.00000000000E+00 -0.29131252787E+02  0.29131252787E+02  0.00000000000E+00 0. -1.
         25    2    1    2    0    0 -0.45892439209E+01  0.15344845511E+01  0.21954758115E+03  0.25272948766E+03  0.12509051821E+03 0.  0.
          5    1    3    3  502    0  0.40833737495E+02  0.39291715201E+02  0.15523910528E+03  0.16531147937E+03  0.41800000000E+01 0.  1.
         -5    1    3    3    0  502 -0.45422981416E+02 -0.37757230650E+02  0.64308475863E+02  0.87418008299E+02  0.41800000000E+01 0.  1.
        -11    1    1    2    0    0  0.37299215140E+02 -0.11457837490E+02  0.13632966819E+03  0.14180370911E+03  0.00000000000E+00 0.  1.
         11    1    1    2    0    0 -0.32709971220E+02  0.99233529388E+01  0.19993260008E+02  0.39599818137E+02  0.00000000000E+00 0. -1.
</event>
<event>
 7    1  0.2733606E-009  0.9448523E+02  0.7561462E-02  0.1292340E+00
          2   -1    0    0  501    0  0.00000000000E+00  0.00000000000E+00  0.71988137653E+02  0.71988137653E+02  0.00000000000E+00 0. -1.
         -2   -1    0    0    0  501 -0.00000000000E+00 -0.00000000000E+00 -0.23518386707E+03  0.23518386707E+03  0.00000000000E+00 0.  1.
         25    2    1    2    0    0 -0.27526325334E+02  0.55558562407E+02 -0.47471226252E+02  0.14745574138E+03  0.12508087744E+03 0.  0.
          5    1    3    3  502    0 -0.44680665893E+02  0.52753135897E+01 -0.74933894840E+02  0.87502867576E+02  0.41800000000E+01 0.  1.
         -5    1    3    3    0  502  0.17154340559E+02  0.50283248817E+02  0.27462668588E+02  0.59952873806E+02  0.41800000000E+01 0.  1.
        -11    1    1    2    0    0  0.23750992743E+02  0.93127909183E+01 -0.83252175972E+02  0.87073317009E+02  0.00000000000E+00 0.  1.
         11    1    1    2    0    0  0.37753325912E+01 -0.64871353325E+02 -0.32472327192E+02  0.72642946331E+02  0.00000000000E+00 0. -1.
</event>
<event>
 7    1  0.2733606E-009  0.9900744E+02  0.7561462E-02  0.1282397E+00
          1   -1    0    0  501    0  0.00000000000E+00  0.00000000000E+00  0.18832584573E+04  0.18832584573E+04  0.00000000000E+00 0. -1.
         -1   -1    0    0    0  501 -0.00000000000E+00 -0.00000000000E+00 -0.76624953633E+01  0.76624953633E+01  0.00000000000E+00 0.  1.
         25    2    1    2    0    0 -0.40134500156E+01  0.36808253926E+02  0.13372707737E+04  0.13436186837E+04  0.12508832747E+03 0.  0.
          5    1    3    3  502    0 -0.19562662585E+02  0.64776137919E+02  0.39357342189E+03  0.39936969919E+03  0.41800000000E+01 0. -1.
         -5    1    3    3    0  502  0.15549212570E+02 -0.27967883993E+02  0.94369735185E+03  0.94424898455E+03  0.41800000000E+01 0. -1.
        -11    1    1    2    0    0  0.87914729955E+01 -0.66902406603E+02  0.40093699172E+03  0.40657556904E+03  0.00000000000E+00 0.  1.
         11    1    1    2    0    0 -0.47780229799E+01  0.30094152677E+02  0.13738819643E+03  0.14072669984E+03  0.00000000000E+00 0. -1.
</event>
<event>
 7    1  0.2745418E-009  0.1461554E+03  0.7561462E-02  0.1205278E+00
          2   -1    0    0  501    0  0.00000000000E+00  0.00000000000E+00  0.12298050965E+03  0.12298050965E+03  0.00000000000E+00 0. -1.
         -2   -1    0    0    0  501 -0.00000000000E+00 -0.00000000000E+00 -0.23113462577E+03  0.23113462577E+03  0.00000000000E+00 0.  1.
         25    2    1    2    0    0 -0.33763197457E+02 -0.12103293589E+03 -0.28441256716E+02  0.17956936816E+03  0.12508927941E+03 0.  0.
          5    1    3    3  502    0 -0.26261151003E+02 -0.12517215815E+03 -0.63771488124E+02  0.14297549554E+03  0.41800000000E+01 0. -1.
         -5    1    3    3    0  502 -0.75020464539E+01  0.41392222554E+01  0.35330231408E+02  0.36593872618E+02  0.41800000000E+01 0. -1.
        -11    1    1    2    0    0 -0.27347559595E+02  0.70145347362E+02 -0.45546279359E+02  0.87992740245E+02  0.00000000000E+00 0.  1.
         11    1    1    2    0    0  0.61110757052E+02  0.50887588529E+02 -0.34166580039E+02  0.86553027014E+02  0.00000000000E+00 0. -1.
</event>
<event>
 7    1  0.2733606E-009  0.1111076E+03  0.7561462E-02  0.1258532E+00
          1   -1    0    0  501    0  0.00000000000E+00  0.00000000000E+00  0.22867834350E+03  0.22867834350E+03  0.00000000000E+00 0. -1.
         -1   -1    0    0    0  501 -0.00000000000E+00 -0.00000000000E+00 -0.88691751923E+02  0.88691751923E+02  0.00000000000E+00 0.  1.
         25    2    1    2    0    0  0.37105885232E+02  0.10741302012E+02  0.17042631261E+03  0.21490522676E+03  0.12508759399E+03 0.  0.
          5    1    3    3  502    0  0.50189404484E+01  0.63288525099E+02  0.11744096959E+03  0.13356826311E+03  0.41800000000E+01 0.  1.
         -5    1    3    3    0  502  0.32086944783E+02 -0.52547223087E+02  0.52985343017E+02  0.81336963641E+02  0.41800000000E+01 0.  1.
        -11    1    1    2    0    0 -0.64127831934E+02  0.70685671940E+01 -0.13412323801E+02  0.65895628842E+02  0.00000000000E+00 0. -1.
         11    1    1    2    0    0  0.27021946702E+02 -0.17809869206E+02 -0.17027397234E+02  0.36569239824E+02  0.00000000000E+00 0.  1.
</event>
<event>
 7    1  0.2733606E-009  0.1825114E+03  0.7561462E-02  0.1165394E+00
          2   -1    0    0  501    0  0.00000000000E+00  0.00000000000E+00  0.17028555277E+03  0.17028555277E+03  0.00000000000E+00 0. -1.
         -2   -1    0    0    0  501 -0.00000000000E+00 -0.00000000000E+00 -0.22624006178E+03  0.22624006178E+03  0.00000000000E+00 0.  1.
         25    2    1    2    0    0 -0.16300229304E+03  0.10133950122E+02 -0.35045272885E+02  0.20868182177E+03  0.12508991608E+03 0.  0.
          5    1    3    3  502    0  0.15726331810E+02 -0.57775996671E+01  0.14430276387E+02  0.22503409669E+02  0.41800000000E+01 0.  1.
         -5    1    3    3    0  502 -0.17872862485E+03  0.15911549789E+02 -0.49475549273E+02  0.18617841210E+03  0.41800000000E+01 0.  1.
        -11    1    1    2    0    0  0.14359498402E+03 -0.22371852128E+02  0.14074838754E+02  0.14600726108E+03  0.00000000000E+00 0. -1.
         11    1    1    2    0    0  0.19407309017E+02  0.12237902006E+02 -0.34984074888E+02  0.41836531698E+02  0.00000000000E+00 0.  1.
</event>
<event>
 7    1  0.2733606E-009  0.1046472E+03  0.7561462E-02  0.1270816E+00
         -2   -1    0    0    0  501 -0.00000000000E+00  0.00000000000E+00  0.98972809728E+02  0.98972809728E+02  0.00000000000E+00 0.  1.
          2   -1    0    0  501    0  0.00000000000E+00 -0.00000000000E+00 -0.12101156770E+03  0.12101156770E+03  0.00000000000E+00 0. -1.
         25    2    1    2    0    0  0.69434486387E+01 -0.43642320673E+01  0.95442895352E+00  0.12536517575E+03  0.12509299882E+03 0.  0.
          5    1    3    3  502    0  0.60193005538E+02 -0.26830985454E+02  0.97664264698E+01  0.66752941374E+02  0.41800000000E+01 0.  1.
         -5    1    3    3    0  502 -0.53249556899E+02  0.22466753387E+02 -0.88119975162E+01  0.58612234371E+02  0.41800000000E+01 0.  1.
        -11    1    1    2    0    0 -0.31349118536E+02  0.34446774050E+02  0.49738170144E+01  0.46841075256E+02  0.00000000000E+00 0.  1.
         11    1    1    2    0    0  0.24405669897E+02 -0.30082541983E+02 -0.27967003936E+02  0.47778126423E+02  0.00000000000E+00 0. -1.
</event>
<event>
 7    1  0.2733606E-009  0.1315139E+03  0.7561462E-02  0.1225227E+00
         -2   -1    0    0    0  501 -0.00000000000E+00  0.00000000000E+00  0.54764136745E+03  0.54764136745E+03  0.00000000000E+00 0.  1.
          2   -1    0    0  501    0  0.00000000000E+00 -0.00000000000E+00 -0.35502909758E+02  0.35502909758E+02  0.00000000000E+00 0. -1.
         25    2    1    2    0    0 -0.51113053401E+02  0.60183052854E+02  0.20328288827E+03  0.25140678999E+03  0.12508755858E+03 0.  0.
          5    1    3    3  502    0 -0.24656622346E+02 -0.37460786869E+02  0.46223347005E+02  0.64539366178E+02  0.41800000000E+01 0. -1.
         -5    1    3    3    0  502 -0.26456431055E+02  0.97643839723E+02  0.15705954126E+03  0.18686742381E+03  0.41800000000E+01 0. -1.
        -11    1    1    2    0    0  0.26727583537E+02  0.19706480669E+02  0.52532633669E+02  0.62148102967E+02  0.00000000000E+00 0.  1.
         11    1    1    2    0    0  0.24385469864E+02 -0.79889533523E+02  0.25632293576E+03  0.26958938426E+03  0.00000000000E+00 0. -1.
</event>
<event>
 7    1  0.2733606E-009  0.5221863E+02  0.7561462E-02  0.1433729E+00
          2   -1    0    0  501    0  0.00000000000E+00  0.00000000000E+00  0.94659968748E+02  0.94659968748E+02  0.00000000000E+00 0. -1.
         -2   -1    0    0    0  501 -0.00000000000E+00 -0.00000000000E+00 -0.13056229189E+03  0.13056229189E+03  0.00000000000E+00 0.  1.
         25    2    1    2    0    0  0.90356612057E+01  0.17094170857E+02 -0.32969572899E+02  0.13079691544E+03  0.12508791509E+03 0.  0.
          5    1    3    3  502    0 -0.16842689091E+02  0.38298043438E+02  0.35141333471E+02  0.54797828654E+02  0.41800000000E+01 0.  1.
         -5    1    3    3    0  502  0.25878350297E+02 -0.21203872581E+02 -0.68110906370E+02  0.75999086791E+02  0.41800000000E+01 0.  1.
        -11    1    1    2    0    0 -0.12249174844E+02 -0.10297745254E+01  0.43491483234E+02  0.45195263401E+02  0.00000000000E+00 0. -1.
         11    1    1    2    0    0  0.32135136384E+01 -0.16064396332E+02 -0.46424233481E+02  0.49230081797E+02  0.00000000000E+00 0.  1.
</event>
<event>
 7    1  0.2733606E-009  0.9225711E+02  0.7561462E-02  0.1297476E+00
          4   -1    0    0  501    0  0.00000000000E+00  0.00000000000E+00  0.64680456216E+02  0.64680456216E+02  0.00000000000E+00 0. -1.
         -4   -1    0    0    0  501 -0.00000000000E+00 -0.00000000000E+00 -0.22221991492E+03  0.22221991492E+03  0.00000000000E+00 0.  1.
         25    2    1    2    0    0  0.66402678050E+01 -0.34034778601E+02 -0.41293681001E+02  0.13621927258E+03  0.12509221727E+03 0.  0.
          5    1    3    3  502    0  0.40072436458E+02 -0.42806517354E+02  0.22983938935E+02  0.63118396214E+02  0.41800000000E+01 0. -1.
         -5    1    3    3    0  502 -0.33432168653E+02  0.87717387530E+01 -0.64277619936E+02  0.73100876371E+02  0.41800000000E+01 0. -1.
        -11    1    1    2    0    0  0.71188761308E+01 -0.27218503540E+02 -0.15903553215E+02  0.32317925942E+02  0.00000000000E+00 0. -1.
         11    1    1    2    0    0 -0.13759143936E+02  0.61253282141E+02 -0.10034222449E+03  0.11836317261E+03  0.00000000000E+00 0.  1.
</event>
<event>
 7    1  0.2733606E-009  0.1831898E+03  0.7561462E-02  0.1164751E+00
          2   -1    0    0  501    0  0.00000000000E+00  0.00000000000E+00  0.16592762128E+04  0.16592762128E+04  0.00000000000E+00 0. -1.
         -2   -1    0    0    0  501 -0.00000000000E+00 -0.00000000000E+00 -0.20643391798E+02  0.20643391798E+02  0.00000000000E+00 0.  1.
         25    2    1    2    0    0  0.99596624869E+02 -0.11208141779E+03  0.85981294178E+03  0.88170705619E+03  0.12508919288E+03 0.  0.
          5    1    3    3  502    0 -0.93578154854E+01 -0.79083502024E+02  0.41079456626E+03  0.41846316095E+03  0.41800000000E+01 0.  1.
         -5    1    3    3    0  502  0.10895444035E+03 -0.32997915762E+02  0.44901837552E+03  0.46324389523E+03  0.41800000000E+01 0.  1.
        -11    1    1    2    0    0 -0.48953241105E+02 -0.83794722315E+00  0.16835287776E+03  0.17532773146E+03  0.00000000000E+00 0.  1.
         11    1    1    2    0    0 -0.50643383764E+02  0.11291936501E+03  0.61046700149E+03  0.62288481698E+03  0.00000000000E+00 0. -1.
</event>
<event>
 7    1  0.2733606E-009  0.1383720E+03  0.7561462E-02  0.1215536E+00
         -2   -1    0    0    0  501 -0.00000000000E+00  0.00000000000E+00  0.40144884844E+02  0.40144884844E+02  0.00000000000E+00 0.  1.
          2   -1    0    0  501    0  0.00000000000E+00 -0.00000000000E+00 -0.92931863507E+03  0.92931863507E+03  0.00000000000E+00 0. -1.
         25    2    1    2    0    0  0.58396434341E+02 -0.82115780890E+02 -0.77313079303E+03  0.78964043826E+03  0.12509058158E+03 0.  0.
          5    1    3    3  502    0 -0.28825708930E+02  0.27020685969E+01 -0.67206730708E+02  0.73296928465E+02  0.41800000000E+01 0.  1.
         -5    1    3    3    0  502  0.87222143271E+02 -0.84817849487E+02 -0.70592406232E+03  0.71634350980E+03  0.41800000000E+01 0.  1.
        -11    1    1    2    0    0 -0.63908195733E+02  0.25394024416E+02 -0.26530188528E+02  0.73708648483E+02  0.00000000000E+00 0.  1.
         11    1    1    2    0    0  0.55117613926E+01  0.56721756475E+02 -0.89512768667E+02  0.10611443316E+03  0.00000000000E+00 0. -1.
</event>
<event>
 7    1  0.2733606E-009  0.1200477E+03  0.7561462E-02  0.1243018E+00
         -2   -1    0    0    0  501 -0.00000000000E+00  0.00000000000E+00  0.23237723420E+02  0.23237723420E+02  0.00000000000E+00 0.  1.
          2   -1    0    0  501    0  0.00000000000E+00 -0.00000000000E+00 -0.68201330730E+03  0.68201330730E+03  0.00000000000E+00 0. -1.
         25    2    1    2    0    0 -0.58668089401E+02  0.25811165650E+02 -0.39667979969E+03  0.42084570981E+03  0.12509231393E+03 0.  0.
          5    1    3    3  502    0 -0.40891149152E+02 -0.46533104427E+02 -0.13239697788E+03  0.14623217170E+03  0.41800000000E+01 0. -1.
         -5    1    3    3    0  502 -0.17776940249E+02  0.72344270077E+02 -0.26428282180E+03  0.27461353812E+03  0.41800000000E+01 0. -1.
        -11    1    1    2    0    0  0.15655963635E+01 -0.43566686903E+02 -0.16240811695E+03  0.16815737793E+03  0.00000000000E+00 0. -1.
         11    1    1    2    0    0  0.57102493038E+02  0.17755521253E+02 -0.99687667241E+02  0.11624794298E+03  0.00000000000E+00 0.  1.
</event>
<event>
 7    1  0.2733606E-009  0.1177642E+03  0.7561462E-02  0.1246832E+00
         -1   -1    0    0    0  501 -0.00000000000E+00  0.00000000000E+00  0.43167109201E+02  0.43167109201E+02  0.00000000000E+00 0.  1.
          1   -1    0    0  501    0  0.00000000000E+00 -0.00000000000E+00 -0.42604807005E+03  0.42604807005E+03  0.00000000000E+00 0. -1.
         25    2    1    2    0    0  0.53850985193E+02  0.13205740750E+02 -0.29369037731E+03  0.32400031626E+03  0.12509135468E+03 0.  0.
          5    1    3    3  502    0  0.32128708692E+02  0.67726013511E+02 -0.13087610554E+03  0.15088105988E+03  0.41800000000E+01 0. -1.
         -5    1    3    3    0  502  0.21722276501E+02 -0.54520272761E+02 -0.16281427177E+03  0.17311925638E+03  0.41800000000E+01 0. -1.
        -11    1    1    2    0    0 -0.60174335986E+02 -0.41192006662E+02 -0.90824425435E+02  0.11647664307E+03  0.00000000000E+00 0. -1.
         11    1    1    2    0    0  0.63233507927E+01  0.27986265912E+02  0.16338419003E+01  0.28738219923E+02  0.00000000000E+00 0.  1.
</event>
<event>
 7    1  0.2733606E-009  0.1018301E+03  0.7561462E-02  0.1276494E+00
          2   -1    0    0  501    0  0.00000000000E+00  0.00000000000E+00  0.24210732503E+03  0.24210732503E+03  0.00000000000E+00 0. -1.
         -2   -1    0    0    0  501 -0.00000000000E+00 -0.00000000000E+00 -0.80327122126E+02  0.80327122126E+02  0.00000000000E+00 0.  1.
         25    2    1    2    0    0 -0.83892159929E+02 -0.22970046508E+02  0.90652549101E+02  0.17729203303E+03  0.12509621410E+03 0.  0.
          5    1    3    3  502    0 -0.27047511901E+02 -0.47197249287E+02 -0.13420580301E+02  0.56184807697E+02  0.41800000000E+01 0.  1.
         -5    1    3    3    0  502 -0.56844648028E+02  0.24227202779E+02  0.10407312940E+03  0.12110722533E+03  0.41800000000E+01 0.  1.
        -11    1    1    2    0    0  0.44155844253E+02  0.15052100755E+02  0.89288537841E+02  0.10074099120E+03  0.00000000000E+00 0. -1.
         11    1    1    2    0    0  0.39736315676E+02  0.79179457529E+01 -0.18160884040E+02  0.44401422923E+02  0.00000000000E+00 0.  1.
</event>
<event>
 7    1  0.2733606E-009  0.1291478E+03  0.7561462E-02  0.1228726E+00
          1   -1    0    0  501    0  0.00000000000E+00  0.00000000000E+00  0.47990364565E+03  0.47990364565E+03  0.00000000000E+00 0. -1.
         -1   -1    0    0    0  501 -0.00000000000E+00 -0.00000000000E+00 -0.44455698466E+02  0.44455698466E+02  0.00000000000E+00 0.  1.
         25    2    1    2    0    0  0.36719362238E+02 -0.81531942708E+02  0.25078891605E+03  0.29417350994E+03  0.12508878562E+03 0.  0.
          5    1    3    3  502    0 -0.34366847354E+02 -0.83286813267E+01  0.17850332204E+02  0.39831569006E+02  0.41800000000E+01 0.  1.
         -5    1    3    3    0  502  0.71086209592E+02 -0.73203261381E+02  0.23293858385E+03  0.25434194093E+03  0.41800000000E+01 0.  1.
        -11    1    1    2    0    0  0.16703562328E+02 -0.62236213977E+01 -0.11530106082E+01  0.17862583553E+02  0.00000000000E+00 0.  1.
         11    1    1    2    0    0 -0.53422924566E+02  0.87755564106E+02  0.18581204174E+03  0.21232325062E+03  0.00000000000E+00 0. -1.
</event>
<event>
 7    1  0.2733606E-009  0.1329778E+03  0.7561462E-02  0.1223103E+00
          1   -1    0    0  501    0  0.00000000000E+00  0.00000000000E+00  0.79918900990E+03  0.79918900990E+03  0.00000000000E+00 0.  1.
         -1   -1    0    0    0  501 -0.00000000000E+00 -0.00000000000E+00 -0.61096897391E+02  0.61096897391E+02  0.00000000000E+00 0. -1.
         25    2    1    2    0    0  0.61457762975E+02 -0.10429090347E+03  0.67482540214E+03  0.69691432710E+03  0.12508639719E+03 0.  0.
          5    1    3    3  502    0  0.14572079283E+02 -0.49597977913E+02  0.66542999421E+02  0.84366747476E+02  0.41800000000E+01 0. -1.
         -5    1    3    3    0  502  0.46885683691E+02 -0.54692925554E+02  0.60828240272E+03  0.61254757963E+03  0.41800000000E+01 0. -1.
        -11    1    1    2    0    0  0.17242930514E+02  0.14462906143E+02  0.33385767461E+02  0.40262933025E+02  0.00000000000E+00 0.  1.
         11    1    1    2    0    0 -0.78700693488E+02  0.89827997324E+02  0.29880942907E+02  0.12310864717E+03  0.00000000000E+00 0. -1.
</event>
<event>
 7    1  0.2733606E-009  0.1079922E+03  0.7561462E-02  0.1264334E+00
         -2   -1    0    0    0  501 -0.00000000000E+00  0.00000000000E+00  0.28712529211E+03  0.28712529211E+03  0.00000000000E+00 0.  1.
          2   -1    0    0  501    0  0.00000000000E+00 -0.00000000000E+00 -0.58982266761E+02  0.58982266761E+02  0.00000000000E+00 0. -1.
         25    2    1    2    0    0 -0.53076406554E+02 -0.21042616309E+02  0.17662221665E+03  0.22383654010E+03  0.12508993819E+03 0.  0.
          5    1    3    3  502    0  0.10042586985E+02  0.41006887300E+02  0.28090323267E+02  0.50881794589E+02  0.41800000000E+01 0.  1.
         -5    1    3    3    0  502 -0.63118993540E+02 -0.62049503609E+02  0.14853189338E+03  0.17295474551E+03  0.41800000000E+01 0.  1.
        -11    1    1    2    0    0 -0.12337155938E+02  0.14757391133E+02 -0.18186576276E+02  0.26471448135E+02  0.00000000000E+00 0. -1.
         11    1    1    2    0    0  0.65413562492E+02  0.62852251760E+01  0.69707384972E+02  0.95799570631E+02  0.00000000000E+00 0.  1.
</event>
<event>
 7    1  0.2733606E-009  0.1280735E+03  0.7561462E-02  0.1230343E+00
         -1   -1    0    0    0  501 -0.00000000000E+00  0.00000000000E+00  0.17278507158E+03  0.17278507158E+03  0.00000000000E+00 0.  1.
          1   -1    0    0  501    0  0.00000000000E+00 -0.00000000000E+00 -0.16468696893E+03  0.16468696893E+03  0.00000000000E+00 0. -1.
         25    2    1    2    0    0 -0.49113611873E+01  0.11880838125E+03  0.63678422525E+02  0.18396149880E+03  0.12508932258E+03 0.  0.
          5    1    3    3  502    0 -0.19750175545E+02  0.98108911126E+02 -0.14887647301E+02  0.10126471408E+03  0.41800000000E+01 0. -1.
         -5    1    3    3    0  502  0.14838814358E+02  0.20699470124E+02  0.78566069825E+02  0.82696784718E+02  0.41800000000E+01 0. -1.
        -11    1    1    2    0    0 -0.21346819544E+02 -0.25577491763E+02 -0.45123761929E+02  0.56089648601E+02  0.00000000000E+00 0.  1.
         11    1    1    2    0    0  0.26258180732E+02 -0.93230889486E+02 -0.10456557948E+02  0.97420893108E+02  0.00000000000E+00 0. -1.
</event>
<event>
 7    1  0.2733606E-009  0.1408849E+03  0.7561462E-02  0.1212143E+00
          2   -1    0    0  501    0  0.00000000000E+00  0.00000000000E+00  0.55782173948E+03  0.55782173948E+03  0.00000000000E+00 0. -1.
         -2   -1    0    0    0  501 -0.00000000000E+00 -0.00000000000E+00 -0.49340329261E+02  0.49340329261E+02  0.00000000000E+00 0.  1.
         25    2    1    2    0    0  0.97728084090E+02  0.36634000990E+02  0.40290523735E+03  0.43459529965E+03  0.12509043025E+03 0.  0.
          5    1    3    3  502    0  0.78163758403E+02  0.72399568365E+02  0.35916211137E+03  0.37465472808E+03  0.41800000000E+01 0.  1.
         -5    1    3    3    0  502  0.19564325686E+02 -0.35765567375E+02  0.43743125987E+02  0.59940571571E+02  0.41800000000E+01 0.  1.
        -11    1    1    2    0    0 -0.56162417963E+02  0.23651048651E+02  0.32282370500E+02  0.68961878881E+02  0.00000000000E+00 0.  1.
         11    1    1    2    0    0 -0.41565666127E+02 -0.60285049641E+02  0.73293802361E+02  0.10360489021E+03  0.00000000000E+00 0. -1.
</event>
<event>
 7    1  0.2733606E-009  0.1396800E+03  0.7561462E-02  0.1213760E+00
         -1   -1    0    0    0  501 -0.00000000000E+00  0.00000000000E+00  0.32024090566E+02  0.32024090566E+02  0.00000000000E+00 0.  1.
          1   -1    0    0  501    0  0.00000000000E+00 -0.00000000000E+00 -0.63971095296E+03  0.63971095296E+03  0.00000000000E+00 0. -1.
         25    2    1    2    0    0 -0.85857450622E+01  0.91895553882E+02 -0.33500529119E+03  0.36931726284E+03  0.12509271629E+03 0.  0.
          5    1    3    3  502    0 -0.47750804382E+02  0.97994673048E+02 -0.19163257987E+03  0.22050762647E+03  0.41800000000E+01 0.  1.
         -5    1    3    3    0  502  0.39165059320E+02 -0.60991191656E+01 -0.14337271132E+03  0.14880963637E+03  0.41800000000E+01 0.  1.
        -11    1    1    2    0    0 -0.32206828984E+02 -0.82484630026E+02 -0.17443088377E+03  0.19561985389E+03  0.00000000000E+00 0.  1.
         11    1    1    2    0    0  0.40792574046E+02 -0.94109238563E+01 -0.98250687442E+02  0.10679792680E+03  0.00000000000E+00 0. -1.
</event>
<event>
 7    1  0.2733606E-009  0.1087795E+03  0.7561462E-02  0.1262847E+00
         -2   -1    0    0    0  501 -0.00000000000E+00  0.00000000000E+00  0.20747845693E+02  0.20747845693E+02  0.00000000000E+00 0.  1.
          2   -1    0    0  501    0  0.00000000000E+00 -0.00000000000E+00 -0.68860354742E+03  0.68860354742E+03  0.00000000000E+00 0. -1.
         25    2    1    2    0    0 -0.21539582219E+02  0.72542026333E+01 -0.50440004119E+03  0.52017610468E+03  0.12508877353E+03 0.  0.
          5    1    3    3  502    0  0.51763761192E+02 -0.61427026929E+01 -0.19331878887E+03  0.20026693761E+03  0.41800000000E+01 0.  1.
         -5    1    3    3    0  502 -0.73303343411E+02  0.13396905326E+02 -0.31108125232E+03  0.31990916706E+03  0.41800000000E+01 0.  1.
        -11    1    1    2    0    0 -0.19709941464E+02 -0.35522260779E+02 -0.45152826054E+02  0.60737883598E+02  0.00000000000E+00 0.  1.
         11    1    1    2    0    0  0.41249523682E+02  0.28268058145E+02 -0.11830283449E+03  0.12843740484E+03  0.00000000000E+00 0. -1.
</event>
<event>
 7    1  0.2733606E-009  0.1233300E+03  0.7561462E-02  0.1237703E+00
          1   -1    0    0  501    0  0.00000000000E+00  0.00000000000E+00  0.51076333555E+03  0.51076333555E+03  0.00000000000E+00 0.  1.
         -1   -1    0    0    0  501 -0.00000000000E+00 -0.00000000000E+00 -0.32927499471E+02  0.32927499471E+02  0.00000000000E+00 0. -1.
         25    2    1    2    0    0  0.13946072602E+02  0.65173981201E+02  0.19453051547E+03  0.24068883657E+03  0.12508738478E+03 0.  0.
          5    1    3    3  502    0  0.44695884459E+02  0.89660115074E+02  0.12046995071E+03  0.15673908175E+03  0.41800000000E+01 0.  1.
         -5    1    3    3    0  502 -0.30749811857E+02 -0.24486133873E+02  0.74060564764E+02  0.83949754821E+02  0.41800000000E+01 0.  1.
        -11    1    1    2    0    0 -0.46600863232E+02 -0.19044547088E+02  0.14955942862E+03  0.15780480955E+03  0.00000000000E+00 0.  1.
         11    1    1    2    0    0  0.32654790631E+02 -0.46129434113E+02  0.13374589199E+03  0.14519718891E+03  0.00000000000E+00 0. -1.
</event>
<event>
 7    1  0.2733606E-009  0.2049746E+03  0.7561462E-02  0.1145609E+00
         -2   -1    0    0    0  501 -0.00000000000E+00  0.00000000000E+00  0.30158203637E+03  0.30158203637E+03  0.00000000000E+00 0. -1.
          2   -1    0    0  501    0  0.00000000000E+00 -0.00000000000E+00 -0.16754860426E+03  0.16754860426E+03  0.00000000000E+00 0.  1.
         25    2    1    2    0    0  0.18589670464E+03  0.33898451116E+02  0.12600073452E+03  0.25928865589E+03  0.12509089571E+03 0.  0.
          5    1    3    3  502    0  0.18984263519E+03  0.44034094309E+01  0.12820416708E+03  0.22915801755E+03  0.41800000000E+01 0.  1.
         -5    1    3    3    0  502 -0.39459305466E+01  0.29495041685E+02 -0.22034325613E+01  0.30130638342E+02  0.41800000000E+01 0.  1.
        -11    1    1    2    0    0 -0.51501263477E+02 -0.18327252061E+02 -0.38396725337E+02  0.66802521093E+02  0.00000000000E+00 0.  1.
         11    1    1    2    0    0 -0.13439544117E+03 -0.15571199055E+02  0.46429422926E+02  0.14303946364E+03  0.00000000000E+00 0. -1.
</event>
<event>
 7    1  0.2868435E-009  0.1689187E+03  0.7561462E-02  0.1178980E+00
          1   -1    0    0  501    0  0.00000000000E+00  0.00000000000E+00  0.60684908548E+03  0.60684908548E+03  0.00000000000E+00 0. -1.
         -1   -1    0    0    0  501 -0.00000000000E+00 -0.00000000000E+00 -0.56384721886E+02  0.56384721886E+02  0.00000000000E+00 0.  1.
         25    2    1    2    0    0  0.11304241917E+03  0.92373221072E+02  0.34722255895E+03  0.39688986734E+03  0.12508661340E+03 0.  0.
          5    1    3    3  502    0 -0.11615261152E+02  0.62158346467E+02  0.10115580988E+03  0.11936726770E+03  0.41800000000E+01 0.  1.
         -5    1    3    3    0  502  0.12465768032E+03  0.30214874605E+02  0.24606674907E+03  0.27752259964E+03  0.41800000000E+01 0.  1.
        -11    1    1    2    0    0 -0.39195087468E+02 -0.28069256874E+02  0.14409678425E+03  0.15194742938E+03  0.00000000000E+00 0. -1.
         11    1    1    2    0    0 -0.73847331702E+02 -0.64303964199E+02  0.59145020398E+02  0.11439651065E+03  0.00000000000E+00 0.  1.
</event>
<event>
 7    1  0.2733606E-009  0.1823318E+03  0.7561462E-02  0.1165565E+00
          1   -1    0    0  501    0  0.00000000000E+00  0.00000000000E+00  0.12837211912E+04  0.12837211912E+04  0.00000000000E+00 0. -1.
         -1   -1    0    0    0  501 -0.00000000000E+00 -0.00000000000E+00 -0.39486645434E+02  0.39486645434E+02  0.00000000000E+00 0.  1.
         25    2    1    2    0    0  0.19767653499E+01  0.15604427383E+03  0.99356047073E+03  0.10134908610E+04  0.12509034059E+03 0.  0.
          5    1    3    3  502    0  0.59374597340E+02  0.10407577363E+03  0.67972933001E+03  0.69022209755E+03  0.41800000000E+01 0.  1.
         -5    1    3    3    0  502 -0.57397831990E+02  0.51968500209E+02  0.31383114072E+03  0.32326876344E+03  0.41800000000E+01 0.  1.
        -11    1    1    2    0    0 -0.14670912741E+02 -0.47772849020E+01  0.79271803520E+02  0.80759376948E+02  0.00000000000E+00 0. -1.
         11    1    1    2    0    0  0.12694147391E+02 -0.15126698893E+03  0.17140227150E+03  0.22895759868E+03  0.00000000000E+00 0.  1.
</event>
<event>
 7    1  0.2733606E-009  0.1749925E+03  0.7561462E-02  0.1172739E+00
          2   -1    0    0  501    0  0.00000000000E+00  0.00000000000E+00  0.23307435229E+03  0.23307435229E+03  0.00000000000E+00 0. -1.
         -2   -1    0    0    0  501 -0.00000000000E+00 -0.00000000000E+00 -0.18689287759E+03  0.18689287759E+03  0.00000000000E+00 0.  1.
         25    2    1    2    0    0  0.15997275139E+03  0.30050573864E+02  0.96525963907E+02  0.22684563640E+03  0.12508941950E+03 0.  0.
          5    1    3    3  502    0  0.67398885226E+01  0.17406571150E+02  0.67708921546E+02  0.70358974363E+02  0.41800000000E+01 0. -1.
         -5    1    3    3    0  502  0.15323286287E+03  0.12644002714E+02  0.28817042361E+02  0.15648666204E+03  0.41800000000E+01 0. -1.
        -11    1    1    2    0    0 -0.15814104216E+03 -0.11665878607E+02 -0.23160292475E+02  0.16025317808E+03  0.00000000000E+00 0. -1.
         11    1    1    2    0    0 -0.18317092307E+01 -0.18384695258E+02 -0.27184196727E+02  0.32868415388E+02  0.00000000000E+00 0.  1.
</event>
<event>
 7    1  0.2733606E-009  0.1467504E+03  0.7561462E-02  0.1204524E+00
          1   -1    0    0  501    0  0.00000000000E+00  0.00000000000E+00  0.22165440184E+03  0.22165440184E+03  0.00000000000E+00 0. -1.
         -1   -1    0    0    0  501 -0.00000000000E+00 -0.00000000000E+00 -0.14043549890E+03  0.14043549890E+03  0.00000000000E+00 0.  1.
         25    2    1    2    0    0 -0.38452621166E-01  0.12481812654E+03  0.97872996166E+02  0.20200594524E+03  0.12509081638E+03 0.  0.
          5    1    3    3  502    0 -0.54526110210E+02  0.65336934727E+02  0.15430414504E+02  0.86588577918E+02  0.41800000000E+01 0. -1.
         -5    1    3    3    0  502  0.54487657588E+02  0.59481191811E+02  0.82442581662E+02  0.11541736732E+03  0.41800000000E+01 0. -1.
        -11    1    1    2    0    0  0.11834623711E+02 -0.35264923519E+02 -0.51277533478E+02  0.63348706291E+02  0.00000000000E+00 0.  1.
         11    1    1    2    0    0 -0.11796171090E+02 -0.89553203020E+02  0.34623440254E+02  0.96735249204E+02  0.00000000000E+00 0. -1.
</event>
<event>
 7    1  0.2733606E-009  0.1285587E+03  0.7561462E-02  0.1229610E+00
         -1   -1    0    0    0  501 -0.00000000000E+00  0.00000000000E+00  0.69113847830E+03  0.69113847830E+03  0.00000000000E+00 0.  1.
          1   -1    0    0  501    0  0.00000000000E+00 -0.00000000000E+00 -0.36234332967E+02  0.36234332967E+02  0.00000000000E+00 0. -1.
         25    2    1    2    0    0  0.10852343857E+03  0.11521315273E+02  0.27115263274E+03  0.31793279175E+03  0.12508969743E+03 0.  0.
          5    1    3    3  502    0  0.13496637338E+02 -0.37982599101E+02  0.20733169362E+02  0.45521135373E+02  0.41800000000E+01 0.  1.
         -5    1    3    3    0  502  0.95026801236E+02  0.49503914373E+02  0.25041946338E+03  0.27241165637E+03  0.41800000000E+01 0.  1.
        -11    1    1    2    0    0 -0.33764891882E+02 -0.68885722196E+01  0.24050434753E+02  0.42023133663E+02  0.00000000000E+00 0. -1.
         11    1    1    2    0    0 -0.74758546692E+02 -0.46327430532E+01  0.35970107785E+03  0.36741688586E+03  0.00000000000E+00 0.  1.
</event>
<event>
 7    1  0.2733606E-009  0.1111717E+03  0.7561462E-02  0.1258415E+00
         -2   -1    0    0    0  501 -0.00000000000E+00  0.00000000000E+00  0.14471489430E+03  0.14471489430E+03  0.00000000000E+00 0.  1.
          2   -1    0    0  501    0  0.00000000000E+00 -0.00000000000E+00 -0.13490164411E+03  0.13490164411E+03  0.00000000000E+00 0. -1.
         25    2    1    2    0    0  0.72460692694E+01 -0.40267938475E+02 -0.71931688341E+02  0.14998685271E+03  0.12509146977E+03 0.  0.
          5    1    3    3  502    0  0.60173879640E+02 -0.82850183330E+01 -0.88057843151E+01  0.61518709001E+02  0.41800000000E+01 0.  1.
         -5    1    3    3    0  502 -0.52927810371E+02 -0.31982920142E+02 -0.63125904026E+02  0.88468143704E+02  0.41800000000E+01 0.  1.
        -11    1    1    2    0    0  0.25943965950E+02 -0.18582264457E+02  0.35608786419E+02  0.47816059978E+02  0.00000000000E+00 0.  1.
         11    1    1    2    0    0 -0.33190035220E+02  0.58850202932E+02  0.46136152117E+02  0.81813625730E+02  0.00000000000E+00 0. -1.
</event>
<event>
 7    1  0.2733606E-009  0.1514718E+03  0.7561462E-02  0.1198676E+00
         -1   -1    0    0    0  501 -0.00000000000E+00  0.00000000000E+00  0.35132116235E+02  0.35132116235E+02  0.00000000000E+00 0.  1.
          1   -1    0    0  501    0  0.00000000000E+00 -0.00000000000E+00 -0.12129319600E+04  0.12129319600E+04  0.00000000000E+00 0. -1.
         25    2    1    2    0    0  0.12740956461E+03  0.70070411351E+01 -0.97985154026E+03  0.99601195799E+03  0.12509389970E+03 0.  0.
          5    1    3    3  502    0 -0.22479394959E+02 -0.86267460321E+01 -0.21966807875E+03  0.22102325933E+03  0.41800000000E+01 0. -1.
         -5    1    3    3    0  502  0.14988895957E+03  0.15633787167E+02 -0.76018346151E+03  0.77498869866E+03  0.41800000000E+01 0. -1.
        -11    1    1    2    0    0 -0.57753439679E+02 -0.61944162376E+01 -0.20795285203E+02  0.61695011743E+02  0.00000000000E+00 0.  1.
         11    1    1    2    0    0 -0.69656124932E+02 -0.81262489752E+00 -0.17715301831E+03  0.19035710650E+03  0.00000000000E+00 0. -1.
</event>
<event>
 7    1  0.2733606E-009  0.3242572E+03  0.7561462E-02  0.1073707E+00
          2   -1    0    0  501    0  0.00000000000E+00  0.00000000000E+00  0.39048187860E+03  0.39048187860E+03  0.00000000000E+00 0. -1.
         -2   -1    0    0    0  501 -0.00000000000E+00 -0.00000000000E+00 -0.27996867568E+03  0.27996867568E+03  0.00000000000E+00 0.  1.
         25    2    1    2    0    0  0.23893906444E+03  0.19200480223E+03  0.11509034308E+03  0.35049996173E+03  0.12508683186E+03 0.  0.
          5    1    3    3  502    0  0.22370682960E+03  0.20848559861E+03  0.11733808302E+03  0.32756173245E+03  0.41800000000E+01 0. -1.
         -5    1    3    3    0  502  0.15232234838E+02 -0.16480796379E+02 -0.22477399416E+01  0.22938229276E+02  0.41800000000E+01 0. -1.
        -11    1    1    2    0    0 -0.44236728711E+02 -0.89476307571E+02 -0.41924824422E+01  0.99902325762E+02  0.00000000000E+00 0.  1.
         11    1    1    2    0    0 -0.19470233573E+03 -0.10252849466E+03 -0.38465772304E+00  0.22004826679E+03  0.00000000000E+00 0. -1.
</event>
<event>
 7    1  0.2733606E-009  0.1811736E+03  0.7561462E-02  0.1166672E+00
          3   -1    0    0  501    0  0.00000000000E+00  0.00000000000E+00  0.34835556294E+03  0.34835556294E+03  0.00000000000E+00 0. -1.
         -3   -1    0    0    0  501 -0.00000000000E+00 -0.00000000000E+00 -0.11863950793E+03  0.11863950793E+03  0.00000000000E+00 0.  1.
         25    2    1    2    0    0 -0.13676283136E+03  0.96781530418E+02  0.77763038048E+02  0.22308339778E+03  0.12509346748E+03 0.  0.
          5    1    3    3  502    0 -0.88900452624E+02  0.15104845351E+02 -0.13792904544E+02  0.91319020174E+02  0.41800000000E+01 0.  1.
         -5    1    3    3    0  502 -0.47862378734E+02  0.81676685067E+02  0.91555942592E+02  0.13176437760E+03  0.41800000000E+01 0.  1.
        -11    1    1    2    0    0  0.44129568604E+02 -0.66593566898E+02  0.24649777372E+02  0.83604626079E+02  0.00000000000E+00 0.  1.
         11    1    1    2    0    0  0.92633262753E+02 -0.30187963520E+02  0.12730323960E+03  0.16030704701E+03  0.00000000000E+00 0. -1.
</event>
<event>
 7    1  0.2733606E-009  0.1152120E+03  0.7561462E-02  0.1251211E+00
         -2   -1    0    0    0  501 -0.00000000000E+00  0.00000000000E+00  0.50590905661E+02  0.50590905661E+02  0.00000000000E+00 0.  1.
          2   -1    0    0  501    0  0.00000000000E+00 -0.00000000000E+00 -0.56563744434E+03  0.56563744434E+03  0.00000000000E+00 0. -1.
         25    2    1    2    0    0  0.20190804889E+02  0.55239238791E+02 -0.48324794287E+03  0.50262632293E+03  0.12508238930E+03 0.  0.
          5    1    3    3  502    0  0.63277525066E+02  0.21990277081E+02 -0.37955653121E+03  0.38544552176E+03  0.41800000000E+01 0. -1.
         -5    1    3    3    0  502 -0.43086720177E+02  0.33248961710E+02 -0.10369141166E+03  0.11718080117E+03  0.41800000000E+01 0. -1.
        -11    1    1    2    0    0 -0.54640924214E+02 -0.16940363906E+02 -0.21208209704E+02  0.61011430791E+02  0.00000000000E+00 0. -1.
         11    1    1    2    0    0  0.34450119326E+02 -0.38298874886E+02 -0.10590386106E+02  0.52590596279E+02  0.00000000000E+00 0.  1.
</event>
<event>
 7    1  0.2733606E-009  0.9618892E+02  0.7561462E-02  0.1288521E+00
         -2   -1    0    0    0  501 -0.00000000000E+00  0.00000000000E+00  0.21897086448E+03  0.21897086448E+03  0.00000000000E+00 0.  1.
          2   -1    0    0  501    0  0.00000000000E+00 -0.00000000000E+00 -0.62825110013E+02  0.62825110013E+02  0.00000000000E+00 0. -1.
         25    2    1    2    0    0 -0.73106364023E+01 -0.19042101586E+02  0.40049851747E+02  0.13291625835E+03  0.12508674619E+03 0.  0.
          5    1    3    3  502    0  0.43593963929E+02  0.22194094552E+01 -0.22603040396E+02  0.49332842048E+02  0.41800000000E+01 0.  1.
         -5    1    3    3    0  502 -0.50904600332E+02 -0.21261511041E+02  0.62652892143E+02  0.83583416301E+02  0.41800000000E+01 0.  1.
        -11    1    1    2    0    0 -0.31156216915E+02  0.38959793036E+02  0.61922964550E+02  0.79517475214E+02  0.00000000000E+00 0.  1.
         11    1    1    2    0    0  0.38466853317E+02 -0.19917691450E+02  0.54172938176E+02  0.69362240934E+02  0.00000000000E+00 0. -1.
</event>
<event>
 7    1  0.2733606E-009  0.1145655E+03  0.7561462E-02  0.1252341E+00
         -1   -1    0    0    0  501 -0.00000000000E+00  0.00000000000E+00  0.95810159644E+02  0.95810159644E+02  0.00000000000E+00 0.  1.
          1   -1    0    0  501    0  0.00000000000E+00 -0.00000000000E+00 -0.24812009796E+03  0.24812009796E+03  0.00000000000E+00 0. -1.
         25    2    1    2    0    0  0.42584951532E+02  0.87714937773E+02 -0.13901200567E+03  0.21090212044E+03  0.12509187935E+03 0.  0.
          5    1    3    3  502    0 -0.16242669250E+02  0.52020667277E+01  0.17247160861E+02  0.24613467053E+02  0.41800000000E+01 0. -1.
         -5    1    3    3    0  502  0.58827620782E+02  0.82512871046E+02 -0.15625916654E+03  0.18628865339E+03  0.41800000000E+01 0. -1.
        -11    1    1    2    0    0 -0.35485059286E+02 -0.17482414090E+02  0.30503082734E+02  0.49952600445E+02  0.00000000000E+00 0.  1.
         11    1    1    2    0    0 -0.70998922466E+01 -0.70232523684E+02 -0.43801015376E+02  0.83075536717E+02  0.00000000000E+00 0. -1.
</event>
<event>
 7    1  0.2733606E-009  0.1429484E+03  0.7561462E-02  0.1209416E+00
         -1   -1    0    0    0  501 -0.00000000000E+00  0.00000000000E+00  0.42039627324E+02  0.42039627324E+02  0.00000000000E+00 0.  1.
          1   -1    0    0  501    0  0.00000000000E+00 -0.00000000000E+00 -0.58958072616E+03  0.58958072616E+03  0.00000000000E+00 0. -1.
         25    2    1    2    0    0 -0.78341126453E+01  0.10822751422E+03 -0.36015267779E+03  0.39639479247E+03  0.12507722423E+03 0.  0.
          5    1    3    3  502    0 -0.55350876684E+02  0.12196847897E+02 -0.10018492617E+03  0.11518235316E+03  0.41800000000E+01 0.  1.
         -5    1    3    3    0  502  0.47516764038E+02  0.96030666318E+02 -0.25996775162E+03  0.28121243930E+03  0.41800000000E+01 0.  1.
        -11    1    1    2    0    0 -0.18566647223E+02 -0.12122444001E+02 -0.10076878259E+03  0.10317955991E+03  0.00000000000E+00 0. -1.
         11    1    1    2    0    0  0.26400759868E+02 -0.96105070215E+02 -0.86619638451E+02  0.13204600111E+03  0.00000000000E+00 0.  1.
</event>
<event>
 7    1  0.2733606E-009  0.1201922E+03  0.7561462E-02  0.1242780E+00
         -1   -1    0    0    0  501 -0.00000000000E+00  0.00000000000E+00  0.56819342863E+02  0.56819342863E+02  0.00000000000E+00 0.  1.
          1   -1    0    0  501    0  0.00000000000E+00 -0.00000000000E+00 -0.27077652726E+03  0.27077652726E+03  0.00000000000E+00 0. -1.
         25    2    1    2    0    0  0.15489148679E+02  0.53891132591E+02 -0.14849533183E+03  0.20209488752E+03  0.12508921651E+03 0.  0.
          5    1    3    3  502    0  0.29644056846E+02  0.91497391932E+02 -0.97263897138E+02  0.13685130954E+03  0.41800000000E+01 0.  1.
         -5    1    3    3    0  502 -0.14154908168E+02 -0.37606259341E+02 -0.51231434693E+02  0.65243577979E+02  0.41800000000E+01 0.  1.
        -11    1    1    2    0    0 -0.51545868825E+02 -0.23906415549E+02 -0.51200265244E+02  0.76485034211E+02  0.00000000000E+00 0. -1.
         11    1    1    2    0    0  0.36056720146E+02 -0.29984717042E+02 -0.14261587322E+02  0.49015948392E+02  0.00000000000E+00 0.  1.
</event>
<event>
 7    1  0.2733606E-009  0.1020979E+03  0.7561462E-02  0.1275945E+00
         -1   -1    0    0    0  501 -0.00000000000E+00  0.00000000000E+00  0.13850443643E+02  0.13850443643E+02  0.00000000000E+00 0.  1.
          1   -1    0    0  501    0  0.00000000000E+00 -0.00000000000E+00 -0.10620009982E+04  0.10620009982E+04  0.00000000000E+00 0. -1.
         25    2    1    2    0    0  0.22510333980E+02  0.15338864883E+02 -0.79282101673E+03  0.80309032940E+03  0.12508763606E+03 0.  0.
          5    1    3    3  502    0  0.52272199426E+02  0.42917414945E+02 -0.67530937891E+03  0.67870060923E+03  0.41800000000E+01 0. -1.
         -5    1    3    3    0  502 -0.29761865446E+02 -0.27578550062E+02 -0.11751163783E+03  0.12438972017E+03  0.41800000000E+01 0. -1.
        -11    1    1    2    0    0 -0.58453910666E+02 -0.88959577839E+01 -0.16815700773E+03  0.17824919912E+03  0.00000000000E+00 0. -1.
         11    1    1    2    0    0  0.35943576686E+02 -0.64429070992E+01 -0.87172530072E+02  0.94511913302E+02  0.00000000000E+00 0.  1.
</event>
<event>
 7    1  0.2733606E-009  0.1251560E+03  0.7561462E-02  0.1234826E+00
         -2   -1    0    0    0  501 -0.00000000000E+00  0.00000000000E+00  0.83672346230E+02  0.83672346230E+02  0.00000000000E+00 0.  1.
          2   -1    0    0  501    0  0.00000000000E+00 -0.00000000000E+00 -0.21885880835E+03  0.21885880835E+03  0.00000000000E+00 0. -1.
         25    2    1    2    0    0  0.10594957902E+02  0.69498501146E+02 -0.31486792464E+02  0.14690664321E+03  0.12509136231E+03 0.  0.
          5    1    3    3  502    0 -0.20176505972E+02 -0.26449690034E+02  0.13925422398E+02  0.36305196392E+02  0.41800000000E+01 0. -1.
         -5    1    3    3    0  502  0.30771463874E+02  0.95948191180E+02 -0.45412214862E+02  0.11060144682E+03  0.41800000000E+01 0. -1.
        -11    1    1    2    0    0 -0.51248835610E+02 -0.46646496892E+02 -0.65213815038E+02  0.95158712136E+02  0.00000000000E+00 0.  1.
         11    1    1    2    0    0  0.40653877708E+02 -0.22852004254E+02 -0.38485854616E+02  0.60465799231E+02  0.00000000000E+00 0. -1.
</event>
<event>
 7    1  0.2733606E-009  0.1202462E+03  0.7561462E-02  0.1242692E+00
          1   -1    0    0  501    0  0.00000000000E+00  0.00000000000E+00  0.22907725442E+03  0.22907725442E+03  0.00000000000E+00 0. -1.
         -1   -1    0    0    0  501 -0.00000000000E+00 -0.00000000000E+00 -0.10445525005E+03  0.10445525005E+03  0.00000000000E+00 0.  1.
         25    2    1    2    0    0 -0.62908531988E+02 -0.53921774362E+02 -0.67487106386E+01  0.15019511074E+03  0.12509190640E+03 0.  0.
          5    1    3    3  502    0 -0.97624682599E+02 -0.25907906288E+02  0.11650768286E+02  0.10175957479E+03  0.41800000000E+01 0.  1.
         -5    1    3    3    0  502  0.34716150610E+02 -0.28013868074E+02 -0.18399478925E+02  0.48435535946E+02  0.41800000000E+01 0.  1.
        -11    1    1    2    0    0 -0.67494439386E+01  0.10600772662E+02 -0.12499397302E+02  0.17724737161E+02  0.00000000000E+00 0.  1.
         11    1    1    2    0    0  0.69657975927E+02  0.43321001700E+02  0.14387011231E+03  0.16561265657E+03  0.00000000000E+00 0. -1.
</event>
<event>
 7    1  0.2733606E-009  0.1046049E+03  0.7561462E-02  0.1270900E+00
          1   -1    0    0  501    0  0.00000000000E+00  0.00000000000E+00  0.58716698314E+03  0.58716698314E+03  0.00000000000E+00 0. -1.
         -1   -1    0    0    0  501 -0.00000000000E+00 -0.00000000000E+00 -0.45527005992E+02  0.45527005992E+02  0.00000000000E+00 0.  1.
         25    2    1    2    0    0  0.96351224786E+01 -0.61139254898E+02  0.48876066607E+03  0.50829685386E+03  0.12509140209E+03 0.  0.
          5    1    3    3  502    0  0.15783112512E+02 -0.86073201413E+02  0.46460842716E+03  0.47279611423E+03  0.41800000000E+01 0.  1.
         -5    1    3    3    0  502 -0.61479900332E+01  0.24933946515E+02  0.24152238907E+02  0.35500739633E+02  0.41800000000E+01 0.  1.
        -11    1    1    2    0    0 -0.39372914230E+02  0.50421086131E+02  0.14007869967E+01  0.63988080967E+02  0.00000000000E+00 0.  1.
         11    1    1    2    0    0  0.29737791752E+02  0.10718168768E+02  0.51478524082E+02  0.60409054302E+02  0.00000000000E+00 0. -1.
</event>
<event>
 7    1  0.2733606E-009  0.8912943E+02  0.7561462E-02  0.1304974E+00
         -2   -1    0    0    0  501 -0.00000000000E+00  0.00000000000E+00  0.20212129532E+03  0.20212129532E+03  0.00000000000E+00 0.  1.
          2   -1    0    0  501    0  0.00000000000E+00 -0.00000000000E+00 -0.67367109388E+02  0.67367109388E+02  0.00000000000E+00 0. -1.
         25    2    1    2    0    0  0.18920835907E+02  0.35696039902E+01  0.32353947690E+02  0.13063141293E+03  0.12508816095E+03 0.  0.
          5    1    3    3  502    0  0.57933538159E+02  0.16721395319E+02 -0.20210534751E+02  0.63732550710E+02  0.41800000000E+01 0.  1.
         -5    1    3    3    0  502 -0.39012702252E+02 -0.13151791329E+02  0.52564482441E+02  0.66898862221E+02  0.41800000000E+01 0.  1.
        -11    1    1    2    0    0 -0.24851862644E+02 -0.35845514550E+02  0.95969364542E+02  0.10541648316E+03  0.00000000000E+00 0.  1.
         11    1    1    2    0    0  0.59310267364E+01  0.32275910559E+02  0.64308737033E+01  0.33440508626E+02  0.00000000000E+00 0. -1.
</event>
<event>
 7    1  0.2733606E-009  0.2031792E+03  0.7561462E-02  0.1147084E+00
         -3   -1    0    0    0  501 -0.00000000000E+00  0.00000000000E+00  0.12455372609E+03  0.12455372609E+03  0.00000000000E+00 0.  1.
          3   -1    0    0  501    0  0.00000000000E+00 -0.00000000000E+00 -0.43700009945E+03  0.43700009945E+03  0.00000000000E+00 0. -1.
         25    2    1    2    0    0 -0.17852649866E+03  0.31200729382E+02 -0.28432356393E+03  0.35962933964E+03  0.12509267238E+03 0.  0.
          5    1    3    3  502    0 -0.18584675753E+03  0.51885010808E+02 -0.27368005411E+03  0.33488701983E+03  0.41800000000E+01 0.  1.
         -5    1    3    3    0  502  0.73202588751E+01 -0.20684281425E+02 -0.10643509822E+02  0.24742319807E+02  0.41800000000E+01 0.  1.
        -11    1    1    2    0    0  0.85190806287E+02  0.15606702361E+02  0.16856285852E+02  0.88233650084E+02  0.00000000000E+00 0.  1.
         11    1    1    2    0    0  0.93335692372E+02 -0.46807431744E+02 -0.44979095274E+02  0.11369083582E+03  0.00000000000E+00 0. -1.
</event>
<event>
 7    1  0.2733606E-009  0.1058962E+03  0.7561462E-02  0.1268364E+00
         -2   -1    0    0    0  501 -0.00000000000E+00  0.00000000000E+00  0.26297440073E+02  0.26297440073E+02  0.00000000000E+00 0.  1.
          2   -1    0    0  501    0  0.00000000000E+00 -0.00000000000E+00 -0.54813007429E+03  0.54813007429E+03  0.00000000000E+00 0. -1.
         25    2    1    2    0    0  0.34220155227E+02 -0.36262089738E+02 -0.33225010946E+03  0.35850192243E+03  0.12509010741E+03 0.  0.
          5    1    3    3  502    0  0.14550941280E+02 -0.68699255880E+02 -0.95048789005E+02  0.11824999933E+03  0.41800000000E+01 0. -1.
         -5    1    3    3    0  502  0.19669213946E+02  0.32437166142E+02 -0.23720132046E+03  0.24025192310E+03  0.41800000000E+01 0. -1.
        -11    1    1    2    0    0 -0.12843062408E+02  0.65675426269E+02 -0.12672344791E+03  0.14330749498E+03  0.00000000000E+00 0.  1.
         11    1    1    2    0    0 -0.21377092819E+02 -0.29413336531E+02 -0.62859076838E+02  0.72618096947E+02  0.00000000000E+00 0. -1.
</event>
<event>
 7    1  0.2733606E-009  0.1933635E+03  0.7561462E-02  0.1155462E+00
          2   -1    0    0  501    0  0.00000000000E+00  0.00000000000E+00  0.11211988279E+04  0.11211988279E+04  0.00000000000E+00 0. -1.
         -2   -1    0    0    0  501 -0.00000000000E+00 -0.00000000000E+00 -0.37682096843E+02  0.37682096843E+02  0.00000000000E+00 0.  1.
         25    2    1    2    0    0 -0.79507781090E+02 -0.15315773432E+03  0.50081043123E+03  0.54427747034E+03  0.12509235730E+03 0.  0.
          5    1    3    3  502    0 -0.10628677500E+03 -0.74297519202E+02  0.30533221403E+03  0.33175628588E+03  0.41800000000E+01 0. -1.
         -5    1    3    3    0  502  0.26778993908E+02 -0.78860215118E+02  0.19547821720E+03  0.21252118446E+03  0.41800000000E+01 0. -1.
        -11    1    1    2    0    0  0.34203204753E+02  0.46621070711E+02  0.79815223251E+02  0.98558882463E+02  0.00000000000E+00 0.  1.
         11    1    1    2    0    0  0.45304576337E+02  0.10653666361E+03  0.50289107660E+03  0.51604457196E+03  0.00000000000E+00 0. -1.
</event>
<event>
 7    1  0.2733606E-009  0.1027988E+03  0.7561462E-02  0.1274518E+00
         -2   -1    0    0    0  501 -0.00000000000E+00  0.00000000000E+00  0.31942571541E+02  0.31942571541E+02  0.00000000000E+00 0.  1.
          2   -1    0    0  501    0  0.00000000000E+00 -0.00000000000E+00 -0.47098192082E+03  0.47098192082E+03  0.00000000000E+00 0. -1.
         25    2    1    2    0    0  0.48115266170E+01 -0.35947247991E+02 -0.33902478642E+03  0.36318349111E+03  0.12509631081E+03 0.  0.
          5    1    3    3  502    0 -0.31282616939E+02  0.29076661019E+02 -0.20876803603E+03  0.21313286844E+03  0.41800000000E+01 0.  1.
         -5    1    3    3    0  502  0.36094143556E+02 -0.65023909010E+02 -0.13025675039E+03  0.15005062267E+03  0.41800000000E+01 0.  1.
        -11    1    1    2    0    0  0.24027672016E+02 -0.15939895340E+02 -0.74575765534E+01  0.29782960464E+02  0.00000000000E+00 0.  1.
         11    1    1    2    0    0 -0.28839198633E+02  0.51887143331E+02 -0.92556986301E+02  0.10995804079E+03  0.00000000000E+00 0. -1.
</event>
<event>
 7    1  0.2733606E-009  0.1006072E+03  0.7561462E-02  0.1279024E+00
          2   -1    0    0  501    0  0.00000000000E+00  0.00000000000E+00  0.78130627769E+03  0.78130627769E+03  0.00000000000E+00 0. -1.
         -2   -1    0    0    0  501 -0.00000000000E+00 -0.00000000000E+00 -0.16191079525E+02  0.16191079525E+02  0.00000000000E+00 0.  1.
         25    2    1    2    0    0 -0.11524096347E+02  0.29213591964E+02  0.44124669178E+03  0.45970899149E+03  0.12508986810E+03 0.  0.
          5    1    3    3  502    0 -0.54041134801E+02 -0.14773793478E+02  0.30730838413E+03  0.31240138377E+03  0.41800000000E+01 0.  1.
         -5    1    3    3    0  502  0.42517038454E+02  0.43987385442E+02  0.13393830765E+03  0.14730760772E+03  0.41800000000E+01 0.  1.
        -11    1    1    2    0    0  0.27093425881E+02  0.18972780203E+02  0.54896182337E+02  0.64090646352E+02  0.00000000000E+00 0.  1.
         11    1    1    2    0    0 -0.15569329534E+02 -0.48186372167E+02  0.26897232405E+03  0.27369771937E+03  0.00000000000E+00 0. -1.
</event>
<event>
 7    1  0.2733606E-009  0.7157567E+02  0.7561462E-02  0.1354815E+00
         -1   -1    0    0    0  501 -0.00000000000E+00  0.00000000000E+00  0.29096375692E+02  0.29096375692E+02  0.00000000000E+00 0.  1.
          1   -1    0    0  501    0  0.00000000000E+00 -0.00000000000E+00 -0.40664746737E+03  0.40664746737E+03  0.00000000000E+00 0. -1.
         25    2    1    2    0    0 -0.65296828954E+01  0.70389999748E+01 -0.24767094373E+03  0.27763543556E+03  0.12509338285E+03 0.  0.
          5    1    3    3  502    0 -0.11882356410E+02 -0.21127178883E+02  0.34594155918E+01  0.24839243902E+02  0.41800000000E+01 0. -1.
         -5    1    3    3    0  502  0.53526735144E+01  0.28166178858E+02 -0.25113035932E+03  0.25279619166E+03  0.41800000000E+01 0. -1.
        -11    1    1    2    0    0  0.45126324653E+02 -0.19304550191E+02 -0.62151505794E+02  0.79195078807E+02  0.00000000000E+00 0.  1.
         11    1    1    2    0    0 -0.38596641758E+02  0.12265550216E+02 -0.67728642151E+02  0.78913328689E+02  0.00000000000E+00 0. -1.
</event>
<event>
 7    1  0.2733606E-009  0.8870098E+02  0.7561462E-02  0.1306028E+00
          3   -1    0    0  501    0  0.00000000000E+00  0.00000000000E+00  0.85818768751E+02  0.85818768751E+02  0.00000000000E+00 0. -1.
         -3   -1    0    0    0  501 -0.00000000000E+00 -0.00000000000E+00 -0.16891101346E+03  0.16891101346E+03  0.00000000000E+00 0.  1.
         25    2    1    2    0    0  0.44515959918E+01 -0.10968418644E+02 -0.10097364846E+03  0.16119766139E+03  0.12509550528E+03 0.  0.
          5    1    3    3  502    0  0.10735977018E+02 -0.66778492574E+02 -0.42375564875E+02  0.79923645884E+02  0.41800000000E+01 0. -1.
         -5    1    3    3    0  502 -0.62843810263E+01  0.55810073929E+02 -0.58598083587E+02  0.81274015509E+02  0.41800000000E+01 0. -1.
        -11    1    1    2    0    0 -0.19803854037E+02  0.25427421204E+02 -0.28218588403E+02  0.42837309851E+02  0.00000000000E+00 0.  1.
         11    1    1    2    0    0  0.15352258045E+02 -0.14459002560E+02  0.46099992157E+02  0.50694810967E+02  0.00000000000E+00 0. -1.
</event>
<event>
 7    1  0.2733606E-009  0.7966248E+02  0.7561462E-02  0.1330012E+00
          1   -1    0    0  501    0  0.00000000000E+00  0.00000000000E+00  0.40656198128E+02  0.40656198128E+02  0.00000000000E+00 0.  1.
         -1   -1    0    0    0  501 -0.00000000000E+00 -0.00000000000E+00 -0.31990531432E+03  0.31990531432E+03  0.00000000000E+00 0. -1.
         25    2    1    2    0    0  0.24283355876E+02  0.27496718271E+02 -0.15644454357E+03  0.20363855059E+03  0.12509201888E+03 0.  0.
          5    1    3    3  502    0  0.46471867691E+02  0.10287727025E+02 -0.16673177735E+03  0.17344287184E+03  0.41800000000E+01 0. -1.
         -5    1    3    3    0  502 -0.22188511814E+02  0.17208991247E+02  0.10287233784E+02  0.30195678750E+02  0.41800000000E+01 0. -1.
        -11    1    1    2    0    0  0.26373070794E+02 -0.20119145845E+01 -0.60596509030E+01  0.27134959599E+02  0.00000000000E+00 0.  1.
         11    1    1    2    0    0 -0.50656426670E+02 -0.25484803687E+02 -0.11674492173E+03  0.12978800226E+03  0.00000000000E+00 0. -1.
</event>
<event>
 7    1  0.2733606E-009  0.1017940E+03  0.7561462E-02  0.1276568E+00
          1   -1    0    0  501    0  0.00000000000E+00  0.00000000000E+00  0.25098175432E+03  0.25098175432E+03  0.00000000000E+00 0. -1.
         -1   -1    0    0    0  501 -0.00000000000E+00 -0.00000000000E+00 -0.55078101570E+02  0.55078101570E+02  0.00000000000E+00 0.  1.
         25    2    1    2    0    0  0.20154010641E+02 -0.38736070275E+02  0.11876248079E+03  0.17792829309E+03  0.12508910166E+03 0.  0.
          5    1    3    3  502    0  0.59562905217E+02 -0.14287022555E+01  0.16306028861E+02  0.61912356159E+02  0.41800000000E+01 0. -1.
         -5    1    3    3    0  502 -0.39408894576E+02 -0.37307368020E+02  0.10245645193E+03  0.11601593694E+03  0.41800000000E+01 0. -1.
        -11    1    1    2    0    0 -0.10415715290E+02  0.62703958246E+02  0.22068614017E+02  0.67285193239E+02  0.00000000000E+00 0.  1.
         11    1    1    2    0    0 -0.97382953510E+01 -0.23967887970E+02  0.55072557942E+02  0.60846369558E+02  0.00000000000E+00 0. -1.
</event>
<event>
 7    1  0.2733606E-009  0.1246008E+03  0.7561462E-02  0.1235694E+00
          2   -1    0    0  501    0  0.00000000000E+00  0.00000000000E+00  0.55688413612E+03  0.55688413612E+03  0.00000000000E+00 0. -1.
         -2   -1    0    0    0  501 -0.00000000000E+00 -0.00000000000E+00 -0.55442499452E+02  0.55442499452E+02  0.00000000000E+00 0.  1.
         25    2    1    2    0    0  0.77032479902E+02 -0.81961048501E+02  0.40744620481E+03  0.44080820396E+03  0.12509135236E+03 0.  0.
          5    1    3    3  502    0  0.91333972842E+02 -0.60548271836E+02  0.17241697887E+03  0.20433569150E+03  0.41800000000E+01 0.  1.
         -5    1    3    3    0  502 -0.14301492940E+02 -0.21412776665E+02  0.23502922594E+03  0.23647251246E+03  0.41800000000E+01 0.  1.
        -11    1    1    2    0    0 -0.27483068000E+02  0.19362796072E+02 -0.14668324362E+02  0.36679648826E+02  0.00000000000E+00 0.  1.
         11    1    1    2    0    0 -0.49549411902E+02  0.62598252429E+02  0.10866375622E+03  0.13483878279E+03  0.00000000000E+00 0. -1.
</event>
<event>
 7    1  0.2733606E-009  0.4101393E+02  0.7561462E-02  0.1500880E+00
          3   -1    0    0  501    0  0.00000000000E+00  0.00000000000E+00  0.12177723351E+03  0.12177723351E+03  0.00000000000E+00 0.  1.
         -3   -1    0    0    0  501 -0.00000000000E+00 -0.00000000000E+00 -0.99260393944E+02  0.99260393944E+02  0.00000000000E+00 0. -1.
         25    2    1    2    0    0 -0.23215158421E+02 -0.45825965951E+01  0.22642042653E+02  0.12930681505E+03  0.12509055340E+03 0.  0.
          5    1    3    3  502    0 -0.11789039842E+02 -0.34811663899E+01  0.74707511792E+02  0.75827334768E+02  0.41800000000E+01 0. -1.
         -5    1    3    3    0  502 -0.11426118580E+02 -0.11014302053E+01 -0.52065469139E+02  0.53479480279E+02  0.41800000000E+01 0. -1.
        -11    1    1    2    0    0  0.39436503096E+02 -0.15982064413E+01  0.34870492544E+02  0.52666339255E+02  0.00000000000E+00 0.  1.
         11    1    1    2    0    0 -0.16221344675E+02  0.61808030365E+01 -0.34995695636E+02  0.39064473147E+02  0.00000000000E+00 0. -1.
</event>
<event>
 7    1  0.2733606E-009  0.1341342E+03  0.7561462E-02  0.1221447E+00
         -1   -1    0    0    0  501 -0.00000000000E+00  0.00000000000E+00  0.86749263763E+02  0.86749263763E+02  0.00000000000E+00 0.  1.
          1   -1    0    0  501    0  0.00000000000E+00 -0.00000000000E+00 -0.24864561448E+03  0.24864561448E+03  0.00000000000E+00 0. -1.
         25    2    1    2    0    0 -0.44490974811E+01  0.97091609889E+02 -0.10911999564E+03  0.19235584586E+03  0.12508806021E+03 0.  0.
          5    1    3    3  502    0  0.33813102008E+02  0.92643557955E+02 -0.28233530008E+02  0.10266820011E+03  0.41800000000E+01 0. -1.
         -5    1    3    3    0  502 -0.38262199489E+02  0.44480519338E+01 -0.80886465634E+02  0.89687645741E+02  0.41800000000E+01 0. -1.
        -11    1    1    2    0    0 -0.40202951130E+02 -0.29754560228E+02 -0.32792870631E+02  0.59807888260E+02  0.00000000000E+00 0. -1.
         11    1    1    2    0    0  0.44652048612E+02 -0.67337049662E+02 -0.19983484444E+02  0.83231144128E+02  0.00000000000E+00 0.  1.
</event>
<event>
 7    1  0.2733606E-009  0.9400892E+02  0.7561462E-02  0.1293424E+00
          2   -1    0    0  501    0  0.00000000000E+00  0.00000000000E+00  0.35876159802E+03  0.35876159802E+03  0.00000000000E+00 0. -1.
         -2   -1    0    0    0  501 -0.00000000000E+00 -0.00000000000E+00 -0.37100830912E+02  0.37100830912E+02  0.00000000000E+00 0.  1.
         25    2    1    2    0    0  0.79416441646E+01 -0.62009975442E+01  0.11739856826E+03  0.17184862748E+03  0.12509198558E+03 0.  0.
          5    1    3    3  502    0 -0.54360123377E+02 -0.25432628352E+02  0.56344733128E+02  0.82425984675E+02  0.41800000000E+01 0. -1.
         -5    1    3    3    0  502  0.62301767541E+02  0.19231630808E+02  0.61053835132E+02  0.89422642807E+02  0.41800000000E+01 0. -1.
        -11    1    1    2    0    0 -0.13486757943E+02  0.32739790044E+02  0.19020786437E+03  0.19347562679E+03  0.00000000000E+00 0. -1.
         11    1    1    2    0    0  0.55451137787E+01 -0.26538792500E+02  0.14054334477E+02  0.30538174663E+02  0.00000000000E+00 0.  1.
</event>
<event>
 7    1  0.2733606E-009  0.1486187E+03  0.7561462E-02  0.1202181E+00
         -2   -1    0    0    0  501 -0.00000000000E+00  0.00000000000E+00  0.41303689802E+02  0.41303689802E+02  0.00000000000E+00 0. -1.
          2   -1    0    0  501    0  0.00000000000E+00 -0.00000000000E+00 -0.60017843365E+03  0.60017843365E+03  0.00000000000E+00 0.  1.
         25    2    1    2    0    0 -0.97641848005E+02 -0.57384581073E+01 -0.39852362997E+03  0.42899356079E+03  0.12509009225E+03 0.  0.
          5    1    3    3  502    0  0.29717898339E+02  0.33746716258E+01 -0.60134202057E+02  0.67291429969E+02  0.41800000000E+01 0.  1.
         -5    1    3    3    0  502 -0.12735974634E+03 -0.91131297331E+01 -0.33838942791E+03  0.36170213083E+03  0.41800000000E+01 0.  1.
        -11    1    1    2    0    0  0.64293508502E+02 -0.45064047190E+02 -0.95082371857E+02  0.12330888461E+03  0.00000000000E+00 0.  1.
         11    1    1    2    0    0  0.33348339503E+02  0.50802505297E+02 -0.65268742026E+02  0.89179678054E+02  0.00000000000E+00 0. -1.
</event>
<event>
 7    1  0.2733606E-009  0.6524285E+02  0.7561462E-02  0.1377060E+00
          1   -1    0    0  501    0  0.00000000000E+00  0.00000000000E+00  0.78861806257E+02  0.78861806257E+02  0.00000000000E+00 0. -1.
         -1   -1    0    0    0  501 -0.00000000000E+00 -0.00000000000E+00 -0.17309171939E+03  0.17309171939E+03  0.00000000000E+00 0.  1.
         25    2    1    2    0    0 -0.23665552061E+02 -0.13302738212E+01 -0.93242690604E+02  0.15781303975E+03  0.12509567611E+03 0.  0.
          5    1    3    3  502    0  0.14465363997E+01 -0.12665082238E+02  0.29255735473E+02  0.32184891389E+02  0.41800000000E+01 0. -1.
         -5    1    3    3    0  502 -0.25112088461E+02  0.11334808417E+02 -0.12249842608E+03  0.12562814836E+03  0.41800000000E+01 0. -1.
        -11    1    1    2    0    0 -0.15713364382E+02 -0.33263110594E+02 -0.15243049721E+02  0.39820784917E+02  0.00000000000E+00 0.  1.
         11    1    1    2    0    0  0.39378916443E+02  0.34593384415E+02  0.14255827194E+02  0.54319700980E+02  0.00000000000E+00 0. -1.
</event>
<event>
 7    1  0.2733606E-009  0.1207833E+03  0.7561462E-02  0.1241810E+00
          2   -1    0    0  501    0  0.00000000000E+00  0.00000000000E+00  0.64934532871E+03  0.64934532871E+03  0.00000000000E+00 0. -1.
         -2   -1    0    0    0  501 -0.00000000000E+00 -0.00000000000E+00 -0.28237126547E+02  0.28237126547E+02  0.00000000000E+00 0.  1.
         25    2    1    2    0    0  0.66815082800E+02 -0.12734347278E+02  0.30284887445E+03  0.33465106129E+03  0.12508986041E+03 0.  0.
          5    1    3    3  502    0  0.92303300807E+02 -0.33355186378E+02  0.27292887101E+03  0.29006914491E+03  0.41800000000E+01 0.  1.
         -5    1    3    3    0  502 -0.25488218007E+02  0.20620839100E+02  0.29920003439E+02  0.44581916380E+02  0.41800000000E+01 0.  1.
        -11    1    1    2    0    0 -0.86711768471E+02  0.98154008285E-01  0.30224008908E+03  0.31443284159E+03  0.00000000000E+00 0. -1.
         11    1    1    2    0    0  0.19896685671E+02  0.12636193270E+02  0.16019238639E+02  0.28498552377E+02  0.00000000000E+00 0.  1.
</event>
<event>
 7    1  0.2733606E-009  0.1026984E+03  0.7561462E-02  0.1274722E+00
         -2   -1    0    0    0  501 -0.00000000000E+00  0.00000000000E+00  0.22556697031E+02  0.22556697031E+02  0.00000000000E+00 0.  1.
          2   -1    0    0  501    0  0.00000000000E+00 -0.00000000000E+00 -0.56672870330E+03  0.56672870330E+03  0.00000000000E+00 0. -1.
         25    2    1    2    0    0  0.11993015733E+02  0.21417580543E+02 -0.25690177046E+03  0.28678881354E+03  0.12508700460E+03 0.  0.
          5    1    3    3  502    0  0.38514129490E+02 -0.37613837328E+02 -0.66589385040E+02  0.85730726866E+02  0.41800000000E+01 0.  1.
         -5    1    3    3    0  502 -0.26521113757E+02  0.59031417871E+02 -0.19031238543E+03  0.20105808667E+03  0.41800000000E+01 0.  1.
        -11    1    1    2    0    0 -0.32657038518E+02  0.21374479112E+02 -0.70539901353E+02  0.80617790872E+02  0.00000000000E+00 0. -1.
         11    1    1    2    0    0  0.20664022785E+02 -0.42792059655E+02 -0.21673033445E+03  0.22187879592E+03  0.00000000000E+00 0.  1.
</event>
<event>
 7    1  0.2733606E-009  0.1066643E+03  0.7561462E-02  0.1266875E+00
          2   -1    0    0  501    0  0.00000000000E+00  0.00000000000E+00  0.19006941800E+03  0.19006941800E+03  0.00000000000E+00 0. -1.
         -2   -1    0    0    0  501 -0.00000000000E+00 -0.00000000000E+00 -0.11950707468E+03  0.11950707468E+03  0.00000000000E+00 0.  1.
         25    2    1    2    0    0  0.28376030173E+02 -0.93455508112E+02  0.25511429280E+01  0.15871811765E+03  0.12508317815E+03 0.  0.
          5    1    3    3  502    0  0.32163735371E+02 -0.70122135538E+02  0.59108247968E+02  0.97277320806E+02  0.41800000000E+01 0.  1.
         -5    1    3    3    0  502 -0.37877051976E+01 -0.23333372574E+02 -0.56557105040E+02  0.61440796844E+02  0.41800000000E+01 0.  1.
        -11    1    1    2    0    0 -0.43072579940E+02  0.84522517488E+02  0.16162441428E+02  0.96231635225E+02  0.00000000000E+00 0.  1.
         11    1    1    2    0    0  0.14696549767E+02  0.89329906246E+01  0.51848758959E+02  0.54626739809E+02  0.00000000000E+00 0. -1.
</event>
<event>
 7    1  0.2733606E-009  0.9623692E+02  0.7561462E-02  0.1288414E+00
         -1   -1    0    0    0  501 -0.00000000000E+00  0.00000000000E+00  0.27659286324E+03  0.27659286324E+03  0.00000000000E+00 0.  1.
          1   -1    0    0  501    0  0.00000000000E+00 -0.00000000000E+00 -0.60518359090E+02  0.60518359090E+02  0.00000000000E+00 0. -1.
         25    2    1    2    0    0 -0.65565140511E+02 -0.18622797560E+02  0.88411424203E+02  0.16766154687E+03  0.12509283804E+03 0.  0.
          5    1    3    3  502    0 -0.27664621367E+02  0.24687405590E+02  0.10180199459E+03  0.10842471016E+03  0.41800000000E+01 0.  1.
         -5    1    3    3    0  502 -0.37900519145E+02 -0.43310203150E+02 -0.13390570387E+02  0.59236836711E+02  0.41800000000E+01 0.  1.
        -11    1    1    2    0    0  0.76602554112E+02  0.93517013312E+00  0.12732857871E+03  0.14859809150E+03  0.00000000000E+00 0.  1.
         11    1    1    2    0    0 -0.11037413600E+02  0.17687627427E+02  0.33450123984E+00  0.20851583970E+02  0.00000000000E+00 0. -1.
</event>
<event>
 7    1  0.2733606E-009  0.1215503E+03  0.7561462E-02  0.1240561E+00
          2   -1    0    0  501    0  0.00000000000E+00  0.00000000000E+00  0.93233913622E+03  0.93233913622E+03  0.00000000000E+00 0.  1.
         -2   -1    0    0    0  501 -0.00000000000E+00 -0.00000000000E+00 -0.16282254315E+02  0.16282254315E+02  0.00000000000E+00 0. -1.
         25    2    1    2    0    0  0.53697849081E+02 -0.25239558590E+02  0.50780747760E+03  0.52634263470E+03  0.12509052911E+03 0.  0.
          5    1    3    3  502    0 -0.39235054396E+02 -0.26297822225E+01  0.20438371938E+03  0.20817416362E+03  0.41800000000E+01 0.  1.
         -5    1    3    3    0  502  0.92932903477E+02 -0.22609776368E+02  0.30342375822E+03  0.31816847108E+03  0.41800000000E+01 0.  1.
        -11    1    1    2    0    0 -0.57704256872E+02  0.53852141610E+02  0.28973506719E+03  0.30029359563E+03  0.00000000000E+00 0. -1.
         11    1    1    2    0    0  0.40064077906E+01 -0.28612583020E+02  0.11851433710E+03  0.12198516020E+03  0.00000000000E+00 0.  1.
</event>
<event>
 7    1  0.2733606E-009  0.1455158E+03  0.7561462E-02  0.1206094E+00
          1   -1    0    0  501    0  0.00000000000E+00  0.00000000000E+00  0.13526574262E+04  0.13526574262E+04  0.00000000000E+00 0. -1.
         -1   -1    0    0    0  501 -0.00000000000E+00 -0.00000000000E+00 -0.21816057227E+02  0.21816057227E+02  0.00000000000E+00 0.  1.
         25    2    1    2    0    0 -0.45664176385E+02  0.11310617502E+03  0.49553696907E+03  0.52543327742E+03  0.12508004428E+03 0.  0.
          5    1    3    3  502    0 -0.58861651141E+02  0.59643902710E+02  0.12340530593E+03  0.14922610709E+03  0.41800000000E+01 0. -1.
         -5    1    3    3    0  502  0.13197474756E+02  0.53462272311E+02  0.37213166314E+03  0.37620717033E+03  0.41800000000E+01 0. -1.
        -11    1    1    2    0    0  0.62745134614E+02 -0.34785981624E+02  0.37279439166E+03  0.37963492317E+03  0.00000000000E+00 0.  1.
         11    1    1    2    0    0 -0.17080958229E+02 -0.78320193397E+02  0.46251000824E+03  0.46940528284E+03  0.00000000000E+00 0. -1.
</event>
<event>
 7    1  0.2733606E-009  0.1484686E+03  0.7561462E-02  0.1202368E+00
          2   -1    0    0  501    0  0.00000000000E+00  0.00000000000E+00  0.92562972021E+02  0.92562972021E+02  0.00000000000E+00 0. -1.
         -2   -1    0    0    0  501 -0.00000000000E+00 -0.00000000000E+00 -0.36575347091E+03  0.36575347091E+03  0.00000000000E+00 0.  1.
         25    2    1    2    0    0  0.14224518283E+03  0.26282320669E+02 -0.18259142929E+03  0.26440397089E+03  0.12508148286E+03 0.  0.
          5    1    3    3  502    0  0.12814927598E+03  0.20217339531E+02 -0.63947476329E+02  0.14469875563E+03  0.41800000000E+01 0. -1.
         -5    1    3    3    0  502  0.14095906853E+02  0.60649811375E+01 -0.11864395296E+03  0.11970521526E+03  0.41800000000E+01 0. -1.
        -11    1    1    2    0    0 -0.76936776993E+02 -0.36452615175E+02 -0.95128827326E+02  0.12766187605E+03  0.00000000000E+00 0.  1.
         11    1    1    2    0    0 -0.65308405841E+02  0.10170294506E+02  0.45297577327E+01  0.66250595989E+02  0.00000000000E+00 0. -1.
</event>
<event>
 7    1  0.2733606E-009  0.1250724E+03  0.7561462E-02  0.1234956E+00
         -1   -1    0    0    0  501 -0.00000000000E+00  0.00000000000E+00  0.11530973964E+03  0.11530973964E+03  0.00000000000E+00 0.  1.
          1   -1    0    0  501    0  0.00000000000E+00 -0.00000000000E+00 -0.16210726030E+03  0.16210726030E+03  0.00000000000E+00 0. -1.
         25    2    1    2    0    0  0.57941671060E+02 -0.58569591421E+02 -0.39435207152E+02  0.15489016739E+03  0.12509274202E+03 0.  0.
          5    1    3    3  502    0  0.79729742994E+02 -0.83621811216E+02 -0.24196115530E+02  0.11812012375E+03  0.41800000000E+01 0.  1.
         -5    1    3    3    0  502 -0.21788071934E+02  0.25052219796E+02 -0.15239091622E+02  0.36770043633E+02  0.41800000000E+01 0.  1.
        -11    1    1    2    0    0  0.61051874117E+01  0.30557021312E+02 -0.35442446850E+02  0.47192922176E+02  0.00000000000E+00 0. -1.
         11    1    1    2    0    0 -0.64046858472E+02  0.28012570109E+02  0.28080133348E+02  0.75333910380E+02  0.00000000000E+00 0.  1.
</event>
<event>
 7    1  0.2733606E-009  0.1873101E+03  0.7561462E-02  0.1160910E+00
          1   -1    0    0  501    0  0.00000000000E+00  0.00000000000E+00  0.15669122878E+03  0.15669122878E+03  0.00000000000E+00 0. -1.
         -1   -1    0    0    0  501 -0.00000000000E+00 -0.00000000000E+00 -0.36118350767E+03  0.36118350767E+03  0.00000000000E+00 0.  1.
         25    2    1    2    0    0 -0.14481793684E+03  0.60121778877E+02 -0.25886785679E+03  0.32748585933E+03  0.12509019808E+03 0.  0.
          5    1    3    3  502    0 -0.80287778371E+02 -0.32860191479E+02 -0.10127174004E+03  0.13341423189E+03  0.41800000000E+01 0.  1.
         -5    1    3    3    0  502 -0.64530158470E+02  0.92981970356E+02 -0.15759611675E+03  0.19407162745E+03  0.41800000000E+01 0.  1.
        -11    1    1    2    0    0  0.60162307612E+02  0.14248779365E+02 -0.67502338365E+01  0.62194024050E+02  0.00000000000E+00 0.  1.
         11    1    1    2    0    0  0.84655629229E+02 -0.74370558242E+02  0.61125811741E+02  0.12819485307E+03  0.00000000000E+00 0. -1.
</event>
<event>
 7    1  0.3120216E-009  0.1035428E+03  0.7561462E-02  0.1273017E+00
          1   -1    0    0  501    0  0.00000000000E+00  0.00000000000E+00  0.19828120459E+03  0.19828120459E+03  0.00000000000E+00 0. -1.
         -1   -1    0    0    0  501 -0.00000000000E+00 -0.00000000000E+00 -0.75447567819E+02  0.75447567819E+02  0.00000000000E+00 0.  1.
         25    2    1    2    0    0 -0.26028035050E+02  0.89531896931E+01  0.13612813187E+02  0.12880667115E+03  0.12509289202E+03 0.  0.
          5    1    3    3  502    0 -0.12082152512E+01  0.65634764974E+02  0.11320147169E+02  0.66745788551E+02  0.41800000000E+01 0.  1.
         -5    1    3    3    0  502 -0.24819819799E+02 -0.56681575281E+02  0.22926660176E+01  0.62060882596E+02  0.41800000000E+01 0.  1.
        -11    1    1    2    0    0 -0.25547491348E+02 -0.10665373501E+02  0.82065584159E+02  0.86609379454E+02  0.00000000000E+00 0. -1.
         11    1    1    2    0    0  0.51575526398E+02  0.17121838083E+01  0.27155239430E+02  0.58312721812E+02  0.00000000000E+00 0.  1.
</event>
<event>
 7    1  0.2733606E-009  0.1005011E+03  0.7561462E-02  0.1279246E+00
          2   -1    0    0  501    0  0.00000000000E+00  0.00000000000E+00  0.79609660146E+03  0.79609660146E+03  0.00000000000E+00 0.  1.
         -2   -1    0    0    0  501 -0.00000000000E+00 -0.00000000000E+00 -0.28878572197E+02  0.28878572197E+02  0.00000000000E+00 0. -1.
         25    2    1    2    0    0  0.73417602678E+02 -0.19663833612E+02  0.21332783393E+03  0.25871502885E+03  0.12509152924E+03 0.  0.
          5    1    3    3  502    0  0.37597995502E+02  0.72452871785E+01  0.21010239743E+03  0.21360382314E+03  0.41800000000E+01 0. -1.
         -5    1    3    3    0  502  0.35819607176E+02 -0.26909120790E+02  0.32254364946E+01  0.45111205709E+02  0.41800000000E+01 0. -1.
        -11    1    1    2    0    0 -0.87410840752E+02 -0.66735852372E+01  0.39759485744E+03  0.40714476846E+03  0.00000000000E+00 0.  1.
         11    1    1    2    0    0  0.13993238074E+02  0.26337418849E+02  0.15629533790E+03  0.15911537635E+03  0.00000000000E+00 0. -1.
</event>
<event>
 7    1  0.2733606E-009  0.6895710E+02  0.7561462E-02  0.1363676E+00
          2   -1    0    0  501    0  0.00000000000E+00  0.00000000000E+00  0.16067130507E+04  0.16067130507E+04  0.00000000000E+00 0. -1.
         -2   -1    0    0    0  501 -0.00000000000E+00 -0.00000000000E+00 -0.86751430061E+01  0.86751430061E+01  0.00000000000E+00 0.  1.
         25    2    1    2    0    0  0.10938346496E+02 -0.22927434808E+02  0.11277424541E+04  0.11349431326E+04  0.12509019484E+03 0.  0.
          5    1    3    3  502    0 -0.10873887407E+02 -0.73311654889E+01  0.10350992049E+02  0.17222161628E+02  0.41800000000E+01 0.  1.
         -5    1    3    3    0  502  0.21812233902E+02 -0.15596269319E+02  0.11173914620E+04  0.11177209710E+04  0.41800000000E+01 0.  1.
        -11    1    1    2    0    0 -0.32095552761E+02  0.51968558879E+02  0.25810124508E+03  0.26523029301E+03  0.00000000000E+00 0. -1.
         11    1    1    2    0    0  0.21157206266E+02 -0.29041124070E+02  0.21219420857E+03  0.21521476811E+03  0.00000000000E+00 0.  1.
</event>
<event>
 7    1  0.3138487E-009  0.1768553E+03  0.7561462E-02  0.1170882E+00
         -2   -1    0    0    0  501 -0.00000000000E+00  0.00000000000E+00  0.26374230185E+03  0.26374230185E+03  0.00000000000E+00 0.  1.
          2   -1    0    0  501    0  0.00000000000E+00 -0.00000000000E+00 -0.14103331985E+03  0.14103331985E+03  0.00000000000E+00 0. -1.
         25    2    1    2    0    0  0.52260401122E+02 -0.14362840432E+03  0.11079647070E+03  0.22645675929E+03  0.12508612177E+03 0.  0.
          5    1    3    3  502    0  0.24131919429E+02 -0.16187189582E+03  0.92114263660E+02  0.18784932835E+03  0.41800000000E+01 0. -1.
         -5    1    3    3    0  502  0.28128481692E+02  0.18243491500E+02  0.18682207035E+02  0.38607430944E+02  0.41800000000E+01 0. -1.
        -11    1    1    2    0    0 -0.40682078708E+02  0.64631271959E+02  0.48526893214E+02  0.90482551953E+02  0.00000000000E+00 0.  1.
         11    1    1    2    0    0 -0.11578322414E+02  0.78997132359E+02 -0.36614381909E+02  0.87836310450E+02  0.00000000000E+00 0. -1.
</event>
<event>
 7    1  0.2733606E-009  0.6324505E+02  0.7561462E-02  0.1384697E+00
         -2   -1    0    0    0  501 -0.00000000000E+00  0.00000000000E+00  0.46741513357E+02  0.46741513357E+02  0.00000000000E+00 0.  1.
          2   -1    0    0  501    0  0.00000000000E+00 -0.00000000000E+00 -0.29939649314E+03  0.29939649314E+03  0.00000000000E+00 0. -1.
         25    2    1    2    0    0  0.11660026067E+02  0.22462535852E+02 -0.17378038426E+03  0.21560882776E+03  0.12508806070E+03 0.  0.
          5    1    3    3  502    0  0.97034864938E+01 -0.10246605242E+01 -0.18764633204E+03  0.18794633784E+03  0.41800000000E+01 0. -1.
         -5    1    3    3    0  502  0.19565395735E+01  0.23487196376E+02  0.13865947781E+02  0.27662489920E+02  0.41800000000E+01 0. -1.
        -11    1    1    2    0    0  0.29447820538E+02  0.17790555627E+02 -0.61430638066E+02  0.70408815479E+02  0.00000000000E+00 0. -1.
         11    1    1    2    0    0 -0.41107846605E+02 -0.40253091479E+02 -0.17443957454E+02  0.60120363254E+02  0.00000000000E+00 0.  1.
</event>
<event>
 7    1  0.2733606E-009  0.1186063E+03  0.7561462E-02  0.1245414E+00
         -1   -1    0    0    0  501 -0.00000000000E+00  0.00000000000E+00  0.72738278182E+02  0.72738278182E+02  0.00000000000E+00 0.  1.
          1   -1    0    0  501    0  0.00000000000E+00 -0.00000000000E+00 -0.29164812018E+03  0.29164812018E+03  0.00000000000E+00 0. -1.
         25    2    1    2    0    0  0.96517171472E+02  0.10928449867E+02 -0.12696994857E+03  0.20298797878E+03  0.12509099202E+03 0.  0.
          5    1    3    3  502    0  0.11774756664E+03  0.11846974965E+02 -0.13528448201E+03  0.17978933154E+03  0.41800000000E+01 0. -1.
         -5    1    3    3    0  502 -0.21230395164E+02 -0.91852509758E+00  0.83145334439E+01  0.23198647236E+02  0.41800000000E+01 0. -1.
        -11    1    1    2    0    0 -0.82831047468E+02 -0.97384626060E+01 -0.11041608803E+03  0.13837460957E+03  0.00000000000E+00 0. -1.
         11    1    1    2    0    0 -0.13686124004E+02 -0.11899872614E+01  0.18476194605E+02  0.23023810002E+02  0.00000000000E+00 0.  1.
</event>
<event>
 7    1  0.2733606E-009  0.1117927E+03  0.7561462E-02  0.1257286E+00
          2   -1    0    0  501    0  0.00000000000E+00  0.00000000000E+00  0.14245529725E+04  0.14245529725E+04  0.00000000000E+00 0.  1.
         -2   -1    0    0    0  501 -0.00000000000E+00 -0.00000000000E+00 -0.12233364799E+02  0.12233364799E+02  0.00000000000E+00 0. -1.
         25    2    1    2    0    0 -0.37608738487E+02 -0.10813261270E+02  0.11269031534E+04  0.11345000242E+04  0.12509294118E+03 0.  0.
          5    1    3    3  502    0 -0.28305673061E+01 -0.64384500293E+02  0.45601054598E+03  0.46056103443E+03  0.41800000000E+01 0.  1.
         -5    1    3    3    0  502 -0.34778171181E+02  0.53571239023E+02  0.67089260741E+03  0.67393898976E+03  0.41800000000E+01 0.  1.
        -11    1    1    2    0    0  0.44239234333E+02  0.43262444137E+02  0.22538764828E+03  0.23372706503E+03  0.00000000000E+00 0.  1.
         11    1    1    2    0    0 -0.66304958460E+01 -0.32449182867E+02  0.60028805976E+02  0.68559248033E+02  0.00000000000E+00 0. -1.
</event>
<event>
 7    1  0.2733606E-009  0.1989065E+03  0.7561462E-02  0.1150665E+00
          3   -1    0    0  501    0  0.00000000000E+00  0.00000000000E+00  0.14457185757E+03  0.14457185757E+03  0.00000000000E+00 0. -1.
         -3   -1    0    0    0  501 -0.00000000000E+00 -0.00000000000E+00 -0.34731035546E+03  0.34731035546E+03  0.00000000000E+00 0.  1.
         25    2    1    2    0    0  0.97384562414E+02  0.15933412790E+03 -0.30812793621E+02  0.22686505121E+03  0.12508879207E+03 0.  0.
          5    1    3    3  502    0  0.57287192860E+02  0.23847248693E+02 -0.55514140135E+02  0.83365495806E+02  0.41800000000E+01 0.  1.
         -5    1    3    3    0  502  0.40097369554E+02  0.13548687921E+03  0.24701346513E+02  0.14349955541E+03  0.41800000000E+01 0.  1.
        -11    1    1    2    0    0 -0.10124029179E+03 -0.13047280688E+03 -0.16810063591E+03  0.23564926015E+03  0.00000000000E+00 0. -1.
         11    1    1    2    0    0  0.38557293759E+01 -0.28861321022E+02 -0.38250683623E+01  0.29367901663E+02  0.00000000000E+00 0.  1.
</event>
<event>
 7    1  0.2733606E-009  0.1734895E+03  0.7561462E-02  0.1174257E+00
         -2   -1    0    0    0  501 -0.00000000000E+00  0.00000000000E+00  0.27314315560E+02  0.27314315560E+02  0.00000000000E+00 0.  1.
          2   -1    0    0  501    0  0.00000000000E+00 -0.00000000000E+00 -0.15536794193E+04  0.15536794193E+04  0.00000000000E+00 0. -1.
         25    2    1    2    0    0  0.25201473484E+02  0.14357758656E+03 -0.11721907821E+04  0.11878249737E+04  0.12508917193E+03 0.  0.
          5    1    3    3  502    0 -0.46340609359E+02  0.45508046624E+02 -0.28367602117E+03  0.29104637391E+03  0.41800000000E+01 0. -1.
         -5    1    3    3    0  502  0.71542082843E+02  0.98069539937E+02 -0.88851476095E+03  0.89677859983E+03  0.41800000000E+01 0. -1.
        -11    1    1    2    0    0  0.17808267696E+02 -0.10720185323E+02 -0.12987393998E+02  0.24509777121E+02  0.00000000000E+00 0.  1.
         11    1    1    2    0    0 -0.43009741180E+02 -0.13285740124E+03 -0.34118692761E+03  0.36865898398E+03  0.00000000000E+00 0. -1.
</event>
<event>
 7    1  0.2733606E-009  0.1395198E+03  0.7561462E-02  0.1213977E+00
         -4   -1    0    0    0  501 -0.00000000000E+00  0.00000000000E+00  0.28492575068E+03  0.28492575068E+03  0.00000000000E+00 0.  1.
          4   -1    0    0  501    0  0.00000000000E+00 -0.00000000000E+00 -0.85403091142E+02  0.85403091142E+02  0.00000000000E+00 0. -1.
         25    2    1    2    0    0  0.10233087888E+03  0.22288635490E+02  0.69112221110E+02  0.17718778836E+03  0.12510244279E+03 0.  0.
          5    1    3    3  502    0  0.45799639206E+02  0.68766366546E+02  0.62311339345E+02  0.10356927889E+03  0.41800000000E+01 0. -1.
         -5    1    3    3    0  502  0.56531239671E+02 -0.46477731057E+02  0.68008817653E+01  0.73618509464E+02  0.41800000000E+01 0. -1.
        -11    1    1    2    0    0 -0.45659324246E+02 -0.42952024784E+02  0.11485185459E+03  0.13084570618E+03  0.00000000000E+00 0.  1.
         11    1    1    2    0    0 -0.56671554631E+02  0.20663389294E+02  0.15558583830E+02  0.62295347276E+02  0.00000000000E+00 0. -1.
</event>
<event>
 7    1  0.2733606E-009  0.1585758E+03  0.7561462E-02  0.1190314E+00
         -3   -1    0    0    0  501 -0.00000000000E+00  0.00000000000E+00  0.11126365514E+03  0.11126365514E+03  0.00000000000E+00 0.  1.
          3   -1    0    0  501    0  0.00000000000E+00 -0.00000000000E+00 -0.24169967678E+03  0.24169967678E+03  0.00000000000E+00 0. -1.
         25    2    1    2    0    0 -0.72417648223E+02  0.95643658516E+02 -0.94836515418E+02  0.19756810863E+03  0.12508863939E+03 0.  0.
          5    1    3    3  502    0 -0.10536871841E+03  0.54360294724E+02 -0.77952851700E+02  0.14195678198E+03  0.41800000000E+01 0. -1.
         -5    1    3    3    0  502  0.32951070183E+02  0.41283363793E+02 -0.16883663718E+02  0.55611326659E+02  0.41800000000E+01 0. -1.
        -11    1    1    2    0    0  0.81334184420E+01 -0.78602328764E+02 -0.40337522789E+02  0.88722005881E+02  0.00000000000E+00 0. -1.
         11    1    1    2    0    0  0.64284229781E+02 -0.17041329752E+02  0.47380165602E+01  0.66673217405E+02  0.00000000000E+00 0.  1.
</event>
<event>
 7    1  0.2733606E-009  0.1126891E+03  0.7561462E-02  0.1255670E+00
         -1   -1    0    0    0  501 -0.00000000000E+00  0.00000000000E+00  0.64299637318E+02  0.64299637318E+02  0.00000000000E+00 0.  1.
          1   -1    0    0  501    0  0.00000000000E+00 -0.00000000000E+00 -0.22688040122E+03  0.22688040122E+03  0.00000000000E+00 0. -1.
         25    2    1    2    0    0  0.13420200145E+02 -0.50344594568E+02 -0.10252214450E+03  0.16991886144E+03  0.12508776674E+03 0.  0.
          5    1    3    3  502    0  0.20101082873E+02 -0.83643599818E+02 -0.10476977594E+03  0.13562626469E+03  0.41800000000E+01 0. -1.
         -5    1    3    3    0  502 -0.66808827284E+01  0.33299005250E+02  0.22476314456E+01  0.34292596749E+02  0.41800000000E+01 0. -1.
        -11    1    1    2    0    0 -0.17376459991E+02 -0.24526018496E+02 -0.21471369769E+02  0.36938958633E+02  0.00000000000E+00 0.  1.
         11    1    1    2    0    0  0.39562598464E+01  0.74870613064E+02 -0.38587249640E+02  0.84322218468E+02  0.00000000000E+00 0. -1.
</event>
<event>
 7    1  0.2733606E-009  0.1319117E+03  0.7561462E-02  0.1224646E+00
          1   -1    0    0  501    0  0.00000000000E+00  0.00000000000E+00  0.27957165406E+03  0.27957165406E+03  0.00000000000E+00 0. -1.
         -1   -1    0    0    0  501 -0.00000000000E+00 -0.00000000000E+00 -0.93455721637E+02  0.93455721637E+02  0.00000000000E+00 0.  1.
         25    2    1    2    0    0 -0.69539363543E+00 -0.10244765044E+03  0.17713742478E+03  0.23983542387E+03  0.12508940256E+03 0.  0.
          5    1    3    3  502    0 -0.55852725842E+02 -0.36419244744E+02  0.39931927950E+02  0.77832638664E+02  0.41800000000E+01 0. -1.
         -5    1    3    3    0  502  0.55157332206E+02 -0.66028405694E+02  0.13720549683E+03  0.16200278521E+03  0.41800000000E+01 0. -1.
        -11    1    1    2    0    0 -0.13408398552E+02  0.84952986003E+01  0.31749339028E+02  0.35496137519E+02  0.00000000000E+00 0. -1.
         11    1    1    2    0    0  0.14103792187E+02  0.93952351838E+02 -0.22770831391E+02  0.97695814302E+02  0.00000000000E+00 0.  1.
</event>
<event>
 7    1  0.2733606E-009  0.9885302E+02  0.7561462E-02  0.1282727E+00
          2   -1    0    0  501    0  0.00000000000E+00  0.00000000000E+00  0.15284281765E+03  0.15284281765E+03  0.00000000000E+00 0. -1.
         -2   -1    0    0    0  501 -0.00000000000E+00 -0.00000000000E+00 -0.87896820896E+02  0.87896820896E+02  0.00000000000E+00 0.  1.
         25    2    1    2    0    0  0.37988515568E+02 -0.21219668195E+02  0.47513092772E+02  0.14070407435E+03  0.12508693345E+03 0.  0.
          5    1    3    3  502    0  0.41035944670E+02 -0.71099282699E+02  0.32072485409E+02  0.88233630071E+02  0.41800000000E+01 0. -1.
         -5    1    3    3    0  502 -0.30474291020E+01  0.49879614504E+02  0.15440607363E+02  0.52470444280E+02  0.41800000000E+01 0. -1.
        -11    1    1    2    0    0  0.39760840334E+01  0.23016829407E+02 -0.29122663129E+02  0.37332468280E+02  0.00000000000E+00 0.  1.
         11    1    1    2    0    0 -0.41964599601E+02 -0.17971612120E+01  0.46555567107E+02  0.62703095911E+02  0.00000000000E+00 0. -1.
</event>
<event>
 7    1  0.2733606E-009  0.6616313E+02  0.7561462E-02  0.1373649E+00
          2   -1    0    0  501    0  0.00000000000E+00  0.00000000000E+00  0.18778896745E+03  0.18778896745E+03  0.00000000000E+00 0. -1.
         -2   -1    0    0    0  501 -0.00000000000E+00 -0.00000000000E+00 -0.79777744035E+02  0.79777744035E+02  0.00000000000E+00 0.  1.
         25    2    1    2    0    0  0.10163418068E+01  0.19704236917E+02  0.11670837751E+01  0.12664334163E+03  0.12509150248E+03 0.  0.
          5    1    3    3  502    0 -0.45528416511E+01  0.41432402814E+02  0.54438893202E+02  0.68690886318E+02  0.41800000000E+01 0.  1.
         -5    1    3    3    0  502  0.55691834580E+01 -0.21728165897E+02 -0.53271809427E+02  0.57952455317E+02  0.41800000000E+01 0.  1.
        -11    1    1    2    0    0 -0.14551083606E+02 -0.40371598276E+02  0.10797735720E+03  0.11619255419E+03  0.00000000000E+00 0. -1.
         11    1    1    2    0    0  0.13534741799E+02  0.20667361359E+02 -0.11332175620E+01  0.24730815659E+02  0.00000000000E+00 0.  1.
</event>
<event>
 7    1  0.2733606E-009  0.1390262E+03  0.7561462E-02  0.1214645E+00
         -4   -1    0    0    0  501 -0.00000000000E+00  0.00000000000E+00  0.32141987281E+02  0.32141987281E+02  0.00000000000E+00 0.  1.
          4   -1    0    0  501    0  0.00000000000E+00 -0.00000000000E+00 -0.89609527275E+03  0.89609527275E+03  0.00000000000E+00 0. -1.
         25    2    1    2    0    0  0.10736612263E+03 -0.55423597815E+02 -0.32698940068E+03  0.37036371506E+03  0.12509178147E+03 0.  0.
          5    1    3    3  502    0  0.37863981898E+02 -0.53974215571E+02 -0.27666021326E+03  0.28443846974E+03  0.41800000000E+01 0.  1.
         -5    1    3    3    0  502  0.69502140737E+02 -0.14493822442E+01 -0.50329187425E+02  0.85925245317E+02  0.41800000000E+01 0.  1.
        -11    1    1    2    0    0 -0.48664004537E+02  0.66705192711E+02 -0.21306373024E+03  0.22850365690E+03  0.00000000000E+00 0.  1.
         11    1    1    2    0    0 -0.58702118098E+02 -0.11281594896E+02 -0.32390015455E+03  0.32936988808E+03  0.00000000000E+00 0. -1.
</event>
<event>
 7    1  0.2733606E-009  0.9024334E+02  0.7561462E-02  0.1302263E+00
          2   -1    0    0  501    0  0.00000000000E+00  0.00000000000E+00  0.23312394279E+03  0.23312394279E+03  0.00000000000E+00 0. -1.
         -2   -1    0    0    0  501 -0.00000000000E+00 -0.00000000000E+00 -0.67965726329E+02  0.67965726329E+02  0.00000000000E+00 0.  1.
         25    2    1    2    0    0  0.27240928659E+02  0.27282887505E+01  0.14010219969E+03  0.18980697844E+03  0.12509416835E+03 0.  0.
          5    1    3    3  502    0 -0.38503297111E+02 -0.34061292761E+02  0.45322282935E+02  0.68660449193E+02  0.41800000000E+01 0. -1.
         -5    1    3    3    0  502  0.65744225770E+02  0.36789581512E+02  0.94779916752E+02  0.12114652925E+03  0.41800000000E+01 0. -1.
        -11    1    1    2    0    0  0.86802617315E+01  0.11850524206E+02  0.58356517121E+02  0.60176947066E+02  0.00000000000E+00 0. -1.
         11    1    1    2    0    0 -0.35921190391E+02 -0.14578812956E+02 -0.33300500348E+02  0.51105743608E+02  0.00000000000E+00 0.  1.
</event>
<event>
 7    1  0.2733606E-009  0.9288927E+02  0.7561462E-02  0.1296002E+00
         -2   -1    0    0    0  501 -0.00000000000E+00  0.00000000000E+00  0.66638499140E+02  0.66638499140E+02  0.00000000000E+00 0.  1.
          2   -1    0    0  501    0  0.00000000000E+00 -0.00000000000E+00 -0.26290327642E+03  0.26290327642E+03  0.00000000000E+00 0. -1.
         25    2    1    2    0    0  0.43664250867E+02  0.42718219344E+02 -0.52053607542E+02  0.14861925422E+03  0.12508673630E+03 0.  0.
          5    1    3    3  502    0  0.63644687764E+02  0.38091336077E+02 -0.82915849760E+02  0.11132882244E+03  0.41800000000E+01 0.  1.
         -5    1    3    3    0  502 -0.19980436897E+02  0.46268832673E+01  0.30862242218E+02  0.37290431777E+02  0.41800000000E+01 0.  1.
        -11    1    1    2    0    0 -0.54036571241E+02 -0.83747248974E+01 -0.13224438218E+03  0.14310368153E+03  0.00000000000E+00 0. -1.
         11    1    1    2    0    0  0.10372320374E+02 -0.34343494447E+02 -0.11966787564E+02  0.37818839821E+02  0.00000000000E+00 0.  1.
</event>
<event>
 7    1  0.2733606E-009  0.1142962E+03  0.7561462E-02  0.1252815E+00
         -1   -1    0    0    0  501 -0.00000000000E+00  0.00000000000E+00  0.18293633590E+02  0.18293633590E+02  0.00000000000E+00 0.  1.
          1   -1    0    0  501    0  0.00000000000E+00 -0.00000000000E+00 -0.83041737855E+03  0.83041737855E+03  0.00000000000E+00 0. -1.
         25    2    1    2    0    0  0.42823951140E+02  0.89323422497E+01 -0.59309813133E+03  0.60772232110E+03  0.12508936266E+03 0.  0.
          5    1    3    3  502    0  0.27077950873E+02  0.66003731178E+02 -0.27496229353E+03  0.28409759453E+03  0.41800000000E+01 0. -1.
         -5    1    3    3    0  502  0.15746000267E+02 -0.57071388928E+02 -0.31813583779E+03  0.32362472657E+03  0.41800000000E+01 0. -1.
        -11    1    1    2    0    0  0.73185881086E+01  0.32138320664E+02 -0.10224732415E+03  0.10742880751E+03  0.00000000000E+00 0. -1.
         11    1    1    2    0    0 -0.50142539248E+02 -0.41070662914E+02 -0.11677828949E+03  0.13355988353E+03  0.00000000000E+00 0.  1.
</event>
<event>
 7    1  0.2733606E-009  0.1231051E+03  0.7561462E-02  0.1238061E+00
          2   -1    0    0  501    0  0.00000000000E+00  0.00000000000E+00  0.44917852636E+03  0.44917852636E+03  0.00000000000E+00 0.  1.
         -2   -1    0    0    0  501 -0.00000000000E+00 -0.00000000000E+00 -0.36104946257E+02  0.36104946257E+02  0.00000000000E+00 0. -1.
         25    2    1    2    0    0  0.41636415041E+02  0.50941486941E+02  0.24611778978E+03  0.28380797133E+03  0.12507746397E+03 0.  0.
          5    1    3    3  502    0 -0.25679692262E+02  0.63201776472E+02  0.87646948143E+02  0.11114571995E+03  0.41800000000E+01 0. -1.
         -5    1    3    3    0  502  0.67316107303E+02 -0.12260289531E+02  0.15847084164E+03  0.17266225138E+03  0.41800000000E+01 0. -1.
        -11    1    1    2    0    0 -0.45624070705E+02  0.11251488301E+02  0.97021745781E+02  0.10780246273E+03  0.00000000000E+00 0.  1.
         11    1    1    2    0    0  0.39876556637E+01 -0.62192975242E+02  0.69934044542E+02  0.93673038560E+02  0.00000000000E+00 0. -1.
</event>
<event>
 7    1  0.2733606E-009  0.7234379E+02  0.7561462E-02  0.1352299E+00
         -2   -1    0    0    0  501 -0.00000000000E+00  0.00000000000E+00  0.81777951424E+02  0.81777951424E+02  0.00000000000E+00 0. -1.
          2   -1    0    0  501    0  0.00000000000E+00 -0.00000000000E+00 -0.14830471546E+03  0.14830471546E+03  0.00000000000E+00 0.  1.
         25    2    1    2    0    0  0.34207704410E+01 -0.11688932241E+02 -0.18682785728E+02  0.12706383103E+03  0.12509131811E+03 0.  0.
          5    1    3    3  502    0  0.75466120626E+01 -0.59777069302E+02  0.21513724544E+02  0.64113665561E+02  0.41800000000E+01 0.  1.
         -5    1    3    3    0  502 -0.41258416217E+01  0.48088137060E+02 -0.40196510272E+02  0.62950165473E+02  0.41800000000E+01 0.  1.
        -11    1    1    2    0    0  0.44896765319E+01  0.22223129674E+02  0.22209311732E+02  0.31737646660E+02  0.00000000000E+00 0. -1.
         11    1    1    2    0    0 -0.79104469728E+01 -0.10534197433E+02 -0.70053290038E+02  0.71281189188E+02  0.00000000000E+00 0.  1.
</event>
<event>
 7    1  0.2733606E-009  0.1408729E+03  0.7561462E-02  0.1212159E+00
          1   -1    0    0  501    0  0.00000000000E+00  0.00000000000E+00  0.22581943950E+03  0.22581943950E+03  0.00000000000E+00 0. -1.
         -1   -1    0    0    0  501 -0.00000000000E+00 -0.00000000000E+00 -0.12431573807E+03  0.12431573807E+03  0.00000000000E+00 0.  1.
         25    2    1    2    0    0  0.62980822968E+02 -0.79298801914E+02  0.13385049290E+03  0.20932828826E+03  0.12508994272E+03 0.  0.
          5    1    3    3  502    0 -0.17932429391E+02  0.22695621892E+02  0.14351338147E+02  0.32559124428E+02  0.41800000000E+01 0. -1.
         -5    1    3    3    0  502  0.80913252359E+02 -0.10199442381E+03  0.11949915475E+03  0.17676916383E+03  0.41800000000E+01 0. -1.
        -11    1    1    2    0    0  0.14598068880E+02  0.68938445437E+01  0.17288978040E+02  0.23654544368E+02  0.00000000000E+00 0. -1.
         11    1    1    2    0    0 -0.77578891848E+02  0.72404957370E+02 -0.49635769509E+02  0.11715234495E+03  0.00000000000E+00 0.  1.
</event>
<event>
 7    1  0.2733606E-009  0.1832126E+03  0.7561462E-02  0.1164730E+00
         -2   -1    0    0    0  501 -0.00000000000E+00  0.00000000000E+00  0.69688660298E+02  0.69688660298E+02  0.00000000000E+00 0.  1.
          2   -1    0    0  501    0  0.00000000000E+00 -0.00000000000E+00 -0.66453646367E+03  0.66453646367E+03  0.00000000000E+00 0. -1.
         25    2    1    2    0    0 -0.17565173377E+03 -0.47534195444E+02 -0.34973818195E+03  0.41361400283E+03  0.12508683427E+03 0.  0.
          5    1    3    3  502    0 -0.32351397898E+02 -0.38164469947E+01  0.29324377060E+00  0.32844125891E+02  0.41800000000E+01 0. -1.
         -5    1    3    3    0  502 -0.14330033587E+03 -0.43717748450E+02 -0.35003142573E+03  0.38076987694E+03  0.41800000000E+01 0. -1.
        -11    1    1    2    0    0  0.59066225195E+02  0.38120763055E+01 -0.15780219306E+03  0.16853748253E+03  0.00000000000E+00 0. -1.
         11    1    1    2    0    0  0.11658550857E+03  0.43722119139E+02 -0.87307428357E+02  0.15207363860E+03  0.00000000000E+00 0.  1.
</event>
<event>
 7    1  0.2733606E-009  0.1760948E+03  0.7561462E-02  0.1171637E+00
          1   -1    0    0  501    0  0.00000000000E+00  0.00000000000E+00  0.24315930168E+03  0.24315930168E+03  0.00000000000E+00 0. -1.
         -1   -1    0    0    0  501 -0.00000000000E+00 -0.00000000000E+00 -0.15224840501E+03  0.15224840501E+03  0.00000000000E+00 0.  1.
         25    2    1    2    0    0 -0.42758046191E+02 -0.12640800284E+03  0.27140467663E+01  0.18292554277E+03  0.12508858641E+03 0.  0.
          5    1    3    3  502    0 -0.46929811895E+01 -0.13640798927E+03  0.22960386750E+02  0.13846954672E+03  0.41800000000E+01 0. -1.
         -5    1    3    3    0  502 -0.38065065001E+02  0.99999864218E+01 -0.20246339984E+02  0.44455996049E+02  0.41800000000E+01 0. -1.
        -11    1    1    2    0    0  0.81586431651E+02  0.69551233033E+02  0.90656985111E+01  0.10759138783E+03  0.00000000000E+00 0.  1.
         11    1    1    2    0    0 -0.38828385460E+02  0.56856769811E+02  0.79131151392E+02  0.10489077610E+03  0.00000000000E+00 0. -1.
</event>
<event>
 7    1  0.2733606E-009  0.9758520E+02  0.7561462E-02  0.1285457E+00
         -2   -1    0    0    0  501 -0.00000000000E+00  0.00000000000E+00  0.93223841300E+02  0.93223841300E+02  0.00000000000E+00 0.  1.
          2   -1    0    0  501    0  0.00000000000E+00 -0.00000000000E+00 -0.12949581000E+03  0.12949581000E+03  0.00000000000E+00 0. -1.
         25    2    1    2    0    0  0.66778951428E+01  0.74278614077E+01 -0.39255820523E+02  0.13148439218E+03  0.12508940216E+03 0.  0.
          5    1    3    3  502    0  0.58575013061E+02  0.28850622310E+02 -0.36941069273E+02  0.75136579386E+02  0.41800000000E+01 0. -1.
         -5    1    3    3    0  502 -0.51897117918E+02 -0.21422760902E+02 -0.23147512500E+01  0.56347812790E+02  0.41800000000E+01 0. -1.
        -11    1    1    2    0    0  0.26475362381E+02 -0.24569459915E+02  0.28512543722E+02  0.46017043834E+02  0.00000000000E+00 0.  1.
         11    1    1    2    0    0 -0.33153257524E+02  0.17141598507E+02 -0.25528691896E+02  0.45218215287E+02  0.00000000000E+00 0. -1.
</event>
<event>
 7    1  0.2733606E-009  0.1234307E+03  0.7561462E-02  0.1237542E+00
         -2   -1    0    0    0  501 -0.00000000000E+00  0.00000000000E+00  0.79398831498E+02  0.79398831498E+02  0.00000000000E+00 0. -1.
          2   -1    0    0  501    0  0.00000000000E+00 -0.00000000000E+00 -0.27143077544E+03  0.27143077544E+03  0.00000000000E+00 0.  1.
         25    2    1    2    0    0 -0.75720538545E+02  0.50918904311E+01 -0.18024530149E+03  0.23215318031E+03  0.12508878093E+03 0.  0.
          5    1    3    3  502    0  0.28461960986E+02 -0.19022744200E+02 -0.72532875104E+02  0.80314621277E+02  0.41800000000E+01 0.  1.
         -5    1    3    3    0  502 -0.10418249953E+03  0.24114634632E+02 -0.10771242638E+03  0.15183855903E+03  0.41800000000E+01 0.  1.
        -11    1    1    2    0    0  0.87010002452E+02 -0.17314613715E+02 -0.30334812394E+02  0.93758931403E+02  0.00000000000E+00 0.  1.
         11    1    1    2    0    0 -0.11289463908E+02  0.12222723284E+02  0.18548169943E+02  0.24917495220E+02  0.00000000000E+00 0. -1.
</event>
<event>
 7    1  0.2733606E-009  0.1129902E+03  0.7561462E-02  0.1255131E+00
          3   -1    0    0  501    0  0.00000000000E+00  0.00000000000E+00  0.11830478306E+03  0.11830478306E+03  0.00000000000E+00 0. -1.
         -3   -1    0    0    0  501 -0.00000000000E+00 -0.00000000000E+00 -0.14382839611E+03  0.14382839611E+03  0.00000000000E+00 0.  1.
         25    2    1    2    0    0  0.55018320049E+02  0.50330297014E+02 -0.24639984805E+02  0.14770013324E+03  0.12509215071E+03 0.  0.
          5    1    3    3  502    0  0.64331363180E+02  0.71564419492E+02  0.18935412135E+02  0.98163194012E+02  0.41800000000E+01 0. -1.
         -5    1    3    3    0  502 -0.93130431310E+01 -0.21234122478E+02 -0.43575396940E+02  0.49536939229E+02  0.41800000000E+01 0. -1.
        -11    1    1    2    0    0 -0.55413646891E+02  0.35377376660E+00  0.20952822024E+02  0.59243718388E+02  0.00000000000E+00 0. -1.
         11    1    1    2    0    0  0.39532684161E+00 -0.50684070781E+02 -0.21836450267E+02  0.55189327542E+02  0.00000000000E+00 0.  1.
</event>
<event>
 7    1  0.2733606E-009  0.1988195E+03  0.7561462E-02  0.1150739E+00
         -4   -1    0    0    0  501 -0.00000000000E+00  0.00000000000E+00  0.53305603605E+03  0.53305603605E+03  0.00000000000E+00 0.  1.
          4   -1    0    0  501    0  0.00000000000E+00 -0.00000000000E+00 -0.12859271041E+03  0.12859271041E+03  0.00000000000E+00 0. -1.
         25    2    1    2    0    0 -0.16537656355E+03  0.90974048860E+02  0.39102435643E+03  0.45185546667E+03  0.12509048764E+03 0.  0.
          5    1    3    3  502    0 -0.55142695302E+02  0.53313720842E+02  0.50487645803E+02  0.91921403676E+02  0.41800000000E+01 0. -1.
         -5    1    3    3    0  502 -0.11023386825E+03  0.37660328019E+02  0.34053671063E+03  0.35993406299E+03  0.41800000000E+01 0. -1.
        -11    1    1    2    0    0  0.15389222774E+03 -0.10487374658E+03  0.25692664385E+02  0.18799317403E+03  0.00000000000E+00 0.  1.
         11    1    1    2    0    0  0.11484335819E+02  0.13899697716E+02 -0.12253695176E+02  0.21800105763E+02  0.00000000000E+00 0. -1.
</event>
<event>
 7    1  0.2733606E-009  0.2986831E+03  0.7561462E-02  0.1085901E+00
          1   -1    0    0  501    0  0.00000000000E+00  0.00000000000E+00  0.13201951270E+04  0.13201951270E+04  0.00000000000E+00 0. -1.
         -1   -1    0    0    0  501 -0.00000000000E+00 -0.00000000000E+00 -0.69471178768E+02  0.69471178768E+02  0.00000000000E+00 0.  1.
         25    2    1    2    0    0 -0.25739067552E+03  0.11636168350E+03  0.61605507135E+03  0.68917529432E+03  0.12509490052E+03 0.  0.
          5    1    3    3  502    0  0.67902940270E+01  0.27955228076E+02  0.78471707701E+02  0.83683237146E+02  0.41800000000E+01 0.  1.
         -5    1    3    3    0  502 -0.26418096954E+03  0.88406455421E+02  0.53758336365E+03  0.60549205718E+03  0.41800000000E+01 0.  1.
        -11    1    1    2    0    0  0.41733973890E+02 -0.47656562761E+02  0.20899847833E+03  0.21838781215E+03  0.00000000000E+00 0.  1.
         11    1    1    2    0    0  0.21565670163E+03 -0.68705120735E+02  0.42567039854E+03  0.48210319929E+03  0.00000000000E+00 0. -1.
</event>
<event>
 7    1  0.2733606E-009  0.1241401E+03  0.7561462E-02  0.1236419E+00
          1   -1    0    0  501    0  0.00000000000E+00  0.00000000000E+00  0.17611779786E+03  0.17611779786E+03  0.00000000000E+00 0. -1.
         -1   -1    0    0    0  501 -0.00000000000E+00 -0.00000000000E+00 -0.15501757288E+03  0.15501757288E+03  0.00000000000E+00 0.  1.
         25    2    1    2    0    0  0.52086622948E+02 -0.11171434883E+03  0.27341671356E+02  0.17774403019E+03  0.12510899749E+03 0.  0.
          5    1    3    3  502    0  0.32929616129E+02 -0.48797501313E+02 -0.49132482068E+02  0.76792115136E+02  0.41800000000E+01 0.  1.
         -5    1    3    3    0  502  0.19157006819E+02 -0.62916847517E+02  0.76474153425E+02  0.10095191506E+03  0.41800000000E+01 0.  1.
        -11    1    1    2    0    0 -0.31561777711E+02  0.61828342256E+02 -0.48654369887E+02  0.84771088394E+02  0.00000000000E+00 0.  1.
         11    1    1    2    0    0 -0.20524845237E+02  0.49886006574E+02  0.42412923518E+02  0.68620252151E+02  0.00000000000E+00 0. -1.
</event>
<event>
 7    1  0.2733606E-009  0.1113946E+03  0.7561462E-02  0.1258009E+00
          1   -1    0    0  501    0  0.00000000000E+00  0.00000000000E+00  0.28272571167E+03  0.28272571167E+03  0.00000000000E+00 0. -1.
         -1   -1    0    0    0  501 -0.00000000000E+00 -0.00000000000E+00 -0.86129310044E+02  0.86129310044E+02  0.00000000000E+00 0.  1.
         25    2    1    2    0    0 -0.23304537077E+02  0.39514657863E+02  0.22506077926E+03  0.26154403474E+03  0.12509363737E+03 0.  0.
          5    1    3    3  502    0  0.42584555913E+02 -0.64242908321E+01  0.36727412264E+02  0.56754657312E+02  0.41800000000E+01 0.  1.
         -5    1    3    3    0  502 -0.65889092990E+02  0.45938948695E+02  0.18833336700E+03  0.20478937743E+03  0.41800000000E+01 0.  1.
        -11    1    1    2    0    0  0.34215037266E+01 -0.65934462166E+02 -0.39352048356E+01  0.66140349455E+02  0.00000000000E+00 0.  1.
         11    1    1    2    0    0  0.19883033350E+02  0.26419804303E+02 -0.24529172807E+02  0.41170637513E+02  0.00000000000E+00 0. -1.
</event>
<event>
 7    1  0.2733606E-009  0.1564065E+03  0.7561462E-02  0.1192815E+00
         -2   -1    0    0    0  501 -0.00000000000E+00  0.00000000000E+00  0.54215134845E+02  0.54215134845E+02  0.00000000000E+00 0.  1.
          2   -1    0    0  501    0  0.00000000000E+00 -0.00000000000E+00 -0.60079351531E+03  0.60079351531E+03  0.00000000000E+00 0. -1.
         25    2    1    2    0    0 -0.51414499477E+02 -0.13394240101E+03 -0.30209211955E+03  0.35706105087E+03  0.12509567461E+03 0.  0.
          5    1    3    3  502    0 -0.53458542476E+02 -0.64202154053E+02 -0.26509191909E+03  0.27797649238E+03  0.41800000000E+01 0. -1.
         -5    1    3    3    0  502  0.20440429992E+01 -0.69740246955E+02 -0.37000200462E+02  0.79084558489E+02  0.41800000000E+01 0. -1.
        -11    1    1    2    0    0  0.67972660764E+02  0.93749418004E+02 -0.12306721397E+03  0.16898158225E+03  0.00000000000E+00 0. -1.
         11    1    1    2    0    0 -0.16558161287E+02  0.40192983003E+02 -0.12141904695E+03  0.12896601704E+03  0.00000000000E+00 0.  1.
</event>
<event>
 7    1  0.2733606E-009  0.1244719E+03  0.7561462E-02  0.1235897E+00
          1   -1    0    0  501    0  0.00000000000E+00  0.00000000000E+00  0.69584326487E+03  0.69584326487E+03  0.00000000000E+00 0. -1.
         -1   -1    0    0    0  501 -0.00000000000E+00 -0.00000000000E+00 -0.32322452466E+02  0.32322452466E+02  0.00000000000E+00 0.  1.
         25    2    1    2    0    0  0.91359155668E+02 -0.15063345670E+01  0.24806755397E+03  0.29246172267E+03  0.12509030150E+03 0.  0.
          5    1    3    3  502    0  0.10105313729E+03  0.11004435341E+02  0.25510521918E+03  0.27464336767E+03  0.41800000000E+01 0.  1.
         -5    1    3    3    0  502 -0.96939816189E+01 -0.12510769908E+02 -0.70376652138E+01  0.17818355002E+02  0.41800000000E+01 0.  1.
        -11    1    1    2    0    0 -0.29552529945E+02 -0.44757748981E+02  0.15282751349E+03  0.16196560437E+03  0.00000000000E+00 0. -1.
         11    1    1    2    0    0 -0.61806625723E+02  0.46264083548E+02  0.26262574495E+03  0.27373839029E+03  0.00000000000E+00 0.  1.
</event>
<event>
 7    1  0.2733606E-009  0.6998749E+02  0.7561462E-02  0.1360136E+00
         -1   -1    0    0    0  501 -0.00000000000E+00  0.00000000000E+00  0.29034587805E+03  0.29034587805E+03  0.00000000000E+00 0.  1.
          1   -1    0    0  501    0  0.00000000000E+00 -0.00000000000E+00 -0.44267549326E+02  0.44267549326E+02  0.00000000000E+00 0. -1.
         25    2    1    2    0    0  0.21699101649E+02 -0.19393801855E+02  0.18800581167E+03  0.22768313092E+03  0.12508577985E+03 0.  0.
          5    1    3    3  502    0  0.47599722239E+02 -0.28967724352E+02  0.19154752998E+03  0.19953142924E+03  0.41800000000E+01 0. -1.
         -5    1    3    3    0  502 -0.25900620590E+02  0.95739224972E+01 -0.35417183100E+01  0.28151701681E+02  0.41800000000E+01 0. -1.
        -11    1    1    2    0    0  0.14967996377E+02  0.63343845626E+00 -0.16160506187E+02  0.22036427116E+02  0.00000000000E+00 0. -1.
         11    1    1    2    0    0 -0.36667098026E+02  0.18760363398E+02  0.74233023236E+02  0.84893869338E+02  0.00000000000E+00 0.  1.
</event>
<event>
 7    1  0.2733606E-009  0.1302796E+03  0.7561462E-02  0.1227041E+00
         -2   -1    0    0    0  501 -0.00000000000E+00  0.00000000000E+00  0.13595532552E+02  0.13595532552E+02  0.00000000000E+00 0. -1.
          2   -1    0    0  501    0  0.00000000000E+00 -0.00000000000E+00 -0.12665782811E+04  0.12665782811E+04  0.00000000000E+00 0.  1.
         25    2    1    2    0    0  0.30758940379E+01 -0.73255029104E+02 -0.65866672739E+03  0.67443682165E+03  0.12508960073E+03 0.  0.
          5    1    3    3  502    0  0.14762961236E+02  0.33851664072E+02 -0.16676070675E+03  0.17085223411E+03  0.41800000000E+01 0.  1.
         -5    1    3    3    0  502 -0.11687067198E+02 -0.10710669318E+03 -0.49190602064E+03  0.50358458754E+03  0.41800000000E+01 0.  1.
        -11    1    1    2    0    0  0.39614722617E+02  0.57994069817E+02 -0.40680208842E+03  0.41282027266E+03  0.00000000000E+00 0.  1.
         11    1    1    2    0    0 -0.42690616655E+02  0.15260959287E+02 -0.18751393273E+03  0.19291671933E+03  0.00000000000E+00 0. -1.
</event>
<event>
 7    1  0.2733606E-009  0.1163255E+03  0.7561462E-02  0.1249285E+00
          1   -1    0    0  501    0  0.00000000000E+00  0.00000000000E+00  0.17227892391E+03  0.17227892391E+03  0.00000000000E+00 0. -1.
         -1   -1    0    0    0  501 -0.00000000000E+00 -0.00000000000E+00 -0.15459726124E+03  0.15459726124E+03  0.00000000000E+00 0.  1.
         25    2    1    2    0    0  0.84613192532E+02  0.89981807692E+01  0.95676865114E+02  0.17900106312E+03  0.12508780305E+03 0.  0.
          5    1    3    3  502    0  0.11343384823E+03  0.18982072112E+02  0.53840967318E+02  0.12705856582E+03  0.41800000000E+01 0.  1.
         -5    1    3    3    0  502 -0.28820655698E+02 -0.99838913429E+01  0.41835897797E+02  0.51942497299E+02  0.41800000000E+01 0.  1.
        -11    1    1    2    0    0 -0.50005179208E+02  0.31381058498E+01  0.11282554417E+02  0.51358170627E+02  0.00000000000E+00 0. -1.
         11    1    1    2    0    0 -0.34608013324E+02 -0.12136286619E+02 -0.89277756857E+02  0.96516951405E+02  0.00000000000E+00 0.  1.
</event>
<event>
 7    1  0.2733606E-009  0.1399014E+03  0.7561462E-02  0.1213462E+00
          1   -1    0    0  501    0  0.00000000000E+00  0.00000000000E+00  0.10119292674E+04  0.10119292674E+04  0.00000000000E+00 0. -1.
         -1   -1    0    0    0  501 -0.00000000000E+00 -0.00000000000E+00 -0.19900976101E+02  0.19900976101E+02  0.00000000000E+00 0.  1.
         25    2    1    2    0    0  0.88416000698E+02  0.91590106935E+01  0.59898346946E+03  0.61832937127E+03  0.12509491607E+03 0.  0.
          5    1    3    3  502    0 -0.52464187568E+01  0.50115441225E+02  0.17345881882E+03  0.18067793608E+03  0.41800000000E+01 0.  1.
         -5    1    3    3    0  502  0.93662419455E+02 -0.40956430531E+02  0.42552465064E+03  0.43765143519E+03  0.41800000000E+01 0.  1.
        -11    1    1    2    0    0 -0.62729889339E+02  0.37918944845E+02  0.19494363033E+03  0.20826882725E+03  0.00000000000E+00 0.  1.
         11    1    1    2    0    0 -0.25686111359E+02 -0.47077955539E+02  0.19810119147E+03  0.20523204496E+03  0.00000000000E+00 0. -1.
</event>
<event>
 7    1  0.2733606E-009  0.1397166E+03  0.7561462E-02  0.1213711E+00
          2   -1    0    0  501    0  0.00000000000E+00  0.00000000000E+00  0.29547487912E+03  0.29547487912E+03  0.00000000000E+00 0. -1.
         -2   -1    0    0    0  501 -0.00000000000E+00 -0.00000000000E+00 -0.74924389448E+02  0.74924389448E+02  0.00000000000E+00 0.  1.
         25    2    1    2    0    0  0.21364108144E+02 -0.99797103039E+02  0.87931815251E+02  0.18384234100E+03  0.12510042093E+03 0.  0.
          5    1    3    3  502    0 -0.43833932927E+02 -0.81739902803E+02  0.41600983913E+02  0.10173956776E+03  0.41800000000E+01 0.  1.
         -5    1    3    3    0  502  0.65198041071E+02 -0.18057200236E+02  0.46330831338E+02  0.82102773232E+02  0.41800000000E+01 0.  1.
        -11    1    1    2    0    0  0.13041179450E+02  0.75666804315E+02  0.44041604561E+02  0.88516668312E+02  0.00000000000E+00 0.  1.
         11    1    1    2    0    0 -0.34405287595E+02  0.24130298724E+02  0.88577069862E+02  0.98040259263E+02  0.00000000000E+00 0. -1.
</event>
<event>
 7    1  0.5099363E-009  0.1144617E+03  0.7561462E-02  0.1252524E+00
         -2   -1    0    0    0  501 -0.00000000000E+00  0.00000000000E+00  0.13377651540E+03  0.13377651540E+03  0.00000000000E+00 0.  1.
          2   -1    0    0  501    0  0.00000000000E+00 -0.00000000000E+00 -0.18219077834E+03  0.18219077834E+03  0.00000000000E+00 0. -1.
         25    2    1    2    0    0  0.78581072485E+02 -0.10720792853E+02  0.54126876837E+02  0.15769728119E+03  0.12509513718E+03 0.  0.
          5    1    3    3  502    0 -0.33800614698E+02  0.46196987265E+01  0.87861039173E+01  0.35475219412E+02  0.41800000000E+01 0.  1.
         -5    1    3    3    0  502  0.11238168718E+03 -0.15340491580E+02  0.45340772920E+02  0.12222206178E+03  0.41800000000E+01 0.  1.
        -11    1    1    2    0    0 -0.28905783183E+02 -0.41427890401E+01  0.12744125038E+02  0.31860943574E+02  0.00000000000E+00 0.  1.
         11    1    1    2    0    0 -0.49675289303E+02  0.14863581893E+02 -0.11528526482E+03  0.12640906897E+03  0.00000000000E+00 0. -1.
</event>
<event>
 7    1  0.2733606E-009  0.1018590E+03  0.7561462E-02  0.1276435E+00
         -2   -1    0    0    0  501 -0.00000000000E+00  0.00000000000E+00  0.20382166888E+03  0.20382166888E+03  0.00000000000E+00 0.  1.
          2   -1    0    0  501    0  0.00000000000E+00 -0.00000000000E+00 -0.10735175763E+03  0.10735175763E+03  0.00000000000E+00 0. -1.
         25    2    1    2    0    0 -0.52562438749E+01 -0.81620324235E+02 -0.92958875212E+01  0.14973648462E+03  0.12508035767E+03 0.  0.
          5    1    3    3  502    0 -0.23888039812E+01 -0.40839409055E+02  0.57872051346E+02  0.70994439525E+02  0.41800000000E+01 0.  1.
         -5    1    3    3    0  502 -0.28674398937E+01 -0.40780915181E+02 -0.67167938867E+02  0.78742045098E+02  0.41800000000E+01 0.  1.
        -11    1    1    2    0    0  0.22971169558E+02 -0.12209024384E+02  0.17093412731E+02  0.31127474457E+02  0.00000000000E+00 0.  1.
         11    1    1    2    0    0 -0.17714925683E+02  0.93829348619E+02  0.88672386046E+02  0.13030946743E+03  0.00000000000E+00 0. -1.
</event>
<event>
 7    1  0.2733606E-009  0.1253647E+03  0.7561462E-02  0.1234500E+00
         -1   -1    0    0    0  501 -0.00000000000E+00  0.00000000000E+00  0.30254646329E+02  0.30254646329E+02  0.00000000000E+00 0.  1.
          1   -1    0    0  501    0  0.00000000000E+00 -0.00000000000E+00 -0.66551160932E+03  0.66551160932E+03  0.00000000000E+00 0. -1.
         25    2    1    2    0    0  0.35720283548E+02 -0.77878370513E+02 -0.41160759874E+03  0.43864440832E+03  0.12508845813E+03 0.  0.
          5    1    3    3  502    0  0.80010176322E+02 -0.54321969955E+02 -0.31738516698E+03  0.33181820527E+03  0.41800000000E+01 0.  1.
         -5    1    3    3    0  502 -0.44289892774E+02 -0.23556400558E+02 -0.94222431768E+02  0.10682620305E+03  0.41800000000E+01 0.  1.
        -11    1    1    2    0    0 -0.93771749393E+01  0.76648954797E+02 -0.80445462103E+02  0.11150993702E+03  0.00000000000E+00 0.  1.
         11    1    1    2    0    0 -0.26343108609E+02  0.12294157160E+01 -0.14320390214E+03  0.14561191031E+03  0.00000000000E+00 0. -1.
</event>
<event>
 7    1  0.2733606E-009  0.9824960E+02  0.7561462E-02  0.1284020E+00
          1   -1    0    0  501    0  0.00000000000E+00  0.00000000000E+00  0.25321768616E+03  0.25321768616E+03  0.00000000000E+00 0. -1.
         -1   -1    0    0    0  501 -0.00000000000E+00 -0.00000000000E+00 -0.51346437410E+02  0.51346437410E+02  0.00000000000E+00 0.  1.
         25    2    1    2    0    0  0.20153224246E+02 -0.31334644672E+02  0.85268944960E+02  0.15590550409E+03  0.12509085029E+03 0.  0.
          5    1    3    3  502    0  0.28324745270E+02  0.38543185882E+02  0.68172212733E+02  0.83383399796E+02  0.41800000000E+01 0. -1.
         -5    1    3    3    0  502 -0.81715210248E+01 -0.69877830554E+02  0.17096732227E+02  0.72522104296E+02  0.41800000000E+01 0. -1.
        -11    1    1    2    0    0 -0.42932922274E+02  0.50560576361E+01  0.23350673932E+02  0.49133018500E+02  0.00000000000E+00 0.  1.
         11    1    1    2    0    0  0.22779698028E+02  0.26278587035E+02  0.93251629859E+02  0.99525600979E+02  0.00000000000E+00 0. -1.
</event>
<event>
 7    1  0.2733606E-009  0.9686833E+02  0.7561462E-02  0.1287023E+00
          2   -1    0    0  501    0  0.00000000000E+00  0.00000000000E+00  0.12393015673E+04  0.12393015673E+04  0.00000000000E+00 0. -1.
         -2   -1    0    0    0  501 -0.00000000000E+00 -0.00000000000E+00 -0.12401665617E+02  0.12401665617E+02  0.00000000000E+00 0.  1.
         25    2    1    2    0    0  0.41125188427E+02 -0.44386815044E+02  0.77677330746E+03  0.78910432528E+03  0.12508954602E+03 0.  0.
          5    1    3    3  502    0  0.26709896737E+02 -0.61100153944E+02  0.18149904238E+03  0.19340636541E+03  0.41800000000E+01 0. -1.
         -5    1    3    3    0  502  0.14415291690E+02  0.16713338900E+02  0.59527426508E+03  0.59569795987E+03  0.41800000000E+01 0. -1.
        -11    1    1    2    0    0 -0.65460277652E+02  0.16619081433E+02  0.33341132026E+03  0.34018281893E+03  0.00000000000E+00 0. -1.
         11    1    1    2    0    0  0.24335089225E+02  0.27767733610E+02  0.11671527398E+03  0.12241608872E+03  0.00000000000E+00 0.  1.
</event>
<event>
 7    1  0.2733606E-009  0.1864908E+03  0.7561462E-02  0.1161665E+00
         -1   -1    0    0    0  501 -0.00000000000E+00  0.00000000000E+00  0.31560206299E+02  0.31560206299E+02  0.00000000000E+00 0.  1.
          1   -1    0    0  501    0  0.00000000000E+00 -0.00000000000E+00 -0.14776155885E+04  0.14776155885E+04  0.00000000000E+00 0. -1.
         25    2    1    2    0    0 -0.73935241004E+02 -0.14324442766E+03 -0.10831021105E+04  0.11021550627E+04  0.12510081773E+03 0.  0.
          5    1    3    3  502    0 -0.49466957303E+02 -0.15969696651E+03 -0.99979407050E+03  0.10136842491E+04  0.41800000000E+01 0. -1.
         -5    1    3    3    0  502 -0.24468283701E+02  0.16452538853E+02 -0.83308040001E+02  0.88470813666E+02  0.41800000000E+01 0. -1.
        -11    1    1    2    0    0 -0.87509571017E+00  0.74071982339E+02 -0.21478734470E+03  0.22720261399E+03  0.00000000000E+00 0.  1.
         11    1    1    2    0    0  0.74810336714E+02  0.69172445322E+02 -0.14816592704E+03  0.17981811813E+03  0.00000000000E+00 0. -1.
</event>
<event>
 7    1  0.2733606E-009  0.1566592E+03  0.7561462E-02  0.1192521E+00
         -1   -1    0    0    0  501 -0.00000000000E+00  0.00000000000E+00  0.66581188903E+02  0.66581188903E+02  0.00000000000E+00 0.  1.
          1   -1    0    0  501    0  0.00000000000E+00 -0.00000000000E+00 -0.40273987689E+03  0.40273987689E+03  0.00000000000E+00 0. -1.
         25    2    1    2    0    0 -0.20268405549E+02  0.11436781314E+03 -0.22988629200E+03  0.28633317448E+03  0.12509266410E+03 0.  0.
          5    1    3    3  502    0  0.48203448698E+02  0.35217076327E+02 -0.12243780234E+03  0.13628023618E+03  0.41800000000E+01 0. -1.
         -5    1    3    3    0  502 -0.68471854247E+02  0.79150736811E+02 -0.10744848966E+03  0.15005293830E+03  0.41800000000E+01 0. -1.
        -11    1    1    2    0    0  0.56870830137E+02 -0.55835598213E+02 -0.51839969694E+02  0.95075169241E+02  0.00000000000E+00 0. -1.
         11    1    1    2    0    0 -0.36602424588E+02 -0.58532214925E+02 -0.54432426286E+02  0.87912722067E+02  0.00000000000E+00 0.  1.
</event>
<event>
 7    1  0.2733606E-009  0.1353766E+03  0.7561462E-02  0.1219689E+00
         -1   -1    0    0    0  501 -0.00000000000E+00  0.00000000000E+00  0.62598577476E+03  0.62598577476E+03  0.00000000000E+00 0.  1.
          1   -1    0    0  501    0  0.00000000000E+00 -0.00000000000E+00 -0.44640666271E+02  0.44640666271E+02  0.00000000000E+00 0. -1.
         25    2    1    2    0    0  0.11328366469E+03 -0.13393207660E+02  0.19959642105E+03  0.26172282509E+03  0.12509012422E+03 0.  0.
          5    1    3    3  502    0  0.10401001380E+03  0.50866965174E+01  0.21272074519E+03  0.23687875651E+03  0.41800000000E+01 0. -1.
         -5    1    3    3    0  502  0.92736508830E+01 -0.18479904177E+02 -0.13124324139E+02  0.24844068572E+02  0.41800000000E+01 0. -1.
        -11    1    1    2    0    0 -0.65694305230E+02 -0.37597547529E+02  0.22339026205E+03  0.23586548391E+03  0.00000000000E+00 0. -1.
         11    1    1    2    0    0 -0.47589359457E+02  0.50990755189E+02  0.15835842539E+03  0.17303813204E+03  0.00000000000E+00 0.  1.
</event>
<event>
 7    1  0.2733606E-009  0.6964530E+02  0.7561462E-02  0.1361303E+00
          2   -1    0    0  501    0  0.00000000000E+00  0.00000000000E+00  0.63037870182E+03  0.63037870182E+03  0.00000000000E+00 0. -1.
         -2   -1    0    0    0  501 -0.00000000000E+00 -0.00000000000E+00 -0.20610458831E+02  0.20610458831E+02  0.00000000000E+00 0.  1.
         25    2    1    2    0    0  0.25711221307E+02 -0.13963236342E+02  0.40383288815E+03  0.42377303618E+03  0.12508615340E+03 0.  0.
          5    1    3    3  502    0  0.40938919565E+02 -0.17425840677E+01  0.40157107181E+03  0.40367787882E+03  0.41800000000E+01 0.  1.
         -5    1    3    3    0  502 -0.15227698258E+02 -0.12220652275E+02  0.22618163421E+01  0.20095157362E+02  0.41800000000E+01 0.  1.
        -11    1    1    2    0    0  0.75183046554E+01 -0.25476253286E+02  0.17399147177E+02  0.31753656622E+02  0.00000000000E+00 0.  1.
         11    1    1    2    0    0 -0.33229525962E+02  0.39439489628E+02  0.18853620766E+03  0.19546246785E+03  0.00000000000E+00 0. -1.
</event>
<event>
 7    1  0.2733606E-009  0.1378978E+03  0.7561462E-02  0.1216186E+00
         -1   -1    0    0    0  501 -0.00000000000E+00  0.00000000000E+00  0.13577847465E+03  0.13577847465E+03  0.00000000000E+00 0.  1.
          1   -1    0    0  501    0  0.00000000000E+00 -0.00000000000E+00 -0.14694268487E+03  0.14694268487E+03  0.00000000000E+00 0. -1.
         25    2    1    2    0    0  0.65048947703E+02  0.64229027532E+02 -0.43457746496E+01  0.15499662412E+03  0.12509330180E+03 0.  0.
          5    1    3    3  502    0  0.71579236219E+01  0.90727866450E+02 -0.39349030806E+01  0.91190665550E+02  0.41800000000E+01 0. -1.
         -5    1    3    3    0  502  0.57891024081E+02 -0.26498838918E+02 -0.41087156904E+00  0.63805958567E+02  0.41800000000E+01 0. -1.
        -11    1    1    2    0    0  0.16550223298E+02  0.76125577119E+00 -0.15963287715E+02  0.23006867588E+02  0.00000000000E+00 0. -1.
         11    1    1    2    0    0 -0.81599171001E+02 -0.64990283303E+02  0.91448521527E+01  0.10471766782E+03  0.00000000000E+00 0.  1.
</event>
<event>
 7    1  0.2733606E-009  0.1257447E+03  0.7561462E-02  0.1233910E+00
          1   -1    0    0  501    0  0.00000000000E+00  0.00000000000E+00  0.29538527430E+03  0.29538527430E+03  0.00000000000E+00 0. -1.
         -1   -1    0    0    0  501 -0.00000000000E+00 -0.00000000000E+00 -0.67236349464E+02  0.67236349464E+02  0.00000000000E+00 0.  1.
         25    2    1    2    0    0  0.46513518928E+02 -0.57744476608E+02  0.19248837250E+03  0.24124556399E+03  0.12509882724E+03 0.  0.
          5    1    3    3  502    0 -0.23228110523E+02 -0.62476222385E+02  0.53347183840E+02  0.85476417248E+02  0.41800000000E+01 0.  1.
         -5    1    3    3    0  502  0.69741629451E+02  0.47317457763E+01  0.13914118866E+03  0.15576914674E+03  0.41800000000E+01 0.  1.
        -11    1    1    2    0    0 -0.52550611819E+01  0.71113014673E+02  0.31007446841E+02  0.77756917914E+02  0.00000000000E+00 0. -1.
         11    1    1    2    0    0 -0.41258457746E+02 -0.13368538064E+02  0.46531054971E+01  0.43619141857E+02  0.00000000000E+00 0.  1.
</event>
<event>
 7    1  0.2733606E-009  0.2136734E+03  0.7561462E-02  0.1138690E+00
          2   -1    0    0  501    0  0.00000000000E+00  0.00000000000E+00  0.76852317801E+02  0.76852317801E+02  0.00000000000E+00 0.  1.
         -2   -1    0    0    0  501 -0.00000000000E+00 -0.00000000000E+00 -0.75785253525E+03  0.75785253525E+03  0.00000000000E+00 0. -1.
         25    2    1    2    0    0  0.11534494782E+03 -0.15634719341E+03 -0.19095124683E+03  0.29976542413E+03  0.12509208194E+03 0.  0.
          5    1    3    3  502    0  0.53729949727E+02 -0.16037699259E+03 -0.13969706417E+03  0.21940927370E+03  0.41800000000E+01 0.  1.
         -5    1    3    3    0  502  0.61614998097E+02  0.40297991777E+01 -0.51254182656E+02  0.80356150428E+02  0.41800000000E+01 0.  1.
        -11    1    1    2    0    0 -0.46653072553E+02  0.41465427840E+02 -0.68603946193E+02  0.92749082572E+02  0.00000000000E+00 0.  1.
         11    1    1    2    0    0 -0.68691875271E+02  0.11488176557E+03 -0.42144502443E+03  0.44219034635E+03  0.00000000000E+00 0. -1.
</event>
<event>
 7    1  0.2733606E-009  0.8744110E+02  0.7561462E-02  0.1309169E+00
         -2   -1    0    0    0  501 -0.00000000000E+00  0.00000000000E+00  0.30852845271E+02  0.30852845271E+02  0.00000000000E+00 0.  1.
          2   -1    0    0  501    0  0.00000000000E+00 -0.00000000000E+00 -0.38438750272E+03  0.38438750272E+03  0.00000000000E+00 0. -1.
         25    2    1    2    0    0 -0.12134033706E+02  0.56121888767E+01 -0.20510697356E+03  0.24061170663E+03  0.12508553604E+03 0.  0.
          5    1    3    3  502    0 -0.48084231851E+02 -0.35265396559E+02 -0.56340327248E+02  0.82142841572E+02  0.41800000000E+01 0.  1.
         -5    1    3    3    0  502  0.35950198146E+02  0.40877585436E+02 -0.14876664631E+03  0.15846886506E+03  0.41800000000E+01 0.  1.
        -11    1    1    2    0    0  0.35229827491E+02 -0.10778832813E+02 -0.14629887875E+03  0.15086645056E+03  0.00000000000E+00 0. -1.
         11    1    1    2    0    0 -0.23095793786E+02  0.51666439366E+01 -0.21288051373E+01  0.23762190797E+02  0.00000000000E+00 0.  1.
</event>
<event>
 7    1  0.2733606E-009  0.9081175E+02  0.7561462E-02  0.1300898E+00
          1   -1    0    0  501    0  0.00000000000E+00  0.00000000000E+00  0.80030189461E+03  0.80030189461E+03  0.00000000000E+00 0. -1.
         -1   -1    0    0    0  501 -0.00000000000E+00 -0.00000000000E+00 -0.18231209724E+02  0.18231209724E+02  0.00000000000E+00 0.  1.
         25    2    1    2    0    0  0.15168831939E+02 -0.39036486192E+02  0.54973857989E+03  0.56534431109E+03  0.12509093951E+03 0.  0.
          5    1    3    3  502    0  0.12030599592E+02 -0.65328482652E+02  0.52390438193E+03  0.52811534704E+03  0.41800000000E+01 0. -1.
         -5    1    3    3    0  502  0.31382323464E+01  0.26291996460E+02  0.25834197957E+02  0.37228964049E+02  0.41800000000E+01 0. -1.
        -11    1    1    2    0    0  0.94200017719E+01 -0.21198971977E+02  0.12908160774E+03  0.13114951126E+03  0.00000000000E+00 0. -1.
         11    1    1    2    0    0 -0.24588833711E+02  0.60235458169E+02  0.10325049726E+03  0.12203928199E+03  0.00000000000E+00 0.  1.
</event>
<event>
 7    1  0.2733606E-009  0.1739521E+03  0.7561462E-02  0.1173788E+00
          1   -1    0    0  501    0  0.00000000000E+00  0.00000000000E+00  0.20383668721E+03  0.20383668721E+03  0.00000000000E+00 0. -1.
         -1   -1    0    0    0  501 -0.00000000000E+00 -0.00000000000E+00 -0.20125509245E+03  0.20125509245E+03  0.00000000000E+00 0.  1.
         25    2    1    2    0    0 -0.12871930369E+03  0.96595887869E+02 -0.55331444788E+02  0.21120896091E+03  0.12509289225E+03 0.  0.
          5    1    3    3  502    0 -0.11009982558E+03  0.11404417395E+03 -0.98350664599E+01  0.15887808577E+03  0.41800000000E+01 0. -1.
         -5    1    3    3    0  502 -0.18619478108E+02 -0.17448286083E+02 -0.45496378328E+02  0.52330875143E+02  0.41800000000E+01 0. -1.
        -11    1    1    2    0    0  0.20717968675E+02 -0.30437571543E+02 -0.23164904681E+02  0.43500491909E+02  0.00000000000E+00 0.  1.
         11    1    1    2    0    0  0.10800133501E+03 -0.66158316326E+02  0.81077944230E+02  0.15038232684E+03  0.00000000000E+00 0. -1.
</event>
<event>
 7    1  0.2733606E-009  0.1145455E+03  0.7561462E-02  0.1252377E+00
         -1   -1    0    0    0  501 -0.00000000000E+00  0.00000000000E+00  0.21751871297E+02  0.21751871297E+02  0.00000000000E+00 0.  1.
          1   -1    0    0  501    0  0.00000000000E+00 -0.00000000000E+00 -0.12657229229E+04  0.12657229229E+04  0.00000000000E+00 0. -1.
         25    2    1    2    0    0  0.66392679665E+01 -0.68968102841E+02 -0.10602193137E+04  0.10698180899E+04  0.12508026745E+03 0.  0.
          5    1    3    3  502    0 -0.50264686705E+02 -0.68643859903E+02 -0.68741627324E+03  0.69267389394E+03  0.41800000000E+01 0. -1.
         -5    1    3    3    0  502  0.56903954672E+02 -0.32424293746E+00 -0.37280304046E+03  0.37714419599E+03  0.41800000000E+01 0. -1.
        -11    1    1    2    0    0  0.22229902334E+02  0.19478820175E+02 -0.14618912187E+03  0.14914708293E+03  0.00000000000E+00 0. -1.
         11    1    1    2    0    0 -0.28869170300E+02  0.49489282665E+02 -0.37562616029E+02  0.68509621335E+02  0.00000000000E+00 0.  1.
</event>
<event>
 7    1  0.2733606E-009  0.1064090E+03  0.7561462E-02  0.1267368E+00
          1   -1    0    0  501    0  0.00000000000E+00  0.00000000000E+00  0.12060433654E+04  0.12060433654E+04  0.00000000000E+00 0. -1.
         -1   -1    0    0    0  501 -0.00000000000E+00 -0.00000000000E+00 -0.13363048695E+02  0.13363048695E+02  0.00000000000E+00 0.  1.
         25    2    1    2    0    0  0.21661700811E+02 -0.36617473208E+02  0.88954425812E+03  0.89930361828E+03  0.12509173461E+03 0.  0.
          5    1    3    3  502    0 -0.46109929497E+02 -0.27826206918E+02  0.23205784641E+03  0.23826191444E+03  0.41800000000E+01 0.  1.
         -5    1    3    3    0  502  0.67771630307E+02 -0.87912662902E+01  0.65748641171E+03  0.66104170384E+03  0.41800000000E+01 0.  1.
        -11    1    1    2    0    0  0.23838263808E+02 -0.93952973865E+01  0.30222290771E+02  0.39622232317E+02  0.00000000000E+00 0.  1.
         11    1    1    2    0    0 -0.45499964618E+02  0.46012770594E+02  0.27291376782E+03  0.28048056350E+03  0.00000000000E+00 0. -1.
</event>
<event>
 7    1  0.2733606E-009  0.8868502E+02  0.7561462E-02  0.1306068E+00
         -2   -1    0    0    0  501 -0.00000000000E+00  0.00000000000E+00  0.33776640148E+02  0.33776640148E+02  0.00000000000E+00 0. -1.
          2   -1    0    0  501    0  0.00000000000E+00 -0.00000000000E+00 -0.38609962297E+03  0.38609962297E+03  0.00000000000E+00 0.  1.
         25    2    1    2    0    0 -0.27356326512E+02 -0.20491839921E+02 -0.18045054701E+03  0.22221520248E+03  0.12509561220E+03 0.  0.
          5    1    3    3  502    0  0.47463442833E+02 -0.25625029927E+02 -0.66350131809E+02  0.85610939461E+02  0.41800000000E+01 0. -1.
         -5    1    3    3    0  502 -0.74819769345E+02  0.51331900063E+01 -0.11410041521E+03  0.13660426302E+03  0.41800000000E+01 0. -1.
        -11    1    1    2    0    0  0.29050890566E+02  0.14996379298E+01 -0.17580222379E+03  0.17819266272E+03  0.00000000000E+00 0.  1.
         11    1    1    2    0    0 -0.16945640545E+01  0.18992201991E+02  0.39297879892E+01  0.19468397917E+02  0.00000000000E+00 0. -1.
</event>
<event>
 7    1  0.2733606E-009  0.8598035E+02  0.7561462E-02  0.1312889E+00
         -1   -1    0    0    0  501 -0.00000000000E+00  0.00000000000E+00  0.14115874600E+03  0.14115874600E+03  0.00000000000E+00 0.  1.
          1   -1    0    0  501    0  0.00000000000E+00 -0.00000000000E+00 -0.90898578547E+02  0.90898578547E+02  0.00000000000E+00 0. -1.
         25    2    1    2    0    0  0.42406853618E+02 -0.11919721143E+02  0.33710591765E+02  0.13683988012E+03  0.12509327643E+03 0.  0.
          5    1    3    3  502    0  0.21316031505E+02 -0.50753751189E+02  0.62917320251E+02  0.83704110093E+02  0.41800000000E+01 0.  1.
         -5    1    3    3    0  502  0.21090822114E+02  0.38834030046E+02 -0.29206728486E+02  0.53135770023E+02  0.41800000000E+01 0.  1.
        -11    1    1    2    0    0 -0.52724028369E+02 -0.45613583656E+01 -0.17726022500E+02  0.55810760891E+02  0.00000000000E+00 0. -1.
         11    1    1    2    0    0  0.10317174750E+02  0.16481079508E+02  0.34275598187E+02  0.39406683541E+02  0.00000000000E+00 0.  1.
</event>
<event>
 7    1  0.2733606E-009  0.9412063E+02  0.7561462E-02  0.1293169E+00
          1   -1    0    0  501    0  0.00000000000E+00  0.00000000000E+00  0.33622117989E+03  0.33622117989E+03  0.00000000000E+00 0. -1.
         -1   -1    0    0    0  501 -0.00000000000E+00 -0.00000000000E+00 -0.41259882728E+02  0.41259882728E+02  0.00000000000E+00 0.  1.
         25    2    1    2    0    0 -0.19709134170E+02  0.45435530242E+02  0.16995126299E+03  0.21675695689E+03  0.12508920493E+03 0.  0.
          5    1    3    3  502    0 -0.62055011102E+02  0.11903837401E+01  0.42637383323E+02  0.75416578237E+02  0.41800000000E+01 0.  1.
         -5    1    3    3    0  502  0.42345876932E+02  0.44245146502E+02  0.12731387967E+03  0.14134037866E+03  0.41800000000E+01 0.  1.
        -11    1    1    2    0    0  0.32769819470E+02 -0.29999298229E+02  0.12139014005E+02  0.46056211561E+02  0.00000000000E+00 0.  1.
         11    1    1    2    0    0 -0.13060685300E+02 -0.15436232013E+02  0.11287102017E+03  0.11466789417E+03  0.00000000000E+00 0. -1.
</event>
<event>
 7    1  0.2733606E-009  0.1077962E+03  0.7561462E-02  0.1264706E+00
          4   -1    0    0  501    0  0.00000000000E+00  0.00000000000E+00  0.50211617394E+02  0.50211617394E+02  0.00000000000E+00 0. -1.
         -4   -1    0    0    0  501 -0.00000000000E+00 -0.00000000000E+00 -0.29808618433E+03  0.29808618433E+03  0.00000000000E+00 0.  1.
         25    2    1    2    0    0 -0.23085243072E+02  0.18869305656E+02 -0.21057074259E+03  0.24673131745E+03  0.12508927305E+03 0.  0.
          5    1    3    3  502    0  0.49987546036E+02  0.15174252836E+02 -0.62865570676E+02  0.81844762107E+02  0.41800000000E+01 0.  1.
         -5    1    3    3    0  502 -0.73072789108E+02  0.36950528203E+01 -0.14770517191E+03  0.16488655534E+03  0.41800000000E+01 0.  1.
        -11    1    1    2    0    0 -0.31131187465E+02  0.33422169195E+01  0.14096531149E+01  0.31341799068E+02  0.00000000000E+00 0.  1.
         11    1    1    2    0    0  0.54216430537E+02 -0.22211522575E+02 -0.38713477470E+02  0.70224685212E+02  0.00000000000E+00 0. -1.
</event>
<event>
 7    1  0.2733606E-009  0.1366025E+03  0.7561462E-02  0.1217975E+00
          1   -1    0    0  501    0  0.00000000000E+00  0.00000000000E+00  0.59894002553E+02  0.59894002553E+02  0.00000000000E+00 0. -1.
         -1   -1    0    0    0  501 -0.00000000000E+00 -0.00000000000E+00 -0.89765789101E+03  0.89765789101E+03  0.00000000000E+00 0.  1.
         25    2    1    2    0    0 -0.10724046089E+03 -0.15546081811E+02 -0.79317216296E+03  0.81025419208E+03  0.12509028171E+03 0.  0.
          5    1    3    3  502    0 -0.81830298690E+02  0.47406516980E+02 -0.38585810419E+03  0.39730029525E+03  0.41800000000E+01 0.  1.
         -5    1    3    3    0  502 -0.25410162204E+02 -0.62952598791E+02 -0.40731405877E+03  0.41295389683E+03  0.41800000000E+01 0.  1.
        -11    1    1    2    0    0  0.52389370146E+02 -0.33888595746E+01  0.23769579563E+02  0.57629188664E+02  0.00000000000E+00 0.  1.
         11    1    1    2    0    0  0.54851090748E+02  0.18934941385E+02 -0.68361305062E+02  0.89668512820E+02  0.00000000000E+00 0. -1.
</event>
<event>
 7    1  0.2733606E-009  0.8694864E+02  0.7561462E-02  0.1310414E+00
         -1   -1    0    0    0  501 -0.00000000000E+00  0.00000000000E+00  0.88408670734E+02  0.88408670734E+02  0.00000000000E+00 0.  1.
          1   -1    0    0  501    0  0.00000000000E+00 -0.00000000000E+00 -0.16795399139E+03  0.16795399139E+03  0.00000000000E+00 0. -1.
         25    2    1    2    0    0  0.43902007621E+02 -0.15569681247E+02 -0.83144591486E+02  0.15726129582E+03  0.12509312859E+03 0.  0.
          5    1    3    3  502    0 -0.32006737249E+02 -0.13561147110E+02 -0.72445439353E+02  0.80462103026E+02  0.41800000000E+01 0.  1.
         -5    1    3    3    0  502  0.75908744870E+02 -0.20085341369E+01 -0.10699152133E+02  0.76799192792E+02  0.41800000000E+01 0.  1.
        -11    1    1    2    0    0 -0.17083832555E+02  0.28371879447E+02 -0.36438592989E+02  0.49240145584E+02  0.00000000000E+00 0. -1.
         11    1    1    2    0    0 -0.26818175067E+02 -0.12802198200E+02  0.40037863820E+02  0.49861220722E+02  0.00000000000E+00 0.  1.
</event>
<event>
 7    1  0.2733606E-009  0.8833186E+02  0.7561462E-02  0.1306942E+00
          1   -1    0    0  501    0  0.00000000000E+00  0.00000000000E+00  0.12815980090E+03  0.12815980090E+03  0.00000000000E+00 0. -1.
         -1   -1    0    0    0  501 -0.00000000000E+00 -0.00000000000E+00 -0.14352749912E+03  0.14352749912E+03  0.00000000000E+00 0.  1.
         25    2    1    2    0    0  0.11450276541E+02  0.85130727283E+02 -0.19333376061E+02  0.15296224348E+03  0.12508124935E+03 0.  0.
          5    1    3    3  502    0 -0.58991216171E+01  0.37493660717E+02 -0.70898919646E+02  0.80527656348E+02  0.41800000000E+01 0.  1.
         -5    1    3    3    0  502  0.17349398158E+02  0.47637066566E+02  0.51565543585E+02  0.72434587130E+02  0.41800000000E+01 0.  1.
        -11    1    1    2    0    0 -0.11652780764E+01 -0.64935052585E+02  0.39912993635E+02  0.76229692300E+02  0.00000000000E+00 0. -1.
         11    1    1    2    0    0 -0.10284998465E+02 -0.20195674698E+02 -0.35947315793E+02  0.42495364249E+02  0.00000000000E+00 0.  1.
</event>
<event>
 7    1  0.2733606E-009  0.2198098E+03  0.7561462E-02  0.1134025E+00
          2   -1    0    0  501    0  0.00000000000E+00  0.00000000000E+00  0.12751442809E+04  0.12751442809E+04  0.00000000000E+00 0. -1.
         -2   -1    0    0    0  501 -0.00000000000E+00 -0.00000000000E+00 -0.55240813824E+02  0.55240813824E+02  0.00000000000E+00 0.  1.
         25    2    1    2    0    0  0.63205545435E+02  0.20341137008E+03  0.33980233357E+03  0.42009781337E+03  0.12508165509E+03 0.  0.
          5    1    3    3  502    0  0.55734902168E+02  0.82012220754E+02  0.62555602801E+02  0.11731606674E+03  0.41800000000E+01 0.  1.
         -5    1    3    3    0  502  0.74706432668E+01  0.12139914933E+03  0.27724673077E+03  0.30278174663E+03  0.41800000000E+01 0.  1.
        -11    1    1    2    0    0 -0.31065084829E+02 -0.33256102064E+02  0.83639091507E+02  0.95218199143E+02  0.00000000000E+00 0.  1.
         11    1    1    2    0    0 -0.32140460606E+02 -0.17015526802E+03  0.79646204199E+03  0.81506908221E+03  0.00000000000E+00 0. -1.
</event>
<event>
 7    1  0.2733606E-009  0.1061201E+03  0.7561462E-02  0.1267928E+00
         -2   -1    0    0    0  501 -0.00000000000E+00  0.00000000000E+00  0.51027240638E+02  0.51027240638E+02  0.00000000000E+00 0. -1.
          2   -1    0    0  501    0  0.00000000000E+00 -0.00000000000E+00 -0.32490842823E+03  0.32490842823E+03  0.00000000000E+00 0.  1.
         25    2    1    2    0    0  0.26011962103E+02 -0.10825882645E+00 -0.24703249331E+03  0.27811752626E+03  0.12509065420E+03 0.  0.
          5    1    3    3  502    0  0.72768095807E+02 -0.10007435837E+02 -0.18904684417E+03  0.20285838960E+03  0.41800000000E+01 0.  1.
         -5    1    3    3    0  502 -0.46756133704E+02  0.98991770109E+01 -0.57985649134E+02  0.75259136654E+02  0.41800000000E+01 0.  1.
        -11    1    1    2    0    0  0.23715416197E+02  0.25529397764E+02  0.21090070362E+01  0.34908724214E+02  0.00000000000E+00 0.  1.
         11    1    1    2    0    0 -0.49727378300E+02 -0.25421138937E+02 -0.28957701319E+02  0.62909418397E+02  0.00000000000E+00 0. -1.
</event>
<event>
 7    1  0.2733606E-009  0.1088890E+03  0.7561462E-02  0.1262641E+00
         -2   -1    0    0    0  501 -0.00000000000E+00  0.00000000000E+00  0.21092136150E+03  0.21092136150E+03  0.00000000000E+00 0.  1.
          2   -1    0    0  501    0  0.00000000000E+00 -0.00000000000E+00 -0.85288512221E+02  0.85288512221E+02  0.00000000000E+00 0. -1.
         25    2    1    2    0    0  0.58377484745E+02  0.36098646797E+02  0.28492148401E+02  0.14548594005E+03  0.12507323137E+03 0.  0.
          5    1    3    3  502    0  0.79283598567E+02  0.66161955868E+02  0.32683520503E+02  0.10839270418E+03  0.41800000000E+01 0.  1.
         -5    1    3    3    0  502 -0.20906113822E+02 -0.30063309072E+02 -0.41913721014E+01  0.37093235874E+02  0.41800000000E+01 0.  1.
        -11    1    1    2    0    0 -0.53424348336E+01 -0.22081134004E+02  0.92974345619E+02  0.95709701871E+02  0.00000000000E+00 0.  1.
         11    1    1    2    0    0 -0.53035049912E+02 -0.14017512793E+02  0.41663552543E+01  0.55014231796E+02  0.00000000000E+00 0. -1.
</event>
<event>
 7    1  0.2733606E-009  0.1013058E+03  0.7561462E-02  0.1277574E+00
          2   -1    0    0  501    0  0.00000000000E+00  0.00000000000E+00  0.34774977190E+03  0.34774977190E+03  0.00000000000E+00 0. -1.
         -2   -1    0    0    0  501 -0.00000000000E+00 -0.00000000000E+00 -0.43491231635E+02  0.43491231635E+02  0.00000000000E+00 0.  1.
         25    2    1    2    0    0 -0.62474265856E+02 -0.30669402348E+01  0.17830126041E+03  0.22661249425E+03  0.12509773407E+03 0.  0.
          5    1    3    3  502    0 -0.90123497278E+02 -0.83658390533E+01  0.17612922404E+03  0.19806869512E+03  0.41800000000E+01 0.  1.
         -5    1    3    3    0  502  0.27649231422E+02  0.52988988185E+01  0.21720363694E+01  0.28543799132E+02  0.41800000000E+01 0.  1.
        -11    1    1    2    0    0  0.15067772354E+02  0.26634801673E+02  0.29880337036E+01  0.30747012363E+02  0.00000000000E+00 0.  1.
         11    1    1    2    0    0  0.47406493502E+02 -0.23567861438E+02  0.12296924614E+03  0.13388149691E+03  0.00000000000E+00 0. -1.
</event>
<event>
 7    1  0.2733606E-009  0.1198815E+03  0.7561462E-02  0.1243293E+00
          2   -1    0    0  501    0  0.00000000000E+00  0.00000000000E+00  0.15001285296E+04  0.15001285296E+04  0.00000000000E+00 0. -1.
         -2   -1    0    0    0  501 -0.00000000000E+00 -0.00000000000E+00 -0.12165070156E+02  0.12165070156E+02  0.00000000000E+00 0.  1.
         25    2    1    2    0    0 -0.20012199337E+02  0.77431146922E+02  0.84124734810E+03  0.85424876941E+03  0.12509112165E+03 0.  0.
          5    1    3    3  502    0  0.33362782704E+02  0.17678660228E+02  0.57306973019E+03  0.57432743131E+03  0.41800000000E+01 0.  1.
         -5    1    3    3    0  502 -0.53374982041E+02  0.59752486694E+02  0.26817761791E+03  0.27992133810E+03  0.41800000000E+01 0.  1.
        -11    1    1    2    0    0  0.56813933893E+02 -0.49343272503E+02  0.40772028686E+03  0.41460633611E+03  0.00000000000E+00 0. -1.
         11    1    1    2    0    0 -0.36801734556E+02 -0.28087874419E+02  0.23899582451E+03  0.24343849426E+03  0.00000000000E+00 0.  1.
</event>
<event>
 7    1  0.2733606E-009  0.1084387E+03  0.7561462E-02  0.1263489E+00
         -1   -1    0    0    0  501 -0.00000000000E+00  0.00000000000E+00  0.21773892113E+02  0.21773892113E+02  0.00000000000E+00 0.  1.
          1   -1    0    0  501    0  0.00000000000E+00 -0.00000000000E+00 -0.65789616899E+03  0.65789616899E+03  0.00000000000E+00 0. -1.
         25    2    1    2    0    0 -0.48522332579E+02  0.89206542204E+01 -0.33004527031E+03  0.35638720024E+03  0.12509181112E+03 0.  0.
          5    1    3    3  502    0  0.58753104275E+01 -0.39728570478E+02 -0.22387003169E+03  0.22748217969E+03  0.41800000000E+01 0. -1.
         -5    1    3    3    0  502 -0.54397643006E+02  0.48649224699E+02 -0.10617523862E+03  0.12890502055E+03  0.41800000000E+01 0. -1.
        -11    1    1    2    0    0  0.53136605821E+02  0.32128190762E+02 -0.20121352330E+03  0.21057683034E+03  0.00000000000E+00 0. -1.
         11    1    1    2    0    0 -0.46142732423E+01 -0.41048844983E+02 -0.10486348327E+03  0.11270603052E+03  0.00000000000E+00 0.  1.
</event>
<event>
 7    1  0.2733606E-009  0.1187676E+03  0.7561462E-02  0.1245144E+00
         -3   -1    0    0    0  501 -0.00000000000E+00  0.00000000000E+00  0.19886800539E+02  0.19886800539E+02  0.00000000000E+00 0.  1.
          3   -1    0    0  501    0  0.00000000000E+00 -0.00000000000E+00 -0.11367833985E+04  0.11367833985E+04  0.00000000000E+00 0. -1.
         25    2    1    2    0    0 -0.50485984634E+02  0.85888310394E+02 -0.48984637862E+03  0.51528877789E+03  0.12508962173E+03 0.  0.
          5    1    3    3  502    0 -0.51325650053E+02  0.70910626335E+02 -0.14046987307E+03  0.16556538563E+03  0.41800000000E+01 0.  1.
         -5    1    3    3    0  502  0.83966541835E+00  0.14977684059E+02 -0.34937650555E+03  0.34972339225E+03  0.41800000000E+01 0.  1.
        -11    1    1    2    0    0  0.24567765413E+02  0.15917113551E+02 -0.16078730889E+03  0.16343037753E+03  0.00000000000E+00 0.  1.
         11    1    1    2    0    0  0.25918219221E+02 -0.10180542395E+03 -0.46626291048E+03  0.47795104364E+03  0.00000000000E+00 0. -1.
</event>
<event>
 7    1  0.2733606E-009  0.1539330E+03  0.7561462E-02  0.1195722E+00
         -1   -1    0    0    0  501 -0.00000000000E+00  0.00000000000E+00  0.10718519784E+03  0.10718519784E+03  0.00000000000E+00 0.  1.
          1   -1    0    0  501    0  0.00000000000E+00 -0.00000000000E+00 -0.25574890959E+03  0.25574890959E+03  0.00000000000E+00 0. -1.
         25    2    1    2    0    0 -0.25182120265E+02 -0.12236641854E+03 -0.89470232476E+02  0.19814069870E+03  0.12508850632E+03 0.  0.
          5    1    3    3  502    0 -0.45612850592E+02 -0.14078135130E+03 -0.82415411840E+02  0.16943935057E+03  0.41800000000E+01 0. -1.
         -5    1    3    3    0  502  0.20430730326E+02  0.18414932758E+02 -0.70548206362E+01  0.28701348128E+02  0.41800000000E+01 0. -1.
        -11    1    1    2    0    0 -0.22818502803E+01  0.87899710773E+02  0.37823542161E+01  0.88010636846E+02  0.00000000000E+00 0.  1.
         11    1    1    2    0    0  0.27463970546E+02  0.34466707771E+02 -0.62875833489E+02  0.76782771894E+02  0.00000000000E+00 0. -1.
</event>
<event>
 7    1  0.2733606E-009  0.9577863E+02  0.7561462E-02  0.1289432E+00
         -1   -1    0    0    0  501 -0.00000000000E+00  0.00000000000E+00  0.78200589377E+02  0.78200589377E+02  0.00000000000E+00 0.  1.
          1   -1    0    0  501    0  0.00000000000E+00 -0.00000000000E+00 -0.24704540469E+03  0.24704540469E+03  0.00000000000E+00 0. -1.
         25    2    1    2    0    0  0.62454135450E+02 -0.46666111324E+02 -0.13301282828E+03  0.19854030156E+03  0.12509034285E+03 0.  0.
          5    1    3    3  502    0  0.76099838049E+02 -0.22784330781E+02 -0.19821064028E+02  0.81979619780E+02  0.41800000000E+01 0. -1.
         -5    1    3    3    0  502 -0.13645702598E+02 -0.23881780543E+02 -0.11319176425E+03  0.11656068178E+03  0.41800000000E+01 0. -1.
        -11    1    1    2    0    0  0.74956735372E+00  0.12152419018E+02 -0.51574218518E+02  0.52991915940E+02  0.00000000000E+00 0.  1.
         11    1    1    2    0    0 -0.63203702804E+02  0.34513692307E+02  0.15742231484E+02  0.73713776574E+02  0.00000000000E+00 0. -1.
</event>
<event>
 7    1  0.2733606E-009  0.1497284E+03  0.7561462E-02  0.1200807E+00
          3   -1    0    0  501    0  0.00000000000E+00  0.00000000000E+00  0.16370855746E+03  0.16370855746E+03  0.00000000000E+00 0. -1.
         -3   -1    0    0    0  501 -0.00000000000E+00 -0.00000000000E+00 -0.20439380780E+03  0.20439380780E+03  0.00000000000E+00 0.  1.
         25    2    1    2    0    0 -0.10106663441E+03  0.83094097788E+02  0.47795042993E+02  0.18721934281E+03  0.12509045731E+03 0.  0.
          5    1    3    3  502    0 -0.10596996735E+03  0.23552315421E+02  0.62796170405E+02  0.12547978705E+03  0.41800000000E+01 0. -1.
         -5    1    3    3    0  502  0.49033329409E+01  0.59541782367E+02 -0.15001127412E+02  0.61739555757E+02  0.41800000000E+01 0. -1.
        -11    1    1    2    0    0  0.62033680016E+02 -0.54061686702E+02 -0.10136517581E+03  0.13055934395E+03  0.00000000000E+00 0.  1.
         11    1    1    2    0    0  0.39032954391E+02 -0.29032411087E+02  0.12884882469E+02  0.50323678504E+02  0.00000000000E+00 0. -1.
</event>
<event>
 7    1  0.2733606E-009  0.1247071E+03  0.7561462E-02  0.1235528E+00
         -1   -1    0    0    0  501 -0.00000000000E+00  0.00000000000E+00  0.53984183436E+03  0.53984183436E+03  0.00000000000E+00 0.  1.
          1   -1    0    0  501    0  0.00000000000E+00 -0.00000000000E+00 -0.42153975068E+02  0.42153975068E+02  0.00000000000E+00 0. -1.
         25    2    1    2    0    0  0.27728159367E+02  0.64684794458E+02  0.11895024718E+03  0.18641390563E+03  0.12509200395E+03 0.  0.
          5    1    3    3  502    0  0.73513167604E+02  0.49202283965E+02  0.10187240298E+03  0.13498336730E+03  0.41800000000E+01 0.  1.
         -5    1    3    3    0  502 -0.45785008237E+02  0.15482510493E+02  0.17077844191E+02  0.51430538327E+02  0.41800000000E+01 0.  1.
        -11    1    1    2    0    0  0.30657386484E+02 -0.36022903607E+02  0.12530019239E+03  0.13393156141E+03  0.00000000000E+00 0.  1.
         11    1    1    2    0    0 -0.58385545850E+02 -0.28661890852E+02  0.25343741973E+03  0.26165034238E+03  0.00000000000E+00 0. -1.
</event>
<event>
 7    1  0.2733606E-009  0.1276558E+03  0.7561462E-02  0.1230976E+00
          1   -1    0    0  501    0  0.00000000000E+00  0.00000000000E+00  0.79035786200E+03  0.79035786200E+03  0.00000000000E+00 0. -1.
         -1   -1    0    0    0  501 -0.00000000000E+00 -0.00000000000E+00 -0.32420232156E+02  0.32420232156E+02  0.00000000000E+00 0.  1.
         25    2    1    2    0    0  0.36551658751E+02  0.94535689881E+02  0.25179476022E+03  0.29886637313E+03  0.12508991684E+03 0.  0.
          5    1    3    3  502    0  0.47706875985E+02  0.34808187785E+02  0.25398836552E+02  0.64421496811E+02  0.41800000000E+01 0.  1.
         -5    1    3    3    0  502 -0.11155217234E+02  0.59727502096E+02  0.22639592367E+03  0.23444487632E+03  0.41800000000E+01 0.  1.
        -11    1    1    2    0    0  0.24412563954E+01 -0.96147237147E+02  0.36826686346E+03  0.38061888243E+03  0.00000000000E+00 0.  1.
         11    1    1    2    0    0 -0.38992915147E+02  0.16115472664E+01  0.13787600616E+03  0.14329283859E+03  0.00000000000E+00 0. -1.
</event>
<event>
 7    1  0.2733606E-009  0.1310181E+03  0.7561462E-02  0.1225953E+00
         -2   -1    0    0    0  501 -0.00000000000E+00  0.00000000000E+00  0.29990662209E+02  0.29990662209E+02  0.00000000000E+00 0.  1.
          2   -1    0    0  501    0  0.00000000000E+00 -0.00000000000E+00 -0.67209483783E+03  0.67209483783E+03  0.00000000000E+00 0. -1.
         25    2    1    2    0    0  0.84918148836E+02  0.17978898533E+02 -0.27752463724E+03  0.31654719856E+03  0.12509145391E+03 0.  0.
          5    1    3    3  502    0 -0.72976552580E+01 -0.40356211956E+02 -0.55632845454E+02  0.69241356927E+02  0.41800000000E+01 0.  1.
         -5    1    3    3    0  502  0.92215804094E+02  0.58335110489E+02 -0.22189179179E+03  0.24730584163E+03  0.41800000000E+01 0.  1.
        -11    1    1    2    0    0 -0.24211230320E+02 -0.40234265733E+02 -0.24633222030E+03  0.25076790578E+03  0.00000000000E+00 0. -1.
         11    1    1    2    0    0 -0.60706918516E+02  0.22255367200E+02 -0.11824731808E+03  0.13477039570E+03  0.00000000000E+00 0.  1.
</event>
<event>
 7    1  0.2733606E-009  0.1219574E+03  0.7561462E-02  0.1239902E+00
          1   -1    0    0  501    0  0.00000000000E+00  0.00000000000E+00  0.47539779004E+03  0.47539779004E+03  0.00000000000E+00 0. -1.
         -1   -1    0    0    0  501 -0.00000000000E+00 -0.00000000000E+00 -0.47351219755E+02  0.47351219755E+02  0.00000000000E+00 0.  1.
         25    2    1    2    0    0  0.70288657660E+02  0.44610547800E+02  0.33778133195E+03  0.36969695986E+03  0.12509603328E+03 0.  0.
          5    1    3    3  502    0  0.86007263288E+02  0.58305973505E+02  0.33164418566E+03  0.34756607165E+03  0.41800000000E+01 0. -1.
         -5    1    3    3    0  502 -0.15718605627E+02 -0.13695425705E+02  0.61371462965E+01  0.22130888206E+02  0.41800000000E+01 0. -1.
        -11    1    1    2    0    0 -0.32638330044E+02 -0.67232668482E+02  0.35190184389E+02  0.82606545604E+02  0.00000000000E+00 0.  1.
         11    1    1    2    0    0 -0.37650327616E+02  0.22622120682E+02  0.55075053944E+02  0.70445504333E+02  0.00000000000E+00 0. -1.
</event>
<event>
 7    1  0.2733606E-009  0.8986783E+02  0.7561462E-02  0.1303172E+00
         -1   -1    0    0    0  501 -0.00000000000E+00  0.00000000000E+00  0.72258671410E+02  0.72258671410E+02  0.00000000000E+00 0.  1.
          1   -1    0    0  501    0  0.00000000000E+00 -0.00000000000E+00 -0.24363370149E+03  0.24363370149E+03  0.00000000000E+00 0. -1.
         25    2    1    2    0    0  0.44367685968E+02  0.30489152995E+02 -0.15871387094E+03  0.20913215870E+03  0.12509231378E+03 0.  0.
          5    1    3    3  502    0 -0.35013332479E+02  0.30165600062E+02 -0.10020884612E+03  0.11043179849E+03  0.41800000000E+01 0. -1.
         -5    1    3    3    0  502  0.79381018447E+02  0.32355293247E+00 -0.58505024818E+02  0.98700360208E+02  0.41800000000E+01 0. -1.
        -11    1    1    2    0    0 -0.14799773231E+02 -0.97206721887E+01  0.39511154764E+02  0.43297299065E+02  0.00000000000E+00 0.  1.
         11    1    1    2    0    0 -0.29567912737E+02 -0.20768480806E+02 -0.52172313911E+02  0.63462915135E+02  0.00000000000E+00 0. -1.
</event>
<event>
 7    1  0.2733606E-009  0.7792674E+02  0.7561462E-02  0.1335040E+00
         -1   -1    0    0    0  501 -0.00000000000E+00  0.00000000000E+00  0.99757953090E+02  0.99757953090E+02  0.00000000000E+00 0.  1.
          1   -1    0    0  501    0  0.00000000000E+00 -0.00000000000E+00 -0.14921566127E+03  0.14921566127E+03  0.00000000000E+00 0. -1.
         25    2    1    2    0    0  0.40357612314E+02 -0.31861498567E+02 -0.39486296238E+02  0.14089143876E+03  0.12508931994E+03 0.  0.
          5    1    3    3  502    0  0.20973774623E+02 -0.78997348606E+01 -0.83747335172E+02  0.86795124179E+02  0.41800000000E+01 0.  1.
         -5    1    3    3    0  502  0.19383837691E+02 -0.23961763707E+02  0.44261038934E+02  0.54096314580E+02  0.41800000000E+01 0.  1.
        -11    1    1    2    0    0 -0.61995460322E+02 -0.17016272647E+01 -0.22894567017E+02  0.66109710594E+02  0.00000000000E+00 0. -1.
         11    1    1    2    0    0  0.21637848008E+02  0.33563125832E+02  0.12923155072E+02  0.41972465010E+02  0.00000000000E+00 0.  1.
</event>
<event>
 7    1  0.2733606E-009  0.2407429E+03  0.7561462E-02  0.1119299E+00
         -2   -1    0    0    0  501 -0.00000000000E+00  0.00000000000E+00  0.14692549029E+03  0.14692549029E+03  0.00000000000E+00 0.  1.
          2   -1    0    0  501    0  0.00000000000E+00 -0.00000000000E+00 -0.63976494255E+03  0.63976494255E+03  0.00000000000E+00 0. -1.
         25    2    1    2    0    0 -0.22125255062E+03  0.57230684515E+02 -0.29582460369E+02  0.26220361989E+03  0.12509026307E+03 0.  0.
          5    1    3    3  502    0 -0.21726720968E+03  0.77824532198E+02 -0.45849104073E+02  0.23533234150E+03  0.41800000000E+01 0.  1.
         -5    1    3    3    0  502 -0.39853409493E+01 -0.20593847683E+02  0.16266643704E+02  0.26871278389E+02  0.41800000000E+01 0.  1.
        -11    1    1    2    0    0  0.14748185151E+03 -0.29118177871E+02 -0.38508043425E+03  0.41338324307E+03  0.00000000000E+00 0. -1.
         11    1    1    2    0    0  0.73770699111E+02 -0.28112506644E+02 -0.78176557633E+02  0.11110356988E+03  0.00000000000E+00 0.  1.
</event>
<event>
 7    1  0.2733606E-009  0.1109232E+03  0.7561462E-02  0.1258870E+00
         -1   -1    0    0    0  501 -0.00000000000E+00  0.00000000000E+00  0.19087969953E+03  0.19087969953E+03  0.00000000000E+00 0.  1.
          1   -1    0    0  501    0  0.00000000000E+00 -0.00000000000E+00 -0.84055064451E+02  0.84055064451E+02  0.00000000000E+00 0. -1.
         25    2    1    2    0    0 -0.17559597943E+02 -0.38907431062E+02  0.10849028723E+03  0.17099290166E+03  0.12508518026E+03 0.  0.
          5    1    3    3  502    0 -0.52045907424E+01 -0.77979163170E+02  0.10311449519E+03  0.12945234325E+03  0.41800000000E+01 0.  1.
         -5    1    3    3    0  502 -0.12355007200E+02  0.39071732108E+02  0.53757920365E+01  0.41540558408E+02  0.41800000000E+01 0.  1.
        -11    1    1    2    0    0 -0.29892814630E+02 -0.12526070503E+02  0.77687902649E+01  0.33329220077E+02  0.00000000000E+00 0.  1.
         11    1    1    2    0    0  0.47452412573E+02  0.51433501565E+02 -0.94344424119E+01  0.70612642252E+02  0.00000000000E+00 0. -1.
</event>
<event>
 7    1  0.2733606E-009  0.1139948E+03  0.7561462E-02  0.1253346E+00
         -1   -1    0    0    0  501 -0.00000000000E+00  0.00000000000E+00  0.25323963742E+03  0.25323963742E+03  0.00000000000E+00 0.  1.
          1   -1    0    0  501    0  0.00000000000E+00 -0.00000000000E+00 -0.59460655983E+02  0.59460655983E+02  0.00000000000E+00 0. -1.
         25    2    1    2    0    0 -0.55066036053E+02  0.17735487938E+02  0.11938050457E+03  0.18233430438E+03  0.12508907955E+03 0.  0.
          5    1    3    3  502    0 -0.66169637484E+02 -0.39097710440E+02  0.85793350301E+02  0.11526067518E+03  0.41800000000E+01 0.  1.
         -5    1    3    3    0  502  0.11103601430E+02  0.56833198378E+02  0.33587154266E+02  0.67073629202E+02  0.41800000000E+01 0.  1.
        -11    1    1    2    0    0  0.41796145590E+02 -0.45746500048E+02  0.15600497975E+02  0.63898635274E+02  0.00000000000E+00 0. -1.
         11    1    1    2    0    0  0.13269890463E+02  0.28011012110E+02  0.58797978891E+02  0.66467353746E+02  0.00000000000E+00 0.  1.
</event>
<event>
 7    1  0.2733606E-009  0.1033219E+03  0.7561462E-02  0.1273462E+00
          2   -1    0    0  501    0  0.00000000000E+00  0.00000000000E+00  0.32407215485E+03  0.32407215485E+03  0.00000000000E+00 0. -1.
         -2   -1    0    0    0  501 -0.00000000000E+00 -0.00000000000E+00 -0.48105692226E+02  0.48105692226E+02  0.00000000000E+00 0.  1.
         25    2    1    2    0    0 -0.40173843378E+01  0.10333852659E+02  0.24384017233E+03  0.27427758294E+03  0.12508890828E+03 0.  0.
          5    1    3    3  502    0 -0.52258745262E+02  0.38870556539E+02  0.16513447826E+03  0.17756341102E+03  0.41800000000E+01 0. -1.
         -5    1    3    3    0  502  0.48241360924E+02 -0.28536703880E+02  0.78705694065E+02  0.96714171921E+02  0.41800000000E+01 0. -1.
        -11    1    1    2    0    0 -0.39485534571E+02  0.32001133684E+01  0.34140119663E+02  0.52296232527E+02  0.00000000000E+00 0.  1.
         11    1    1    2    0    0  0.43502918909E+02 -0.13533966027E+02 -0.20138293671E+01  0.45604031606E+02  0.00000000000E+00 0. -1.
</event>
<event>
 7    1  0.2733606E-009  0.8385678E+02  0.7561462E-02  0.1318450E+00
          2   -1    0    0  501    0  0.00000000000E+00  0.00000000000E+00  0.79803287500E+02  0.79803287500E+02  0.00000000000E+00 0. -1.
         -2   -1    0    0    0  501 -0.00000000000E+00 -0.00000000000E+00 -0.28751830365E+03  0.28751830365E+03  0.00000000000E+00 0.  1.
         25    2    1    2    0    0  0.21020184991E+02  0.34386314008E+02 -0.22955765231E+03  0.26451855461E+03  0.12509629582E+03 0.  0.
          5    1    3    3  502    0 -0.37350056784E+02  0.13997323549E+02 -0.17796906678E+02  0.43876577985E+02  0.41800000000E+01 0.  1.
         -5    1    3    3    0  502  0.58370241776E+02  0.20388990459E+02 -0.21176074563E+03  0.22064197662E+03  0.41800000000E+01 0.  1.
        -11    1    1    2    0    0 -0.32324126756E+02 -0.32183069777E+01 -0.28036760128E+02  0.42909982391E+02  0.00000000000E+00 0.  1.
         11    1    1    2    0    0  0.11303941765E+02 -0.31168007030E+02  0.49879396288E+02  0.59893054153E+02  0.00000000000E+00 0. -1.
</event>
<event>
 7    1  0.2733606E-009  0.8296234E+02  0.7561462E-02  0.1320849E+00
         -2   -1    0    0    0  501 -0.00000000000E+00  0.00000000000E+00  0.12024390733E+02  0.12024390733E+02  0.00000000000E+00 0.  1.
          2   -1    0    0  501    0  0.00000000000E+00 -0.00000000000E+00 -0.12570751420E+04  0.12570751420E+04  0.00000000000E+00 0. -1.
         25    2    1    2    0    0  0.13601845661E+02 -0.25609874262E+01 -0.97726308407E+03  0.98533351721E+03  0.12508971097E+03 0.  0.
          5    1    3    3  502    0  0.45306989093E+02  0.11201325134E+02 -0.89208876344E+03  0.89331854744E+03  0.41800000000E+01 0.  1.
         -5    1    3    3    0  502 -0.31705143432E+02 -0.13762312561E+02 -0.85174320627E+02  0.92014969768E+02  0.41800000000E+01 0.  1.
        -11    1    1    2    0    0  0.34532366690E+02  0.90072248606E+01 -0.55421548499E+02  0.65917846498E+02  0.00000000000E+00 0.  1.
         11    1    1    2    0    0 -0.48134212351E+02 -0.64462374344E+01 -0.21236611867E+03  0.21784816900E+03  0.00000000000E+00 0. -1.
</event>
<event>
 7    1  0.2733606E-009  0.1097833E+03  0.7561462E-02  0.1260972E+00
         -2   -1    0    0    0  501 -0.00000000000E+00  0.00000000000E+00  0.11340871084E+02  0.11340871084E+02  0.00000000000E+00 0.  1.
          2   -1    0    0  501    0  0.00000000000E+00 -0.00000000000E+00 -0.12656738097E+04  0.12656738097E+04  0.00000000000E+00 0. -1.
         25    2    1    2    0    0  0.44476688094E+02 -0.25472753881E+02 -0.88867501326E+03  0.89889784695E+03  0.12508806127E+03 0.  0.
          5    1    3    3  502    0 -0.33979114102E+02  0.17741251987E+02 -0.15324402433E+03  0.15802068096E+03  0.41800000000E+01 0.  1.
         -5    1    3    3    0  502  0.78455802196E+02 -0.43214005867E+02 -0.73543098893E+03  0.74087716599E+03  0.41800000000E+01 0.  1.
        -11    1    1    2    0    0 -0.64250434305E+02  0.30222857903E+02 -0.32488837115E+03  0.33255675179E+03  0.00000000000E+00 0.  1.
         11    1    1    2    0    0  0.19773746210E+02 -0.47501040219E+01 -0.40769554247E+02  0.45560082100E+02  0.00000000000E+00 0. -1.
</event>
<event>
 7    1  0.2733606E-009  0.8030779E+02  0.7561462E-02  0.1328180E+00
          1   -1    0    0  501    0  0.00000000000E+00  0.00000000000E+00  0.10191652542E+03  0.10191652542E+03  0.00000000000E+00 0. -1.
         -1   -1    0    0    0  501 -0.00000000000E+00 -0.00000000000E+00 -0.12527221859E+03  0.12527221859E+03  0.00000000000E+00 0.  1.
         25    2    1    2    0    0 -0.16085889551E+02  0.27843971528E+02 -0.20887901531E+02  0.13083656174E+03  0.12509140204E+03 0.  0.
          5    1    3    3  502    0  0.48809623778E+02  0.31651894776E+02 -0.29098305940E+02  0.65179794606E+02  0.41800000000E+01 0. -1.
         -5    1    3    3    0  502 -0.64895513329E+02 -0.38079232480E+01  0.82104044097E+01  0.65656767132E+02  0.41800000000E+01 0. -1.
        -11    1    1    2    0    0  0.15975073486E+02 -0.90590287115E+01 -0.45679970063E+02  0.49233409785E+02  0.00000000000E+00 0.  1.
         11    1    1    2    0    0  0.11081606450E+00 -0.18784942817E+02  0.43212178418E+02  0.47118772485E+02  0.00000000000E+00 0. -1.
</event>
<event>
 7    1  0.2733606E-009  0.1553870E+03  0.7561462E-02  0.1194005E+00
         -3   -1    0    0    0  501 -0.00000000000E+00  0.00000000000E+00  0.30153077448E+02  0.30153077448E+02  0.00000000000E+00 0.  1.
          3   -1    0    0  501    0  0.00000000000E+00 -0.00000000000E+00 -0.85687871353E+03  0.85687871353E+03  0.00000000000E+00 0. -1.
         25    2    1    2    0    0 -0.10536214848E+03 -0.38543893387E+02 -0.54051405604E+03  0.56602911856E+03  0.12508678680E+03 0.  0.
          5    1    3    3  502    0 -0.44194089172E+02  0.45753107175E+02 -0.21144566839E+03  0.22084656985E+03  0.41800000000E+01 0.  1.
         -5    1    3    3    0  502 -0.61168059305E+02 -0.84297000562E+02 -0.32906838766E+03  0.34518254871E+03  0.41800000000E+01 0.  1.
        -11    1    1    2    0    0  0.59403493278E+02 -0.24931480110E+02 -0.15945319856E+03  0.17197580134E+03  0.00000000000E+00 0. -1.
         11    1    1    2    0    0  0.45958655198E+02  0.63475373496E+02 -0.12675838147E+03  0.14902687107E+03  0.00000000000E+00 0.  1.
</event>
<event>
 7    1  0.2733606E-009  0.1265712E+03  0.7561462E-02  0.1232634E+00
          3   -1    0    0  501    0  0.00000000000E+00  0.00000000000E+00  0.20528295535E+03  0.20528295535E+03  0.00000000000E+00 0. -1.
         -3   -1    0    0    0  501 -0.00000000000E+00 -0.00000000000E+00 -0.12907374311E+03  0.12907374311E+03  0.00000000000E+00 0.  1.
         25    2    1    2    0    0  0.10244222067E+03 -0.12334158008E+02  0.10800711070E+03  0.19482898359E+03  0.12508499852E+03 0.  0.
          5    1    3    3  502    0  0.30584928412E+02 -0.48934910361E+02 -0.25597082520E+01  0.57914486999E+02  0.41800000000E+01 0.  1.
         -5    1    3    3    0  502  0.71857292256E+02  0.36600752353E+02  0.11056681895E+03  0.13691449659E+03  0.41800000000E+01 0.  1.
        -11    1    1    2    0    0 -0.79794498276E+02 -0.12674825198E+02  0.14656613584E+02  0.82113515761E+02  0.00000000000E+00 0. -1.
         11    1    1    2    0    0 -0.22647722392E+02  0.25008983206E+02 -0.46454512042E+02  0.57414199111E+02  0.00000000000E+00 0.  1.
</event>
<event>
 7    1  0.2733606E-009  0.1097259E+03  0.7561462E-02  0.1261078E+00
          2   -1    0    0  501    0  0.00000000000E+00  0.00000000000E+00  0.36437112495E+03  0.36437112495E+03  0.00000000000E+00 0. -1.
         -2   -1    0    0    0  501 -0.00000000000E+00 -0.00000000000E+00 -0.42877376934E+02  0.42877376934E+02  0.00000000000E+00 0.  1.
         25    2    1    2    0    0 -0.37639088973E+02 -0.36156478866E+02  0.15384558276E+03  0.20503413602E+03  0.12508613679E+03 0.  0.
          5    1    3    3  502    0 -0.45757747090E+02  0.21865910005E+02  0.13350731755E+03  0.14287605005E+03  0.41800000000E+01 0.  1.
         -5    1    3    3    0  502  0.81186581172E+01 -0.58022388871E+02  0.20338265216E+02  0.62158085973E+02  0.41800000000E+01 0.  1.
        -11    1    1    2    0    0  0.70003429609E+02  0.32752659635E+02  0.93974635209E+02  0.12167353423E+03  0.00000000000E+00 0. -1.
         11    1    1    2    0    0 -0.32364340636E+02  0.34038192306E+01  0.73673530040E+02  0.80540831624E+02  0.00000000000E+00 0.  1.
</event>
<event>
 7    1  0.2733606E-009  0.7700175E+02  0.7561462E-02  0.1337782E+00
         -1   -1    0    0    0  501 -0.00000000000E+00  0.00000000000E+00  0.11721146432E+03  0.11721146432E+03  0.00000000000E+00 0.  1.
          1   -1    0    0  501    0  0.00000000000E+00 -0.00000000000E+00 -0.99343345323E+02  0.99343345323E+02  0.00000000000E+00 0. -1.
         25    2    1    2    0    0  0.59847322925E+01 -0.41517194292E+01  0.37984084030E+02  0.13094624837E+03  0.12510425863E+03 0.  0.
          5    1    3    3  502    0 -0.88004300871E+01 -0.57821769727E+02 -0.72648828905E+01  0.59085155052E+02  0.41800000000E+01 0. -1.
         -5    1    3    3    0  502  0.14785162380E+02  0.53670050298E+02  0.45248966921E+02  0.71861093319E+02  0.41800000000E+01 0. -1.
        -11    1    1    2    0    0  0.30993949979E+01  0.20556374179E+02  0.27476709664E+02  0.34454903028E+02  0.00000000000E+00 0.  1.
         11    1    1    2    0    0 -0.90841272903E+01 -0.16404654750E+02 -0.47592674701E+02  0.51153658240E+02  0.00000000000E+00 0. -1.
</event>
<event>
 7    1  0.2733606E-009  0.8357736E+02  0.7561462E-02  0.1319195E+00
         -1   -1    0    0    0  501 -0.00000000000E+00  0.00000000000E+00  0.12336847952E+03  0.12336847952E+03  0.00000000000E+00 0. -1.
          1   -1    0    0  501    0  0.00000000000E+00 -0.00000000000E+00 -0.10253700019E+03  0.10253700019E+03  0.00000000000E+00 0.  1.
         25    2    1    2    0    0  0.28323925045E+02 -0.13840809389E+02  0.15297840219E+01  0.12901173653E+03  0.12509146729E+03 0.  0.
          5    1    3    3  502    0 -0.49120934651E+01  0.36335623087E+02 -0.41026572486E+02  0.55182046150E+02  0.41800000000E+01 0. -1.
         -5    1    3    3    0  502  0.33236018511E+02 -0.50176432476E+02  0.42556356508E+02  0.73829690381E+02  0.41800000000E+01 0. -1.
        -11    1    1    2    0    0 -0.21919661734E+01 -0.23908479742E+02  0.39905199588E+02  0.46570860776E+02  0.00000000000E+00 0. -1.
         11    1    1    2    0    0 -0.26131958872E+02  0.37749289131E+02 -0.20603504284E+02  0.50322882401E+02  0.00000000000E+00 0.  1.
</event>
<event>
 7    1  0.2733606E-009  0.1161882E+03  0.7561462E-02  0.1249521E+00
          3   -1    0    0  501    0  0.00000000000E+00  0.00000000000E+00  0.30114794098E+03  0.30114794098E+03  0.00000000000E+00 0. -1.
         -3   -1    0    0    0  501 -0.00000000000E+00 -0.00000000000E+00 -0.66011591450E+02  0.66011591450E+02  0.00000000000E+00 0.  1.
         25    2    1    2    0    0 -0.19763154353E+02  0.82235713263E+02  0.17289162798E+03  0.22955019149E+03  0.12509388706E+03 0.  0.
          5    1    3    3  502    0  0.37004070946E+02 -0.92831504925E+01  0.22371992381E+02  0.44423604004E+02  0.41800000000E+01 0. -1.
         -5    1    3    3    0  502 -0.56767225299E+02  0.91518863756E+02  0.15051963560E+03  0.18512658748E+03  0.41800000000E+01 0. -1.
        -11    1    1    2    0    0 -0.15768748678E+01 -0.26391361937E+02 -0.21940460949E+02  0.34356576458E+02  0.00000000000E+00 0.  1.
         11    1    1    2    0    0  0.21340029221E+02 -0.55844351326E+02  0.84185182496E+02  0.10325276449E+03  0.00000000000E+00 0. -1.
</event>
<event>
 7    1  0.2733606E-009  0.1136083E+03  0.7561462E-02  0.1254030E+00
         -1   -1    0    0    0  501 -0.00000000000E+00  0.00000000000E+00  0.20066618300E+03  0.20066618300E+03  0.00000000000E+00 0.  1.
          1   -1    0    0  501    0  0.00000000000E+00 -0.00000000000E+00 -0.81986389892E+02  0.81986389892E+02  0.00000000000E+00 0. -1.
         25    2    1    2    0    0  0.54733615000E+02 -0.22134199684E+02  0.10463507352E+03  0.17344194936E+03  0.12509164552E+03 0.  0.
          5    1    3    3  502    0  0.88191146968E+02 -0.38411820157E+02  0.93902885006E+02  0.13449301299E+03  0.41800000000E+01 0.  1.
         -5    1    3    3    0  502 -0.33457531969E+02  0.16277620473E+02  0.10732188515E+02  0.38948936366E+02  0.41800000000E+01 0.  1.
        -11    1    1    2    0    0 -0.39746489845E+02  0.48778277095E+02  0.35139713346E+02  0.72068739585E+02  0.00000000000E+00 0.  1.
         11    1    1    2    0    0 -0.14987125155E+02 -0.26644077410E+02 -0.21094993760E+02  0.37141883948E+02  0.00000000000E+00 0. -1.
</event>
<event>
 7    1  0.2733606E-009  0.1252179E+03  0.7561462E-02  0.1234729E+00
          1   -1    0    0  501    0  0.00000000000E+00  0.00000000000E+00  0.19020346703E+03  0.19020346703E+03  0.00000000000E+00 0. -1.
         -1   -1    0    0    0  501 -0.00000000000E+00 -0.00000000000E+00 -0.12444905543E+03  0.12444905543E+03  0.00000000000E+00 0.  1.
         25    2    1    2    0    0  0.90421238957E+02  0.47778043398E+02 -0.33908672354E+01  0.16160947947E+03  0.12508950390E+03 0.  0.
          5    1    3    3  502    0  0.95078854383E+02  0.14209003688E+02 -0.46288588095E+02  0.10678010173E+03  0.41800000000E+01 0. -1.
         -5    1    3    3    0  502 -0.46576154259E+01  0.33569039710E+02  0.42897720859E+02  0.54829377741E+02  0.41800000000E+01 0. -1.
        -11    1    1    2    0    0  0.41965144920E+01 -0.21441288991E+02  0.47769960746E+02  0.52529122943E+02  0.00000000000E+00 0. -1.
         11    1    1    2    0    0 -0.94617753449E+02 -0.26336754407E+02  0.21375318090E+02  0.10051392005E+03  0.00000000000E+00 0.  1.
</event>
<event>
 7    1  0.2733606E-009  0.1071693E+03  0.7561462E-02  0.1265904E+00
         -1   -1    0    0    0  501 -0.00000000000E+00  0.00000000000E+00  0.73535018737E+02  0.73535018737E+02  0.00000000000E+00 0.  1.
          1   -1    0    0  501    0  0.00000000000E+00 -0.00000000000E+00 -0.18376524799E+03  0.18376524799E+03  0.00000000000E+00 0. -1.
         25    2    1    2    0    0 -0.23153455379E+02  0.22909164330E+02 -0.20534265364E+02  0.13087385137E+03  0.12508155984E+03 0.  0.
          5    1    3    3  502    0  0.43577082606E+02 -0.18311579200E+02  0.63019257709E+01  0.47869225288E+02  0.41800000000E+01 0.  1.
         -5    1    3    3    0  502 -0.66730537985E+02  0.41220743530E+02 -0.26836191135E+02  0.83004626085E+02  0.41800000000E+01 0.  1.
        -11    1    1    2    0    0  0.43844248260E+02 -0.41612729079E+02 -0.68754057465E+02  0.91548117101E+02  0.00000000000E+00 0. -1.
         11    1    1    2    0    0 -0.20690792881E+02  0.18703564749E+02 -0.20941906427E+02  0.34878298255E+02  0.00000000000E+00 0.  1.
</event>
<event>
 7    1  0.2733606E-009  0.7175165E+02  0.7561462E-02  0.1354236E+00
         -1   -1    0    0    0  501 -0.00000000000E+00  0.00000000000E+00  0.24091931145E+03  0.24091931145E+03  0.00000000000E+00 0.  1.
          1   -1    0    0  501    0  0.00000000000E+00 -0.00000000000E+00 -0.46073879764E+02  0.46073879764E+02  0.00000000000E+00 0. -1.
         25    2    1    2    0    0  0.25633814513E+01 -0.14171508453E+02  0.11018756557E+03  0.16732085574E+03  0.12509023377E+03 0.  0.
          5    1    3    3  502    0 -0.17440116173E+02  0.29443525658E+02  0.11390931083E+03  0.11901211010E+03  0.41800000000E+01 0.  1.
         -5    1    3    3    0  502  0.20003497624E+02 -0.43615034111E+02 -0.37217452679E+01  0.48308745642E+02  0.41800000000E+01 0.  1.
        -11    1    1    2    0    0  0.23805080506E+02 -0.93037546703E+01  0.80095551310E+02  0.84074604064E+02  0.00000000000E+00 0.  1.
         11    1    1    2    0    0 -0.26368461958E+02  0.23475263123E+02  0.45623148040E+01  0.35597731404E+02  0.00000000000E+00 0. -1.
</event>
<event>
 7    1  0.2733606E-009  0.1348373E+03  0.7561462E-02  0.1220450E+00
          3   -1    0    0  501    0  0.00000000000E+00  0.00000000000E+00  0.22025417068E+03  0.22025417068E+03  0.00000000000E+00 0. -1.
         -3   -1    0    0    0  501 -0.00000000000E+00 -0.00000000000E+00 -0.11709922263E+03  0.11709922263E+03  0.00000000000E+00 0.  1.
         25    2    1    2    0    0 -0.35259440761E+02 -0.79118509227E+02  0.11352851932E+03  0.18983948694E+03  0.12508932583E+03 0.  0.
          5    1    3    3  502    0  0.96976753112E+01 -0.78956189985E+02  0.12019791961E+03  0.14419825631E+03  0.41800000000E+01 0. -1.
         -5    1    3    3    0  502 -0.44957116073E+02 -0.16231924189E+00 -0.66694002931E+01  0.45641230629E+02  0.41800000000E+01 0. -1.
        -11    1    1    2    0    0 -0.38004713468E+02  0.56677625473E+02  0.80297745343E+01  0.68710907098E+02  0.00000000000E+00 0.  1.
         11    1    1    2    0    0  0.73264154230E+02  0.22440883753E+02 -0.18403345802E+02  0.78802999279E+02  0.00000000000E+00 0. -1.
</event>
<event>
 7    1  0.2733606E-009  0.1000399E+03  0.7561462E-02  0.1280212E+00
         -1   -1    0    0    0  501 -0.00000000000E+00  0.00000000000E+00  0.10138895548E+03  0.10138895548E+03  0.00000000000E+00 0.  1.
          1   -1    0    0  501    0  0.00000000000E+00 -0.00000000000E+00 -0.14318836225E+03  0.14318836225E+03  0.00000000000E+00 0. -1.
         25    2    1    2    0    0 -0.39675077924E+02  0.45461696740E+01  0.10993170461E+02  0.13177134648E+03  0.12509219995E+03 0.  0.
          5    1    3    3  502    0  0.30185892655E+02  0.29057927174E+01  0.44617839993E+02  0.54109664500E+02  0.41800000000E+01 0.  1.
         -5    1    3    3    0  502 -0.69860970579E+02  0.16403769566E+01 -0.33624669532E+02  0.77661681980E+02  0.41800000000E+01 0.  1.
        -11    1    1    2    0    0  0.44026884837E+02 -0.42539482922E+02 -0.36174571836E+02  0.71109590375E+02  0.00000000000E+00 0.  1.
         11    1    1    2    0    0 -0.43518069129E+01  0.37993313248E+02 -0.16618005392E+02  0.41696380876E+02  0.00000000000E+00 0. -1.
</event>
<event>
 7    1  0.2733606E-009  0.1282393E+03  0.7561462E-02  0.1230092E+00
         -4   -1    0    0    0  501 -0.00000000000E+00  0.00000000000E+00  0.17071948931E+03  0.17071948931E+03  0.00000000000E+00 0.  1.
          4   -1    0    0  501    0  0.00000000000E+00 -0.00000000000E+00 -0.11629327829E+03  0.11629327829E+03  0.00000000000E+00 0. -1.
         25    2    1    2    0    0  0.10412238155E+02  0.78411840021E+02 -0.13421572147E+02  0.14860672367E+03  0.12508792253E+03 0.  0.
          5    1    3    3  502    0  0.46019622178E+02 -0.46838644236E+01  0.22036398105E+02  0.51408359756E+02  0.41800000000E+01 0.  1.
         -5    1    3    3    0  502 -0.35607384023E+02  0.83095704444E+02 -0.35457970253E+02  0.97198363919E+02  0.41800000000E+01 0.  1.
        -11    1    1    2    0    0 -0.42794930397E+02 -0.10154112362E+02  0.16118115594E+02  0.46843416996E+02  0.00000000000E+00 0. -1.
         11    1    1    2    0    0  0.32382692242E+02 -0.68257727658E+02  0.51729667573E+02  0.91562626924E+02  0.00000000000E+00 0.  1.
</event>
<event>
 7    1  0.2733606E-009  0.9822776E+02  0.7561462E-02  0.1284067E+00
         -1   -1    0    0    0  501 -0.00000000000E+00  0.00000000000E+00  0.28448693981E+02  0.28448693981E+02  0.00000000000E+00 0.  1.
          1   -1    0    0  501    0  0.00000000000E+00 -0.00000000000E+00 -0.57815102791E+03  0.57815102791E+03  0.00000000000E+00 0. -1.
         25    2    1    2    0    0  0.94454368148E+01 -0.74055442368E+01 -0.46029548675E+03  0.47714168303E+03  0.12509273440E+03 0.  0.
          5    1    3    3  502    0  0.62296834096E+02  0.11924162290E+02 -0.31337333107E+03  0.31975521608E+03  0.41800000000E+01 0.  1.
         -5    1    3    3    0  502 -0.52851397281E+02 -0.19329706527E+02 -0.14692215568E+03  0.15738646695E+03  0.41800000000E+01 0.  1.
        -11    1    1    2    0    0  0.33199915536E+02  0.14119913060E+00 -0.77921701360E+02  0.84699739502E+02  0.00000000000E+00 0. -1.
         11    1    1    2    0    0 -0.42645352351E+02  0.72643451062E+01 -0.11485145816E+02  0.44758299358E+02  0.00000000000E+00 0.  1.
</event>
<event>
 7    1  0.2733606E-009  0.1047876E+03  0.7561462E-02  0.1270539E+00
          2   -1    0    0  501    0  0.00000000000E+00  0.00000000000E+00  0.93171143425E+02  0.93171143425E+02  0.00000000000E+00 0. -1.
         -2   -1    0    0    0  501 -0.00000000000E+00 -0.00000000000E+00 -0.14892628597E+03  0.14892628597E+03  0.00000000000E+00 0.  1.
         25    2    1    2    0    0 -0.27556748697E+02 -0.38745302675E+02 -0.40089360663E+02  0.13969449090E+03  0.12508725384E+03 0.  0.
          5    1    3    3  502    0 -0.57412094651E+00  0.35144669267E+02  0.19965672231E+02  0.40639609501E+02  0.41800000000E+01 0.  1.
         -5    1    3    3    0  502 -0.26982627750E+02 -0.73889971942E+02 -0.60055032894E+02  0.99054881403E+02  0.41800000000E+01 0.  1.
        -11    1    1    2    0    0  0.23486427887E+02  0.64856534384E+02  0.45539630114E+01  0.69128293241E+02  0.00000000000E+00 0. -1.
         11    1    1    2    0    0  0.40703208097E+01 -0.26111231710E+02 -0.20219744891E+02  0.33274645247E+02  0.00000000000E+00 0.  1.
</event>
<event>
 7    1  0.3160713E-009  0.2545665E+03  0.7561462E-02  0.1110452E+00
          2   -1    0    0  501    0  0.00000000000E+00  0.00000000000E+00  0.58225255312E+03  0.58225255312E+03  0.00000000000E+00 0. -1.
         -2   -1    0    0    0  501 -0.00000000000E+00 -0.00000000000E+00 -0.11130621593E+03  0.11130621593E+03  0.00000000000E+00 0.  1.
         25    2    1    2    0    0 -0.22425256478E+03  0.50377141988E+02  0.24103766820E+03  0.35577253241E+03  0.12509143887E+03 0.  0.
          5    1    3    3  502    0 -0.80000584362E+02  0.81241187443E+02  0.10629134646E+03  0.15593443099E+03  0.41800000000E+01 0. -1.
         -5    1    3    3    0  502 -0.14425198042E+03 -0.30864045455E+02  0.13474632174E+03  0.19983810142E+03  0.41800000000E+01 0. -1.
        -11    1    1    2    0    0  0.76474415727E+02 -0.63087536843E+02  0.90744855420E+02  0.13439866945E+03  0.00000000000E+00 0.  1.
         11    1    1    2    0    0  0.14777814906E+03  0.12710394855E+02  0.13916381357E+03  0.20338756718E+03  0.00000000000E+00 0. -1.
</event>
<event>
 7    1  0.2733606E-009  0.1302568E+03  0.7561462E-02  0.1227075E+00
          2   -1    0    0  501    0  0.00000000000E+00  0.00000000000E+00  0.11545315458E+03  0.11545315458E+03  0.00000000000E+00 0. -1.
         -2   -1    0    0    0  501 -0.00000000000E+00 -0.00000000000E+00 -0.19339742595E+03  0.19339742595E+03  0.00000000000E+00 0.  1.
         25    2    1    2    0    0 -0.22879089274E+02 -0.73531832730E+02 -0.11141575012E+03  0.18436801436E+03  0.12509081578E+03 0.  0.
          5    1    3    3  502    0 -0.80395047495E+00  0.33095413360E+02 -0.47463745736E+02  0.58019240611E+02  0.41800000000E+01 0.  1.
         -5    1    3    3    0  502 -0.22075138799E+02 -0.10662724609E+03 -0.63952004386E+02  0.12634877374E+03  0.41800000000E+01 0.  1.
        -11    1    1    2    0    0  0.11646675995E+02 -0.20445835614E+02  0.15412157227E+02  0.28128488159E+02  0.00000000000E+00 0.  1.
         11    1    1    2    0    0  0.11232413280E+02  0.93977668345E+02  0.18059321531E+02  0.96354078013E+02  0.00000000000E+00 0. -1.
</event>
<event>
 7    1  0.2733606E-009  0.1028481E+03  0.7561462E-02  0.1274418E+00
         -1   -1    0    0    0  501 -0.00000000000E+00  0.00000000000E+00  0.50208951601E+02  0.50208951601E+02  0.00000000000E+00 0.  1.
          1   -1    0    0  501    0  0.00000000000E+00 -0.00000000000E+00 -0.31289863616E+03  0.31289863616E+03  0.00000000000E+00 0. -1.
         25    2    1    2    0    0 -0.69756206124E-01  0.35204694750E+02 -0.21772640717E+03  0.25355768983E+03  0.12508932127E+03 0.  0.
          5    1    3    3  502    0 -0.46744940791E+02  0.58419241790E+02 -0.15282374483E+03  0.17020712877E+03  0.41800000000E+01 0.  1.
         -5    1    3    3    0  502  0.46675184585E+02 -0.23214547040E+02 -0.64902662336E+02  0.83350561058E+02  0.41800000000E+01 0.  1.
        -11    1    1    2    0    0  0.26019968834E+02  0.87232334941E+01  0.14630264504E+02  0.31099489066E+02  0.00000000000E+00 0.  1.
         11    1    1    2    0    0 -0.25950212628E+02 -0.43927928244E+02 -0.59593541893E+02  0.78450408862E+02  0.00000000000E+00 0. -1.
</event>
<event>
 7    1  0.2733606E-009  0.2339052E+03  0.7561462E-02  0.1123921E+00
          1   -1    0    0  501    0  0.00000000000E+00  0.00000000000E+00  0.30951113226E+03  0.30951113226E+03  0.00000000000E+00 0. -1.
         -1   -1    0    0    0  501 -0.00000000000E+00 -0.00000000000E+00 -0.22696358108E+03  0.22696358108E+03  0.00000000000E+00 0.  1.
         25    2    1    2    0    0  0.21069330484E+03 -0.89647345428E+02  0.12078994505E+03  0.28751859580E+03  0.12509363237E+03 0.  0.
          5    1    3    3  502    0  0.20468673531E+03 -0.82437551212E+02  0.63984064505E+02  0.22979130178E+03  0.41800000000E+01 0.  1.
         -5    1    3    3    0  502  0.60065695244E+01 -0.72097942168E+01  0.56805880549E+02  0.57727294022E+02  0.41800000000E+01 0.  1.
        -11    1    1    2    0    0 -0.19137039980E+03  0.98893819018E+02 -0.12936131808E+02  0.21580074343E+03  0.00000000000E+00 0. -1.
         11    1    1    2    0    0 -0.19322905040E+02 -0.92464735898E+01 -0.25306262067E+02  0.33155374117E+02  0.00000000000E+00 0.  1.
</event>
<event>
 7    1  0.2733606E-009  0.1112157E+03  0.7561462E-02  0.1258335E+00
          1   -1    0    0  501    0  0.00000000000E+00  0.00000000000E+00  0.57135260841E+02  0.57135260841E+02  0.00000000000E+00 0. -1.
         -1   -1    0    0    0  501 -0.00000000000E+00 -0.00000000000E+00 -0.23805629645E+03  0.23805629645E+03  0.00000000000E+00 0.  1.
         25    2    1    2    0    0 -0.13709149183E+02 -0.40843403081E+02 -0.10975877015E+03  0.17190694703E+03  0.12509550937E+03 0.  0.
          5    1    3    3  502    0  0.34601678286E+02 -0.60602426174E+02 -0.29061330988E+02  0.75709732249E+02  0.41800000000E+01 0. -1.
         -5    1    3    3    0  502 -0.48310827469E+02  0.19759023092E+02 -0.80697439165E+02  0.96197214783E+02  0.41800000000E+01 0. -1.
        -11    1    1    2    0    0  0.10637872983E+02  0.70018803465E+02 -0.44500578211E+02  0.83642684326E+02  0.00000000000E+00 0. -1.
         11    1    1    2    0    0  0.30712761995E+01 -0.29175400383E+02 -0.26661687248E+02  0.39641925936E+02  0.00000000000E+00 0.  1.
</event>
<event>
 7    1  0.2733606E-009  0.1064706E+03  0.7561462E-02  0.1267249E+00
          2   -1    0    0  501    0  0.00000000000E+00  0.00000000000E+00  0.63509488430E+02  0.63509488430E+02  0.00000000000E+00 0.  1.
         -2   -1    0    0    0  501 -0.00000000000E+00 -0.00000000000E+00 -0.24623825891E+03  0.24623825891E+03  0.00000000000E+00 0. -1.
         25    2    1    2    0    0 -0.53333647443E+02  0.32298996634E+02 -0.97659876520E+02  0.17049423668E+03  0.12507249949E+03 0.  0.
          5    1    3    3  502    0 -0.46483134017E+02  0.67820272415E+02 -0.10491703805E+03  0.13336164506E+03  0.41800000000E+01 0. -1.
         -5    1    3    3    0  502 -0.68505134260E+01 -0.35521275782E+02  0.72571615337E+01  0.37132591626E+02  0.41800000000E+01 0. -1.
        -11    1    1    2    0    0 -0.13592877200E+01 -0.39064142548E+02 -0.73047269959E+02  0.82847803499E+02  0.00000000000E+00 0. -1.
         11    1    1    2    0    0  0.54692935163E+02  0.67651459147E+01 -0.12021623998E+02  0.56405707154E+02  0.00000000000E+00 0.  1.
</event>
<event>
 7    1  0.2733606E-009  0.9424170E+02  0.7561462E-02  0.1292893E+00
          2   -1    0    0  501    0  0.00000000000E+00  0.00000000000E+00  0.15258635882E+03  0.15258635882E+03  0.00000000000E+00 0. -1.
         -2   -1    0    0    0  501 -0.00000000000E+00 -0.00000000000E+00 -0.12303875168E+03  0.12303875168E+03  0.00000000000E+00 0.  1.
         25    2    1    2    0    0 -0.40107599310E+01 -0.23664001514E+02 -0.64001976288E+02  0.14254945257E+03  0.12509205529E+03 0.  0.
          5    1    3    3  502    0 -0.50533338373E+02 -0.51163771392E+02 -0.27034077270E+02  0.76939349647E+02  0.41800000000E+01 0. -1.
         -5    1    3    3    0  502  0.46522578442E+02  0.27499769879E+02 -0.36967899019E+02  0.65610102928E+02  0.41800000000E+01 0. -1.
        -11    1    1    2    0    0  0.27778923223E+02 -0.12578035196E+01 -0.53801046392E+01  0.28323067826E+02  0.00000000000E+00 0.  1.
         11    1    1    2    0    0 -0.23768163292E+02  0.24921805033E+02  0.98929688062E+02  0.10475259010E+03  0.00000000000E+00 0. -1.
</event>
<event>
 7    1  0.2733606E-009  0.1135281E+03  0.7561462E-02  0.1254173E+00
         -1   -1    0    0    0  501 -0.00000000000E+00  0.00000000000E+00  0.62212965506E+02  0.62212965506E+02  0.00000000000E+00 0.  1.
          1   -1    0    0  501    0  0.00000000000E+00 -0.00000000000E+00 -0.33036019466E+03  0.33036019466E+03  0.00000000000E+00 0. -1.
         25    2    1    2    0    0  0.44089805154E+01 -0.54762415342E+02 -0.24921126948E+03  0.28419957265E+03  0.12507909102E+03 0.  0.
          5    1    3    3  502    0  0.22033334338E+02 -0.83619271101E+02 -0.10535006721E+03  0.13635893583E+03  0.41800000000E+01 0. -1.
         -5    1    3    3    0  502 -0.17624353822E+02  0.28856855758E+02 -0.14386120228E+03  0.14784063681E+03  0.41800000000E+01 0. -1.
        -11    1    1    2    0    0 -0.43802480677E+02  0.50403740809E+02 -0.15765974929E+02  0.68613120950E+02  0.00000000000E+00 0.  1.
         11    1    1    2    0    0  0.39393500162E+02  0.43586745336E+01 -0.31699847410E+01  0.39760466571E+02  0.00000000000E+00 0. -1.
</event>
<event>
 7    1  0.2733606E-009  0.2072518E+03  0.7561462E-02  0.1143761E+00
         -2   -1    0    0    0  501 -0.00000000000E+00  0.00000000000E+00  0.74323776071E+02  0.74323776071E+02  0.00000000000E+00 0.  1.
          2   -1    0    0  501    0  0.00000000000E+00 -0.00000000000E+00 -0.66625883992E+03  0.66625883992E+03  0.00000000000E+00 0. -1.
         25    2    1    2    0    0 -0.17740937145E+03  0.65682405526E+02 -0.37821817715E+03  0.44100125168E+03  0.12507937875E+03 0.  0.
          5    1    3    3  502    0 -0.11034778193E+03  0.87943445501E+02 -0.16938449511E+03  0.22049776000E+03  0.41800000000E+01 0. -1.
         -5    1    3    3    0  502 -0.67061589526E+02 -0.22261039975E+02 -0.20883368204E+03  0.22050349168E+03  0.41800000000E+01 0. -1.
        -11    1    1    2    0    0  0.10424490064E+03 -0.20525561437E-01 -0.70409373506E+02  0.12579538786E+03  0.00000000000E+00 0.  1.
         11    1    1    2    0    0  0.73164470814E+02 -0.65661879964E+02 -0.14330751320E+03  0.17378597645E+03  0.00000000000E+00 0. -1.
</event>
<event>
 7    1  0.2733606E-009  0.1376668E+03  0.7561462E-02  0.1216503E+00
          1   -1    0    0  501    0  0.00000000000E+00  0.00000000000E+00  0.19161142905E+03  0.19161142905E+03  0.00000000000E+00 0. -1.
         -1   -1    0    0    0  501 -0.00000000000E+00 -0.00000000000E+00 -0.11395955765E+03  0.11395955765E+03  0.00000000000E+00 0.  1.
         25    2    1    2    0    0  0.43388273260E+02  0.87863209602E+02  0.20278538016E+02  0.16018986426E+03  0.12508831940E+03 0.  0.
          5    1    3    3  502    0 -0.41956192735E+02  0.17365063791E+02 -0.69268736973E+01  0.46122895925E+02  0.41800000000E+01 0. -1.
         -5    1    3    3    0  502  0.85344465995E+02  0.70498145811E+02  0.27205411713E+02  0.11406696834E+03  0.41800000000E+01 0. -1.
        -11    1    1    2    0    0  0.17098057177E+02 -0.33595565868E+02  0.51615120352E+02  0.63914992406E+02  0.00000000000E+00 0. -1.
         11    1    1    2    0    0 -0.60486330437E+02 -0.54267643734E+02  0.57582130363E+01  0.81466130040E+02  0.00000000000E+00 0.  1.
</event>
<event>
 7    1  0.4437361E-009  0.1899704E+03  0.7561462E-02  0.1158488E+00
         -2   -1    0    0    0  501 -0.00000000000E+00  0.00000000000E+00  0.37662665285E+02  0.37662665285E+02  0.00000000000E+00 0. -1.
          2   -1    0    0  501    0  0.00000000000E+00 -0.00000000000E+00 -0.11940235151E+04  0.11940235151E+04  0.00000000000E+00 0.  1.
         25    2    1    2    0    0 -0.81229303998E+02 -0.16174779291E+03 -0.64432289133E+03  0.68085246412E+03  0.12509013256E+03 0.  0.
          5    1    3    3  502    0 -0.52920230363E+02 -0.13812956418E+03 -0.29974437304E+03  0.33428204985E+03  0.41800000000E+01 0.  1.
         -5    1    3    3    0  502 -0.28309073634E+02 -0.23618228725E+02 -0.34457851829E+03  0.34657041426E+03  0.41800000000E+01 0.  1.
        -11    1    1    2    0    0  0.88347747429E+01  0.97998102372E+02 -0.18085804701E+03  0.20589151144E+03  0.00000000000E+00 0. -1.
         11    1    1    2    0    0  0.72394529255E+02  0.63749690536E+02 -0.33117991147E+03  0.34494220483E+03  0.00000000000E+00 0.  1.
</event>
<event>
 7    1  0.2733606E-009  0.1522108E+03  0.7561462E-02  0.1197782E+00
          2   -1    0    0  501    0  0.00000000000E+00  0.00000000000E+00  0.13485905212E+03  0.13485905212E+03  0.00000000000E+00 0. -1.
         -2   -1    0    0    0  501 -0.00000000000E+00 -0.00000000000E+00 -0.21205186776E+03  0.21205186776E+03  0.00000000000E+00 0.  1.
         25    2    1    2    0    0 -0.52147084910E+02 -0.11128949745E+03 -0.78966755216E+02  0.19232239622E+03  0.12508990748E+03 0.  0.
          5    1    3    3  502    0  0.10434901461E+01 -0.10230439189E+03 -0.74790110898E+01  0.10266784053E+03  0.41800000000E+01 0.  1.
         -5    1    3    3    0  502 -0.53190575057E+02 -0.89851055580E+01 -0.71487744126E+02  0.89654555695E+02  0.41800000000E+01 0.  1.
        -11    1    1    2    0    0  0.23646291366E+02 -0.82395135425E+01 -0.17023267355E+02  0.30279172879E+02  0.00000000000E+00 0.  1.
         11    1    1    2    0    0  0.28500793544E+02  0.11952901099E+03  0.18797206929E+02  0.12430935077E+03  0.00000000000E+00 0. -1.
</event>
<event>
 7    1  0.2733606E-009  0.1397460E+03  0.7561462E-02  0.1213671E+00
          1   -1    0    0  501    0  0.00000000000E+00  0.00000000000E+00  0.68606944174E+02  0.68606944174E+02  0.00000000000E+00 0. -1.
         -1   -1    0    0    0  501 -0.00000000000E+00 -0.00000000000E+00 -0.41390296527E+03  0.41390296527E+03  0.00000000000E+00 0.  1.
         25    2    1    2    0    0  0.96615396167E+02  0.77649849568E+02 -0.24812629441E+03  0.30426599277E+03  0.12508837861E+03 0.  0.
          5    1    3    3  502    0  0.20448769756E+02  0.71015249036E+02 -0.43666943476E+02  0.85939467840E+02  0.41800000000E+01 0. -1.
         -5    1    3    3    0  502  0.76166626412E+02  0.66346005323E+01 -0.20445935093E+03  0.21832652493E+03  0.41800000000E+01 0. -1.
        -11    1    1    2    0    0 -0.77238323887E+02 -0.40997055298E+02 -0.18591473078E+02  0.89398881935E+02  0.00000000000E+00 0. -1.
         11    1    1    2    0    0 -0.19377072280E+02 -0.36652794270E+02 -0.78578253605E+02  0.88845034737E+02  0.00000000000E+00 0.  1.
</event>
<event>
 7    1  0.2733606E-009  0.1177750E+03  0.7561462E-02  0.1246813E+00
          2   -1    0    0  501    0  0.00000000000E+00  0.00000000000E+00  0.31344125127E+02  0.31344125127E+02  0.00000000000E+00 0. -1.
         -2   -1    0    0    0  501 -0.00000000000E+00 -0.00000000000E+00 -0.49230987154E+03  0.49230987154E+03  0.00000000000E+00 0.  1.
         25    2    1    2    0    0  0.17619097669E+02  0.43391765545E+02 -0.33762864331E+03  0.36308908178E+03  0.12508917859E+03 0.  0.
          5    1    3    3  502    0  0.70346370187E+02  0.11429763801E+02 -0.16729734682E+03  0.18189317181E+03  0.41800000000E+01 0.  1.
         -5    1    3    3    0  502 -0.52727272518E+02  0.31962001744E+02 -0.17033129649E+03  0.18119590996E+03  0.41800000000E+01 0.  1.
        -11    1    1    2    0    0 -0.45324013651E+02  0.60081646174E+01 -0.47712365133E+02  0.66082025106E+02  0.00000000000E+00 0.  1.
         11    1    1    2    0    0  0.27704915982E+02 -0.49399930162E+02 -0.75624737968E+02  0.94482889786E+02  0.00000000000E+00 0. -1.
</event>
<event>
 7    1  0.2733606E-009  0.1646683E+03  0.7561462E-02  0.1183525E+00
         -1   -1    0    0    0  501 -0.00000000000E+00  0.00000000000E+00  0.30750399490E+02  0.30750399490E+02  0.00000000000E+00 0.  1.
          1   -1    0    0  501    0  0.00000000000E+00 -0.00000000000E+00 -0.22400912777E+04  0.22400912777E+04  0.00000000000E+00 0. -1.
         25    2    1    2    0    0 -0.17579269257E+02  0.13710675142E+03 -0.19857074998E+04  0.19944394688E+04  0.12508888098E+03 0.  0.
          5    1    3    3  502    0  0.40550557058E+02  0.45768661831E+02 -0.11649764758E+04  0.11665876648E+04  0.41800000000E+01 0.  1.
         -5    1    3    3    0  502 -0.58129826316E+02  0.91338089593E+02 -0.82073102391E+03  0.82785180396E+03  0.41800000000E+01 0.  1.
        -11    1    1    2    0    0 -0.31214280692E+02 -0.70777520208E+02 -0.83173697426E+02  0.11358544198E+03  0.00000000000E+00 0. -1.
         11    1    1    2    0    0  0.48793549949E+02 -0.66329231215E+02 -0.14045968106E+03  0.16281676644E+03  0.00000000000E+00 0.  1.
</event>
<event>
 7    1  0.2733606E-009  0.1250061E+03  0.7561462E-02  0.1235060E+00
         -2   -1    0    0    0  501 -0.00000000000E+00  0.00000000000E+00  0.11842978428E+03  0.11842978428E+03  0.00000000000E+00 0.  1.
          2   -1    0    0  501    0  0.00000000000E+00 -0.00000000000E+00 -0.16117753162E+03  0.16117753162E+03  0.00000000000E+00 0. -1.
         25    2    1    2    0    0  0.36758928050E+02  0.49465257312E+02  0.35155944416E+02  0.14381150072E+03  0.12509107417E+03 0.  0.
          5    1    3    3  502    0 -0.32219238888E+02 -0.22285316468E+02  0.49029641913E+01  0.39701714604E+02  0.41800000000E+01 0.  1.
         -5    1    3    3    0  502  0.68978166938E+02  0.71750573779E+02  0.30252980225E+02  0.10410978611E+03  0.41800000000E+01 0.  1.
        -11    1    1    2    0    0 -0.18749077022E+02 -0.76360570113E+02 -0.51147340649E+02  0.93800399854E+02  0.00000000000E+00 0.  1.
         11    1    1    2    0    0 -0.18009851028E+02  0.26895312802E+02 -0.26756351102E+02  0.41995415334E+02  0.00000000000E+00 0. -1.
</event>
<event>
 7    1  0.2733606E-009  0.1408550E+03  0.7561462E-02  0.1212183E+00
         -2   -1    0    0    0  501 -0.00000000000E+00  0.00000000000E+00  0.12466812759E+03  0.12466812759E+03  0.00000000000E+00 0.  1.
          2   -1    0    0  501    0  0.00000000000E+00 -0.00000000000E+00 -0.30152959212E+03  0.30152959212E+03  0.00000000000E+00 0. -1.
         25    2    1    2    0    0  0.55479941703E+02  0.83184969618E+02  0.49725374084E+02  0.16768018008E+03  0.12508503852E+03 0.  0.
          5    1    3    3  502    0  0.58524466265E+02  0.11383762995E+03  0.47208646922E+02  0.13649266606E+03  0.41800000000E+01 0.  1.
         -5    1    3    3    0  502 -0.30445245628E+01 -0.30652660330E+02  0.25167271617E+01  0.31187514020E+02  0.41800000000E+01 0.  1.
        -11    1    1    2    0    0 -0.17343713083E+02 -0.82614070867E+02 -0.13387422560E+03  0.15826622308E+03  0.00000000000E+00 0.  1.
         11    1    1    2    0    0 -0.38136228619E+02 -0.57089875060E+00 -0.92712613010E+02  0.10025131655E+03  0.00000000000E+00 0. -1.
</event>
<event>
 7    1  0.2733606E-009  0.8963677E+02  0.7561462E-02  0.1303734E+00
         -1   -1    0    0    0  501 -0.00000000000E+00  0.00000000000E+00  0.58452721027E+03  0.58452721027E+03  0.00000000000E+00 0.  1.
          1   -1    0    0  501    0  0.00000000000E+00 -0.00000000000E+00 -0.26741917423E+02  0.26741917423E+02  0.00000000000E+00 0. -1.
         25    2    1    2    0    0 -0.30640543743E+02 -0.24408476711E+02  0.43140580640E+03  0.45088051708E+03  0.12509058408E+03 0.  0.
          5    1    3    3  502    0  0.26953382728E+02 -0.11998195304E+02  0.34460191705E+03  0.34588783611E+03  0.41800000000E+01 0. -1.
         -5    1    3    3    0  502 -0.57593926471E+02 -0.12410281407E+02  0.86803889347E+02  0.10499268097E+03  0.41800000000E+01 0. -1.
        -11    1    1    2    0    0  0.52394286357E+02 -0.63076160995E+01  0.10393614458E+03  0.11656615895E+03  0.00000000000E+00 0.  1.
         11    1    1    2    0    0 -0.21753742614E+02  0.30716092811E+02  0.22443341863E+02  0.43822451657E+02  0.00000000000E+00 0. -1.
</event>
<event>
 7    1  0.2733606E-009  0.1673741E+03  0.7561462E-02  0.1180614E+00
         -2   -1    0    0    0  501 -0.00000000000E+00  0.00000000000E+00  0.39384673058E+02  0.39384673058E+02  0.00000000000E+00 0.  1.
          2   -1    0    0  501    0  0.00000000000E+00 -0.00000000000E+00 -0.94873265979E+03  0.94873265979E+03  0.00000000000E+00 0. -1.
         25    2    1    2    0    0  0.72258063183E+02  0.12329423193E+03 -0.66356736982E+03  0.69021113757E+03  0.12508822811E+03 0.  0.
          5    1    3    3  502    0  0.72622348415E+02  0.33331812885E+02 -0.16269877527E+03  0.18131017377E+03  0.41800000000E+01 0.  1.
         -5    1    3    3    0  502 -0.36428523253E+00  0.89962419047E+02 -0.50086859456E+03  0.50890096380E+03  0.41800000000E+01 0.  1.
        -11    1    1    2    0    0 -0.89101373012E+02 -0.11611795990E+03 -0.23441666200E+03  0.27635775131E+03  0.00000000000E+00 0. -1.
         11    1    1    2    0    0  0.16843309829E+02 -0.71762720305E+01 -0.11363954907E+02  0.21548443966E+02  0.00000000000E+00 0.  1.
</event>
<event>
 7    1  0.2733606E-009  0.9303183E+02  0.7561462E-02  0.1295671E+00
          2   -1    0    0  501    0  0.00000000000E+00  0.00000000000E+00  0.26446124875E+03  0.26446124875E+03  0.00000000000E+00 0. -1.
         -2   -1    0    0    0  501 -0.00000000000E+00 -0.00000000000E+00 -0.88611747343E+02  0.88611747343E+02  0.00000000000E+00 0.  1.
         25    2    1    2    0    0  0.50837323711E+02 -0.72980729913E+02  0.24495157824E+02  0.15542785896E+03  0.12508871317E+03 0.  0.
          5    1    3    3  502    0  0.87146555344E+01 -0.41969295372E+02  0.72487755302E+02  0.84316748300E+02  0.41800000000E+01 0.  1.
         -5    1    3    3    0  502  0.42122668177E+02 -0.31011434542E+02 -0.47992597478E+02  0.71111110661E+02  0.41800000000E+01 0.  1.
        -11    1    1    2    0    0 -0.16678697459E+02  0.11730800828E+02 -0.92541222935E+01  0.22392619687E+02  0.00000000000E+00 0.  1.
         11    1    1    2    0    0 -0.34158626252E+02  0.61249929085E+02  0.16060846588E+03  0.17525251745E+03  0.00000000000E+00 0. -1.
</event>
<event>
 7    1  0.2733606E-009  0.1292434E+03  0.7561462E-02  0.1228583E+00
          1   -1    0    0  501    0  0.00000000000E+00  0.00000000000E+00  0.78599049484E+03  0.78599049484E+03  0.00000000000E+00 0. -1.
         -1   -1    0    0    0  501 -0.00000000000E+00 -0.00000000000E+00 -0.26506340472E+02  0.26506340472E+02  0.00000000000E+00 0.  1.
         25    2    1    2    0    0 -0.63806206957E+02  0.71164504607E+02  0.40271900956E+03  0.43239482410E+03  0.12508822680E+03 0.  0.
          5    1    3    3  502    0  0.30937487438E+02  0.37437231358E+02  0.20268258600E+03  0.20846193295E+03  0.41800000000E+01 0.  1.
         -5    1    3    3    0  502 -0.94743694395E+02  0.33727273249E+02  0.20003642356E+03  0.22393289115E+03  0.41800000000E+01 0.  1.
        -11    1    1    2    0    0 -0.25345390133E+01 -0.31892545183E+02  0.28308420126E+02  0.42719140631E+02  0.00000000000E+00 0. -1.
         11    1    1    2    0    0  0.66340745970E+02 -0.39271959424E+02  0.32845672468E+03  0.33738287058E+03  0.00000000000E+00 0.  1.
</event>
<event>
 7    1  0.2733606E-009  0.2299020E+03  0.7561462E-02  0.1126709E+00
          1   -1    0    0  501    0  0.00000000000E+00  0.00000000000E+00  0.64691344034E+03  0.64691344034E+03  0.00000000000E+00 0. -1.
         -1   -1    0    0    0  501 -0.00000000000E+00 -0.00000000000E+00 -0.11200775130E+03  0.11200775130E+03  0.00000000000E+00 0.  1.
         25    2    1    2    0    0  0.21233642038E+03  0.62456022337E+01  0.99395866700E+02  0.26580395454E+03  0.12508573446E+03 0.  0.
          5    1    3    3  502    0  0.20791753066E+02 -0.39140599020E+02  0.40778607852E+02  0.60370942890E+02  0.41800000000E+01 0. -1.
         -5    1    3    3    0  502  0.19154466732E+03  0.45386201253E+02  0.58617258849E+02  0.20543301165E+03  0.41800000000E+01 0. -1.
        -11    1    1    2    0    0 -0.13401215924E+03  0.20622942339E+02  0.34371984944E+03  0.36949681930E+03  0.00000000000E+00 0.  1.
         11    1    1    2    0    0 -0.78324261143E+02 -0.26868544573E+02  0.91789972908E+02  0.12362041780E+03  0.00000000000E+00 0. -1.
</event>
<event>
 7    1  0.2733606E-009  0.1141957E+03  0.7561462E-02  0.1252992E+00
          2   -1    0    0  501    0  0.00000000000E+00  0.00000000000E+00  0.30775862867E+03  0.30775862867E+03  0.00000000000E+00 0.  1.
         -2   -1    0    0    0  501 -0.00000000000E+00 -0.00000000000E+00 -0.56655344299E+02  0.56655344299E+02  0.00000000000E+00 0. -1.
         25    2    1    2    0    0 -0.54830601534E+02  0.32376702224E+02  0.19412679322E+03  0.23955666537E+03  0.12509012098E+03 0.  0.
          5    1    3    3  502    0 -0.71077690519E+02 -0.13441187968E+02  0.17067883648E+03  0.18542233211E+03  0.41800000000E+01 0. -1.
         -5    1    3    3    0  502  0.16247088985E+02  0.45817890192E+02  0.23447956741E+02  0.54134333260E+02  0.41800000000E+01 0.  1.
        -11    1    1    2    0    0  0.27332063760E+02 -0.61369849620E+02  0.19207247354E+02  0.69872873869E+02  0.00000000000E+00 0.  1.
         11    1    1    2    0    0  0.27498537775E+02  0.28993147396E+02  0.37769243798E+02  0.54984433732E+02  0.00000000000E+00 0. -1.
</event>
<event>
 7    1  0.2733606E-009  0.1049479E+03  0.7561462E-02  0.1270222E+00
          2   -1    0    0  501    0  0.00000000000E+00  0.00000000000E+00  0.31211606827E+02  0.31211606827E+02  0.00000000000E+00 0. -1.
         -2   -1    0    0    0  501 -0.00000000000E+00 -0.00000000000E+00 -0.57599703092E+03  0.57599703092E+03  0.00000000000E+00 0.  1.
         25    2    1    2    0    0  0.23925033615E+02  0.17224976283E+01 -0.47482123490E+03  0.49160822337E+03  0.12509222977E+03 0.  0.
          5    1    3    3  502    0  0.34884996250E+02  0.57555746661E+02 -0.20445563286E+03  0.21528865540E+03  0.41800000000E+01 0. -1.
         -5    1    3    3    0  502 -0.10959962635E+02 -0.55833249033E+02 -0.27036560204E+03  0.27631956798E+03  0.41800000000E+01 0. -1.
        -11    1    1    2    0    0 -0.21256059575E+02  0.39098715697E+02 -0.57748883638E+02  0.72907223231E+02  0.00000000000E+00 0.  1.
         11    1    1    2    0    0 -0.26689740401E+01 -0.40821213326E+02 -0.12215305555E+02  0.42693191139E+02  0.00000000000E+00 0. -1.
</event>
<event>
 7    1  0.2733606E-009  0.1074802E+03  0.7561462E-02  0.1265309E+00
         -1   -1    0    0    0  501 -0.00000000000E+00  0.00000000000E+00  0.72006122446E+02  0.72006122446E+02  0.00000000000E+00 0.  1.
          1   -1    0    0  501    0  0.00000000000E+00 -0.00000000000E+00 -0.60232459525E+03  0.60232459525E+03  0.00000000000E+00 0. -1.
         25    2    1    2    0    0 -0.37081496275E+01  0.33232542182E+02  0.54546220781E+01  0.12960546736E+03  0.12509864921E+03 0.  0.
          5    1    3    3  502    0  0.53601884366E+02  0.23977028802E+02  0.30432053429E+02  0.66269466526E+02  0.41800000000E+01 0. -1.
         -5    1    3    3    0  502 -0.57310033993E+02  0.92555133802E+01 -0.24977431351E+02  0.63336000830E+02  0.41800000000E+01 0. -1.
        -11    1    1    2    0    0  0.52351507939E+01 -0.65437972639E+02 -0.38324135431E+03  0.38882318696E+03  0.00000000000E+00 0. -1.
         11    1    1    2    0    0 -0.15270011664E+01  0.32205430457E+02 -0.15253174058E+03  0.15590206338E+03  0.00000000000E+00 0.  1.
</event>
<event>
 7    1  0.2733606E-009  0.9263991E+02  0.7561462E-02  0.1296582E+00
         -2   -1    0    0    0  501 -0.00000000000E+00  0.00000000000E+00  0.46180156743E+02  0.46180156743E+02  0.00000000000E+00 0.  1.
          2   -1    0    0  501    0  0.00000000000E+00 -0.00000000000E+00 -0.64683605098E+03  0.64683605098E+03  0.00000000000E+00 0. -1.
         25    2    1    2    0    0  0.39563427603E+02  0.16354434241E+02 -0.57314891947E+03  0.58820000543E+03  0.12508729020E+03 0.  0.
          5    1    3    3  502    0  0.21883861816E+02  0.68778844271E+02 -0.39668017531E+03  0.40321466579E+03  0.41800000000E+01 0.  1.
         -5    1    3    3    0  502  0.17679565787E+02 -0.52424410030E+02 -0.17646874416E+03  0.18498533964E+03  0.41800000000E+01 0.  1.
        -11    1    1    2    0    0 -0.31561748434E+01 -0.20604689024E+02  0.30053968719E+02  0.36575342585E+02  0.00000000000E+00 0.  1.
         11    1    1    2    0    0 -0.36407252759E+02  0.42502547828E+01 -0.57560943486E+02  0.68240859712E+02  0.00000000000E+00 0. -1.
</event>
<event>
 7    1  0.2733606E-009  0.7936509E+02  0.7561462E-02  0.1330863E+00
          1   -1    0    0  501    0  0.00000000000E+00  0.00000000000E+00  0.85757865230E+02  0.85757865230E+02  0.00000000000E+00 0. -1.
         -1   -1    0    0    0  501 -0.00000000000E+00 -0.00000000000E+00 -0.26377673706E+03  0.26377673706E+03  0.00000000000E+00 0.  1.
         25    2    1    2    0    0  0.26887522906E+02 -0.53371081351E+02 -0.19282089496E+03  0.23748295105E+03  0.12508734265E+03 0.  0.
          5    1    3    3  502    0  0.70390091656E+01 -0.20991327032E+01  0.17831976808E+02  0.19733367808E+02  0.41800000000E+01 0.  1.
         -5    1    3    3    0  502  0.19848513741E+02 -0.51271948648E+02 -0.21065287177E+03  0.21774958324E+03  0.41800000000E+01 0.  1.
        -11    1    1    2    0    0 -0.39861336967E+02 -0.36218391963E+00 -0.22108953769E+02  0.45583584751E+02  0.00000000000E+00 0.  1.
         11    1    1    2    0    0  0.12973814061E+02  0.53733265271E+02  0.36910976899E+02  0.66468066495E+02  0.00000000000E+00 0. -1.
</event>
<event>
 7    1  0.2733606E-009  0.8676495E+02  0.7561462E-02  0.1310880E+00
         -1   -1    0    0    0  501 -0.00000000000E+00  0.00000000000E+00  0.49917242371E+02  0.49917242371E+02  0.00000000000E+00 0.  1.
          1   -1    0    0  501    0  0.00000000000E+00 -0.00000000000E+00 -0.30313343030E+03  0.30313343030E+03  0.00000000000E+00 0. -1.
         25    2    1    2    0    0 -0.24188673661E+02 -0.34521419508E+02 -0.19702880828E+03  0.23715952239E+03  0.12508983744E+03 0.  0.
          5    1    3    3  502    0 -0.49541669150E+02 -0.56716275266E+02 -0.18718307157E+03  0.20180705524E+03  0.41800000000E+01 0.  1.
         -5    1    3    3    0  502  0.25352995489E+02  0.22194855758E+02 -0.98457367095E+01  0.35352467152E+02  0.41800000000E+01 0.  1.
        -11    1    1    2    0    0  0.69806566347E+01 -0.12370270281E+02  0.20156754462E+02  0.24658627381E+02  0.00000000000E+00 0.  1.
         11    1    1    2    0    0  0.17208017026E+02  0.46891689789E+02 -0.76344134113E+02  0.91232522900E+02  0.00000000000E+00 0. -1.
</event>
<event>
 7    1  0.2733606E-009  0.1359784E+03  0.7561462E-02  0.1218845E+00
         -2   -1    0    0    0  501 -0.00000000000E+00  0.00000000000E+00  0.23494235367E+02  0.23494235367E+02  0.00000000000E+00 0. -1.
          2   -1    0    0  501    0  0.00000000000E+00 -0.00000000000E+00 -0.13219380908E+04  0.13219380908E+04  0.00000000000E+00 0.  1.
         25    2    1    2    0    0 -0.57740588962E+02  0.60154632578E+02 -0.10582178194E+04  0.10688427795E+04  0.12508948226E+03 0.  0.
          5    1    3    3  502    0  0.86925875649E+01  0.78729237639E+02 -0.64925244925E+03  0.65407955876E+03  0.41800000000E+01 0. -1.
         -5    1    3    3    0  502 -0.66433176527E+02 -0.18574605062E+02 -0.40896537017E+03  0.41476322076E+03  0.41800000000E+01 0. -1.
        -11    1    1    2    0    0  0.82246193469E+02 -0.53579011372E+02 -0.22839368769E+03  0.24859369135E+03  0.00000000000E+00 0.  1.
         11    1    1    2    0    0 -0.24505604507E+02 -0.65756212055E+01 -0.11832348309E+02  0.27995855282E+02  0.00000000000E+00 0. -1.
</event>
<event>
 7    1  0.2733606E-009  0.1856135E+03  0.7561462E-02  0.1162478E+00
          1   -1    0    0  501    0  0.00000000000E+00  0.00000000000E+00  0.45147163183E+03  0.45147163183E+03  0.00000000000E+00 0. -1.
         -1   -1    0    0    0  501 -0.00000000000E+00 -0.00000000000E+00 -0.10112954268E+03  0.10112954268E+03  0.00000000000E+00 0.  1.
         25    2    1    2    0    0 -0.17148372890E+03 -0.55468898504E+02  0.22284965524E+03  0.31272001805E+03  0.12509345656E+03 0.  0.
          5    1    3    3  502    0 -0.39125235827E+02 -0.83068780900E+01 -0.93470454732E+01  0.41287140385E+02  0.41800000000E+01 0. -1.
         -5    1    3    3    0  502 -0.13235849307E+03 -0.47162020414E+02  0.23219670071E+03  0.27143287767E+03  0.41800000000E+01 0. -1.
        -11    1    1    2    0    0  0.53353736645E+02  0.48501801872E+02  0.94227311733E+01  0.72717493505E+02  0.00000000000E+00 0.  1.
         11    1    1    2    0    0  0.11812999225E+03  0.69670966324E+01  0.11806970275E+03  0.16716366295E+03  0.00000000000E+00 0. -1.
</event>
<event>
 7    1  0.2733606E-009  0.7833119E+02  0.7561462E-02  0.1333855E+00
          1   -1    0    0  501    0  0.00000000000E+00  0.00000000000E+00  0.77358126921E+02  0.77358126921E+02  0.00000000000E+00 0. -1.
         -1   -1    0    0    0  501 -0.00000000000E+00 -0.00000000000E+00 -0.15359500374E+03  0.15359500374E+03  0.00000000000E+00 0.  1.
         25    2    1    2    0    0 -0.12448584199E+01  0.12152182874E+02 -0.42772090918E+02  0.13276308677E+03  0.12508940893E+03 0.  0.
          5    1    3    3  502    0 -0.49434398108E+02 -0.27836255350E+02 -0.40740445746E+02  0.69970516275E+02  0.41800000000E+01 0.  1.
         -5    1    3    3    0  502  0.48189539689E+02  0.39988438224E+02 -0.20316451719E+01  0.62792570493E+02  0.41800000000E+01 0.  1.
        -11    1    1    2    0    0  0.72765684414E+01  0.10945643202E+02 -0.60622860288E+02  0.62031336782E+02  0.00000000000E+00 0.  1.
         11    1    1    2    0    0 -0.60317100215E+01 -0.23097826076E+02  0.27158074389E+02  0.36158707108E+02  0.00000000000E+00 0. -1.
</event>
<event>
 7    1  0.2733606E-009  0.1193161E+03  0.7561462E-02  0.1244230E+00
         -2   -1    0    0    0  501 -0.00000000000E+00  0.00000000000E+00  0.68260578648E+02  0.68260578648E+02  0.00000000000E+00 0.  1.
          2   -1    0    0  501    0  0.00000000000E+00 -0.00000000000E+00 -0.25069097123E+03  0.25069097123E+03  0.00000000000E+00 0. -1.
         25    2    1    2    0    0 -0.64651997993E+02  0.34015911190E+02 -0.96979150309E+02  0.17432375032E+03  0.12508737455E+03 0.  0.
          5    1    3    3  502    0 -0.39482687424E+02  0.78652280369E+02 -0.37638117410E+02  0.95807954240E+02  0.41800000000E+01 0.  1.
         -5    1    3    3    0  502 -0.25169310569E+02 -0.44636369178E+02 -0.59341032899E+02  0.78515796076E+02  0.41800000000E+01 0.  1.
        -11    1    1    2    0    0  0.96224851401E+01  0.19880514759E+02  0.80293707691E+01  0.23501018750E+02  0.00000000000E+00 0.  1.
         11    1    1    2    0    0  0.55029512853E+02 -0.53896425949E+02 -0.93480613043E+02  0.12112678081E+03  0.00000000000E+00 0. -1.
</event>
<event>
 7    1  0.2733606E-009  0.1096958E+03  0.7561462E-02  0.1261134E+00
          2   -1    0    0  501    0  0.00000000000E+00  0.00000000000E+00  0.14512747260E+03  0.14512747260E+03  0.00000000000E+00 0. -1.
         -2   -1    0    0    0  501 -0.00000000000E+00 -0.00000000000E+00 -0.95084283174E+02  0.95084283174E+02  0.00000000000E+00 0.  1.
         25    2    1    2    0    0 -0.24953582380E+02 -0.22258614709E+02  0.67013426595E+02  0.14579036661E+03  0.12508358985E+03 0.  0.
          5    1    3    3  502    0  0.73631779517E+01  0.48726982849E+02  0.38371100591E+02  0.62596717228E+02  0.41800000000E+01 0.  1.
         -5    1    3    3    0  502 -0.32316760331E+02 -0.70985597558E+02  0.28642326004E+02  0.83193649384E+02  0.41800000000E+01 0.  1.
        -11    1    1    2    0    0  0.53689288895E+02  0.30738659082E+02 -0.18036429271E+02  0.64441583508E+02  0.00000000000E+00 0.  1.
         11    1    1    2    0    0 -0.28735706515E+02 -0.84800443731E+01  0.10661921019E+01  0.29979805655E+02  0.00000000000E+00 0. -1.
</event>
<event>
 7    1  0.2733606E-009  0.1835355E+03  0.7561462E-02  0.1164425E+00
         -2   -1    0    0    0  501 -0.00000000000E+00  0.00000000000E+00  0.16319303694E+03  0.16319303694E+03  0.00000000000E+00 0.  1.
          2   -1    0    0  501    0  0.00000000000E+00 -0.00000000000E+00 -0.24292153945E+03  0.24292153945E+03  0.00000000000E+00 0. -1.
         25    2    1    2    0    0  0.12738526711E+03 -0.95456186930E+02 -0.93077097582E+02  0.22282203255E+03  0.12508965663E+03 0.  0.
          5    1    3    3  502    0  0.11238118855E+03 -0.17188987191E+02 -0.86181912185E+02  0.14272276345E+03  0.41800000000E+01 0. -1.
         -5    1    3    3    0  502  0.15004078566E+02 -0.78267199739E+02 -0.68951853977E+01  0.80099269099E+02  0.41800000000E+01 0. -1.
        -11    1    1    2    0    0 -0.68575957091E+02  0.93198751725E+01  0.33783286122E+02  0.77011897687E+02  0.00000000000E+00 0.  1.
         11    1    1    2    0    0 -0.58809310022E+02  0.86136311757E+02 -0.20434691040E+02  0.10628064615E+03  0.00000000000E+00 0. -1.
</event>
<event>
 7    1  0.2733606E-009  0.1442125E+03  0.7561462E-02  0.1207771E+00
         -2   -1    0    0    0  501 -0.00000000000E+00  0.00000000000E+00  0.22558688141E+03  0.22558688141E+03  0.00000000000E+00 0.  1.
          2   -1    0    0  501    0  0.00000000000E+00 -0.00000000000E+00 -0.11982015857E+03  0.11982015857E+03  0.00000000000E+00 0. -1.
         25    2    1    2    0    0  0.74666191971E+02  0.74431708053E+02  0.12193264167E+03  0.20403905542E+03  0.12509695297E+03 0.  0.
          5    1    3    3  502    0  0.80766296736E+02 -0.22581107862E+00  0.32132753380E+02  0.87024317974E+02  0.41800000000E+01 0.  1.
         -5    1    3    3    0  502 -0.61001047649E+01  0.74657519131E+02  0.89799888294E+02  0.11701473744E+03  0.41800000000E+01 0.  1.
        -11    1    1    2    0    0 -0.35550138479E+01  0.16620779685E+02 -0.19399439117E+02  0.25791988656E+02  0.00000000000E+00 0. -1.
         11    1    1    2    0    0 -0.71111178123E+02 -0.91052487737E+02  0.32335202816E+01  0.11557599591E+03  0.00000000000E+00 0.  1.
</event>
<event>
 7    1  0.2733606E-009  0.1151394E+03  0.7561462E-02  0.1251338E+00
          1   -1    0    0  501    0  0.00000000000E+00  0.00000000000E+00  0.69416479298E+03  0.69416479298E+03  0.00000000000E+00 0. -1.
         -1   -1    0    0    0  501 -0.00000000000E+00 -0.00000000000E+00 -0.30275854297E+02  0.30275854297E+02  0.00000000000E+00 0.  1.
         25    2    1    2    0    0  0.45388928929E+02 -0.64311149166E+02  0.49609576003E+03  0.51764458488E+03  0.12509530110E+03 0.  0.
          5    1    3    3  502    0 -0.41352569249E+01  0.15767589040E+02  0.49549129162E+01  0.17542541890E+02  0.41800000000E+01 0. -1.
         -5    1    3    3    0  502  0.49524185854E+02 -0.80078738206E+02  0.49114084712E+03  0.50010204299E+03  0.41800000000E+01 0. -1.
        -11    1    1    2    0    0  0.10743857264E+02  0.62103650612E+02  0.71485698974E+02  0.95302146073E+02  0.00000000000E+00 0.  1.
         11    1    1    2    0    0 -0.56132786194E+02  0.22074985541E+01  0.96307479674E+02  0.11149391632E+03  0.00000000000E+00 0. -1.
</event>
<event>
 7    1  0.2733606E-009  0.1127255E+03  0.7561462E-02  0.1255604E+00
          2   -1    0    0  501    0  0.00000000000E+00  0.00000000000E+00  0.75973537198E+03  0.75973537198E+03  0.00000000000E+00 0. -1.
         -2   -1    0    0    0  501 -0.00000000000E+00 -0.00000000000E+00 -0.21579881049E+02  0.21579881049E+02  0.00000000000E+00 0.  1.
         25    2    1    2    0    0  0.45806212132E+02 -0.11664628531E+02  0.27693397812E+03  0.30752901469E+03  0.12508954395E+03 0.  0.
          5    1    3    3  502    0  0.36684506718E+02  0.46308862765E+02  0.21102989263E+03  0.21918337480E+03  0.41800000000E+01 0.  1.
         -5    1    3    3    0  502  0.91217054140E+01 -0.57973491296E+02  0.65904085490E+02  0.88345639887E+02  0.41800000000E+01 0.  1.
        -11    1    1    2    0    0 -0.93044571472E+01  0.52095020322E+02  0.19525319237E+03  0.20229748688E+03  0.00000000000E+00 0.  1.
         11    1    1    2    0    0 -0.36501754985E+02 -0.40430391791E+02  0.26596832043E+03  0.27148875146E+03  0.00000000000E+00 0. -1.
</event>
<event>
 7    1  0.2733606E-009  0.1285890E+03  0.7561462E-02  0.1229564E+00
          1   -1    0    0  501    0  0.00000000000E+00  0.00000000000E+00  0.10153311475E+03  0.10153311475E+03  0.00000000000E+00 0. -1.
         -1   -1    0    0    0  501 -0.00000000000E+00 -0.00000000000E+00 -0.31424077998E+03  0.31424077998E+03  0.00000000000E+00 0.  1.
         25    2    1    2    0    0  0.47249235031E+02 -0.60706838700E+02  0.25784783926E+02  0.14909791256E+03  0.12509005545E+03 0.  0.
          5    1    3    3  502    0  0.61412908438E+02  0.20063055836E+02  0.11549810666E+02  0.65764291669E+02  0.41800000000E+01 0.  1.
         -5    1    3    3    0  502 -0.14163673408E+02 -0.80769894536E+02  0.14234973261E+02  0.83333620895E+02  0.41800000000E+01 0.  1.
        -11    1    1    2    0    0 -0.43646301129E+02 -0.55274483767E+01 -0.48718248444E+02  0.65643126215E+02  0.00000000000E+00 0. -1.
         11    1    1    2    0    0 -0.36029339019E+01  0.66234287077E+02 -0.18977420071E+03  0.20103285596E+03  0.00000000000E+00 0.  1.
</event>
<event>
 7    1  0.2733606E-009  0.1170238E+03  0.7561462E-02  0.1248089E+00
          1   -1    0    0  501    0  0.00000000000E+00  0.00000000000E+00  0.14447008091E+03  0.14447008091E+03  0.00000000000E+00 0. -1.
         -1   -1    0    0    0  501 -0.00000000000E+00 -0.00000000000E+00 -0.14697048008E+03  0.14697048008E+03  0.00000000000E+00 0.  1.
         25    2    1    2    0    0 -0.48207369723E+02  0.66608605413E+02 -0.53566160211E+02  0.15898787432E+03  0.12508858401E+03 0.  0.
          5    1    3    3  502    0 -0.63411896843E+02 -0.61771162345E+01  0.52852253506E+01  0.64067397584E+02  0.41800000000E+01 0.  1.
         -5    1    3    3    0  502  0.15204527120E+02  0.72785721647E+02 -0.58851385561E+02  0.94920476733E+02  0.41800000000E+01 0.  1.
        -11    1    1    2    0    0  0.53213589508E+02 -0.34932320287E+02 -0.90722792492E+01  0.64298206505E+02  0.00000000000E+00 0.  1.
         11    1    1    2    0    0 -0.50062197852E+01 -0.31676285126E+02  0.60138040294E+02  0.68154480163E+02  0.00000000000E+00 0. -1.
</event>
<event>
 7    1  0.2733606E-009  0.1324527E+03  0.7561462E-02  0.1223861E+00
         -3   -1    0    0    0  501 -0.00000000000E+00  0.00000000000E+00  0.21913081780E+02  0.21913081780E+02  0.00000000000E+00 0.  1.
          3   -1    0    0  501    0  0.00000000000E+00 -0.00000000000E+00 -0.11722761997E+04  0.11722761997E+04  0.00000000000E+00 0. -1.
         25    2    1    2    0    0 -0.60243148655E+02 -0.97605012883E+02 -0.68249914902E+03  0.70328406095E+03  0.12508959375E+03 0.  0.
          5    1    3    3  502    0 -0.62955458748E+02 -0.10592063161E+03 -0.68254423585E+03  0.69358970312E+03  0.41800000000E+01 0.  1.
         -5    1    3    3    0  502  0.27123100929E+01  0.83156187239E+01  0.45086825482E-01  0.96943578242E+01  0.41800000000E+01 0.  1.
        -11    1    1    2    0    0  0.58048431224E+02  0.32006478576E+02 -0.34790867645E+03  0.35416730819E+03  0.00000000000E+00 0. -1.
         11    1    1    2    0    0  0.21947174313E+01  0.65598534307E+02 -0.11995529246E+03  0.13673791237E+03  0.00000000000E+00 0.  1.
</event>
<event>
 7    1  0.2733606E-009  0.2043393E+03  0.7561462E-02  0.1146129E+00
         -2   -1    0    0    0  501 -0.00000000000E+00  0.00000000000E+00  0.17478510675E+03  0.17478510675E+03  0.00000000000E+00 0.  1.
          2   -1    0    0  501    0  0.00000000000E+00 -0.00000000000E+00 -0.56505373674E+03  0.56505373674E+03  0.00000000000E+00 0. -1.
         25    2    1    2    0    0 -0.53352049932E+02 -0.16822255744E+03  0.79168458190E+02  0.23034865516E+03  0.12509031975E+03 0.  0.
          5    1    3    3  502    0 -0.40518482582E+02 -0.18785470405E+03  0.73985648575E+02  0.20596719608E+03  0.41800000000E+01 0.  1.
         -5    1    3    3    0  502 -0.12833567350E+02  0.19632146608E+02  0.51828096147E+01  0.24381459080E+02  0.41800000000E+01 0.  1.
        -11    1    1    2    0    0  0.58876703134E+01  0.13397479098E+03 -0.37637536144E+03  0.39955265232E+03  0.00000000000E+00 0. -1.
         11    1    1    2    0    0  0.47464379618E+02  0.34247766460E+02 -0.93061726743E+02  0.10993753601E+03  0.00000000000E+00 0.  1.
</event>
<event>
 7    1  0.2733606E-009  0.1228266E+03  0.7561462E-02  0.1238505E+00
          2   -1    0    0  501    0  0.00000000000E+00  0.00000000000E+00  0.65666974092E+03  0.65666974092E+03  0.00000000000E+00 0.  1.
         -2   -1    0    0    0  501 -0.00000000000E+00 -0.00000000000E+00 -0.34115294455E+02  0.34115294455E+02  0.00000000000E+00 0. -1.
         25    2    1    2    0    0  0.22138564899E+02 -0.92093323968E+02  0.24640414518E+03  0.29211868357E+03  0.12508807358E+03 0.  0.
          5    1    3    3  502    0  0.44894111794E+02 -0.61291956413E+02  0.47900766163E+02  0.89911851242E+02  0.41800000000E+01 0.  1.
         -5    1    3    3    0  502 -0.22755546895E+02 -0.30801367554E+02  0.19850337902E+03  0.20220683232E+03  0.41800000000E+01 0.  1.
        -11    1    1    2    0    0 -0.57646672624E+02  0.54545462122E+02  0.25161695810E+03  0.26383600949E+03  0.00000000000E+00 0.  1.
         11    1    1    2    0    0  0.35508107725E+02  0.37547861846E+02  0.12453334319E+03  0.13483034231E+03  0.00000000000E+00 0. -1.
</event>
<event>
 7    1  0.2733606E-009  0.9784860E+02  0.7561462E-02  0.1284886E+00
          1   -1    0    0  501    0  0.00000000000E+00  0.00000000000E+00  0.12199916112E+04  0.12199916112E+04  0.00000000000E+00 0. -1.
         -1   -1    0    0    0  501 -0.00000000000E+00 -0.00000000000E+00 -0.11082992816E+02  0.11082992816E+02  0.00000000000E+00 0.  1.
         25    2    1    2    0    0 -0.38381998400E+02 -0.16632120160E+02  0.97966422568E+03  0.98850346568E+03  0.12508917367E+03 0.  0.
          5    1    3    3  502    0 -0.81759235082E+02 -0.12513801763E+02  0.49640497939E+03  0.50326587776E+03  0.41800000000E+01 0. -1.
         -5    1    3    3    0  502  0.43377236681E+02 -0.41183183971E+01  0.48325924629E+03  0.48523758792E+03  0.41800000000E+01 0. -1.
        -11    1    1    2    0    0  0.41315916749E+02 -0.98418103087E+01  0.76297800821E+02  0.87322509223E+02  0.00000000000E+00 0.  1.
         11    1    1    2    0    0 -0.29339183486E+01  0.26473930469E+02  0.15294659185E+03  0.15524862907E+03  0.00000000000E+00 0. -1.
</event>
<event>
 7    1  0.2733606E-009  0.1096785E+03  0.7561462E-02  0.1261166E+00
          1   -1    0    0  501    0  0.00000000000E+00  0.00000000000E+00  0.65160126660E+03  0.65160126660E+03  0.00000000000E+00 0. -1.
         -1   -1    0    0    0  501 -0.00000000000E+00 -0.00000000000E+00 -0.20732730175E+02  0.20732730175E+02  0.00000000000E+00 0.  1.
         25    2    1    2    0    0 -0.40552523162E+02  0.10209945036E+02  0.38018051553E+03  0.40240934307E+03  0.12508918773E+03 0.  0.
          5    1    3    3  502    0  0.37450140502E+02  0.26963608136E+02  0.87381939252E+02  0.98907152900E+02  0.41800000000E+01 0.  1.
         -5    1    3    3    0  502 -0.78002663664E+02 -0.16753663101E+02  0.29279857628E+03  0.30350219017E+03  0.41800000000E+01 0.  1.
        -11    1    1    2    0    0  0.62015573868E+02 -0.25211010721E+02  0.12773673079E+03  0.14421580654E+03  0.00000000000E+00 0.  1.
         11    1    1    2    0    0 -0.21463050706E+02  0.15001065686E+02  0.12295129010E+03  0.12570884716E+03  0.00000000000E+00 0. -1.
</event>
<event>
 7    1  0.2733606E-009  0.1284305E+03  0.7561462E-02  0.1229803E+00
         -2   -1    0    0    0  501 -0.00000000000E+00  0.00000000000E+00  0.84855295434E+02  0.84855295434E+02  0.00000000000E+00 0.  1.
          2   -1    0    0  501    0  0.00000000000E+00 -0.00000000000E+00 -0.20611889115E+03  0.20611889115E+03  0.00000000000E+00 0. -1.
         25    2    1    2    0    0  0.26714348979E+02 -0.75809836987E+02 -0.58351356755E+02  0.15973867013E+03  0.12510305381E+03 0.  0.
          5    1    3    3  502    0  0.60639537300E+02 -0.18293305053E+01 -0.48234047558E+02  0.77617624789E+02  0.41800000000E+01 0.  1.
         -5    1    3    3    0  502 -0.33925188321E+02 -0.73980506481E+02 -0.10117309198E+02  0.82121045337E+02  0.41800000000E+01 0.  1.
        -11    1    1    2    0    0  0.26643528140E+02  0.46717392050E+02 -0.22778559097E+02  0.58405950606E+02  0.00000000000E+00 0.  1.
         11    1    1    2    0    0 -0.53357877119E+02  0.29092444937E+02 -0.40133679864E+02  0.72829565854E+02  0.00000000000E+00 0. -1.
</event>
<event>
 7    1  0.2733606E-009  0.7167712E+02  0.7561462E-02  0.1354481E+00
         -2   -1    0    0    0  501 -0.00000000000E+00  0.00000000000E+00  0.12151931518E+03  0.12151931518E+03  0.00000000000E+00 0.  1.
          2   -1    0    0  501    0  0.00000000000E+00 -0.00000000000E+00 -0.10016285378E+03  0.10016285378E+03  0.00000000000E+00 0. -1.
         25    2    1    2    0    0 -0.20037274831E+00  0.59384923260E+00  0.34566360282E+02  0.12978063765E+03  0.12509111815E+03 0.  0.
          5    1    3    3  502    0  0.51225792948E+02  0.88301560999E+01  0.53020250008E+02  0.74368493536E+02  0.41800000000E+01 0. -1.
         -5    1    3    3    0  502 -0.51426165696E+02 -0.82363068673E+01 -0.18453889726E+02  0.55412144111E+02  0.41800000000E+01 0. -1.
        -11    1    1    2    0    0  0.77818784463E+01 -0.18196267736E+02 -0.48145365089E+02  0.52054183033E+02  0.00000000000E+00 0. -1.
         11    1    1    2    0    0 -0.75815056980E+01  0.17602418503E+02  0.34935466203E+02  0.39847348277E+02  0.00000000000E+00 0.  1.
</event>
<event>
 7    1  0.2733606E-009  0.9392658E+02  0.7561462E-02  0.1293612E+00
          1   -1    0    0  501    0  0.00000000000E+00  0.00000000000E+00  0.91306177012E+03  0.91306177012E+03  0.00000000000E+00 0. -1.
         -1   -1    0    0    0  501 -0.00000000000E+00 -0.00000000000E+00 -0.16052050172E+02  0.16052050172E+02  0.00000000000E+00 0.  1.
         25    2    1    2    0    0 -0.35477455705E+02  0.31598374801E+02  0.41944435547E+03  0.44027330668E+03  0.12509960066E+03 0.  0.
          5    1    3    3  502    0  0.18858229615E+02 -0.78422106391E+01  0.64299648627E+01  0.21816276952E+02  0.41800000000E+01 0. -1.
         -5    1    3    3    0  502 -0.54335685320E+02  0.39440585440E+02  0.41301439061E+03  0.41845702973E+03  0.41800000000E+01 0. -1.
        -11    1    1    2    0    0  0.15753808079E+02 -0.61737391537E+02  0.36887450856E+03  0.37433686840E+03  0.00000000000E+00 0. -1.
         11    1    1    2    0    0  0.19723647626E+02  0.30139016736E+02  0.10869085592E+03  0.11450364520E+03  0.00000000000E+00 0.  1.
</event>
<event>
 7    1  0.2733606E-009  0.1062643E+03  0.7561462E-02  0.1267648E+00
         -3   -1    0    0    0  501 -0.00000000000E+00  0.00000000000E+00  0.29097223207E+03  0.29097223207E+03  0.00000000000E+00 0.  1.
          3   -1    0    0  501    0  0.00000000000E+00 -0.00000000000E+00 -0.52490822186E+02  0.52490822186E+02  0.00000000000E+00 0. -1.
         25    2    1    2    0    0 -0.13678588295E+02  0.38986025394E+02  0.18492587376E+03  0.22705067301E+03  0.12508962937E+03 0.  0.
          5    1    3    3  502    0 -0.17069983950E+02  0.83192820142E+02  0.13996202141E+03  0.16376589850E+03  0.41800000000E+01 0. -1.
         -5    1    3    3    0  502  0.33913956549E+01 -0.44206794748E+02  0.44963852352E+02  0.63284774510E+02  0.41800000000E+01 0. -1.
        -11    1    1    2    0    0 -0.26619380903E+02  0.39342919208E+00  0.53845627865E+02  0.60067444314E+02  0.00000000000E+00 0.  1.
         11    1    1    2    0    0  0.40297969198E+02 -0.39379454586E+02 -0.29009173785E+00  0.56344936935E+02  0.00000000000E+00 0. -1.
</event>
<event>
 7    1  0.2733606E-009  0.1453769E+03  0.7561462E-02  0.1206272E+00
         -2   -1    0    0    0  501 -0.00000000000E+00  0.00000000000E+00  0.10967568212E+02  0.10967568212E+02  0.00000000000E+00 0.  1.
          2   -1    0    0  501    0  0.00000000000E+00 -0.00000000000E+00 -0.26648167069E+04  0.26648167069E+04  0.00000000000E+00 0. -1.
         25    2    1    2    0    0 -0.84169425979E+02  0.82537211845E+02 -0.18815360128E+04  0.18893707766E+04  0.12508909054E+03 0.  0.
          5    1    3    3  502    0 -0.54387167293E+02  0.96646748318E+02 -0.17563343836E+04  0.17598370655E+04  0.41800000000E+01 0.  1.
         -5    1    3    3    0  502 -0.29782258686E+02 -0.14109536473E+02 -0.12520162922E+03  0.12953371110E+03  0.41800000000E+01 0.  1.
        -11    1    1    2    0    0 -0.59607662256E-01 -0.59137904547E+02 -0.25513237227E+03  0.26189658777E+03  0.00000000000E+00 0.  1.
         11    1    1    2    0    0  0.84229033641E+02 -0.23399307298E+02 -0.51718075366E+03  0.52451691074E+03  0.00000000000E+00 0. -1.
</event>
<event>
 7    1  0.2733606E-009  0.8547985E+02  0.7561462E-02  0.1314182E+00
         -1   -1    0    0    0  501 -0.00000000000E+00  0.00000000000E+00  0.23032962209E+03  0.23032962209E+03  0.00000000000E+00 0.  1.
          1   -1    0    0  501    0  0.00000000000E+00 -0.00000000000E+00 -0.72482211687E+02  0.72482211687E+02  0.00000000000E+00 0. -1.
         25    2    1    2    0    0  0.12444628470E+01 -0.64863907965E+02  0.51278279220E+02  0.14995173084E+03  0.12508870620E+03 0.  0.
          5    1    3    3  502    0  0.27796994622E+02 -0.53044282921E+02 -0.27387615782E+02  0.65984261448E+02  0.41800000000E+01 0.  1.
         -5    1    3    3    0  502 -0.26552531775E+02 -0.11819625044E+02  0.78665895002E+02  0.83967469393E+02  0.41800000000E+01 0.  1.
        -11    1    1    2    0    0  0.20954977815E+02  0.51627676625E+02  0.14984041080E+02  0.57697916566E+02  0.00000000000E+00 0. -1.
         11    1    1    2    0    0 -0.22199440662E+02  0.13236231339E+02  0.91585090100E+02  0.95162186369E+02  0.00000000000E+00 0.  1.
</event>
<event>
 7    1  0.2733606E-009  0.1221116E+03  0.7561462E-02  0.1239654E+00
          2   -1    0    0  501    0  0.00000000000E+00  0.00000000000E+00  0.75839815310E+03  0.75839815310E+03  0.00000000000E+00 0. -1.
         -2   -1    0    0    0  501 -0.00000000000E+00 -0.00000000000E+00 -0.50007255222E+02  0.50007255222E+02  0.00000000000E+00 0.  1.
         25    2    1    2    0    0  0.48538197324E+02 -0.87643891729E+02  0.62940791033E+03  0.64949319738E+03  0.12509871102E+03 0.  0.
          5    1    3    3  502    0 -0.19983184045E+01 -0.88871653514E+02  0.22569846024E+03  0.24260962765E+03  0.41800000000E+01 0. -1.
         -5    1    3    3    0  502  0.50536515729E+02  0.12277617850E+01  0.40370945010E+03  0.40688356973E+03  0.41800000000E+01 0. -1.
        -11    1    1    2    0    0 -0.36059057820E+02  0.34455689795E+02  0.90264744816E+02  0.10312698176E+03  0.00000000000E+00 0. -1.
         11    1    1    2    0    0 -0.12479139505E+02  0.53188201934E+02 -0.11281757271E+02  0.55785229182E+02  0.00000000000E+00 0.  1.
</event>
<event>
 7    1  0.2733606E-009  0.1098429E+03  0.7561462E-02  0.1260861E+00
          2   -1    0    0  501    0  0.00000000000E+00  0.00000000000E+00  0.10843750671E+03  0.10843750671E+03  0.00000000000E+00 0. -1.
         -2   -1    0    0    0  501 -0.00000000000E+00 -0.00000000000E+00 -0.12119196210E+03  0.12119196210E+03  0.00000000000E+00 0.  1.
         25    2    1    2    0    0  0.34217567249E+02  0.11052407423E+02  0.37462357555E+01  0.13021002632E+03  0.12509044349E+03 0.  0.
          5    1    3    3  502    0 -0.71444324878E+01 -0.50204195916E+02  0.19553488638E+02  0.54509774546E+02  0.41800000000E+01 0. -1.
         -5    1    3    3    0  502  0.41361999737E+02  0.61256603339E+02 -0.15807252883E+02  0.75700251773E+02  0.41800000000E+01 0. -1.
        -11    1    1    2    0    0 -0.50301262631E+02  0.24352001493E+02  0.29018821244E+01  0.55961217989E+02  0.00000000000E+00 0. -1.
         11    1    1    2    0    0  0.16083695383E+02 -0.35404408915E+02 -0.19402573269E+02  0.43458224506E+02  0.00000000000E+00 0.  1.
</event>
<event>
 7    1  0.2733606E-009  0.1638639E+03  0.7561462E-02  0.1184402E+00
         -3   -1    0    0    0  501 -0.00000000000E+00  0.00000000000E+00  0.35038655470E+03  0.35038655470E+03  0.00000000000E+00 0.  1.
          3   -1    0    0  501    0  0.00000000000E+00 -0.00000000000E+00 -0.87510120063E+02  0.87510120063E+02  0.00000000000E+00 0. -1.
         25    2    1    2    0    0 -0.11430142901E+03 -0.74572527862E+02  0.14307023207E+03  0.23397168390E+03  0.12509108272E+03 0.  0.
          5    1    3    3  502    0 -0.38610347272E+02 -0.95594455343E+02  0.59101933483E+02  0.11890992284E+03  0.41800000000E+01 0.  1.
         -5    1    3    3    0  502 -0.75691081735E+02  0.21021927481E+02  0.83968298591E+02  0.11506176106E+03  0.41800000000E+01 0.  1.
        -11    1    1    2    0    0  0.33267271775E+02 -0.33777703667E+01  0.76400627091E+02  0.83397700951E+02  0.00000000000E+00 0.  1.
         11    1    1    2    0    0  0.81034157231E+02  0.77950298229E+02  0.43405575474E+02  0.12052728992E+03  0.00000000000E+00 0. -1.
</event>
<event>
 7    1  0.2733606E-009  0.1405649E+03  0.7561462E-02  0.1212571E+00
         -1   -1    0    0    0  501 -0.00000000000E+00  0.00000000000E+00  0.91589260066E+02  0.91589260066E+02  0.00000000000E+00 0.  1.
          1   -1    0    0  501    0  0.00000000000E+00 -0.00000000000E+00 -0.43613842133E+03  0.43613842133E+03  0.00000000000E+00 0. -1.
         25    2    1    2    0    0 -0.10007058329E+03  0.64919090903E+02 -0.33542695607E+03  0.37734132217E+03  0.12508645232E+03 0.  0.
          5    1    3    3  502    0 -0.61266991169E+02 -0.28993762232E+00 -0.27051081418E+03  0.27739376572E+03  0.41800000000E+01 0.  1.
         -5    1    3    3    0  502 -0.38803592120E+02  0.65209028525E+02 -0.64916141893E+02  0.99947556453E+02  0.41800000000E+01 0.  1.
        -11    1    1    2    0    0  0.29798774865E+02  0.18171183453E+02  0.16474590428E+02  0.38594961087E+02  0.00000000000E+00 0.  1.
         11    1    1    2    0    0  0.70271808424E+02 -0.83090274356E+02 -0.25596795619E+02  0.11179139814E+03  0.00000000000E+00 0. -1.
</event>
<event>
 7    1  0.2733606E-009  0.2097223E+03  0.7561462E-02  0.1141786E+00
         -1   -1    0    0    0  501 -0.00000000000E+00  0.00000000000E+00  0.15373263222E+03  0.15373263222E+03  0.00000000000E+00 0.  1.
          1   -1    0    0  501    0  0.00000000000E+00 -0.00000000000E+00 -0.31536559176E+03  0.31536559176E+03  0.00000000000E+00 0. -1.
         25    2    1    2    0    0 -0.12647156009E+02  0.18691870860E+03 -0.42213626961E+02  0.22918969777E+03  0.12508946032E+03 0.  0.
          5    1    3    3  502    0  0.44721418858E+02  0.72296440641E+02 -0.53366667808E+02  0.10046021236E+03  0.41800000000E+01 0.  1.
         -5    1    3    3    0  502 -0.57368574867E+02  0.11462226796E+03  0.11153040847E+02  0.12872948541E+03  0.41800000000E+01 0.  1.
        -11    1    1    2    0    0  0.46959155268E+02 -0.70434139620E+02 -0.32971137335E+02  0.90847268449E+02  0.00000000000E+00 0. -1.
         11    1    1    2    0    0 -0.34311999258E+02 -0.11648456898E+03 -0.86448195248E+02  0.14906125776E+03  0.00000000000E+00 0.  1.
</event>
<event>
 7    1  0.2733606E-009  0.1084777E+03  0.7561462E-02  0.1263415E+00
          2   -1    0    0  501    0  0.00000000000E+00  0.00000000000E+00  0.24041961384E+03  0.24041961384E+03  0.00000000000E+00 0.  1.
         -2   -1    0    0    0  501 -0.00000000000E+00 -0.00000000000E+00 -0.68873817101E+02  0.68873817101E+02  0.00000000000E+00 0. -1.
         25    2    1    2    0    0  0.23924577458E+02 -0.54607340794E+02  0.13932999558E+03  0.19650636838E+03  0.12509019974E+03 0.  0.
          5    1    3    3  502    0 -0.20706616294E+02 -0.60938300369E+02  0.13670914630E+03  0.15115919917E+03  0.41800000000E+01 0.  1.
         -5    1    3    3    0  502  0.44631193752E+02  0.63309595746E+01  0.26208492821E+01  0.45347169215E+02  0.41800000000E+01 0.  1.
        -11    1    1    2    0    0 -0.57222198486E+02  0.24318292263E+02  0.25814836383E+02  0.67321357055E+02  0.00000000000E+00 0. -1.
         11    1    1    2    0    0  0.33297621028E+02  0.30289048531E+02  0.64009647729E+01  0.45465705505E+02  0.00000000000E+00 0.  1.
</event>
<event>
 7    1  0.2733606E-009  0.1004281E+03  0.7561462E-02  0.1279398E+00
         -1   -1    0    0    0  501 -0.00000000000E+00  0.00000000000E+00  0.81581637226E+02  0.81581637226E+02  0.00000000000E+00 0.  1.
          1   -1    0    0  501    0  0.00000000000E+00 -0.00000000000E+00 -0.21146001016E+03  0.21146001016E+03  0.00000000000E+00 0. -1.
         25    2    1    2    0    0  0.38356759998E+02  0.37055824876E+02 -0.16658083264E+02  0.13700011623E+03  0.12508862824E+03 0.  0.
          5    1    3    3  502    0  0.71224409318E+02  0.15290302888E+01  0.22259933343E+02  0.74754474439E+02  0.41800000000E+01 0. -1.
         -5    1    3    3    0  502 -0.32867649319E+02  0.35526794587E+02 -0.38918016607E+02  0.62245641791E+02  0.41800000000E+01 0. -1.
        -11    1    1    2    0    0  0.57867772270E+01  0.12966399829E+02 -0.80485517105E+02  0.81728408640E+02  0.00000000000E+00 0. -1.
         11    1    1    2    0    0 -0.44143537225E+02 -0.50022224705E+02 -0.32734772566E+02  0.74313122516E+02  0.00000000000E+00 0.  1.
</event>
<event>
 7    1  0.2733606E-009  0.1188615E+03  0.7561462E-02  0.1244987E+00
          2   -1    0    0  501    0  0.00000000000E+00  0.00000000000E+00  0.76954111598E+03  0.76954111598E+03  0.00000000000E+00 0.  1.
         -2   -1    0    0    0  501 -0.00000000000E+00 -0.00000000000E+00 -0.41499103628E+02  0.41499103628E+02  0.00000000000E+00 0. -1.
         25    2    1    2    0    0 -0.11649289678E+02  0.74834443841E+02  0.66223759297E+03  0.67819040365E+03  0.12509074354E+03 0.  0.
          5    1    3    3  502    0 -0.51775384152E+02  0.75144717668E+02  0.29699715241E+03  0.31072849875E+03  0.41800000000E+01 0.  1.
         -5    1    3    3    0  502  0.40126094474E+02 -0.31027382694E+00  0.36524044057E+03  0.36746190490E+03  0.41800000000E+01 0.  1.
        -11    1    1    2    0    0  0.40969359445E+02 -0.24384436092E+02  0.56224150178E+02  0.73717326322E+02  0.00000000000E+00 0.  1.
         11    1    1    2    0    0 -0.29320069766E+02 -0.50450007749E+02  0.95802692060E+01  0.59132489640E+02  0.00000000000E+00 0. -1.
</event>
<event>
 7    1  0.2733606E-009  0.9902559E+02  0.7561462E-02  0.1282358E+00
         -3   -1    0    0    0  501 -0.00000000000E+00  0.00000000000E+00  0.72714482369E+02  0.72714482369E+02  0.00000000000E+00 0.  1.
          3   -1    0    0  501    0  0.00000000000E+00 -0.00000000000E+00 -0.17852465304E+03  0.17852465304E+03  0.00000000000E+00 0. -1.
         25    2    1    2    0    0 -0.67684763032E+01 -0.10231951085E+02 -0.21807998597E+02  0.12756719306E+03  0.12508914760E+03 0.  0.
          5    1    3    3  502    0 -0.23164017870E+02 -0.62102898634E+02  0.53345989426E+01  0.66627862704E+02  0.41800000000E+01 0. -1.
         -5    1    3    3    0  502  0.16395541567E+02  0.51870947548E+02 -0.27142597539E+02  0.60939330354E+02  0.41800000000E+01 0. -1.
        -11    1    1    2    0    0 -0.29504799198E+02 -0.14795709078E+02 -0.70066081694E+02  0.77451287832E+02  0.00000000000E+00 0. -1.
         11    1    1    2    0    0  0.36273275502E+02  0.25027660164E+02 -0.13936090376E+02  0.46220654516E+02  0.00000000000E+00 0.  1.
</event>
<event>
 7    1  0.2733606E-009  0.1636228E+03  0.7561462E-02  0.1184666E+00
         -2   -1    0    0    0  501 -0.00000000000E+00  0.00000000000E+00  0.46829322467E+03  0.46829322467E+03  0.00000000000E+00 0.  1.
          2   -1    0    0  501    0  0.00000000000E+00 -0.00000000000E+00 -0.80999162570E+02  0.80999162570E+02  0.00000000000E+00 0. -1.
         25    2    1    2    0    0 -0.57172105485E+02 -0.12421748335E+03  0.32363192764E+03  0.37293992297E+03  0.12509168135E+03 0.  0.
          5    1    3    3  502    0 -0.20115494462E+02 -0.12668834545E+03  0.30557415344E+03  0.33143265627E+03  0.41800000000E+01 0.  1.
         -5    1    3    3    0  502 -0.37056611023E+02  0.24708620994E+01  0.18057774194E+02  0.41507266699E+02  0.41800000000E+01 0.  1.
        -11    1    1    2    0    0 -0.23001453241E+02  0.25102781664E+02  0.42862056434E+00  0.34049966433E+02  0.00000000000E+00 0. -1.
         11    1    1    2    0    0  0.80173558726E+02  0.99114701690E+02  0.63233513893E+02  0.14230249783E+03  0.00000000000E+00 0.  1.
</event>
<event>
 7    1  0.2733606E-009  0.1170053E+03  0.7561462E-02  0.1248121E+00
         -1   -1    0    0    0  501 -0.00000000000E+00  0.00000000000E+00  0.10308142193E+03  0.10308142193E+03  0.00000000000E+00 0.  1.
          1   -1    0    0  501    0  0.00000000000E+00 -0.00000000000E+00 -0.26833679914E+03  0.26833679914E+03  0.00000000000E+00 0. -1.
         25    2    1    2    0    0  0.30146109555E+02  0.55392375025E+02  0.26833364805E+02  0.14263313075E+03  0.12508827838E+03 0.  0.
          5    1    3    3  502    0 -0.48908033713E+02  0.22763461434E+02  0.15338626997E+02  0.56239815223E+02  0.41800000000E+01 0.  1.
         -5    1    3    3    0  502  0.79054143268E+02  0.32628913591E+02  0.11494737808E+02  0.86393315524E+02  0.41800000000E+01 0.  1.
        -11    1    1    2    0    0  0.22935499223E+02 -0.20441692106E+02 -0.49124528994E+01  0.31113214142E+02  0.00000000000E+00 0.  1.
         11    1    1    2    0    0 -0.53081608778E+02 -0.34950682919E+02 -0.18717628912E+03  0.19767187618E+03  0.00000000000E+00 0. -1.
</event>
<event>
 7    1  0.2733606E-009  0.9863484E+02  0.7561462E-02  0.1283193E+00
         -2   -1    0    0    0  501 -0.00000000000E+00  0.00000000000E+00  0.31463305409E+03  0.31463305409E+03  0.00000000000E+00 0.  1.
          2   -1    0    0  501    0  0.00000000000E+00 -0.00000000000E+00 -0.52676353180E+02  0.52676353180E+02  0.00000000000E+00 0. -1.
         25    2    1    2    0    0  0.42045371049E+01 -0.50630185055E+02  0.77527731536E+02  0.15569203557E+03  0.12509343313E+03 0.  0.
          5    1    3    3  502    0  0.27006252231E+02 -0.62319142038E+02  0.10026860790E+03  0.12117870792E+03  0.41800000000E+01 0.  1.
         -5    1    3    3    0  502 -0.22801715126E+02  0.11688956982E+02 -0.22740876360E+02  0.34513327653E+02  0.41800000000E+01 0.  1.
        -11    1    1    2    0    0 -0.42555726340E+02  0.48964058357E+02  0.10552246806E+03  0.12386872132E+03  0.00000000000E+00 0. -1.
         11    1    1    2    0    0  0.38351189235E+02  0.16661266985E+01  0.78906501307E+02  0.87748650374E+02  0.00000000000E+00 0.  1.
</event>
<event>
 7    1  0.2733606E-009  0.1048696E+03  0.7561462E-02  0.1270377E+00
          2   -1    0    0  501    0  0.00000000000E+00  0.00000000000E+00  0.35172384599E+02  0.35172384599E+02  0.00000000000E+00 0. -1.
         -2   -1    0    0    0  501 -0.00000000000E+00 -0.00000000000E+00 -0.43042132620E+03  0.43042132620E+03  0.00000000000E+00 0.  1.
         25    2    1    2    0    0  0.37633865653E+02 -0.10565082586E+01 -0.30606006303E+03  0.33277180666E+03  0.12508752564E+03 0.  0.
          5    1    3    3  502    0  0.29382050147E+02 -0.51963198417E+02 -0.74784389974E+02  0.95779205699E+02  0.41800000000E+01 0. -1.
         -5    1    3    3    0  502  0.82518155063E+01  0.50906690158E+02 -0.23127567305E+03  0.23699260096E+03  0.41800000000E+01 0. -1.
        -11    1    1    2    0    0  0.30259070275E+02  0.24423572962E+00 -0.32084513317E+02  0.44103140249E+02  0.00000000000E+00 0.  1.
         11    1    1    2    0    0 -0.67892935928E+02  0.81227252898E+00 -0.57104365258E+02  0.88718763895E+02  0.00000000000E+00 0. -1.
</event>
<event>
 7    1  0.2733606E-009  0.1089989E+03  0.7561462E-02  0.1262435E+00
         -2   -1    0    0    0  501 -0.00000000000E+00  0.00000000000E+00  0.74060189107E+02  0.74060189107E+02  0.00000000000E+00 0.  1.
          2   -1    0    0  501    0  0.00000000000E+00 -0.00000000000E+00 -0.21851768835E+03  0.21851768835E+03  0.00000000000E+00 0. -1.
         25    2    1    2    0    0  0.59583814701E+02 -0.34370801641E+02 -0.77821215113E+02  0.16258388173E+03  0.12508314873E+03 0.  0.
          5    1    3    3  502    0 -0.18491441209E+02  0.19515416927E+02 -0.60120816032E+02  0.65990679768E+02  0.41800000000E+01 0.  1.
         -5    1    3    3    0  502  0.78075255910E+02 -0.53886218569E+02 -0.17700399080E+02  0.96593201959E+02  0.41800000000E+01 0.  1.
        -11    1    1    2    0    0 -0.28331113669E+02 -0.18910005302E+02 -0.58494562257E+02  0.67689394412E+02  0.00000000000E+00 0. -1.
         11    1    1    2    0    0 -0.31252701032E+02  0.53280806944E+02 -0.81417218741E+01  0.62304601318E+02  0.00000000000E+00 0.  1.
</event>
<event>
 7    1  0.2733606E-009  0.1225890E+03  0.7561462E-02  0.1238886E+00
         -2   -1    0    0    0  501 -0.00000000000E+00  0.00000000000E+00  0.17808352160E+03  0.17808352160E+03  0.00000000000E+00 0.  1.
          2   -1    0    0  501    0  0.00000000000E+00 -0.00000000000E+00 -0.12977295450E+03  0.12977295450E+03  0.00000000000E+00 0. -1.
         25    2    1    2    0    0  0.47517898680E+02 -0.87239509337E+02 -0.11953067915E+02  0.16018260704E+03  0.12508760563E+03 0.  0.
          5    1    3    3  502    0 -0.12517041178E+02 -0.12018387826E+02 -0.52660029898E+02  0.55602779739E+02  0.41800000000E+01 0. -1.
         -5    1    3    3    0  502  0.60034939858E+02 -0.75221121511E+02  0.40706961983E+02  0.10457982730E+03  0.41800000000E+01 0. -1.
        -11    1    1    2    0    0 -0.48117595232E+01  0.88149680269E+02  0.23599386039E+02  0.91380797670E+02  0.00000000000E+00 0. -1.
         11    1    1    2    0    0 -0.42706139157E+02 -0.91017093279E+00  0.36664248981E+02  0.56293071387E+02  0.00000000000E+00 0.  1.
</event>
<event>
 7    1  0.2733606E-009  0.1036100E+03  0.7561462E-02  0.1272883E+00
          3   -1    0    0  501    0  0.00000000000E+00  0.00000000000E+00  0.42758862051E+02  0.42758862051E+02  0.00000000000E+00 0. -1.
         -3   -1    0    0    0  501 -0.00000000000E+00 -0.00000000000E+00 -0.40156557928E+03  0.40156557928E+03  0.00000000000E+00 0.  1.
         25    2    1    2    0    0  0.21985701072E+02 -0.68532730965E+02 -0.21959640878E+03  0.26277428893E+03  0.12509051886E+03 0.  0.
          5    1    3    3  502    0 -0.17920778195E+02 -0.81911669943E+02 -0.76577751443E+02  0.11363230342E+03  0.41800000000E+01 0.  1.
         -5    1    3    3    0  502  0.39906479267E+02  0.13378938979E+02 -0.14301865734E+03  0.14914198551E+03  0.41800000000E+01 0.  1.
        -11    1    1    2    0    0  0.94980605825E+01  0.28496785889E+02 -0.12516186002E+03  0.12871585436E+03  0.00000000000E+00 0.  1.
         11    1    1    2    0    0 -0.31483761654E+02  0.40035945075E+02 -0.14048448430E+02  0.52834298039E+02  0.00000000000E+00 0. -1.
</event>
<event>
 7    1  0.2733606E-009  0.1875052E+03  0.7561462E-02  0.1160731E+00
          1   -1    0    0  501    0  0.00000000000E+00  0.00000000000E+00  0.96443827268E+03  0.96443827268E+03  0.00000000000E+00 0. -1.
         -1   -1    0    0    0  501 -0.00000000000E+00 -0.00000000000E+00 -0.40857436247E+02  0.40857436247E+02  0.00000000000E+00 0.  1.
         25    2    1    2    0    0  0.15465652160E+03 -0.12262225393E+02  0.33494347990E+03  0.38974631630E+03  0.12508418962E+03 0.  0.
          5    1    3    3  502    0  0.47344341635E+02  0.52958885743E+02  0.15173438085E+03  0.16759154214E+03  0.41800000000E+01 0.  1.
         -5    1    3    3    0  502  0.10731217996E+03 -0.65221111136E+02  0.18320909905E+03  0.22215477416E+03  0.41800000000E+01 0. -1.
        -11    1    1    2    0    0 -0.18396415818E+02  0.35493842181E+02  0.98776553591E+02  0.10656006985E+03  0.00000000000E+00 0. -1.
         11    1    1    2    0    0 -0.13626010578E+03 -0.23231616788E+02  0.48986080294E+03  0.50898932278E+03  0.00000000000E+00 0.  1.
</event>
<event>
 7    1  0.2733606E-009  0.1115710E+03  0.7561462E-02  0.1257688E+00
          1   -1    0    0  501    0  0.00000000000E+00  0.00000000000E+00  0.32769499398E+03  0.32769499398E+03  0.00000000000E+00 0. -1.
         -1   -1    0    0    0  501 -0.00000000000E+00 -0.00000000000E+00 -0.56921539676E+02  0.56921539676E+02  0.00000000000E+00 0.  1.
         25    2    1    2    0    0  0.34993404143E+02  0.20116569002E+02  0.25336793785E+03  0.28543321431E+03  0.12509034022E+03 0.  0.
          5    1    3    3  502    0 -0.32267694977E+02  0.46440252832E+02  0.84993933949E+02  0.10217310033E+03  0.41800000000E+01 0.  1.
         -5    1    3    3    0  502  0.67261099120E+02 -0.26323683830E+02  0.16837400390E+03  0.18326011398E+03  0.41800000000E+01 0.  1.
        -11    1    1    2    0    0 -0.39158495337E+01  0.32631557918E+02  0.18957528192E+02  0.37941274687E+02  0.00000000000E+00 0. -1.
         11    1    1    2    0    0 -0.31077554610E+02 -0.52748126920E+02 -0.15520117401E+01  0.61242044663E+02  0.00000000000E+00 0.  1.
</event>
<event>
 7    1  0.2733606E-009  0.1675280E+03  0.7561462E-02  0.1180451E+00
         -2   -1    0    0    0  501 -0.00000000000E+00  0.00000000000E+00  0.16304888996E+03  0.16304888996E+03  0.00000000000E+00 0.  1.
          2   -1    0    0  501    0  0.00000000000E+00 -0.00000000000E+00 -0.21741084853E+03  0.21741084853E+03  0.00000000000E+00 0. -1.
         25    2    1    2    0    0 -0.10473076254E+03 -0.10040365985E+03  0.23087947733E+02  0.19294928831E+03  0.12508775718E+03 0.  0.
          5    1    3    3  502    0 -0.10843427553E+03 -0.57100305823E+02 -0.27967730644E+02  0.12577004172E+03  0.41800000000E+01 0. -1.
         -5    1    3    3    0  502  0.37035129942E+01 -0.43303354025E+02  0.51055678378E+02  0.67179246594E+02  0.41800000000E+01 0. -1.
        -11    1    1    2    0    0 -0.12137676685E+02  0.29936972008E+02 -0.26702329458E+02  0.41911333632E+02  0.00000000000E+00 0.  1.
         11    1    1    2    0    0  0.11686843923E+03  0.70466687840E+02 -0.50747576846E+02  0.14559911654E+03  0.00000000000E+00 0. -1.
</event>
<event>
 7    1  0.2733606E-009  0.4925469E+02  0.7561462E-02  0.1449403E+00
          2   -1    0    0  501    0  0.00000000000E+00  0.00000000000E+00  0.29531947504E+03  0.29531947504E+03  0.00000000000E+00 0. -1.
         -2   -1    0    0    0  501 -0.00000000000E+00 -0.00000000000E+00 -0.43670641909E+02  0.43670641909E+02  0.00000000000E+00 0.  1.
         25    2    1    2    0    0 -0.22985442180E+02 -0.23798778163E+02  0.14191585081E+03  0.19204064619E+03  0.12507912969E+03 0.  0.
          5    1    3    3  502    0 -0.11794998149E+02 -0.22337748902E+02  0.16448363950E+03  0.16646452196E+03  0.41800000000E+01 0.  1.
         -5    1    3    3    0  502 -0.11190444031E+02 -0.14610292611E+01 -0.22567788692E+02  0.25576124229E+02  0.41800000000E+01 0.  1.
        -11    1    1    2    0    0 -0.11156125048E+02  0.24285759902E+02  0.10959250485E+03  0.11280414168E+03  0.00000000000E+00 0. -1.
         11    1    1    2    0    0  0.34141567229E+02 -0.48698173934E+00  0.14047746696E+00  0.34145329080E+02  0.00000000000E+00 0.  1.
</event>
<event>
 7    1  0.2733606E-009  0.1773198E+03  0.7561462E-02  0.1170422E+00
          2   -1    0    0  501    0  0.00000000000E+00  0.00000000000E+00  0.19140552497E+04  0.19140552497E+04  0.00000000000E+00 0. -1.
         -2   -1    0    0    0  501 -0.00000000000E+00 -0.00000000000E+00 -0.21472253542E+02  0.21472253542E+02  0.00000000000E+00 0.  1.
         25    2    1    2    0    0  0.97164573422E+02  0.11481083470E+03  0.13699986236E+04  0.13838951918E+04  0.12508873309E+03 0.  0.
          5    1    3    3  502    0  0.36828550654E+02 -0.15923983702E+02  0.14672693772E+03  0.15217155468E+03  0.41800000000E+01 0. -1.
         -5    1    3    3    0  502  0.60336022768E+02  0.13073481841E+03  0.12232716859E+04  0.12317236371E+04  0.41800000000E+01 0. -1.
        -11    1    1    2    0    0  0.45537016010E+01 -0.48754743853E+02  0.22528491184E+03  0.23054512085E+03  0.00000000000E+00 0. -1.
         11    1    1    2    0    0 -0.10171827502E+03 -0.66056090850E+02  0.29729946072E+03  0.32108719058E+03  0.00000000000E+00 0.  1.
</event>
<event>
 7    1  0.2733606E-009  0.9377446E+02  0.7561462E-02  0.1293960E+00
          1   -1    0    0  501    0  0.00000000000E+00  0.00000000000E+00  0.65134906016E+03  0.65134906016E+03  0.00000000000E+00 0. -1.
         -1   -1    0    0    0  501 -0.00000000000E+00 -0.00000000000E+00 -0.23931063215E+02  0.23931063215E+02  0.00000000000E+00 0.  1.
         25    2    1    2    0    0 -0.97648348392E+01  0.15161892003E+02  0.51452871449E+03  0.52982228433E+03  0.12508644997E+03 0.  0.
          5    1    3    3  502    0 -0.50151340933E+02 -0.48904039850E+01  0.92897121858E+02  0.10576587681E+03  0.41800000000E+01 0. -1.
         -5    1    3    3    0  502  0.40386506093E+02  0.20052295988E+02  0.42163159263E+03  0.42405640751E+03  0.41800000000E+01 0. -1.
        -11    1    1    2    0    0  0.27261052259E+02  0.31624096076E+02  0.49704945715E+02  0.64914020453E+02  0.00000000000E+00 0. -1.
         11    1    1    2    0    0 -0.17496217420E+02 -0.46785988079E+02  0.63184336741E+02  0.80543818596E+02  0.00000000000E+00 0.  1.
</event>
<event>
 7    1  0.2733606E-009  0.1161187E+03  0.7561462E-02  0.1249641E+00
         -3   -1    0    0    0  501 -0.00000000000E+00  0.00000000000E+00  0.67525976414E+03  0.67525976414E+03  0.00000000000E+00 0.  1.
          3   -1    0    0  501    0  0.00000000000E+00 -0.00000000000E+00 -0.23524086115E+02  0.23524086115E+02  0.00000000000E+00 0. -1.
         25    2    1    2    0    0  0.61703298901E+02  0.65377462029E+01  0.36112065461E+03  0.38717528382E+03  0.12508610632E+03 0.  0.
          5    1    3    3  502    0 -0.19328893662E+02  0.45420619621E+02  0.13585811121E+03  0.14460822106E+03  0.41800000000E+01 0. -1.
         -5    1    3    3    0  502  0.81032192564E+02 -0.38882873418E+02  0.22526254339E+03  0.24256706275E+03  0.41800000000E+01 0. -1.
        -11    1    1    2    0    0 -0.59079599096E+02  0.22757079725E+02  0.26546392480E+03  0.27290910405E+03  0.00000000000E+00 0. -1.
         11    1    1    2    0    0 -0.26236998051E+01 -0.29294825928E+02  0.25151098623E+02  0.38699462384E+02  0.00000000000E+00 0.  1.
</event>
<event>
 7    1  0.2733606E-009  0.1210015E+03  0.7561462E-02  0.1241454E+00
         -1   -1    0    0    0  501 -0.00000000000E+00  0.00000000000E+00  0.30379750554E+02  0.30379750554E+02  0.00000000000E+00 0.  1.
          1   -1    0    0  501    0  0.00000000000E+00 -0.00000000000E+00 -0.10228632984E+04  0.10228632984E+04  0.00000000000E+00 0. -1.
         25    2    1    2    0    0 -0.35611388860E+02 -0.46905236750E+02 -0.89408843764E+03  0.90471526941E+03  0.12508921665E+03 0.  0.
          5    1    3    3  502    0 -0.78115805255E+02 -0.57607309384E+01 -0.54734372490E+03  0.55293570208E+03  0.41800000000E+01 0.  1.
         -5    1    3    3    0  502  0.42504416395E+02 -0.41144505812E+02 -0.34674471274E+03  0.35177956732E+03  0.41800000000E+01 0.  1.
        -11    1    1    2    0    0 -0.75080512577E+01  0.59000214520E+02 -0.29585290054E+02  0.66428047801E+02  0.00000000000E+00 0.  1.
         11    1    1    2    0    0  0.43119440117E+02 -0.12094977770E+02 -0.68809820141E+02  0.82099731736E+02  0.00000000000E+00 0. -1.
</event>
<event>
 7    1  0.2733606E-009  0.1772984E+03  0.7561462E-02  0.1170444E+00
         -1   -1    0    0    0  501 -0.00000000000E+00  0.00000000000E+00  0.12305132270E+03  0.12305132270E+03  0.00000000000E+00 0.  1.
          1   -1    0    0  501    0  0.00000000000E+00 -0.00000000000E+00 -0.28556924771E+03  0.28556924771E+03  0.00000000000E+00 0. -1.
         25    2    1    2    0    0  0.14076732992E+03  0.31431395945E+02 -0.14204797577E+03  0.23796865137E+03  0.12509227711E+03 0.  0.
          5    1    3    3  502    0 -0.15391444635E+02  0.28012940856E+02 -0.11074012971E+02  0.34084125141E+02  0.41800000000E+01 0. -1.
         -5    1    3    3    0  502  0.15615877456E+03  0.34184550891E+01 -0.13097396280E+03  0.20388452623E+03  0.41800000000E+01 0. -1.
        -11    1    1    2    0    0 -0.22442608660E+02 -0.41684073411E+02  0.92153053905E+01  0.48230224062E+02  0.00000000000E+00 0.  1.
         11    1    1    2    0    0 -0.11832472126E+03  0.10252677466E+02 -0.29685254632E+02  0.12242169497E+03  0.00000000000E+00 0. -1.
</event>
<event>
 7    1  0.2733606E-009  0.1236469E+03  0.7561462E-02  0.1237199E+00
          1   -1    0    0  501    0  0.00000000000E+00  0.00000000000E+00  0.87626564451E+03  0.87626564451E+03  0.00000000000E+00 0. -1.
         -1   -1    0    0    0  501 -0.00000000000E+00 -0.00000000000E+00 -0.18213293628E+02  0.18213293628E+02  0.00000000000E+00 0.  1.
         25    2    1    2    0    0  0.59975543603E+02  0.19316905602E+02  0.51343609834E+03  0.53219794406E+03  0.12509123037E+03 0.  0.
          5    1    3    3  502    0 -0.29115121480E+02  0.38367993440E+02  0.15668460101E+03  0.16397356437E+03  0.41800000000E+01 0.  1.
         -5    1    3    3    0  502  0.89090665083E+02 -0.19051087838E+02  0.35675149733E+03  0.36822437969E+03  0.41800000000E+01 0.  1.
        -11    1    1    2    0    0 -0.65590951519E+02  0.19577374845E+02  0.16929542875E+03  0.18260993599E+03  0.00000000000E+00 0.  1.
         11    1    1    2    0    0  0.56154079153E+01 -0.38894280447E+02  0.17532082379E+03  0.17967105808E+03  0.00000000000E+00 0. -1.
</event>
<event>
 7    1  0.2733606E-009  0.1684037E+03  0.7561462E-02  0.1179523E+00
         -1   -1    0    0    0  501 -0.00000000000E+00  0.00000000000E+00  0.18348240290E+03  0.18348240290E+03  0.00000000000E+00 0.  1.
          1   -1    0    0  501    0  0.00000000000E+00 -0.00000000000E+00 -0.16721117630E+03  0.16721117630E+03  0.00000000000E+00 0. -1.
         25    2    1    2    0    0 -0.12024127187E+03 -0.55534124852E+02 -0.26414954542E+02  0.18408477779E+03  0.12508978019E+03 0.  0.
          5    1    3    3  502    0 -0.73390875545E+02 -0.92916159482E+02 -0.34649600440E+02  0.12344108115E+03  0.41800000000E+01 0. -1.
         -5    1    3    3    0  502 -0.46850396327E+02  0.37382034630E+02  0.82346458978E+01  0.60643696640E+02  0.41800000000E+01 0. -1.
        -11    1    1    2    0    0  0.80737333988E+02 -0.10379732489E+02  0.37398453469E+02  0.89581807684E+02  0.00000000000E+00 0.  1.
         11    1    1    2    0    0  0.39503937883E+02  0.65913857341E+02  0.52877276790E+01  0.77026993722E+02  0.00000000000E+00 0. -1.
</event>
<event>
 7    1  0.2733606E-009  0.1665873E+03  0.7561462E-02  0.1181454E+00
         -1   -1    0    0    0  501 -0.00000000000E+00  0.00000000000E+00  0.60712325888E+02  0.60712325888E+02  0.00000000000E+00 0.  1.
          1   -1    0    0  501    0  0.00000000000E+00 -0.00000000000E+00 -0.46801276176E+03  0.46801276176E+03  0.00000000000E+00 0. -1.
         25    2    1    2    0    0  0.17193470050E+02  0.12770942985E+03 -0.20382221243E+03  0.27165515559E+03  0.12509082857E+03 0.  0.
          5    1    3    3  502    0  0.16932270280E+01  0.14922464936E+03 -0.15066645825E+03  0.21210543848E+03  0.41800000000E+01 0. -1.
         -5    1    3    3    0  502  0.15500243022E+02 -0.21515219510E+02 -0.53155754186E+02  0.59549717106E+02  0.41800000000E+01 0. -1.
        -11    1    1    2    0    0  0.22184641413E+02 -0.11275226058E+03 -0.15217406448E+03  0.19068868997E+03  0.00000000000E+00 0.  1.
         11    1    1    2    0    0 -0.39378111464E+02 -0.14957169267E+02 -0.51304158954E+02  0.66381242086E+02  0.00000000000E+00 0. -1.
</event>
<event>
 7    1  0.2733606E-009  0.1281190E+03  0.7561462E-02  0.1230274E+00
         -2   -1    0    0    0  501 -0.00000000000E+00  0.00000000000E+00  0.26495435642E+02  0.26495435642E+02  0.00000000000E+00 0.  1.
          2   -1    0    0  501    0  0.00000000000E+00 -0.00000000000E+00 -0.73523465967E+03  0.73523465967E+03  0.00000000000E+00 0. -1.
         25    2    1    2    0    0  0.56798976833E+02  0.62339604910E+02 -0.35082267375E+03  0.38188534457E+03  0.12509003906E+03 0.  0.
          5    1    3    3  502    0  0.29387516012E+02  0.99618661933E+02 -0.25576702797E+03  0.27608286600E+03  0.41800000000E+01 0. -1.
         -5    1    3    3    0  502  0.27411460821E+02 -0.37279057023E+02 -0.95055645783E+02  0.10580247857E+03  0.41800000000E+01 0. -1.
        -11    1    1    2    0    0 -0.10638671978E+02  0.13414149550E+02 -0.80716945096E+01  0.18928100852E+02  0.00000000000E+00 0.  1.
         11    1    1    2    0    0 -0.46160304855E+02 -0.75753754460E+02 -0.34984485576E+03  0.36091664988E+03  0.00000000000E+00 0. -1.
</event>
<event>
 7    1  0.2733606E-009  0.1663717E+03  0.7561462E-02  0.1181685E+00
         -2   -1    0    0    0  501 -0.00000000000E+00  0.00000000000E+00  0.60927426539E+02  0.60927426539E+02  0.00000000000E+00 0.  1.
          2   -1    0    0  501    0  0.00000000000E+00 -0.00000000000E+00 -0.53541697905E+03  0.53541697905E+03  0.00000000000E+00 0. -1.
         25    2    1    2    0    0  0.14022500359E+03  0.12564724094E+02 -0.30133252543E+03  0.35534475587E+03  0.12509068997E+03 0.  0.
          5    1    3    3  502    0  0.13484737391E+03  0.40913836772E+02 -0.17017594861E+03  0.22098661085E+03  0.41800000000E+01 0.  1.
         -5    1    3    3    0  502  0.53776296861E+01 -0.28349112677E+02 -0.13115657682E+03  0.13435814502E+03  0.41800000000E+01 0.  1.
        -11    1    1    2    0    0 -0.57179618028E+01 -0.26750758729E+02 -0.54903751629E+02  0.61341015012E+02  0.00000000000E+00 0.  1.
         11    1    1    2    0    0 -0.13450704179E+03  0.14186034635E+02 -0.11825327545E+03  0.17965863471E+03  0.00000000000E+00 0. -1.
</event>
<event>
 7    1  0.2733606E-009  0.1558114E+03  0.7561462E-02  0.1193509E+00
         -3   -1    0    0    0  501 -0.00000000000E+00  0.00000000000E+00  0.28309728290E+03  0.28309728290E+03  0.00000000000E+00 0.  1.
          3   -1    0    0  501    0  0.00000000000E+00 -0.00000000000E+00 -0.17954201408E+03  0.17954201408E+03  0.00000000000E+00 0. -1.
         25    2    1    2    0    0  0.60646166683E+02 -0.10646614751E+03  0.21103220983E+03  0.27421696218E+03  0.12508937070E+03 0.  0.
          5    1    3    3  502    0  0.25370051974E+02  0.23349419160E+02  0.76030541867E+02  0.83587981246E+02  0.41800000000E+01 0. -1.
         -5    1    3    3    0  502  0.35276114710E+02 -0.12981556667E+03  0.13500166796E+03  0.19062898094E+03  0.41800000000E+01 0. -1.
        -11    1    1    2    0    0 -0.21904050605E+02 -0.65240814736E+01  0.60383823968E+01  0.23639228708E+02  0.00000000000E+00 0.  1.
         11    1    1    2    0    0 -0.38742116079E+02  0.11299022899E+03 -0.11351532341E+03  0.16478310609E+03  0.00000000000E+00 0. -1.
</event>
<event>
 7    1  0.2733606E-009  0.1053970E+03  0.7561462E-02  0.1269339E+00
         -2   -1    0    0    0  501 -0.00000000000E+00  0.00000000000E+00  0.47008614272E+02  0.47008614272E+02  0.00000000000E+00 0.  1.
          2   -1    0    0  501    0  0.00000000000E+00 -0.00000000000E+00 -0.35847644465E+03  0.35847644465E+03  0.00000000000E+00 0. -1.
         25    2    1    2    0    0  0.59307228155E+02  0.27583684095E+01 -0.14393025150E+03  0.19972180795E+03  0.12509167584E+03 0.  0.
          5    1    3    3  502    0  0.18027675866E+01  0.45035384384E+02 -0.77623976945E+01  0.45925625043E+02  0.41800000000E+01 0. -1.
         -5    1    3    3    0  502  0.57504460568E+02 -0.42277015974E+02 -0.13616785381E+03  0.15379618290E+03  0.41800000000E+01 0. -1.
        -11    1    1    2    0    0  0.25942390593E+01  0.25751937920E+02 -0.10916202574E+01  0.25905289378E+02  0.00000000000E+00 0.  1.
         11    1    1    2    0    0 -0.61901467214E+02 -0.28510306330E+02 -0.16644595862E+03  0.17985796160E+03  0.00000000000E+00 0. -1.
</event>
<event>
 7    1  0.2733606E-009  0.9746076E+02  0.7561462E-02  0.1285728E+00
         -1   -1    0    0    0  501 -0.00000000000E+00  0.00000000000E+00  0.14236132219E+03  0.14236132219E+03  0.00000000000E+00 0. -1.
          1   -1    0    0  501    0  0.00000000000E+00 -0.00000000000E+00 -0.12510958025E+03  0.12510958025E+03  0.00000000000E+00 0.  1.
         25    2    1    2    0    0 -0.46634606051E+02  0.36921302496E+02  0.56921655691E+02  0.14975602371E+03  0.12509525447E+03 0.  0.
          5    1    3    3  502    0  0.33017831611E+02 -0.18590855487E+02  0.31119875654E+02  0.49210935500E+02  0.41800000000E+01 0.  1.
         -5    1    3    3    0  502 -0.79652437662E+02  0.55512157983E+02  0.25801780038E+02  0.10054508821E+03  0.41800000000E+01 0.  1.
        -11    1    1    2    0    0  0.15177554624E+02 -0.96205223306E+01 -0.66024021380E+02  0.68425755483E+02  0.00000000000E+00 0.  1.
         11    1    1    2    0    0  0.31457051427E+02 -0.27300780165E+02  0.26354107622E+02  0.49289123249E+02  0.00000000000E+00 0. -1.
</event>
<event>
 7    1  0.2733606E-009  0.1573786E+03  0.7561462E-02  0.1191688E+00
          2   -1    0    0  501    0  0.00000000000E+00  0.00000000000E+00  0.72323940954E+03  0.72323940954E+03  0.00000000000E+00 0. -1.
         -2   -1    0    0    0  501 -0.00000000000E+00 -0.00000000000E+00 -0.44813643387E+02  0.44813643387E+02  0.00000000000E+00 0.  1.
         25    2    1    2    0    0  0.10954433923E+03 -0.33056388491E+02  0.17473697042E+03  0.24346719422E+03  0.12510227317E+03 0.  0.
          5    1    3    3  502    0  0.20366718543E+02 -0.69809426196E+02  0.70030722939E+02  0.10104421688E+03  0.41800000000E+01 0.  1.
         -5    1    3    3    0  502  0.89177620690E+02  0.36753037706E+02  0.10470624748E+03  0.14242297734E+03  0.41800000000E+01 0.  1.
        -11    1    1    2    0    0 -0.53963764784E+02  0.62419672880E+02  0.25193215499E+03  0.26510019651E+03  0.00000000000E+00 0. -1.
         11    1    1    2    0    0 -0.55580574449E+02 -0.29363284389E+02  0.25175664075E+03  0.25948566220E+03  0.00000000000E+00 0.  1.
</event>
<event>
 7    1  0.2733606E-009  0.1360792E+03  0.7561462E-02  0.1218704E+00
         -1   -1    0    0    0  501 -0.00000000000E+00  0.00000000000E+00  0.19803403922E+03  0.19803403922E+03  0.00000000000E+00 0.  1.
          1   -1    0    0  501    0  0.00000000000E+00 -0.00000000000E+00 -0.28550172799E+03  0.28550172799E+03  0.00000000000E+00 0. -1.
         25    2    1    2    0    0 -0.50280468959E+02  0.98168972235E+02 -0.22765931076E+03  0.28220147658E+03  0.12507453355E+03 0.  0.
          5    1    3    3  502    0  0.17689373543E+02  0.68803000959E+02 -0.18124267400E+03  0.19471298405E+03  0.41800000000E+01 0.  1.
         -5    1    3    3    0  502 -0.67969842502E+02  0.29365971276E+02 -0.46416636758E+02  0.87488492539E+02  0.41800000000E+01 0.  1.
        -11    1    1    2    0    0  0.84645838951E+00 -0.69867172266E+02  0.12363721917E+03  0.14201514080E+03  0.00000000000E+00 0.  1.
         11    1    1    2    0    0  0.49434010569E+02 -0.28301799969E+02  0.16554402820E+02  0.59319149818E+02  0.00000000000E+00 0. -1.
</event>
<event>
 7    1  0.2733606E-009  0.9623126E+02  0.7561462E-02  0.1288427E+00
          1   -1    0    0  501    0  0.00000000000E+00  0.00000000000E+00  0.69074745755E+03  0.69074745755E+03  0.00000000000E+00 0. -1.
         -1   -1    0    0    0  501 -0.00000000000E+00 -0.00000000000E+00 -0.17879953691E+02  0.17879953691E+02  0.00000000000E+00 0.  1.
         25    2    1    2    0    0  0.30543192484E+02  0.63121295821E+01  0.44180027286E+03  0.46022802947E+03  0.12509847491E+03 0.  0.
          5    1    3    3  502    0  0.53738468538E+01 -0.56646485054E+02  0.14656900296E+03  0.15728206359E+03  0.41800000000E+01 0. -1.
         -5    1    3    3    0  502  0.25169345630E+02  0.62958614636E+02  0.29523126990E+03  0.30294596588E+03  0.41800000000E+01 0. -1.
        -11    1    1    2    0    0 -0.20372317146E+02  0.26327282151E+02  0.31184030413E+02  0.45613603718E+02  0.00000000000E+00 0.  1.
         11    1    1    2    0    0 -0.10170875338E+02 -0.32639411733E+02  0.19988320059E+03  0.20278577806E+03  0.00000000000E+00 0. -1.
</event>
<event>
 7    1  0.2733606E-009  0.9932590E+02  0.7561462E-02  0.1281720E+00
         -1   -1    0    0    0  501 -0.00000000000E+00  0.00000000000E+00  0.24938465390E+02  0.24938465390E+02  0.00000000000E+00 0.  1.
          1   -1    0    0  501    0  0.00000000000E+00 -0.00000000000E+00 -0.53759062597E+03  0.53759062597E+03  0.00000000000E+00 0. -1.
         25    2    1    2    0    0 -0.29766892123E+02  0.31025017303E+02 -0.33539526257E+03  0.36053618569E+03  0.12509092483E+03 0.  0.
          5    1    3    3  502    0 -0.30270945601E+02 -0.34361067878E+02 -0.50907786119E+02  0.68600934548E+02  0.41800000000E+01 0.  1.
         -5    1    3    3    0  502  0.50405347849E+00  0.65386085181E+02 -0.28448747645E+03  0.29193525115E+03  0.41800000000E+01 0.  1.
        -11    1    1    2    0    0 -0.12246684984E+02 -0.41978805277E+02 -0.44809872511E+02  0.62610910072E+02  0.00000000000E+00 0.  1.
         11    1    1    2    0    0  0.42013577107E+02  0.10953787973E+02 -0.13244702550E+03  0.13938199560E+03  0.00000000000E+00 0. -1.
</event>
<event>
 7    1  0.2733606E-009  0.9474101E+02  0.7561462E-02  0.1291760E+00
          1   -1    0    0  501    0  0.00000000000E+00  0.00000000000E+00  0.14825001113E+03  0.14825001113E+03  0.00000000000E+00 0. -1.
         -1   -1    0    0    0  501 -0.00000000000E+00 -0.00000000000E+00 -0.93693200097E+02  0.93693200097E+02  0.00000000000E+00 0.  1.
         25    2    1    2    0    0 -0.22153064083E+02 -0.32693446523E+02  0.57760329027E+02  0.14333953604E+03  0.12510134807E+03 0.  0.
          5    1    3    3  502    0 -0.16780300674E+01 -0.79312549367E+02  0.28091279015E+02  0.84260836862E+02  0.41800000000E+01 0.  1.
         -5    1    3    3    0  502 -0.20475034016E+02  0.46619102844E+02  0.29669050013E+02  0.59078699178E+02  0.41800000000E+01 0.  1.
        -11    1    1    2    0    0  0.10140902654E+02 -0.10215661090E+02 -0.38920406618E+02  0.41496935905E+02  0.00000000000E+00 0.  1.
         11    1    1    2    0    0  0.12012161429E+02  0.42909107613E+02  0.35716888623E+02  0.57106739281E+02  0.00000000000E+00 0. -1.
</event>
<event>
 7    1  0.2733606E-009  0.4865600E+03  0.7561462E-02  0.1017348E+00
          1   -1    0    0  501    0  0.00000000000E+00  0.00000000000E+00  0.30397515866E+04  0.30397515866E+04  0.00000000000E+00 0. -1.
         -1   -1    0    0    0  501 -0.00000000000E+00 -0.00000000000E+00 -0.79148046164E+02  0.79148046164E+02  0.00000000000E+00 0.  1.
         25    2    1    2    0    0 -0.58000781230E+02 -0.47441064108E+03  0.15592124380E+04  0.16356102209E+04  0.12509125127E+03 0.  0.
          5    1    3    3  502    0 -0.69521086138E+02 -0.11858250920E+03  0.46744800677E+03  0.48725773913E+03  0.41800000000E+01 0. -1.
         -5    1    3    3    0  502  0.11520304908E+02 -0.35582813188E+03  0.10917644312E+04  0.11483524818E+04  0.41800000000E+01 0. -1.
        -11    1    1    2    0    0  0.24749733454E+02  0.34696061279E+03  0.89984017402E+03  0.96473133821E+03  0.00000000000E+00 0.  1.
         11    1    1    2    0    0  0.33251047776E+02  0.12745002829E+03  0.50155092850E+03  0.51855807367E+03  0.00000000000E+00 0. -1.
</event>
<event>
 7    1  0.2733606E-009  0.1645188E+03  0.7561462E-02  0.1183687E+00
          2   -1    0    0  501    0  0.00000000000E+00  0.00000000000E+00  0.67069458416E+02  0.67069458416E+02  0.00000000000E+00 0. -1.
         -2   -1    0    0    0  501 -0.00000000000E+00 -0.00000000000E+00 -0.46042648292E+03  0.46042648292E+03  0.00000000000E+00 0.  1.
         25    2    1    2    0    0 -0.13041256844E+03  0.37712795296E+02 -0.24614560184E+03  0.30766896322E+03  0.12507134238E+03 0.  0.
          5    1    3    3  502    0 -0.13798202562E+03 -0.76851287313E+01 -0.18909752582E+03  0.23425082128E+03  0.41800000000E+01 0. -1.
         -5    1    3    3    0  502  0.75694571787E+01  0.45397924027E+02 -0.57048076021E+02  0.73418141939E+02  0.41800000000E+01 0. -1.
        -11    1    1    2    0    0  0.73175999212E+01 -0.18608835110E+02 -0.71073437884E+02  0.73832713517E+02  0.00000000000E+00 0.  1.
         11    1    1    2    0    0  0.12309496852E+03 -0.19103960186E+02 -0.76137984778E+02  0.14599426460E+03  0.00000000000E+00 0. -1.
</event>
<event>
 7    1  0.2733606E-009  0.1468513E+03  0.7561462E-02  0.1204396E+00
          3   -1    0    0  501    0  0.00000000000E+00  0.00000000000E+00  0.76676843709E+03  0.76676843709E+03  0.00000000000E+00 0. -1.
         -3   -1    0    0    0  501 -0.00000000000E+00 -0.00000000000E+00 -0.42382215980E+02  0.42382215980E+02  0.00000000000E+00 0.  1.
         25    2    1    2    0    0 -0.13007688577E+03  0.64990822023E+01  0.52388323774E+03  0.55413307450E+03  0.12509030015E+03 0.  0.
          5    1    3    3  502    0 -0.13210923734E+03  0.31469177050E+02  0.50366492016E+03  0.52166942013E+03  0.41800000000E+01 0.  1.
         -5    1    3    3    0  502  0.20323515700E+01 -0.24970094848E+02  0.20218317574E+02  0.32463654372E+02  0.41800000000E+01 0.  1.
        -11    1    1    2    0    0  0.52535773680E+02  0.91570600978E+01  0.18295483438E+02  0.56378932058E+02  0.00000000000E+00 0.  1.
         11    1    1    2    0    0  0.77541112090E+02 -0.15656142300E+02  0.18220749993E+03  0.19863864651E+03  0.00000000000E+00 0. -1.
</event>
<event>
 7    1  0.2733606E-009  0.1773037E+03  0.7561462E-02  0.1170438E+00
         -2   -1    0    0    0  501 -0.00000000000E+00  0.00000000000E+00  0.29798815117E+02  0.29798815117E+02  0.00000000000E+00 0.  1.
          2   -1    0    0  501    0  0.00000000000E+00 -0.00000000000E+00 -0.11377711009E+04  0.11377711009E+04  0.00000000000E+00 0. -1.
         25    2    1    2    0    0 -0.10825090626E+03  0.10153510304E+03 -0.59294647135E+03  0.62390757809E+03  0.12509001659E+03 0.  0.
          5    1    3    3  502    0 -0.58553545209E+02  0.12563988543E+03 -0.41862359007E+03  0.44099555670E+03  0.41800000000E+01 0.  1.
         -5    1    3    3    0  502 -0.49697361048E+02 -0.24104782384E+02 -0.17432288129E+03  0.18291202139E+03  0.41800000000E+01 0.  1.
        -11    1    1    2    0    0  0.14495023062E+02  0.78390184455E+01 -0.11920431076E+02  0.20338450796E+02  0.00000000000E+00 0.  1.
         11    1    1    2    0    0  0.93755883195E+02 -0.10937412149E+03 -0.50310538337E+03  0.52332388715E+03  0.00000000000E+00 0. -1.
</event>
<event>
 7    1  0.2733606E-009  0.2223962E+03  0.7561462E-02  0.1132109E+00
         -4   -1    0    0    0  501 -0.00000000000E+00  0.00000000000E+00  0.75498995586E+02  0.75498995586E+02  0.00000000000E+00 0.  1.
          4   -1    0    0  501    0  0.00000000000E+00 -0.00000000000E+00 -0.10587142284E+04  0.10587142284E+04  0.00000000000E+00 0. -1.
         25    2    1    2    0    0  0.11012772436E+03 -0.18252916907E+03 -0.20127057991E+03  0.31874748214E+03  0.12508036535E+03 0.  0.
          5    1    3    3  502    0  0.19180836505E+02 -0.24285505122E+02  0.15893673701E+02  0.35039570657E+02  0.41800000000E+01 0.  1.
         -5    1    3    3    0  502  0.90946887857E+02 -0.15824366394E+03 -0.21716425361E+03  0.28370791148E+03  0.41800000000E+01 0.  1.
        -11    1    1    2    0    0 -0.84472937616E+02  0.54733791844E+02 -0.36471780888E+03  0.37835240883E+03  0.00000000000E+00 0. -1.
         11    1    1    2    0    0 -0.25654786746E+02  0.12779537722E+03 -0.41722684398E+03  0.43711333297E+03  0.00000000000E+00 0.  1.
</event>
<event>
 7    1  0.2733606E-009  0.1404424E+03  0.7561462E-02  0.1212735E+00
         -1   -1    0    0    0  501 -0.00000000000E+00  0.00000000000E+00  0.38645426713E+03  0.38645426713E+03  0.00000000000E+00 0.  1.
          1   -1    0    0  501    0  0.00000000000E+00 -0.00000000000E+00 -0.82421980286E+02  0.82421980286E+02  0.00000000000E+00 0. -1.
         25    2    1    2    0    0 -0.10528771113E+03 -0.81350053260E+02  0.98696757571E+02  0.20759400503E+03  0.12510350791E+03 0.  0.
          5    1    3    3  502    0 -0.96231772830E+02 -0.57159200408E+02  0.69855156995E+01  0.11222298393E+03  0.41800000000E+01 0. -1.
         -5    1    3    3    0  502 -0.90559383001E+01 -0.24190852852E+02  0.91711241872E+02  0.95371021101E+02  0.41800000000E+01 0. -1.
        -11    1    1    2    0    0  0.41695844195E+02  0.64710190469E+02  0.47877176143E+02  0.90654156932E+02  0.00000000000E+00 0. -1.
         11    1    1    2    0    0  0.63591866936E+02  0.16639862791E+02  0.15745835313E+03  0.17062808545E+03  0.00000000000E+00 0.  1.
</event>
<event>
 7    1  0.2733606E-009  0.9418350E+02  0.7561462E-02  0.1293026E+00
          1   -1    0    0  501    0  0.00000000000E+00  0.00000000000E+00  0.28095609130E+02  0.28095609130E+02  0.00000000000E+00 0. -1.
         -1   -1    0    0    0  501 -0.00000000000E+00 -0.00000000000E+00 -0.78465561932E+03  0.78465561932E+03  0.00000000000E+00 0.  1.
         25    2    1    2    0    0  0.57831121573E+02 -0.35045910745E+02 -0.61042892720E+03  0.62677216941E+03  0.12508885924E+03 0.  0.
          5    1    3    3  502    0  0.80378914553E+01  0.34007118262E+02 -0.37021826847E+03  0.37188725509E+03  0.41800000000E+01 0. -1.
         -5    1    3    3    0  502  0.49793230118E+02 -0.69053029006E+02 -0.24021065873E+03  0.25488491432E+03  0.41800000000E+01 0. -1.
        -11    1    1    2    0    0 -0.23485420734E+02  0.10518375179E+02 -0.14115575501E+03  0.14348222321E+03  0.00000000000E+00 0.  1.
         11    1    1    2    0    0 -0.34345700838E+02  0.24527535566E+02 -0.49753279778E+01  0.42496835829E+02  0.00000000000E+00 0. -1.
</event>
<event>
 7    1  0.2733606E-009  0.1385576E+03  0.7561462E-02  0.1215283E+00
          1   -1    0    0  501    0  0.00000000000E+00  0.00000000000E+00  0.48123030014E+02  0.48123030014E+02  0.00000000000E+00 0. -1.
         -1   -1    0    0    0  501 -0.00000000000E+00 -0.00000000000E+00 -0.67431121024E+03  0.67431121024E+03  0.00000000000E+00 0.  1.
         25    2    1    2    0    0 -0.41878496179E+02  0.79671833347E+02 -0.10708490040E+03  0.18765865459E+03  0.12508870964E+03 0.  0.
          5    1    3    3  502    0  0.40082832172E+02  0.47953834895E+02 -0.64500622009E+02  0.89911102516E+02  0.41800000000E+01 0.  1.
         -5    1    3    3    0  502 -0.81961328351E+02  0.31717998451E+02 -0.42584278388E+02  0.97747552075E+02  0.41800000000E+01 0.  1.
        -11    1    1    2    0    0  0.68050566589E+02 -0.39911743612E+02 -0.27588984104E+03  0.28694778494E+03  0.00000000000E+00 0.  1.
         11    1    1    2    0    0 -0.26172070410E+02 -0.39760089734E+02 -0.24321343879E+03  0.24782780072E+03  0.00000000000E+00 0. -1.
</event>
<event>
 7    1  0.2733606E-009  0.9824887E+02  0.7561462E-02  0.1284022E+00
          4   -1    0    0  501    0  0.00000000000E+00  0.00000000000E+00  0.28671423668E+02  0.28671423668E+02  0.00000000000E+00 0. -1.
         -4   -1    0    0    0  501 -0.00000000000E+00 -0.00000000000E+00 -0.51064816956E+03  0.51064816956E+03  0.00000000000E+00 0.  1.
         25    2    1    2    0    0  0.33286330945E+01  0.20594246252E+02 -0.21366045629E+03  0.24846116465E+03  0.12508779708E+03 0.  0.
          5    1    3    3  502    0  0.14707587080E+02 -0.37285099291E+02 -0.18138875863E+02  0.44192566846E+02  0.41800000000E+01 0. -1.
         -5    1    3    3    0  502 -0.11378953986E+02  0.57879345543E+02 -0.19552158043E+03  0.20426859780E+03  0.41800000000E+01 0. -1.
        -11    1    1    2    0    0  0.42415948585E+02 -0.27858236464E+02 -0.21176277291E+03  0.21775827429E+03  0.00000000000E+00 0.  1.
         11    1    1    2    0    0 -0.45744581680E+02  0.72639902121E+01 -0.56553516693E+02  0.73100154290E+02  0.00000000000E+00 0. -1.
</event>
<event>
 7    1  0.2733606E-009  0.2253125E+03  0.7561462E-02  0.1129983E+00
         -2   -1    0    0    0  501 -0.00000000000E+00  0.00000000000E+00  0.42844598923E+03  0.42844598923E+03  0.00000000000E+00 0.  1.
          2   -1    0    0  501    0  0.00000000000E+00 -0.00000000000E+00 -0.39828191597E+03  0.39828191597E+03  0.00000000000E+00 0. -1.
         25    2    1    2    0    0  0.12192607472E+03 -0.18719576565E+03  0.34503467812E+03  0.42965613973E+03  0.12508895603E+03 0.  0.
          5    1    3    3  502    0  0.10381395258E+03 -0.15701627042E+03  0.17868173203E+03  0.25956902683E+03  0.41800000000E+01 0. -1.
         -5    1    3    3    0  502  0.18112122144E+02 -0.30179495236E+02  0.16635294609E+03  0.17008711290E+03  0.41800000000E+01 0. -1.
        -11    1    1    2    0    0 -0.44736572809E+01  0.31794229600E+02 -0.10908743372E+03  0.11371435635E+03  0.00000000000E+00 0. -1.
         11    1    1    2    0    0 -0.11745241744E+03  0.15540153605E+03 -0.20578317115E+03  0.28335740911E+03  0.00000000000E+00 0.  1.
</event>
<event>
 7    1  0.2733606E-009  0.1500846E+03  0.7561462E-02  0.1200369E+00
          1   -1    0    0  501    0  0.00000000000E+00  0.00000000000E+00  0.63667995076E+03  0.63667995076E+03  0.00000000000E+00 0. -1.
         -1   -1    0    0    0  501 -0.00000000000E+00 -0.00000000000E+00 -0.45253697892E+02  0.45253697892E+02  0.00000000000E+00 0.  1.
         25    2    1    2    0    0  0.93321586465E+02 -0.67277720800E+02  0.18996633429E+03  0.25489241137E+03  0.12509085896E+03 0.  0.
          5    1    3    3  502    0 -0.12635143777E+02 -0.51099619726E+02  0.25753138759E+02  0.58749591916E+02  0.41800000000E+01 0.  1.
         -5    1    3    3    0  502  0.10595673024E+03 -0.16178101075E+02  0.16421319553E+03  0.19614281946E+03  0.41800000000E+01 0.  1.
        -11    1    1    2    0    0 -0.28157867342E+02 -0.17513649196E+02  0.52792541435E+02  0.62342969392E+02  0.00000000000E+00 0.  1.
         11    1    1    2    0    0 -0.65163719123E+02  0.84791369996E+02  0.34866737714E+03  0.36469826788E+03  0.00000000000E+00 0. -1.
</event>
<event>
 7    1  0.2733606E-009  0.1544522E+03  0.7561462E-02  0.1195106E+00
          1   -1    0    0  501    0  0.00000000000E+00  0.00000000000E+00  0.72824706051E+03  0.72824706051E+03  0.00000000000E+00 0. -1.
         -1   -1    0    0    0  501 -0.00000000000E+00 -0.00000000000E+00 -0.36053323600E+02  0.36053323600E+02  0.00000000000E+00 0.  1.
         25    2    1    2    0    0 -0.10574721005E+03  0.53441501418E+02  0.33007229560E+03  0.37234087898E+03  0.12510612825E+03 0.  0.
          5    1    3    3  502    0 -0.12841298978E+03  0.20309601978E+02  0.22667016554E+03  0.26134117973E+03  0.41800000000E+01 0.  1.
         -5    1    3    3    0  502  0.22665779733E+02  0.33131899440E+02  0.10340213007E+03  0.11099969925E+03  0.41800000000E+01 0.  1.
        -11    1    1    2    0    0  0.26924088120E+02  0.17754854266E+02  0.33083368364E+02  0.46202279526E+02  0.00000000000E+00 0.  1.
         11    1    1    2    0    0  0.78823121927E+02 -0.71196355683E+02  0.32903807294E+03  0.34575722561E+03  0.00000000000E+00 0. -1.
</event>
<event>
 7    1  0.2733606E-009  0.1307048E+03  0.7561462E-02  0.1226414E+00
          1   -1    0    0  501    0  0.00000000000E+00  0.00000000000E+00  0.32799451278E+03  0.32799451278E+03  0.00000000000E+00 0. -1.
         -1   -1    0    0    0  501 -0.00000000000E+00 -0.00000000000E+00 -0.87656801580E+02  0.87656801580E+02  0.00000000000E+00 0.  1.
         25    2    1    2    0    0  0.39044708857E+02  0.55171463188E+02  0.22903781031E+03  0.26958091867E+03  0.12508866262E+03 0.  0.
          5    1    3    3  502    0 -0.39904417252E+02  0.27084950197E+02  0.40130194526E+02  0.62879742017E+02  0.41800000000E+01 0. -1.
         -5    1    3    3    0  502  0.78949126108E+02  0.28086512990E+02  0.18890761579E+03  0.20670117665E+03  0.41800000000E+01 0. -1.
        -11    1    1    2    0    0  0.84995050995E+01 -0.76514430250E+02  0.39807416501E+02  0.86667929662E+02  0.00000000000E+00 0. -1.
         11    1    1    2    0    0 -0.47544213956E+02  0.21342967062E+02 -0.28507515618E+02  0.59402466030E+02  0.00000000000E+00 0.  1.
</event>
<event>
 7    1  0.2733606E-009  0.1450197E+03  0.7561462E-02  0.1206730E+00
         -1   -1    0    0    0  501 -0.00000000000E+00  0.00000000000E+00  0.59665174762E+02  0.59665174762E+02  0.00000000000E+00 0.  1.
          1   -1    0    0  501    0  0.00000000000E+00 -0.00000000000E+00 -0.49495583131E+03  0.49495583131E+03  0.00000000000E+00 0. -1.
         25    2    1    2    0    0 -0.10386034121E+02  0.12057356444E+03 -0.13864452679E+03  0.22252127030E+03  0.12509019458E+03 0.  0.
          5    1    3    3  502    0  0.29450240495E+02  0.71277449908E+02 -0.13898402142E+03  0.15900258533E+03  0.41800000000E+01 0.  1.
         -5    1    3    3    0  502 -0.39836274616E+02  0.49296114536E+02  0.33949463509E+00  0.63518684969E+02  0.41800000000E+01 0.  1.
        -11    1    1    2    0    0  0.39695253615E+02 -0.11188270498E+03 -0.23390037739E+03  0.26230295342E+03  0.00000000000E+00 0.  1.
         11    1    1    2    0    0 -0.29309219494E+02 -0.86908594680E+01 -0.62745752372E+02  0.69796782350E+02  0.00000000000E+00 0. -1.
</event>
<event>
 7    1  0.2733606E-009  0.1006537E+03  0.7561462E-02  0.1278927E+00
         -1   -1    0    0    0  501 -0.00000000000E+00  0.00000000000E+00  0.28472777199E+03  0.28472777199E+03  0.00000000000E+00 0.  1.
          1   -1    0    0  501    0  0.00000000000E+00 -0.00000000000E+00 -0.42129641243E+02  0.42129641243E+02  0.00000000000E+00 0. -1.
         25    2    1    2    0    0 -0.69120846606E+01 -0.17415956681E+02  0.14591811904E+03  0.19310536589E+03  0.12508594009E+03 0.  0.
          5    1    3    3  502    0  0.41251522553E+02  0.22070885016E+02  0.17147889463E+02  0.50003345801E+02  0.41800000000E+01 0.  1.
         -5    1    3    3    0  502 -0.48163607213E+02 -0.39486841696E+02  0.12877022958E+03  0.14310202009E+03  0.41800000000E+01 0.  1.
        -11    1    1    2    0    0 -0.25957025038E+02  0.43024130229E+02  0.59795737713E+02  0.78104885759E+02  0.00000000000E+00 0.  1.
         11    1    1    2    0    0  0.32869109699E+02 -0.25608173548E+02  0.36884273992E+02  0.55647161587E+02  0.00000000000E+00 0. -1.
</event>
<event>
 7    1  0.2733606E-009  0.1801553E+03  0.7561462E-02  0.1167653E+00
          1   -1    0    0  501    0  0.00000000000E+00  0.00000000000E+00  0.72900582162E+03  0.72900582162E+03  0.00000000000E+00 0. -1.
         -1   -1    0    0    0  501 -0.00000000000E+00 -0.00000000000E+00 -0.48939529258E+02  0.48939529258E+02  0.00000000000E+00 0.  1.
         25    2    1    2    0    0  0.14904375540E+03  0.37224453510E+02  0.36535174636E+03  0.41560712844E+03  0.12509070980E+03 0.  0.
          5    1    3    3  502    0  0.94666537009E+02 -0.35108085424E+02  0.13942159113E+03  0.17219228602E+03  0.41800000000E+01 0.  1.
         -5    1    3    3    0  502  0.54377218391E+02  0.72332538934E+02  0.22593015522E+03  0.24341484241E+03  0.41800000000E+01 0.  1.
        -11    1    1    2    0    0 -0.11673842182E+03  0.33712712610E+01  0.15283438161E+03  0.19234753131E+03  0.00000000000E+00 0.  1.
         11    1    1    2    0    0 -0.32305333584E+02 -0.40595724771E+02  0.16188016439E+03  0.16999069113E+03  0.00000000000E+00 0. -1.
</event>
<event>
 7    1  0.2733606E-009  0.1416502E+03  0.7561462E-02  0.1211126E+00
          1   -1    0    0  501    0  0.00000000000E+00  0.00000000000E+00  0.85115883039E+03  0.85115883039E+03  0.00000000000E+00 0. -1.
         -1   -1    0    0    0  501 -0.00000000000E+00 -0.00000000000E+00 -0.31604771424E+02  0.31604771424E+02  0.00000000000E+00 0.  1.
         25    2    1    2    0    0  0.11160748102E+03  0.24503480150E+02  0.30651415477E+03  0.35021527079E+03  0.12507261274E+03 0.  0.
          5    1    3    3  502    0  0.96478021017E+01 -0.29767682583E+02  0.16259270897E+03  0.16562927405E+03  0.41800000000E+01 0. -1.
         -5    1    3    3    0  502  0.10195967892E+03  0.54271162733E+02  0.14392144580E+03  0.18458599674E+03  0.41800000000E+01 0. -1.
        -11    1    1    2    0    0 -0.16457111329E+02  0.24195724806E+02  0.56099971648E+02  0.63273030835E+02  0.00000000000E+00 0.  1.
         11    1    1    2    0    0 -0.95150369690E+02 -0.48699204955E+02  0.45693993254E+03  0.46927530019E+03  0.00000000000E+00 0. -1.
</event>
<event>
 7    1  0.2733606E-009  0.1089828E+03  0.7561462E-02  0.1262465E+00
          1   -1    0    0  501    0  0.00000000000E+00  0.00000000000E+00  0.30916769275E+02  0.30916769275E+02  0.00000000000E+00 0. -1.
         -1   -1    0    0    0  501 -0.00000000000E+00 -0.00000000000E+00 -0.51647639618E+03  0.51647639618E+03  0.00000000000E+00 0.  1.
         25    2    1    2    0    0  0.96795024249E+01  0.39399498308E+02 -0.20047079732E+03  0.23975381774E+03  0.12508932533E+03 0.  0.
          5    1    3    3  502    0 -0.39917426461E+02  0.39312556808E+02 -0.33251140235E+02  0.65283909082E+02  0.41800000000E+01 0.  1.
         -5    1    3    3    0  502  0.49596928886E+02  0.86941499817E-01 -0.16721965708E+03  0.17446990866E+03  0.41800000000E+01 0.  1.
        -11    1    1    2    0    0 -0.14493896352E+02 -0.74847492631E+02 -0.15519633467E+03  0.17291073558E+03  0.00000000000E+00 0.  1.
         11    1    1    2    0    0  0.48143939274E+01  0.35447994323E+02 -0.12989249492E+03  0.13472861214E+03  0.00000000000E+00 0. -1.
</event>
<event>
 7    1  0.2733606E-009  0.9029819E+02  0.7561462E-02  0.1302131E+00
         -2   -1    0    0    0  501 -0.00000000000E+00  0.00000000000E+00  0.31795815524E+02  0.31795815524E+02  0.00000000000E+00 0.  1.
          2   -1    0    0  501    0  0.00000000000E+00 -0.00000000000E+00 -0.37761083322E+03  0.37761083322E+03  0.00000000000E+00 0. -1.
         25    2    1    2    0    0  0.14836073600E+02  0.12347772464E+02 -0.23844824226E+03  0.26995728059E+03  0.12508713980E+03 0.  0.
          5    1    3    3  502    0 -0.10567421716E+02  0.48063109847E+02 -0.21394331298E+03  0.21956991256E+03  0.41800000000E+01 0.  1.
         -5    1    3    3    0  502  0.25403495317E+02 -0.35715337383E+02 -0.24504929278E+02  0.50387368036E+02  0.41800000000E+01 0.  1.
        -11    1    1    2    0    0 -0.33898318695E+02 -0.40730345771E+02 -0.78452947470E+02  0.94672710132E+02  0.00000000000E+00 0.  1.
         11    1    1    2    0    0  0.19062245095E+02  0.28382573307E+02 -0.28913827961E+02  0.44776658014E+02  0.00000000000E+00 0. -1.
</event>
<event>
 7    1  0.2733606E-009  0.1168192E+03  0.7561462E-02  0.1248439E+00
          1   -1    0    0  501    0  0.00000000000E+00  0.00000000000E+00  0.57043646599E+03  0.57043646599E+03  0.00000000000E+00 0. -1.
         -1   -1    0    0    0  501 -0.00000000000E+00 -0.00000000000E+00 -0.40299179882E+02  0.40299179882E+02  0.00000000000E+00 0.  1.
         25    2    1    2    0    0  0.47514037484E+02 -0.88121380116E+02  0.21688183556E+03  0.26964347669E+03  0.12508761943E+03 0.  0.
          5    1    3    3  502    0  0.50677536719E+02 -0.47318497786E+02  0.21768403866E+03  0.22849740928E+03  0.41800000000E+01 0.  1.
         -5    1    3    3    0  502 -0.31634992350E+01 -0.40802882330E+02 -0.80220309628E+00  0.41146067414E+02  0.41800000000E+01 0.  1.
        -11    1    1    2    0    0  0.77670089947E+00  0.72182535140E+02  0.24840303790E+03  0.25867932055E+03  0.00000000000E+00 0. -1.
         11    1    1    2    0    0 -0.48290738383E+02  0.15938844976E+02  0.64852412649E+02  0.82412848629E+02  0.00000000000E+00 0.  1.
</event>
<event>
 7    1  0.2733606E-009  0.3780955E+03  0.7561462E-02  0.1051640E+00
         -1   -1    0    0    0  501 -0.00000000000E+00  0.00000000000E+00  0.11894596224E+03  0.11894596224E+03  0.00000000000E+00 0.  1.
          1   -1    0    0  501    0  0.00000000000E+00 -0.00000000000E+00 -0.12941709357E+04  0.12941709357E+04  0.00000000000E+00 0. -1.
         25    2    1    2    0    0 -0.14830095149E+03 -0.34080864945E+03 -0.48322739633E+03  0.62233243315E+03  0.12508090595E+03 0.  0.
          5    1    3    3  502    0 -0.12615107034E+03 -0.33075329051E+03 -0.39368190719E+03  0.52944758776E+03  0.41800000000E+01 0. -1.
         -5    1    3    3    0  502 -0.22149881149E+02 -0.10055358936E+02 -0.89545489140E+02  0.92884845392E+02  0.41800000000E+01 0. -1.
        -11    1    1    2    0    0  0.10668380495E+03  0.30311229910E+03 -0.62945524393E+03  0.70673361616E+03  0.00000000000E+00 0. -1.
         11    1    1    2    0    0  0.41617146538E+02  0.37696350345E+02 -0.62542333236E+02  0.84050848668E+02  0.00000000000E+00 0.  1.
</event>
<event>
 7    1  0.2733606E-009  0.1199335E+03  0.7561462E-02  0.1243207E+00
         -1   -1    0    0    0  501 -0.00000000000E+00  0.00000000000E+00  0.30655943064E+02  0.30655943064E+02  0.00000000000E+00 0.  1.
          1   -1    0    0  501    0  0.00000000000E+00 -0.00000000000E+00 -0.50027653676E+03  0.50027653676E+03  0.00000000000E+00 0. -1.
         25    2    1    2    0    0  0.42108611646E+02  0.36775798232E+02 -0.21771010335E+03  0.25723740377E+03  0.12509115991E+03 0.  0.
          5    1    3    3  502    0 -0.31355822263E+01 -0.44013308743E+02 -0.71335184066E+02  0.83983237066E+02  0.41800000000E+01 0. -1.
         -5    1    3    3    0  502  0.45244193872E+02  0.80789106974E+02 -0.14637491928E+03  0.17325416670E+03  0.41800000000E+01 0. -1.
        -11    1    1    2    0    0 -0.66614355359E+02 -0.40660353808E+02 -0.15344223591E+03  0.17214893689E+03  0.00000000000E+00 0. -1.
         11    1    1    2    0    0  0.24505743713E+02  0.38845555763E+01 -0.98468254435E+02  0.10154613916E+03  0.00000000000E+00 0.  1.
</event>
<event>
 7    1  0.2733606E-009  0.1470888E+03  0.7561462E-02  0.1204097E+00
         -1   -1    0    0    0  501 -0.00000000000E+00  0.00000000000E+00  0.32718150207E+03  0.32718150207E+03  0.00000000000E+00 0.  1.
          1   -1    0    0  501    0  0.00000000000E+00 -0.00000000000E+00 -0.10056346952E+03  0.10056346952E+03  0.00000000000E+00 0. -1.
         25    2    1    2    0    0 -0.13666168483E+03 -0.25409890528E+02  0.16458164063E+03  0.24911246980E+03  0.12509127683E+03 0.  0.
          5    1    3    3  502    0 -0.69650406290E+02 -0.46895965644E+02  0.17304734252E+02  0.85833192400E+02  0.41800000000E+01 0.  1.
         -5    1    3    3    0  502 -0.67011278543E+02  0.21486075116E+02  0.14727690638E+03  0.16327927740E+03  0.41800000000E+01 0.  1.
        -11    1    1    2    0    0  0.88506531120E+02  0.22744809184E+02 -0.10014915853E+02  0.91929488932E+02  0.00000000000E+00 0. -1.
         11    1    1    2    0    0  0.48155153713E+02  0.26650813440E+01  0.72051307774E+02  0.86703012864E+02  0.00000000000E+00 0.  1.
</event>
<event>
 7    1  0.2733606E-009  0.6370444E+02  0.7561462E-02  0.1382912E+00
         -2   -1    0    0    0  501 -0.00000000000E+00  0.00000000000E+00  0.53561162544E+02  0.53561162544E+02  0.00000000000E+00 0. -1.
          2   -1    0    0  501    0  0.00000000000E+00 -0.00000000000E+00 -0.24079991773E+03  0.24079991773E+03  0.00000000000E+00 0.  1.
         25    2    1    2    0    0  0.32990310148E+02 -0.10374576436E+02 -0.10299230815E+03  0.16568159325E+03  0.12508789871E+03 0.  0.
          5    1    3    3  502    0  0.29608414377E+02 -0.14746259350E+01 -0.13174638625E+03  0.13510520128E+03  0.41800000000E+01 0. -1.
         -5    1    3    3    0  502  0.33818957710E+01 -0.88999505011E+01  0.28754078105E+02  0.30576391965E+02  0.41800000000E+01 0. -1.
        -11    1    1    2    0    0  0.18123205482E+02 -0.20496471246E+02 -0.56623643905E+02  0.62887144628E+02  0.00000000000E+00 0.  1.
         11    1    1    2    0    0 -0.51113515629E+02  0.30871047682E+02 -0.27622803135E+02  0.65792342396E+02  0.00000000000E+00 0. -1.
</event>
<event>
 7    1  0.2733606E-009  0.1046258E+03  0.7561462E-02  0.1270859E+00
         -2   -1    0    0    0  501 -0.00000000000E+00  0.00000000000E+00  0.16521908772E+02  0.16521908772E+02  0.00000000000E+00 0. -1.
          2   -1    0    0  501    0  0.00000000000E+00 -0.00000000000E+00 -0.75185983031E+03  0.75185983031E+03  0.00000000000E+00 0.  1.
         25    2    1    2    0    0  0.39258941500E+01  0.91901868483E+01 -0.33094867774E+03  0.35394431816E+03  0.12509868457E+03 0.  0.
          5    1    3    3  502    0 -0.52751307672E+02  0.31160413466E+02 -0.20553889984E+03  0.21451662774E+03  0.41800000000E+01 0. -1.
         -5    1    3    3    0  502  0.56677201822E+02 -0.21970226617E+02 -0.12540977790E+03  0.13942769043E+03  0.41800000000E+01 0. -1.
        -11    1    1    2    0    0  0.39214063590E+02 -0.17562116083E+02 -0.14079927494E+03  0.14720939688E+03  0.00000000000E+00 0.  1.
         11    1    1    2    0    0 -0.43139957740E+02  0.83719292344E+01 -0.26358996885E+03  0.26722802404E+03  0.00000000000E+00 0. -1.
</event>
<event>
 7    1  0.2733606E-009  0.1096881E+03  0.7561462E-02  0.1261149E+00
         -1   -1    0    0    0  501 -0.00000000000E+00  0.00000000000E+00  0.59063232090E+03  0.59063232090E+03  0.00000000000E+00 0.  1.
          1   -1    0    0  501    0  0.00000000000E+00 -0.00000000000E+00 -0.31433510971E+02  0.31433510971E+02  0.00000000000E+00 0. -1.
         25    2    1    2    0    0  0.36168901240E+02  0.71483874054E+02  0.34394115579E+03  0.37464481029E+03  0.12508030047E+03 0.  0.
          5    1    3    3  502    0  0.93655218071E+01 -0.11097088447E+02 -0.43071722077E+01  0.15712495128E+02  0.41800000000E+01 0. -1.
         -5    1    3    3    0  502  0.26803379433E+02  0.82580962501E+02  0.34824832799E+03  0.35893231516E+03  0.41800000000E+01 0. -1.
        -11    1    1    2    0    0 -0.64508484685E+02 -0.45989283672E+02  0.17435126115E+03  0.19150645178E+03  0.00000000000E+00 0.  1.
         11    1    1    2    0    0  0.28339583445E+02 -0.25494590382E+02  0.40906392998E+02  0.55914569807E+02  0.00000000000E+00 0. -1.
</event>
<event>
 7    1  0.2733606E-009  0.1175540E+03  0.7561462E-02  0.1247188E+00
          2   -1    0    0  501    0  0.00000000000E+00  0.00000000000E+00  0.83841672646E+03  0.83841672646E+03  0.00000000000E+00 0. -1.
         -2   -1    0    0    0  501 -0.00000000000E+00 -0.00000000000E+00 -0.18845333957E+02  0.18845333957E+02  0.00000000000E+00 0.  1.
         25    2    1    2    0    0 -0.43535545230E+02  0.44969785135E+02  0.48752713369E+03  0.50719640442E+03  0.12509141180E+03 0.  0.
          5    1    3    3  502    0 -0.46034692867E+02  0.80657748728E+02  0.42489344494E+03  0.43494456811E+03  0.41800000000E+01 0.  1.
         -5    1    3    3    0  502  0.24991476368E+01 -0.35687963593E+02  0.62633688750E+02  0.72251836314E+02  0.41800000000E+01 0.  1.
        -11    1    1    2    0    0  0.12552254656E+02 -0.66963178658E+02  0.16045411294E+03  0.17431910036E+03  0.00000000000E+00 0.  1.
         11    1    1    2    0    0  0.30983290575E+02  0.21993393524E+02  0.17159014588E+03  0.17574655563E+03  0.00000000000E+00 0. -1.
</event>
<event>
 7    1  0.2733606E-009  0.1135184E+03  0.7561462E-02  0.1254190E+00
          2   -1    0    0  501    0  0.00000000000E+00  0.00000000000E+00  0.20391240272E+03  0.20391240272E+03  0.00000000000E+00 0. -1.
         -2   -1    0    0    0  501 -0.00000000000E+00 -0.00000000000E+00 -0.84642117866E+02  0.84642117866E+02  0.00000000000E+00 0.  1.
         25    2    1    2    0    0  0.59776969513E+02 -0.70052207531E+01  0.13311229015E+03  0.19232391924E+03  0.12508896403E+03 0.  0.
          5    1    3    3  502    0  0.67945325715E+02 -0.54419385801E+02  0.10495006535E+03  0.13641856712E+03  0.41800000000E+01 0.  1.
         -5    1    3    3    0  502 -0.81683562021E+01  0.47414165048E+02  0.28162224797E+02  0.55905352121E+02  0.41800000000E+01 0.  1.
        -11    1    1    2    0    0 -0.52285228238E+02 -0.25543243349E+02  0.40661346481E+01  0.58332973725E+02  0.00000000000E+00 0.  1.
         11    1    1    2    0    0 -0.74917412748E+01  0.32548464102E+02 -0.17908139947E+02  0.37897627618E+02  0.00000000000E+00 0. -1.
</event>
<event>
 7    1  0.2733606E-009  0.1041552E+03  0.7561462E-02  0.1271793E+00
         -1   -1    0    0    0  501 -0.00000000000E+00  0.00000000000E+00  0.42799508311E+03  0.42799508311E+03  0.00000000000E+00 0.  1.
          1   -1    0    0  501    0  0.00000000000E+00 -0.00000000000E+00 -0.38911067499E+02  0.38911067499E+02  0.00000000000E+00 0. -1.
         25    2    1    2    0    0 -0.42356319837E+02 -0.53610058823E+02  0.21639062951E+03  0.25911225134E+03  0.12508460344E+03 0.  0.
          5    1    3    3  502    0 -0.60737528693E+02 -0.48730832275E+02  0.52359382982E+02  0.93929328712E+02  0.41800000000E+01 0. -1.
         -5    1    3    3    0  502  0.18381208856E+02 -0.48792265473E+01  0.16403124653E+03  0.16518292263E+03  0.41800000000E+01 0. -1.
        -11    1    1    2    0    0 -0.13409681421E+02  0.53433268420E+02  0.11521661130E+03  0.12770983223E+03  0.00000000000E+00 0.  1.
         11    1    1    2    0    0  0.55766001258E+02  0.17679040301E+00  0.57476774798E+02  0.80084067032E+02  0.00000000000E+00 0. -1.
</event>
<event>
 7    1  0.2733606E-009  0.1128218E+03  0.7561462E-02  0.1255432E+00
          1   -1    0    0  501    0  0.00000000000E+00  0.00000000000E+00  0.41038565469E+03  0.41038565469E+03  0.00000000000E+00 0. -1.
         -1   -1    0    0    0  501 -0.00000000000E+00 -0.00000000000E+00 -0.47471999326E+02  0.47471999326E+02  0.00000000000E+00 0.  1.
         25    2    1    2    0    0  0.58172813936E+02 -0.51679040827E+02  0.19278032780E+03  0.24262096291E+03  0.12508348140E+03 0.  0.
          5    1    3    3  502    0  0.10201243320E+02 -0.50230996394E+02  0.18718633337E+03  0.19412216299E+03  0.41800000000E+01 0. -1.
         -5    1    3    3    0  502  0.47971570616E+02 -0.14480444332E+01  0.55939944235E+01  0.48498799920E+02  0.41800000000E+01 0. -1.
        -11    1    1    2    0    0  0.28277213649E+02  0.16249197684E+02  0.19549599536E+02  0.38023993466E+02  0.00000000000E+00 0.  1.
         11    1    1    2    0    0 -0.86450027585E+02  0.35429843144E+02  0.15058372803E+03  0.17721269763E+03  0.00000000000E+00 0. -1.
</event>
<event>
 7    1  0.2733606E-009  0.1281482E+03  0.7561462E-02  0.1230230E+00
         -2   -1    0    0    0  501 -0.00000000000E+00  0.00000000000E+00  0.17231170089E+02  0.17231170089E+02  0.00000000000E+00 0.  1.
          2   -1    0    0  501    0  0.00000000000E+00 -0.00000000000E+00 -0.10950447419E+04  0.10950447419E+04  0.00000000000E+00 0. -1.
         25    2    1    2    0    0 -0.71919234823E+02  0.43579072938E+02 -0.59701434105E+03  0.61574779004E+03  0.12509078936E+03 0.  0.
          5    1    3    3  502    0 -0.68151286421E+02  0.76755440985E+02 -0.30576953876E+03  0.32256546436E+03  0.41800000000E+01 0. -1.
         -5    1    3    3    0  502 -0.37679484022E+01 -0.33176368047E+02 -0.29124480229E+03  0.29318232568E+03  0.41800000000E+01 0. -1.
        -11    1    1    2    0    0 -0.13977004367E+02 -0.29808830284E+02 -0.82235714154E+02  0.88581237835E+02  0.00000000000E+00 0. -1.
         11    1    1    2    0    0  0.85896239190E+02 -0.13770242653E+02 -0.39856351665E+03  0.40794688416E+03  0.00000000000E+00 0.  1.
</event>
<event>
 7    1  0.2733606E-009  0.9651975E+02  0.7561462E-02  0.1287789E+00
         -2   -1    0    0    0  501 -0.00000000000E+00  0.00000000000E+00  0.56529034958E+03  0.56529034958E+03  0.00000000000E+00 0. -1.
          2   -1    0    0  501    0  0.00000000000E+00 -0.00000000000E+00 -0.33343150666E+02  0.33343150666E+02  0.00000000000E+00 0.  1.
         25    2    1    2    0    0 -0.35191406648E+02 -0.70799512545E+02  0.34991627571E+03  0.37992120547E+03  0.12509083212E+03 0.  0.
          5    1    3    3  502    0 -0.33543600042E+02 -0.46866412291E+02  0.42970236472E+02  0.72010744527E+02  0.41800000000E+01 0.  1.
         -5    1    3    3    0  502 -0.16478066058E+01 -0.23933100254E+02  0.30694603924E+03  0.30791046094E+03  0.41800000000E+01 0.  1.
        -11    1    1    2    0    0 -0.15570000923E+02  0.55859680506E+02  0.50349573063E+02  0.76797189679E+02  0.00000000000E+00 0. -1.
         11    1    1    2    0    0  0.50761407571E+02  0.14939832038E+02  0.13168135014E+03  0.14191510510E+03  0.00000000000E+00 0.  1.
</event>
<event>
 7    1  0.2733606E-009  0.1168357E+03  0.7561462E-02  0.1248410E+00
         -1   -1    0    0    0  501 -0.00000000000E+00  0.00000000000E+00  0.79075989786E+02  0.79075989786E+02  0.00000000000E+00 0.  1.
          1   -1    0    0  501    0  0.00000000000E+00 -0.00000000000E+00 -0.28973689786E+03  0.28973689786E+03  0.00000000000E+00 0. -1.
         25    2    1    2    0    0 -0.77144820854E+02  0.15278843563E+02 -0.19865096363E+03  0.24757693912E+03  0.12508944394E+03 0.  0.
          5    1    3    3  502    0 -0.68313679120E+01 -0.50259038819E+02 -0.80054848863E+02  0.94862478341E+02  0.41800000000E+01 0. -1.
         -5    1    3    3    0  502 -0.70313452942E+02  0.65537882382E+02 -0.11859611477E+03  0.15271446077E+03  0.41800000000E+01 0. -1.
        -11    1    1    2    0    0  0.39118653535E+02 -0.26105294133E+02 -0.48411041849E+02  0.67493587911E+02  0.00000000000E+00 0. -1.
         11    1    1    2    0    0  0.38026167319E+02  0.10826450570E+02  0.36401097404E+02  0.53742360621E+02  0.00000000000E+00 0.  1.
</event>
<event>
 7    1  0.2733606E-009  0.1085233E+03  0.7561462E-02  0.1263329E+00
         -1   -1    0    0    0  501 -0.00000000000E+00  0.00000000000E+00  0.13699855669E+03  0.13699855669E+03  0.00000000000E+00 0.  1.
          1   -1    0    0  501    0  0.00000000000E+00 -0.00000000000E+00 -0.11519567249E+03  0.11519567249E+03  0.00000000000E+00 0. -1.
         25    2    1    2    0    0 -0.28735359745E+02 -0.59307403987E+02  0.10362965311E+02  0.14177229196E+03  0.12509557406E+03 0.  0.
          5    1    3    3  502    0 -0.44211744619E+02  0.62513390019E+01  0.47013065650E+02  0.64972750775E+02  0.41800000000E+01 0. -1.
         -5    1    3    3    0  502  0.15476384874E+02 -0.65558742989E+02 -0.36650100338E+02  0.76799541183E+02  0.41800000000E+01 0. -1.
        -11    1    1    2    0    0  0.53472092165E+02  0.17738901093E+02  0.22729493087E+02  0.60750005008E+02  0.00000000000E+00 0. -1.
         11    1    1    2    0    0 -0.24736732420E+02  0.41568502894E+02 -0.11289574198E+02  0.49671932208E+02  0.00000000000E+00 0.  1.
</event>
<event>
 7    1  0.2733606E-009  0.1327540E+03  0.7561462E-02  0.1223426E+00
          1   -1    0    0  501    0  0.00000000000E+00  0.00000000000E+00  0.80233117277E+03  0.80233117277E+03  0.00000000000E+00 0. -1.
         -1   -1    0    0    0  501 -0.00000000000E+00 -0.00000000000E+00 -0.25942412473E+02  0.25942412473E+02  0.00000000000E+00 0.  1.
         25    2    1    2    0    0  0.80831482924E+02 -0.38408800240E+02  0.51687712474E+03  0.53927662471E+03  0.12509337037E+03 0.  0.
          5    1    3    3  502    0  0.87157300455E+02  0.16739797870E+02  0.40095515391E+03  0.41068129213E+03  0.41800000000E+01 0. -1.
         -5    1    3    3    0  502 -0.63258175311E+01 -0.55148598110E+02  0.11592197083E+03  0.12859533259E+03  0.41800000000E+01 0. -1.
        -11    1    1    2    0    0  0.25588297443E+00  0.39890285734E+02  0.47653244189E+02  0.62146054209E+02  0.00000000000E+00 0.  1.
         11    1    1    2    0    0 -0.81087365898E+02 -0.14814854938E+01  0.21185839136E+03  0.22685090632E+03  0.00000000000E+00 0. -1.
</event>
<event>
 7    1  0.2733606E-009  0.1263184E+03  0.7561462E-02  0.1233023E+00
          1   -1    0    0  501    0  0.00000000000E+00  0.00000000000E+00  0.15815229011E+03  0.15815229011E+03  0.00000000000E+00 0. -1.
         -1   -1    0    0    0  501 -0.00000000000E+00 -0.00000000000E+00 -0.25867583641E+03  0.25867583641E+03  0.00000000000E+00 0.  1.
         25    2    1    2    0    0  0.10132328869E+02  0.68650333991E+02 -0.21327658178E+03  0.25680911756E+03  0.12509392502E+03 0.  0.
          5    1    3    3  502    0 -0.56923402601E+02  0.35237719955E+02 -0.11541049111E+03  0.13348791904E+03  0.41800000000E+01 0.  1.
         -5    1    3    3    0  502  0.67055731470E+02  0.33412614036E+02 -0.97866090670E+02  0.12332119851E+03  0.41800000000E+01 0.  1.
        -11    1    1    2    0    0 -0.25822766655E+02 -0.84417880708E+02  0.10320986997E+03  0.13581410501E+03  0.00000000000E+00 0.  1.
         11    1    1    2    0    0  0.15690437787E+02  0.15767546718E+02  0.95431655093E+01  0.24204903953E+02  0.00000000000E+00 0. -1.
</event>
<event>
 7    1  0.2733606E-009  0.1107559E+03  0.7561462E-02  0.1259177E+00
         -1   -1    0    0    0  501 -0.00000000000E+00  0.00000000000E+00  0.10954312531E+03  0.10954312531E+03  0.00000000000E+00 0.  1.
          1   -1    0    0  501    0  0.00000000000E+00 -0.00000000000E+00 -0.19386577984E+03  0.19386577984E+03  0.00000000000E+00 0. -1.
         25    2    1    2    0    0  0.42116745971E+02  0.78200350914E+02 -0.89353339802E+01  0.15367758374E+03  0.12509134413E+03 0.  0.
          5    1    3    3  502    0  0.45809763890E+02  0.11444075655E+02 -0.54826597402E+02  0.72477096506E+02  0.41800000000E+01 0. -1.
         -5    1    3    3    0  502 -0.36930179194E+01  0.66756275259E+02  0.45891263422E+02  0.81200487229E+02  0.41800000000E+01 0. -1.
        -11    1    1    2    0    0  0.15099823360E+02 -0.10060687133E+02  0.14520663082E+02  0.23239443785E+02  0.00000000000E+00 0.  1.
         11    1    1    2    0    0 -0.57216569331E+02 -0.68139663781E+02 -0.89907983631E+02  0.12649187763E+03  0.00000000000E+00 0. -1.
</event>
<event>
 7    1  0.2733606E-009  0.1038142E+03  0.7561462E-02  0.1272474E+00
         -3   -1    0    0    0  501 -0.00000000000E+00  0.00000000000E+00  0.85163132157E+02  0.85163132157E+02  0.00000000000E+00 0.  1.
          3   -1    0    0  501    0  0.00000000000E+00 -0.00000000000E+00 -0.14049564234E+03  0.14049564234E+03  0.00000000000E+00 0. -1.
         25    2    1    2    0    0 -0.17655474711E+02  0.13566012088E+02 -0.32296903279E+02  0.13109363977E+03  0.12508676971E+03 0.  0.
          5    1    3    3  502    0 -0.52962788339E+02 -0.37141336763E+02 -0.12013681772E+02  0.65926753256E+02  0.41800000000E+01 0.  1.
         -5    1    3    3    0  502  0.35307313628E+02  0.50707348851E+02 -0.20283221507E+02  0.65166886513E+02  0.41800000000E+01 0.  1.
        -11    1    1    2    0    0  0.48514747661E+02 -0.11998753059E+02 -0.35442309269E+02  0.61268328702E+02  0.00000000000E+00 0. -1.
         11    1    1    2    0    0 -0.30859272950E+02 -0.15672590284E+01  0.12406702366E+02  0.33296806024E+02  0.00000000000E+00 0.  1.
</event>
<event>
 7    1  0.2733606E-009  0.8324821E+02  0.7561462E-02  0.1320078E+00
         -1   -1    0    0    0  501 -0.00000000000E+00  0.00000000000E+00  0.94474561850E+02  0.94474561850E+02  0.00000000000E+00 0.  1.
          1   -1    0    0  501    0  0.00000000000E+00 -0.00000000000E+00 -0.25570781429E+03  0.25570781429E+03  0.00000000000E+00 0. -1.
         25    2    1    2    0    0  0.46055368729E+02 -0.77288383063E+01 -0.19874975620E+03  0.23943424627E+03  0.12508581363E+03 0.  0.
          5    1    3    3  502    0  0.20881075153E+02  0.50769963863E+02 -0.14795301664E+03  0.15786442305E+03  0.41800000000E+01 0. -1.
         -5    1    3    3    0  502  0.25174293576E+02 -0.58498802170E+02 -0.50796739554E+02  0.81569823230E+02  0.41800000000E+01 0. -1.
        -11    1    1    2    0    0 -0.17718211171E+02 -0.15875654637E+01  0.66691455412E+02  0.69023225049E+02  0.00000000000E+00 0.  1.
         11    1    1    2    0    0 -0.28337157558E+02  0.93164037701E+01 -0.29174951655E+02  0.41724904814E+02  0.00000000000E+00 0. -1.
</event>
<event>
 7    1  0.2733606E-009  0.1536656E+03  0.7561462E-02  0.1196040E+00
         -1   -1    0    0    0  501 -0.00000000000E+00  0.00000000000E+00  0.40541136728E+03  0.40541136728E+03  0.00000000000E+00 0.  1.
          1   -1    0    0  501    0  0.00000000000E+00 -0.00000000000E+00 -0.59198207735E+02  0.59198207735E+02  0.00000000000E+00 0. -1.
         25    2    1    2    0    0 -0.41589859485E+01  0.11126189832E+03  0.16629595995E+03  0.23600279886E+03  0.12508584090E+03 0.  0.
          5    1    3    3  502    0 -0.55048853276E+02  0.10019002685E+03  0.10303041509E+03  0.15395179947E+03  0.41800000000E+01 0. -1.
         -5    1    3    3    0  502  0.50889867327E+02  0.11071871472E+02  0.63265544856E+02  0.82050999387E+02  0.41800000000E+01 0. -1.
        -11    1    1    2    0    0  0.43745547258E+02 -0.40537922203E+02  0.84236165276E+02  0.10321205153E+03  0.00000000000E+00 0.  1.
         11    1    1    2    0    0 -0.39586561310E+02 -0.70723976117E+02  0.95681034320E+02  0.12539472462E+03  0.00000000000E+00 0. -1.
</event>
<event>
 7    1  0.2733606E-009  0.1045410E+03  0.7561462E-02  0.1271027E+00
          2   -1    0    0  501    0  0.00000000000E+00  0.00000000000E+00  0.39982903946E+02  0.39982903946E+02  0.00000000000E+00 0. -1.
         -2   -1    0    0    0  501 -0.00000000000E+00 -0.00000000000E+00 -0.52062679426E+03  0.52062679426E+03  0.00000000000E+00 0.  1.
         25    2    1    2    0    0  0.58607774514E+02  0.13312854728E+02 -0.11901039358E+03  0.18282479677E+03  0.12509727895E+03 0.  0.
          5    1    3    3  502    0  0.61854386869E+01  0.50556759110E+02 -0.43414245076E+01  0.51289042789E+02  0.41800000000E+01 0.  1.
         -5    1    3    3    0  502  0.52422335827E+02 -0.37243904383E+02 -0.11466896907E+03  0.13153575398E+03  0.41800000000E+01 0.  1.
        -11    1    1    2    0    0 -0.75213945069E+02 -0.61956285525E+01 -0.34522844107E+03  0.35338109722E+03  0.00000000000E+00 0.  1.
         11    1    1    2    0    0  0.16606170556E+02 -0.71172261751E+01 -0.16405055660E+02  0.24403804215E+02  0.00000000000E+00 0. -1.
</event>
<event>
 7    1  0.2733606E-009  0.1192980E+03  0.7561462E-02  0.1244260E+00
          1   -1    0    0  501    0  0.00000000000E+00  0.00000000000E+00  0.88919937892E+02  0.88919937892E+02  0.00000000000E+00 0. -1.
         -1   -1    0    0    0  501 -0.00000000000E+00 -0.00000000000E+00 -0.19491090824E+03  0.19491090824E+03  0.00000000000E+00 0.  1.
         25    2    1    2    0    0 -0.52454725729E+02  0.44329608541E+02 -0.86975473838E+02  0.16712079241E+03  0.12509202118E+03 0.  0.
          5    1    3    3  502    0  0.32943242762E+02  0.32244431884E+02 -0.25500670025E+01  0.46356616279E+02  0.41800000000E+01 0.  1.
         -5    1    3    3    0  502 -0.85397968491E+02  0.12085176657E+02 -0.84425406836E+02  0.12076417613E+03  0.41800000000E+01 0.  1.
        -11    1    1    2    0    0  0.71667696698E+02 -0.48189685574E+02  0.40328107402E+01  0.86456741254E+02  0.00000000000E+00 0.  1.
         11    1    1    2    0    0 -0.19212970969E+02  0.38600770330E+01 -0.23048307250E+02  0.30253312468E+02  0.00000000000E+00 0. -1.
</event>
<event>
 7    1  0.2733606E-009  0.1000557E+03  0.7561462E-02  0.1280179E+00
         -1   -1    0    0    0  501 -0.00000000000E+00  0.00000000000E+00  0.46759409229E+02  0.46759409229E+02  0.00000000000E+00 0.  1.
          1   -1    0    0  501    0  0.00000000000E+00 -0.00000000000E+00 -0.28251047138E+03  0.28251047138E+03  0.00000000000E+00 0. -1.
         25    2    1    2    0    0 -0.36564019031E+02 -0.16512366762E+02 -0.16081380208E+03  0.20765230921E+03  0.12509523108E+03 0.  0.
          5    1    3    3  502    0 -0.60342417675E+02  0.20913953682E+02 -0.32400431482E+02  0.71734658219E+02  0.41800000000E+01 0. -1.
         -5    1    3    3    0  502  0.23778398644E+02 -0.37426320444E+02 -0.12841337059E+03  0.13591765099E+03  0.41800000000E+01 0. -1.
        -11    1    1    2    0    0 -0.22687937866E+02 -0.12167760609E+02 -0.62773807550E+01  0.26499102475E+02  0.00000000000E+00 0.  1.
         11    1    1    2    0    0  0.59251956897E+02  0.28680127371E+02 -0.68659879323E+02  0.95118468926E+02  0.00000000000E+00 0. -1.
</event>
<event>
 7    1  0.2733606E-009  0.1887612E+03  0.7561462E-02  0.1159583E+00
          4   -1    0    0  501    0  0.00000000000E+00  0.00000000000E+00  0.36202938390E+03  0.36202938390E+03  0.00000000000E+00 0. -1.
         -4   -1    0    0    0  501 -0.00000000000E+00 -0.00000000000E+00 -0.11962895951E+03  0.11962895951E+03  0.00000000000E+00 0.  1.
         25    2    1    2    0    0  0.17452912338E+03  0.40368950740E+02  0.13133225705E+03  0.25493016457E+03  0.12510459612E+03 0.  0.
          5    1    3    3  502    0  0.50766753529E+02  0.20429588144E+01  0.11305790505E+03  0.12402015658E+03  0.41800000000E+01 0. -1.
         -5    1    3    3    0  502  0.12376236985E+03  0.38325991925E+02  0.18274351999E+02  0.13091000798E+03  0.41800000000E+01 0. -1.
        -11    1    1    2    0    0 -0.68117624715E+02  0.24383478741E+02  0.31432505935E+02  0.78883250831E+02  0.00000000000E+00 0.  1.
         11    1    1    2    0    0 -0.10641149867E+03 -0.64752429480E+02  0.79635661404E+02  0.14784492801E+03  0.00000000000E+00 0. -1.
</event>
<event>
 7    1  0.2733606E-009  0.9020915E+02  0.7561462E-02  0.1302346E+00
          1   -1    0    0  501    0  0.00000000000E+00  0.00000000000E+00  0.56174777195E+03  0.56174777195E+03  0.00000000000E+00 0. -1.
         -1   -1    0    0    0  501 -0.00000000000E+00 -0.00000000000E+00 -0.25695447581E+02  0.25695447581E+02  0.00000000000E+00 0.  1.
         25    2    1    2    0    0  0.47138623532E+02  0.22376044066E+02  0.31608744515E+03  0.34392099185E+03  0.12509052115E+03 0.  0.
          5    1    3    3  502    0 -0.12199511392E+02  0.70540766946E+01  0.26099261337E+03  0.26140620634E+03  0.41800000000E+01 0. -1.
         -5    1    3    3    0  502  0.59338134925E+02  0.15321967371E+02  0.55094831773E+02  0.82514785515E+02  0.41800000000E+01 0. -1.
        -11    1    1    2    0    0  0.14817772757E+02 -0.37667271874E+02  0.92790202401E+02  0.10123443792E+03  0.00000000000E+00 0.  1.
         11    1    1    2    0    0 -0.61956396289E+02  0.15291227808E+02  0.12717467682E+03  0.14228778976E+03  0.00000000000E+00 0. -1.
</event>
<event>
 7    1  0.2733606E-009  0.1769579E+03  0.7561462E-02  0.1170780E+00
         -2   -1    0    0    0  501 -0.00000000000E+00  0.00000000000E+00  0.27761015318E+02  0.27761015318E+02  0.00000000000E+00 0.  1.
          2   -1    0    0  501    0  0.00000000000E+00 -0.00000000000E+00 -0.15720185072E+04  0.15720185072E+04  0.00000000000E+00 0. -1.
         25    2    1    2    0    0  0.14959346906E+03  0.63008695609E+02 -0.10849040012E+04  0.11040895671E+04  0.12509507825E+03 0.  0.
          5    1    3    3  502    0  0.11657476569E+03  0.69462813508E+02 -0.10343392899E+04  0.10432113867E+04  0.41800000000E+01 0.  1.
         -5    1    3    3    0  502  0.33018703376E+02 -0.64541178994E+01 -0.50564711386E+02  0.60878180393E+02  0.41800000000E+01 0.  1.
        -11    1    1    2    0    0 -0.13876442544E+03 -0.82870303921E+02 -0.42352745618E+03  0.45331948908E+03  0.00000000000E+00 0.  1.
         11    1    1    2    0    0 -0.10829043625E+02  0.19861608313E+02 -0.35826034427E+02  0.42370466287E+02  0.00000000000E+00 0. -1.
</event>
<event>
 7    1  0.2733606E-009  0.1156798E+03  0.7561462E-02  0.1250399E+00
          3   -1    0    0  501    0  0.00000000000E+00  0.00000000000E+00  0.94456369614E+02  0.94456369614E+02  0.00000000000E+00 0. -1.
         -3   -1    0    0    0  501 -0.00000000000E+00 -0.00000000000E+00 -0.19762048915E+03  0.19762048915E+03  0.00000000000E+00 0.  1.
         25    2    1    2    0    0 -0.83558464085E+02  0.76266963669E+01 -0.46261520215E+02  0.15756621942E+03  0.12508717693E+03 0.  0.
          5    1    3    3  502    0 -0.17398321510E+02 -0.30139243521E+02 -0.69476774954E+02  0.77817544612E+02  0.41800000000E+01 0.  1.
         -5    1    3    3    0  502 -0.66160142575E+02  0.37765939888E+02  0.23215254739E+02  0.79748674809E+02  0.41800000000E+01 0.  1.
        -11    1    1    2    0    0  0.16562134984E+02  0.36301027872E+02 -0.81357386125E+01  0.40721728629E+02  0.00000000000E+00 0. -1.
         11    1    1    2    0    0  0.66996329101E+02 -0.43927724239E+02 -0.48766860712E+02  0.93788910717E+02  0.00000000000E+00 0.  1.
</event>
<event>
 7    1  0.2733606E-009  0.7202431E+02  0.7561462E-02  0.1353342E+00
         -1   -1    0    0    0  501 -0.00000000000E+00  0.00000000000E+00  0.45952592446E+02  0.45952592446E+02  0.00000000000E+00 0.  1.
          1   -1    0    0  501    0  0.00000000000E+00 -0.00000000000E+00 -0.30180488093E+03  0.30180488093E+03  0.00000000000E+00 0. -1.
         25    2    1    2    0    0 -0.15990044269E+02  0.40081687908E+02 -0.10380192320E+03  0.16818072727E+03  0.12509074523E+03 0.  0.
          5    1    3    3  502    0 -0.30997723823E+01 -0.98202550709E+01  0.26098699775E+02  0.28366538887E+02  0.41800000000E+01 0.  1.
         -5    1    3    3    0  502 -0.12890271887E+02  0.49901942979E+02 -0.12990062298E+03  0.13981418838E+03  0.41800000000E+01 0.  1.
        -11    1    1    2    0    0 -0.12805806110E+02 -0.49342553361E+02 -0.13619944368E+03  0.14542683625E+03  0.00000000000E+00 0. -1.
         11    1    1    2    0    0  0.28795850379E+02  0.92608654526E+01 -0.15850921601E+02  0.34149909862E+02  0.00000000000E+00 0.  1.
</event>
<event>
 7    1  0.2733606E-009  0.1153590E+03  0.7561462E-02  0.1250956E+00
          2   -1    0    0  501    0  0.00000000000E+00  0.00000000000E+00  0.12049881102E+04  0.12049881102E+04  0.00000000000E+00 0. -1.
         -2   -1    0    0    0  501 -0.00000000000E+00 -0.00000000000E+00 -0.15420242988E+02  0.15420242988E+02  0.00000000000E+00 0.  1.
         25    2    1    2    0    0 -0.38400485608E+02  0.70883554167E+02  0.74996595238E+03  0.76458986724E+03  0.12509860034E+03 0.  0.
          5    1    3    3  502    0 -0.62874268499E+02  0.51073900079E+02  0.70434998972E+03  0.70900500515E+03  0.41800000000E+01 0. -1.
         -5    1    3    3    0  502  0.24473782890E+02  0.19809654089E+02  0.45615962662E+02  0.55584862091E+02  0.41800000000E+01 0. -1.
        -11    1    1    2    0    0 -0.53367597716E+01  0.18003798198E+02  0.11208574742E+03  0.11364784436E+03  0.00000000000E+00 0. -1.
         11    1    1    2    0    0  0.43737245380E+02 -0.88887352365E+02  0.32751616737E+03  0.34217064154E+03  0.00000000000E+00 0.  1.
</event>
<event>
 7    1  0.2733606E-009  0.1653871E+03  0.7561462E-02  0.1182746E+00
          3   -1    0    0  501    0  0.00000000000E+00  0.00000000000E+00  0.74857901801E+02  0.74857901801E+02  0.00000000000E+00 0. -1.
         -3   -1    0    0    0  501 -0.00000000000E+00 -0.00000000000E+00 -0.44269522036E+03  0.44269522036E+03  0.00000000000E+00 0.  1.
         25    2    1    2    0    0 -0.10814947577E+02 -0.13684467012E+03 -0.27047591206E+03  0.32809743282E+03  0.12508908660E+03 0.  0.
          5    1    3    3  502    0 -0.12661761613E+02 -0.15297883797E+03 -0.18236840387E+03  0.23840837276E+03  0.41800000000E+01 0. -1.
         -5    1    3    3    0  502  0.18468140358E+01  0.16134167847E+02 -0.88107508189E+02  0.89689060054E+02  0.41800000000E+01 0. -1.
        -11    1    1    2    0    0  0.47156797100E+02  0.70887727793E+02 -0.66660601590E+02  0.10813172184E+03  0.00000000000E+00 0.  1.
         11    1    1    2    0    0 -0.36341849523E+02  0.65956942330E+02 -0.30700804914E+02  0.81323967504E+02  0.00000000000E+00 0. -1.
</event>
<event>
 7    1  0.2733606E-009  0.4788991E+02  0.7561462E-02  0.1457067E+00
          1   -1    0    0  501    0  0.00000000000E+00  0.00000000000E+00  0.16762759780E+03  0.16762759780E+03  0.00000000000E+00 0. -1.
         -1   -1    0    0    0  501 -0.00000000000E+00 -0.00000000000E+00 -0.55446220929E+02  0.55446220929E+02  0.00000000000E+00 0.  1.
         25    2    1    2    0    0  0.22535128098E+02  0.13495048207E+02  0.42402151369E+02  0.13468532156E+03  0.12510893284E+03 0.  0.
          5    1    3    3  502    0 -0.26058602183E+01  0.17478178352E+02 -0.42358273989E+02  0.46086581575E+02  0.41800000000E+01 0.  1.
         -5    1    3    3    0  502  0.25140988316E+02 -0.39831301454E+01  0.84760425358E+02  0.88598739981E+02  0.41800000000E+01 0.  1.
        -11    1    1    2    0    0 -0.24354815990E+01 -0.27321155336E+02  0.23701491956E+02  0.36251038888E+02  0.00000000000E+00 0.  1.
         11    1    1    2    0    0 -0.20099646499E+02  0.13826107129E+02  0.46077733546E+02  0.52137458285E+02  0.00000000000E+00 0. -1.
</event>
<event>
 7    1  0.2733606E-009  0.7158669E+02  0.7561462E-02  0.1354779E+00
         -1   -1    0    0    0  501 -0.00000000000E+00  0.00000000000E+00  0.73130278215E+02  0.73130278215E+02  0.00000000000E+00 0.  1.
          1   -1    0    0  501    0  0.00000000000E+00 -0.00000000000E+00 -0.18240656851E+03  0.18240656851E+03  0.00000000000E+00 0. -1.
         25    2    1    2    0    0 -0.24869574184E+02  0.19198799658E+02 -0.86143061571E+02  0.15509789319E+03  0.12509052637E+03 0.  0.
          5    1    3    3  502    0 -0.32012349531E+01 -0.10722470252E+02 -0.11017989449E+03  0.11082554229E+03  0.41800000000E+01 0.  1.
         -5    1    3    3    0  502 -0.21668339231E+02  0.29921269910E+02  0.24036832919E+02  0.44272350907E+02  0.41800000000E+01 0.  1.
        -11    1    1    2    0    0  0.25899885147E+02 -0.53654181946E+02 -0.12165138419E+01  0.59590730796E+02  0.00000000000E+00 0.  1.
         11    1    1    2    0    0 -0.10303109632E+01  0.34455382287E+02 -0.21916714879E+02  0.40848222731E+02  0.00000000000E+00 0. -1.
</event>
<event>
 7    1  0.2733606E-009  0.8269129E+02  0.7561462E-02  0.1321583E+00
         -4   -1    0    0    0  501 -0.00000000000E+00  0.00000000000E+00  0.15615289816E+03  0.15615289816E+03  0.00000000000E+00 0.  1.
          4   -1    0    0  501    0  0.00000000000E+00 -0.00000000000E+00 -0.10536239761E+03  0.10536239761E+03  0.00000000000E+00 0. -1.
         25    2    1    2    0    0 -0.14600991704E+02  0.35726440332E+02 -0.29323139527E+02  0.13415579542E+03  0.12509341883E+03 0.  0.
          5    1    3    3  502    0 -0.49702719103E+02 -0.25551951665E+02  0.35354516888E+01  0.56153667189E+02  0.41800000000E+01 0. -1.
         -5    1    3    3    0  502  0.35101727399E+02  0.61278391996E+02 -0.32858591216E+02  0.78002128232E+02  0.41800000000E+01 0. -1.
        -11    1    1    2    0    0  0.98372738428E+01 -0.24538926774E+02  0.10033733541E+03  0.10376180299E+03  0.00000000000E+00 0.  1.
         11    1    1    2    0    0  0.47637178615E+01 -0.11187513558E+02 -0.20223695335E+02  0.23597697356E+02  0.00000000000E+00 0. -1.
</event>
<event>
 7    1  0.2733606E-009  0.8620260E+02  0.7561462E-02  0.1312317E+00
         -2   -1    0    0    0  501 -0.00000000000E+00  0.00000000000E+00  0.19241294048E+02  0.19241294048E+02  0.00000000000E+00 0. -1.
          2   -1    0    0  501    0  0.00000000000E+00 -0.00000000000E+00 -0.63091465870E+03  0.63091465870E+03  0.00000000000E+00 0.  1.
         25    2    1    2    0    0 -0.12052075649E+02 -0.11033615153E+02 -0.40835772753E+03  0.42740218388E+03  0.12509836116E+03 0.  0.
          5    1    3    3  502    0 -0.44257682397E+02  0.58243464370E+01 -0.37567448952E+03  0.37834040220E+03  0.41800000000E+01 0.  1.
         -5    1    3    3    0  502  0.32205606748E+02 -0.16857961590E+02 -0.32683238005E+02  0.49061781679E+02  0.41800000000E+01 0.  1.
        -11    1    1    2    0    0  0.46462807785E+02  0.26238728901E+02 -0.11664761923E+03  0.12827287505E+03  0.00000000000E+00 0.  1.
         11    1    1    2    0    0 -0.34410732137E+02 -0.15205113749E+02 -0.86668017890E+02  0.94480893811E+02  0.00000000000E+00 0. -1.
</event>
<event>
 7    1  0.2733606E-009  0.2468604E+03  0.7561462E-02  0.1115305E+00
         -2   -1    0    0    0  501 -0.00000000000E+00  0.00000000000E+00  0.26282044430E+03  0.26282044430E+03  0.00000000000E+00 0. -1.
          2   -1    0    0  501    0  0.00000000000E+00 -0.00000000000E+00 -0.27476695298E+03  0.27476695298E+03  0.00000000000E+00 0.  1.
         25    2    1    2    0    0 -0.12241237277E+02 -0.24254464170E+03 -0.41526322990E+02  0.27631414283E+03  0.12508924380E+03 0.  0.
          5    1    3    3  502    0  0.99735414385E+01 -0.11245852162E+03 -0.80411440676E+02  0.13867178086E+03  0.41800000000E+01 0.  1.
         -5    1    3    3    0  502 -0.22214778716E+02 -0.13008612008E+03  0.38885117686E+02  0.13764236197E+03  0.41800000000E+01 0.  1.
        -11    1    1    2    0    0  0.31473157771E+02  0.99042621229E+02 -0.24406783267E+02  0.10675060445E+03  0.00000000000E+00 0.  1.
         11    1    1    2    0    0 -0.19231920493E+02  0.14350202047E+03  0.53986597578E+02  0.15452265000E+03  0.00000000000E+00 0. -1.
</event>
<event>
 7    1  0.2733606E-009  0.1412613E+03  0.7561462E-02  0.1211642E+00
          2   -1    0    0  501    0  0.00000000000E+00  0.00000000000E+00  0.66984976821E+02  0.66984976821E+02  0.00000000000E+00 0. -1.
         -2   -1    0    0    0  501 -0.00000000000E+00 -0.00000000000E+00 -0.33678248758E+03  0.33678248758E+03  0.00000000000E+00 0.  1.
         25    2    1    2    0    0  0.10401073445E+03  0.88435471159E+01 -0.14748883606E+03  0.21976260628E+03  0.12508479184E+03 0.  0.
          5    1    3    3  502    0  0.30457392144E+02  0.62593166080E+02 -0.47183512966E+02  0.84198060975E+02  0.41800000000E+01 0.  1.
         -5    1    3    3    0  502  0.73553342305E+02 -0.53749618964E+02 -0.10030532310E+03  0.13556454531E+03  0.41800000000E+01 0.  1.
        -11    1    1    2    0    0 -0.84743752388E+02 -0.32781486984E+02 -0.12341555539E+03  0.15325641510E+03  0.00000000000E+00 0.  1.
         11    1    1    2    0    0 -0.19266982061E+02  0.23937939868E+02  0.11068806978E+01  0.30748443013E+02  0.00000000000E+00 0. -1.
</event>
<event>
 7    1  0.3015164E-009  0.2664809E+03  0.7561462E-02  0.1103311E+00
          1   -1    0    0  501    0  0.00000000000E+00  0.00000000000E+00  0.12956279527E+04  0.12956279527E+04  0.00000000000E+00 0. -1.
         -1   -1    0    0    0  501 -0.00000000000E+00 -0.00000000000E+00 -0.59780202909E+02  0.59780202909E+02  0.00000000000E+00 0.  1.
         25    2    1    2    0    0 -0.13171594551E+02 -0.25188091724E+03  0.73709151385E+03  0.78902988107E+03  0.12508703392E+03 0.  0.
          5    1    3    3  502    0  0.47538133635E+02 -0.83993193893E+02  0.34343094347E+03  0.35675904488E+03  0.41800000000E+01 0. -1.
         -5    1    3    3    0  502 -0.60709728186E+02 -0.16788772335E+03  0.39366057038E+03  0.43227083619E+03  0.41800000000E+01 0. -1.
        -11    1    1    2    0    0 -0.20610913059E+02  0.11193492762E+03  0.14418300197E+03  0.18369261231E+03  0.00000000000E+00 0.  1.
         11    1    1    2    0    0  0.33782507610E+02  0.13994598962E+03  0.35457323401E+03  0.38268566227E+03  0.00000000000E+00 0. -1.
</event>
<event>
 7    1  0.2733606E-009  0.7782086E+02  0.7561462E-02  0.1335352E+00
         -1   -1    0    0    0  501 -0.00000000000E+00  0.00000000000E+00  0.86360456031E+02  0.86360456031E+02  0.00000000000E+00 0.  1.
          1   -1    0    0  501    0  0.00000000000E+00 -0.00000000000E+00 -0.15184270037E+03  0.15184270037E+03  0.00000000000E+00 0. -1.
         25    2    1    2    0    0  0.29547762219E+01  0.25537921176E+02 -0.48969961335E+02  0.13676866472E+03  0.12508674756E+03 0.  0.
          5    1    3    3  502    0  0.42467896200E+01  0.68750573975E+02 -0.60562306606E+02  0.91814715734E+02  0.41800000000E+01 0. -1.
         -5    1    3    3    0  502 -0.12920133981E+01 -0.43212652799E+02  0.11592345270E+02  0.44953948986E+02  0.41800000000E+01 0. -1.
        -11    1    1    2    0    0  0.15924288105E+02 -0.10660019269E+02  0.37612254475E+02  0.42212565063E+02  0.00000000000E+00 0.  1.
         11    1    1    2    0    0 -0.18879064327E+02 -0.14877901907E+02 -0.54124537482E+02  0.59221926621E+02  0.00000000000E+00 0. -1.
</event>
<event>
 7    1  0.2733606E-009  0.1150155E+03  0.7561462E-02  0.1251554E+00
         -3   -1    0    0    0  501 -0.00000000000E+00  0.00000000000E+00  0.47685360784E+03  0.47685360784E+03  0.00000000000E+00 0.  1.
          3   -1    0    0  501    0  0.00000000000E+00 -0.00000000000E+00 -0.40554697126E+02  0.40554697126E+02  0.00000000000E+00 0. -1.
         25    2    1    2    0    0 -0.25202371243E+02 -0.66402898184E+02  0.14894320662E+03  0.20706522715E+03  0.12508966822E+03 0.  0.
          5    1    3    3  502    0  0.30770844054E+02 -0.46160747023E+02  0.13467745213E+03  0.14571598375E+03  0.41800000000E+01 0. -1.
         -5    1    3    3    0  502 -0.55973215298E+02 -0.20242151161E+02  0.14265754487E+02  0.61349243398E+02  0.41800000000E+01 0. -1.
        -11    1    1    2    0    0  0.85813821254E+01 -0.22607101741E+02  0.90256075012E+02  0.93439179389E+02  0.00000000000E+00 0.  1.
         11    1    1    2    0    0  0.16620989118E+02  0.89009999925E+02  0.19709962909E+03  0.21690389843E+03  0.00000000000E+00 0. -1.
</event>
<event>
 7    1  0.5184902E-009  0.1329271E+03  0.7561462E-02  0.1223176E+00
          4   -1    0    0  501    0  0.00000000000E+00  0.00000000000E+00  0.29689268059E+03  0.29689268059E+03  0.00000000000E+00 0. -1.
         -4   -1    0    0    0  501 -0.00000000000E+00 -0.00000000000E+00 -0.71485336884E+02  0.71485336884E+02  0.00000000000E+00 0.  1.
         25    2    1    2    0    0 -0.94802871164E+02 -0.20518262179E+02  0.11832661470E+03  0.19763191850E+03  0.12509438037E+03 0.  0.
          5    1    3    3  502    0 -0.11244103006E+03  0.16636613249E+02  0.10328641035E+03  0.15364021969E+03  0.41800000000E+01 0.  1.
         -5    1    3    3    0  502  0.17638158898E+02 -0.37154875428E+02  0.15040204344E+02  0.43991698809E+02  0.41800000000E+01 0.  1.
        -11    1    1    2    0    0  0.23044589518E+02 -0.18080280513E+02 -0.74173024461E+01  0.30215327651E+02  0.00000000000E+00 0.  1.
         11    1    1    2    0    0  0.71758281646E+02  0.38598542692E+02  0.11449803146E+03  0.14053077133E+03  0.00000000000E+00 0. -1.
</event>
<event>
 7    1  0.2733606E-009  0.1314213E+03  0.7561462E-02  0.1225362E+00
         -1   -1    0    0    0  501 -0.00000000000E+00  0.00000000000E+00  0.33867887275E+03  0.33867887275E+03  0.00000000000E+00 0.  1.
          1   -1    0    0  501    0  0.00000000000E+00 -0.00000000000E+00 -0.84803065813E+02  0.84803065813E+02  0.00000000000E+00 0. -1.
         25    2    1    2    0    0  0.29797524465E+02 -0.11996271206E+03  0.18253580416E+03  0.25346552872E+03  0.12508600921E+03 0.  0.
          5    1    3    3  502    0  0.42613118573E+02 -0.75303475111E+02  0.18750919972E+03  0.20655184244E+03  0.41800000000E+01 0.  1.
         -5    1    3    3    0  502 -0.12815594109E+02 -0.44659236944E+02 -0.49733955545E+01  0.46913686278E+02  0.41800000000E+01 0.  1.
        -11    1    1    2    0    0 -0.14566697721E+02  0.80887260389E+01 -0.19105839820E+02  0.25350528331E+02  0.00000000000E+00 0. -1.
         11    1    1    2    0    0 -0.15230826744E+02  0.11187398602E+03  0.90445842591E+02  0.14466588151E+03  0.00000000000E+00 0.  1.
</event>
<event>
 7    1  0.2733606E-009  0.1737950E+03  0.7561462E-02  0.1173947E+00
          1   -1    0    0  501    0  0.00000000000E+00  0.00000000000E+00  0.25425027245E+03  0.25425027245E+03  0.00000000000E+00 0. -1.
         -1   -1    0    0    0  501 -0.00000000000E+00 -0.00000000000E+00 -0.15247848964E+03  0.15247848964E+03  0.00000000000E+00 0.  1.
         25    2    1    2    0    0 -0.25620672792E+02 -0.14845847865E+03 -0.11375821170E+02  0.19614541663E+03  0.12508907387E+03 0.  0.
          5    1    3    3  502    0  0.29966950266E+02 -0.10591598136E+03 -0.44237185622E+02  0.11870389298E+03  0.41800000000E+01 0.  1.
         -5    1    3    3    0  502 -0.55587623058E+02 -0.42542497283E+02  0.32861364452E+02  0.77441523654E+02  0.41800000000E+01 0.  1.
        -11    1    1    2    0    0  0.47267387588E+02  0.13173791061E+03  0.63054002307E+02  0.15350859985E+03  0.00000000000E+00 0.  1.
         11    1    1    2    0    0 -0.21646714796E+02  0.16720568038E+02  0.50093601675E+02  0.57074745604E+02  0.00000000000E+00 0. -1.
</event>
<event>
 7    1  0.2733606E-009  0.1100903E+03  0.7561462E-02  0.1260403E+00
         -1   -1    0    0    0  501 -0.00000000000E+00  0.00000000000E+00  0.49885567159E+02  0.49885567159E+02  0.00000000000E+00 0.  1.
          1   -1    0    0  501    0  0.00000000000E+00 -0.00000000000E+00 -0.25570408220E+03  0.25570408220E+03  0.00000000000E+00 0. -1.
         25    2    1    2    0    0 -0.10977774761E+02  0.28759051290E+02 -0.11629311665E+03  0.17354902211E+03  0.12509028549E+03 0.  0.
          5    1    3    3  502    0 -0.13141650150E+02  0.75592832961E+02 -0.47980529785E+02  0.90590192638E+02  0.41800000000E+01 0.  1.
         -5    1    3    3    0  502  0.21638753887E+01 -0.46833781671E+02 -0.68312586869E+02  0.82958829469E+02  0.41800000000E+01 0.  1.
        -11    1    1    2    0    0  0.49505750191E+02 -0.23523194106E+01 -0.54448355909E+02  0.73627278707E+02  0.00000000000E+00 0.  1.
         11    1    1    2    0    0 -0.38527975430E+02 -0.26406731880E+02 -0.35077042479E+02  0.58413348546E+02  0.00000000000E+00 0. -1.
</event>
<event>
 7    1  0.2733606E-009  0.1339421E+03  0.7561462E-02  0.1221721E+00
         -1   -1    0    0    0  501 -0.00000000000E+00  0.00000000000E+00  0.12972958658E+03  0.12972958658E+03  0.00000000000E+00 0.  1.
          1   -1    0    0  501    0  0.00000000000E+00 -0.00000000000E+00 -0.16845155972E+03  0.16845155972E+03  0.00000000000E+00 0. -1.
         25    2    1    2    0    0  0.73185815501E+02 -0.64549831879E+02 -0.20789331754E+02  0.16001282856E+03  0.12509622137E+03 0.  0.
          5    1    3    3  502    0  0.11264003250E+02 -0.68527055644E+02 -0.55314581107E+02  0.88882002720E+02  0.41800000000E+01 0. -1.
         -5    1    3    3    0  502  0.61921812251E+02  0.39772237651E+01  0.34525249353E+02  0.71130825837E+02  0.41800000000E+01 0. -1.
        -11    1    1    2    0    0 -0.16677882821E+02  0.76556821512E+02 -0.25856941294E+01  0.78395054114E+02  0.00000000000E+00 0.  1.
         11    1    1    2    0    0 -0.56507932680E+02 -0.12006989633E+02 -0.15346947255E+02  0.59773263638E+02  0.00000000000E+00 0. -1.
</event>
<event>
 7    1  0.2733606E-009  0.1423123E+03  0.7561462E-02  0.1210251E+00
         -1   -1    0    0    0  501 -0.00000000000E+00  0.00000000000E+00  0.85805904381E+02  0.85805904381E+02  0.00000000000E+00 0.  1.
          1   -1    0    0  501    0  0.00000000000E+00 -0.00000000000E+00 -0.35969645469E+03  0.35969645469E+03  0.00000000000E+00 0. -1.
         25    2    1    2    0    0  0.89965937311E+02 -0.69412845835E+02 -0.24590281249E+03  0.29837492578E+03  0.12508952834E+03 0.  0.
          5    1    3    3  502    0  0.47208611412E+02  0.21681224752E+02 -0.29997344677E+02  0.60133531294E+02  0.41800000000E+01 0. -1.
         -5    1    3    3    0  502  0.42757325899E+02 -0.91094070587E+02 -0.21590546781E+03  0.23824139449E+03  0.41800000000E+01 0. -1.
        -11    1    1    2    0    0  0.88958518058E+01  0.18639085368E+02  0.17471356185E+02  0.27051801597E+02  0.00000000000E+00 0.  1.
         11    1    1    2    0    0 -0.98861789117E+02  0.50773760467E+02 -0.45459094001E+02  0.12007563169E+03  0.00000000000E+00 0. -1.
</event>
<event>
 7    1  0.2733606E-009  0.1037189E+03  0.7561462E-02  0.1272665E+00
         -1   -1    0    0    0  501 -0.00000000000E+00  0.00000000000E+00  0.16001635727E+03  0.16001635727E+03  0.00000000000E+00 0.  1.
          1   -1    0    0  501    0  0.00000000000E+00 -0.00000000000E+00 -0.94152313839E+02  0.94152313839E+02  0.00000000000E+00 0. -1.
         25    2    1    2    0    0  0.32385652985E+02  0.37731142021E+02  0.73027873203E+02  0.15314873381E+03  0.12509594240E+03 0.  0.
          5    1    3    3  502    0  0.55483171727E+02 -0.18904249480E+02  0.12834017544E+01  0.58778163575E+02  0.41800000000E+01 0.  1.
         -5    1    3    3    0  502 -0.23097518742E+02  0.56635391501E+02  0.71744471448E+02  0.94370570232E+02  0.41800000000E+01 0.  1.
        -11    1    1    2    0    0 -0.54823607896E+02 -0.18639371932E+02  0.19684903672E+02  0.61160032712E+02  0.00000000000E+00 0.  1.
         11    1    1    2    0    0  0.22437954911E+02 -0.19091770089E+02 -0.26848733449E+02  0.39859904585E+02  0.00000000000E+00 0. -1.
</event>
<event>
 7    1  0.2733606E-009  0.1411632E+03  0.7561462E-02  0.1211772E+00
         -1   -1    0    0    0  501 -0.00000000000E+00  0.00000000000E+00  0.35583066946E+03  0.35583066946E+03  0.00000000000E+00 0.  1.
          1   -1    0    0  501    0  0.00000000000E+00 -0.00000000000E+00 -0.62241281470E+02  0.62241281470E+02  0.00000000000E+00 0. -1.
         25    2    1    2    0    0  0.82415935253E+02 -0.59743685212E+02  0.17326995781E+03  0.23671232473E+03  0.12509417290E+03 0.  0.
          5    1    3    3  502    0  0.47607237476E+02  0.35611274247E+02  0.60446337913E+02  0.84887243333E+02  0.41800000000E+01 0. -1.
         -5    1    3    3    0  502  0.34808697777E+02 -0.95354959459E+02  0.11282361990E+03  0.15182508140E+03  0.41800000000E+01 0. -1.
        -11    1    1    2    0    0 -0.10638598046E+02  0.47053134167E+02  0.90600798344E+02  0.10264346966E+03  0.00000000000E+00 0.  1.
         11    1    1    2    0    0 -0.71777337207E+02  0.12690551046E+02  0.29718631834E+02  0.78716156540E+02  0.00000000000E+00 0. -1.
</event>
<event>
 7    1  0.2733606E-009  0.1118708E+03  0.7561462E-02  0.1257144E+00
          1   -1    0    0  501    0  0.00000000000E+00  0.00000000000E+00  0.21963417239E+03  0.21963417239E+03  0.00000000000E+00 0. -1.
         -1   -1    0    0    0  501 -0.00000000000E+00 -0.00000000000E+00 -0.59181783668E+02  0.59181783668E+02  0.00000000000E+00 0.  1.
         25    2    1    2    0    0 -0.40911109940E+01 -0.35321109776E+02  0.10479033886E+03  0.16700982563E+03  0.12508776420E+03 0.  0.
          5    1    3    3  502    0 -0.42169257514E+02  0.29408644521E+02  0.24875499550E+02  0.57265849594E+02  0.41800000000E+01 0. -1.
         -5    1    3    3    0  502  0.38078146520E+02 -0.64729754297E+02  0.79914839307E+02  0.10974397603E+03  0.41800000000E+01 0. -1.
        -11    1    1    2    0    0  0.29066504126E+02  0.56929001818E+02  0.37781764825E+02  0.74251159340E+02  0.00000000000E+00 0.  1.
         11    1    1    2    0    0 -0.24975393132E+02 -0.21607892042E+02  0.17880285040E+02  0.37554971092E+02  0.00000000000E+00 0. -1.
</event>
<event>
 7    1  0.2733606E-009  0.9163487E+02  0.7561462E-02  0.1298940E+00
          1   -1    0    0  501    0  0.00000000000E+00  0.00000000000E+00  0.32249173906E+03  0.32249173906E+03  0.00000000000E+00 0. -1.
         -1   -1    0    0    0  501 -0.00000000000E+00 -0.00000000000E+00 -0.48627011238E+02  0.48627011238E+02  0.00000000000E+00 0.  1.
         25    2    1    2    0    0 -0.28935746520E+02  0.37653807984E+02  0.21486710539E+03  0.25312073916E+03  0.12508856435E+03 0.  0.
          5    1    3    3  502    0 -0.50043198620E+02  0.40858981804E+02  0.22118682981E+03  0.23046662275E+03  0.41800000000E+01 0. -1.
         -5    1    3    3    0  502  0.21107452101E+02 -0.32051738197E+01 -0.63197244180E+01  0.22654116406E+02  0.41800000000E+01 0. -1.
        -11    1    1    2    0    0  0.50293804681E+02 -0.50969996489E+02  0.59074218403E+02  0.92828716523E+02  0.00000000000E+00 0. -1.
         11    1    1    2    0    0 -0.21358058162E+02  0.13316188505E+02 -0.76595969265E-01  0.25169294620E+02  0.00000000000E+00 0.  1.
</event>
<event>
 7    1  0.2733606E-009  0.8709609E+02  0.7561462E-02  0.1310040E+00
         -1   -1    0    0    0  501 -0.00000000000E+00  0.00000000000E+00  0.11726529780E+03  0.11726529780E+03  0.00000000000E+00 0.  1.
          1   -1    0    0  501    0  0.00000000000E+00 -0.00000000000E+00 -0.11694015320E+03  0.11694015320E+03  0.00000000000E+00 0. -1.
         25    2    1    2    0    0 -0.76744116546E+01  0.64122433777E+01  0.42664909887E+02  0.13254274358E+03  0.12508905180E+03 0.  0.
          5    1    3    3  502    0 -0.21035217629E+02 -0.33343683219E+02 -0.29194125185E+02  0.49234651788E+02  0.41800000000E+01 0.  1.
         -5    1    3    3    0  502  0.13360805975E+02  0.39755926597E+02  0.71859035072E+02  0.83308091788E+02  0.41800000000E+01 0.  1.
        -11    1    1    2    0    0 -0.17224173616E+02  0.37866043179E+02 -0.17810061312E+02  0.45251604024E+02  0.00000000000E+00 0. -1.
         11    1    1    2    0    0  0.24898585271E+02 -0.44278286557E+02 -0.24529703976E+02  0.56411103393E+02  0.00000000000E+00 0.  1.
</event>
<event>
 7    1  0.2733606E-009  0.1422126E+03  0.7561462E-02  0.1210382E+00
          2   -1    0    0  501    0  0.00000000000E+00  0.00000000000E+00  0.40940975616E+03  0.40940975616E+03  0.00000000000E+00 0. -1.
         -2   -1    0    0    0  501 -0.00000000000E+00 -0.00000000000E+00 -0.57105554054E+02  0.57105554054E+02  0.00000000000E+00 0.  1.
         25    2    1    2    0    0 -0.63587915653E+01  0.10791331160E+03  0.17165988387E+03  0.23832748082E+03  0.12508858995E+03 0.  0.
          5    1    3    3  502    0  0.25286412226E+02 -0.64751386623E+01  0.91012876960E+02  0.94774185496E+02  0.41800000000E+01 0. -1.
         -5    1    3    3    0  502 -0.31645203791E+02  0.11438845026E+03  0.80647006905E+02  0.14355329533E+03  0.41800000000E+01 0. -1.
        -11    1    1    2    0    0  0.34029855621E+01 -0.12340940477E+03  0.16373244736E+03  0.20506041991E+03  0.00000000000E+00 0. -1.
         11    1    1    2    0    0  0.29558060032E+01  0.15496093167E+02  0.16911870880E+02  0.23127409480E+02  0.00000000000E+00 0.  1.
</event>
<event>
 7    1  0.2733606E-009  0.1002946E+03  0.7561462E-02  0.1279678E+00
         -2   -1    0    0    0  501 -0.00000000000E+00  0.00000000000E+00  0.10250285791E+03  0.10250285791E+03  0.00000000000E+00 0. -1.
          2   -1    0    0  501    0  0.00000000000E+00 -0.00000000000E+00 -0.18060138995E+03  0.18060138995E+03  0.00000000000E+00 0.  1.
         25    2    1    2    0    0 -0.37207210617E+02 -0.72171253538E+02 -0.29095939921E+02  0.15194691662E+03  0.12509286707E+03 0.  0.
          5    1    3    3  502    0 -0.36828855130E+02 -0.39641697092E+02 -0.76809126722E+02  0.94047557471E+02  0.41800000000E+01 0.  1.
         -5    1    3    3    0  502 -0.37835548705E+00 -0.32529556446E+02  0.47713186801E+02  0.57899359151E+02  0.41800000000E+01 0.  1.
        -11    1    1    2    0    0 -0.24924356581E+02  0.15020491858E+02  0.68994990881E+01  0.29907220103E+02  0.00000000000E+00 0.  1.
         11    1    1    2    0    0  0.62131567198E+02  0.57150761680E+02 -0.55902091214E+02  0.10125011114E+03  0.00000000000E+00 0. -1.
</event>
<event>
 7    1  0.2733606E-009  0.6119390E+02  0.7561462E-02  0.1392889E+00
          2   -1    0    0  501    0  0.00000000000E+00  0.00000000000E+00  0.75674930049E+02  0.75674930049E+02  0.00000000000E+00 0. -1.
         -2   -1    0    0    0  501 -0.00000000000E+00 -0.00000000000E+00 -0.23210725663E+03  0.23210725663E+03  0.00000000000E+00 0.  1.
         25    2    1    2    0    0  0.52961073091E+02  0.28583459209E+02 -0.33768156058E+02  0.14286249464E+03  0.12509002601E+03 0.  0.
          5    1    3    3  502    0  0.94716367826E+01  0.48832392913E+01 -0.76477465811E+02  0.77329380614E+02  0.41800000000E+01 0.  1.
         -5    1    3    3    0  502  0.43489436308E+02  0.23700219918E+02  0.42709309753E+02  0.65533114027E+02  0.41800000000E+01 0.  1.
        -11    1    1    2    0    0 -0.27098785935E+02 -0.82147432659E+01  0.85973712778E+01  0.29592921433E+02  0.00000000000E+00 0. -1.
         11    1    1    2    0    0 -0.25862287156E+02 -0.20368715943E+02 -0.13126154180E+03  0.13532677060E+03  0.00000000000E+00 0.  1.
</event>
<event>
 7    1  0.2733606E-009  0.1084625E+03  0.7561462E-02  0.1263444E+00
          1   -1    0    0  501    0  0.00000000000E+00  0.00000000000E+00  0.13746222687E+04  0.13746222687E+04  0.00000000000E+00 0. -1.
         -1   -1    0    0    0  501 -0.00000000000E+00 -0.00000000000E+00 -0.18275727627E+02  0.18275727627E+02  0.00000000000E+00 0.  1.
         25    2    1    2    0    0 -0.76376924004E+02  0.36138811846E+02  0.10787987871E+04  0.10893086615E+04  0.12508832307E+03 0.  0.
          5    1    3    3  502    0 -0.37033331732E+02 -0.18345502423E+02  0.10119713846E+03  0.10939085131E+03  0.41800000000E+01 0.  1.
         -5    1    3    3    0  502 -0.39343592271E+02  0.54484314268E+02  0.97760164868E+03  0.97991781015E+03  0.41800000000E+01 0.  1.
        -11    1    1    2    0    0  0.55940460120E+02 -0.56284065064E+02  0.25509519752E+03  0.26715312249E+03  0.00000000000E+00 0. -1.
         11    1    1    2    0    0  0.20436463884E+02  0.20145253218E+02  0.22452556445E+02  0.36436212403E+02  0.00000000000E+00 0.  1.
</event>
<event>
 7    1  0.2733606E-009  0.2416091E+03  0.7561462E-02  0.1118726E+00
         -1   -1    0    0    0  501 -0.00000000000E+00  0.00000000000E+00  0.34447717009E+03  0.34447717009E+03  0.00000000000E+00 0.  1.
          1   -1    0    0  501    0  0.00000000000E+00 -0.00000000000E+00 -0.19284971553E+03  0.19284971553E+03  0.00000000000E+00 0. -1.
         25    2    1    2    0    0  0.66501574173E+02 -0.22268398368E+03  0.10289644548E+03  0.28327806520E+03  0.12509263678E+03 0.  0.
          5    1    3    3  502    0  0.86380792547E+02 -0.20809335386E+03  0.11767934940E+03  0.25422507137E+03  0.41800000000E+01 0.  1.
         -5    1    3    3    0  502 -0.19879218374E+02 -0.14590629821E+02 -0.14782903920E+02  0.29052993823E+02  0.41800000000E+01 0.  1.
        -11    1    1    2    0    0 -0.60546499098E+02  0.21344982524E+03  0.67835928507E+02  0.23200952490E+03  0.00000000000E+00 0.  1.
         11    1    1    2    0    0 -0.59550750747E+01  0.92341584341E+01 -0.19104919419E+02  0.22039295522E+02  0.00000000000E+00 0. -1.
</event>
<event>
 7    1  0.2733606E-009  0.7143357E+02  0.7561462E-02  0.1355285E+00
          2   -1    0    0  501    0  0.00000000000E+00  0.00000000000E+00  0.40060868991E+03  0.40060868991E+03  0.00000000000E+00 0.  1.
         -2   -1    0    0    0  501 -0.00000000000E+00 -0.00000000000E+00 -0.27433230742E+02  0.27433230742E+02  0.00000000000E+00 0. -1.
         25    2    1    2    0    0 -0.34374148792E+02  0.39941949107E+02  0.22230864654E+03  0.26047199762E+03  0.12509031062E+03 0.  0.
          5    1    3    3  502    0 -0.29202033881E+02  0.52151982302E+02  0.28826258522E+02  0.66490703269E+02  0.41800000000E+01 0.  1.
         -5    1    3    3    0  502 -0.51721149114E+01 -0.12210033195E+02  0.19348238802E+03  0.19398129435E+03  0.41800000000E+01 0.  1.
        -11    1    1    2    0    0 -0.10525806445E+02 -0.12832670631E+02  0.63819595315E+02  0.65942480868E+02  0.00000000000E+00 0. -1.
         11    1    1    2    0    0  0.44899955238E+02 -0.27109278476E+02  0.87047217315E+02  0.10162744217E+03  0.00000000000E+00 0.  1.
</event>
<event>
 7    1  0.2733606E-009  0.1093973E+03  0.7561462E-02  0.1261690E+00
          1   -1    0    0  501    0  0.00000000000E+00  0.00000000000E+00  0.43788505024E+03  0.43788505024E+03  0.00000000000E+00 0. -1.
         -1   -1    0    0    0  501 -0.00000000000E+00 -0.00000000000E+00 -0.60593039083E+02  0.60593039083E+02  0.00000000000E+00 0.  1.
         25    2    1    2    0    0 -0.85852726674E+02  0.33067752761E+02  0.32279272900E+03  0.35819981018E+03  0.12509113145E+03 0.  0.
          5    1    3    3  502    0 -0.81669824989E+02  0.22510007813E+02  0.33220963527E+03  0.34286640975E+03  0.41800000000E+01 0.  1.
         -5    1    3    3    0  502 -0.41829016850E+01  0.10557744947E+02 -0.94169062757E+01  0.15333400428E+02  0.41800000000E+01 0.  1.
        -11    1    1    2    0    0 -0.14777782588E+02 -0.12062812653E+02  0.28409657972E+02  0.34219920710E+02  0.00000000000E+00 0.  1.
         11    1    1    2    0    0  0.10063050926E+03 -0.21004940107E+02  0.26089624182E+02  0.10605835843E+03  0.00000000000E+00 0. -1.
</event>
<event>
 7    1  0.2733606E-009  0.1049885E+03  0.7561462E-02  0.1270142E+00
         -2   -1    0    0    0  501 -0.00000000000E+00  0.00000000000E+00  0.24359879409E+02  0.24359879409E+02  0.00000000000E+00 0.  1.
          2   -1    0    0  501    0  0.00000000000E+00 -0.00000000000E+00 -0.84739194135E+03  0.84739194135E+03  0.00000000000E+00 0. -1.
         25    2    1    2    0    0  0.60711774984E+01 -0.80167188894E+02 -0.63064885937E+03  0.64794172209E+03  0.12508738558E+03 0.  0.
          5    1    3    3  502    0 -0.26461483340E+02 -0.35350276065E+01 -0.42754197362E+03  0.42839504914E+03  0.41800000000E+01 0. -1.
         -5    1    3    3    0  502  0.32532660838E+02 -0.76632161288E+02 -0.20310688575E+03  0.21954667295E+03  0.41800000000E+01 0. -1.
        -11    1    1    2    0    0  0.26428398123E+02  0.32176580633E+02 -0.29797552727E+02  0.51202409290E+02  0.00000000000E+00 0.  1.
         11    1    1    2    0    0 -0.32499575621E+02  0.47990608261E+02 -0.16258564984E+03  0.17260768937E+03  0.00000000000E+00 0. -1.
</event>
<event>
 7    1  0.2733606E-009  0.2347729E+03  0.7561462E-02  0.1123325E+00
          2   -1    0    0  501    0  0.00000000000E+00  0.00000000000E+00  0.23999800435E+03  0.23999800435E+03  0.00000000000E+00 0. -1.
         -2   -1    0    0    0  501 -0.00000000000E+00 -0.00000000000E+00 -0.43652199689E+03  0.43652199689E+03  0.00000000000E+00 0.  1.
         25    2    1    2    0    0  0.31445068993E+02  0.22687731843E+03 -0.30949934917E+03  0.40484512458E+03  0.12509043840E+03 0.  0.
          5    1    3    3  502    0  0.21878846700E+02  0.22874491552E+03 -0.23178977746E+03  0.32641521662E+03  0.41800000000E+01 0.  1.
         -5    1    3    3    0  502  0.95662222929E+01 -0.18675970838E+01 -0.77709571705E+02  0.78429907958E+02  0.41800000000E+01 0.  1.
        -11    1    1    2    0    0 -0.47919389693E+01 -0.22419104190E+02 -0.16463663454E+02  0.28224654579E+02  0.00000000000E+00 0.  1.
         11    1    1    2    0    0 -0.26653130024E+02 -0.20445821424E+03  0.12943902008E+03  0.24345022208E+03  0.00000000000E+00 0. -1.
</event>
<event>
 7    1  0.2733606E-009  0.1697943E+03  0.7561462E-02  0.1178063E+00
          2   -1    0    0  501    0  0.00000000000E+00  0.00000000000E+00  0.11831209829E+04  0.11831209829E+04  0.00000000000E+00 0. -1.
         -2   -1    0    0    0  501 -0.00000000000E+00 -0.00000000000E+00 -0.40843918745E+02  0.40843918745E+02  0.00000000000E+00 0.  1.
         25    2    1    2    0    0  0.16400133209E+03 -0.24483846465E+02  0.85514515013E+03  0.88001153453E+03  0.12510466597E+03 0.  0.
          5    1    3    3  502    0  0.11358570032E+03 -0.31223443063E+02  0.29696666084E+03  0.31950474920E+03  0.41800000000E+01 0.  1.
         -5    1    3    3    0  502  0.50415631770E+02  0.67395965977E+01  0.55817848929E+03  0.56050678532E+03  0.41800000000E+01 0.  1.
        -11    1    1    2    0    0 -0.13209562710E+03  0.28409749949E+01  0.14274682926E+03  0.19450959642E+03  0.00000000000E+00 0.  1.
         11    1    1    2    0    0 -0.31905704991E+02  0.21642871470E+02  0.14438508472E+03  0.14944377065E+03  0.00000000000E+00 0. -1.
</event>
<event>
 7    1  0.2733606E-009  0.1957162E+03  0.7561462E-02  0.1153404E+00
          2   -1    0    0  501    0  0.00000000000E+00  0.00000000000E+00  0.16029935423E+04  0.16029935423E+04  0.00000000000E+00 0. -1.
         -2   -1    0    0    0  501 -0.00000000000E+00 -0.00000000000E+00 -0.34064643802E+02  0.34064643802E+02  0.00000000000E+00 0.  1.
         25    2    1    2    0    0  0.14812390852E+03 -0.11018453781E+03  0.11314248881E+04  0.11531917278E+04  0.12509020288E+03 0.  0.
          5    1    3    3  502    0  0.40544097494E+02 -0.86159950255E+02  0.75327641209E+03  0.75928267877E+03  0.41800000000E+01 0. -1.
         -5    1    3    3    0  502  0.10757981103E+03 -0.24024587558E+02  0.37814847604E+03  0.39390904900E+03  0.41800000000E+01 0. -1.
        -11    1    1    2    0    0 -0.81542214165E+02  0.47531679629E+02  0.11563174627E+03  0.14926183037E+03  0.00000000000E+00 0.  1.
         11    1    1    2    0    0 -0.66581694358E+02  0.62652858184E+02  0.32187226405E+03  0.33460462792E+03  0.00000000000E+00 0. -1.
</event>
<event>
 7    1  0.2733606E-009  0.8772674E+02  0.7561462E-02  0.1308452E+00
         -3   -1    0    0    0  501 -0.00000000000E+00  0.00000000000E+00  0.16375233662E+03  0.16375233662E+03  0.00000000000E+00 0.  1.
          3   -1    0    0  501    0  0.00000000000E+00 -0.00000000000E+00 -0.82751746685E+02  0.82751746685E+02  0.00000000000E+00 0. -1.
         25    2    1    2    0    0  0.40957645081E+02  0.21781140504E+02  0.16439688781E+02  0.13441813486E+03  0.12508407108E+03 0.  0.
          5    1    3    3  502    0 -0.26142584168E+02  0.33630869280E+02 -0.29633728496E+02  0.52058624070E+02  0.41800000000E+01 0.  1.
         -5    1    3    3    0  502  0.67100229250E+02 -0.11849728776E+02  0.46073417276E+02  0.82359510786E+02  0.41800000000E+01 0.  1.
        -11    1    1    2    0    0 -0.91684583334E+01 -0.30150108553E+02 -0.79249673435E+01  0.32494534639E+02  0.00000000000E+00 0.  1.
         11    1    1    2    0    0 -0.31789186748E+02  0.83689680496E+01  0.72485868503E+02  0.79591413814E+02  0.00000000000E+00 0. -1.
</event>
<event>
 7    1  0.2733606E-009  0.1049410E+03  0.7561462E-02  0.1270236E+00
         -1   -1    0    0    0  501 -0.00000000000E+00  0.00000000000E+00  0.95727913015E+02  0.95727913015E+02  0.00000000000E+00 0.  1.
          1   -1    0    0  501    0  0.00000000000E+00 -0.00000000000E+00 -0.25664301884E+03  0.25664301884E+03  0.00000000000E+00 0. -1.
         25    2    1    2    0    0  0.22327569438E+02  0.80264438242E+02 -0.19260446795E+01  0.15030798778E+03  0.12509149108E+03 0.  0.
          5    1    3    3  502    0  0.22560243900E+02 -0.15446710452E+02  0.37595120305E+02  0.46673664302E+02  0.41800000000E+01 0. -1.
         -5    1    3    3    0  502 -0.23267446168E+00  0.95711148695E+02 -0.39521164984E+02  0.10363432348E+03  0.41800000000E+01 0. -1.
        -11    1    1    2    0    0 -0.26535785753E+02 -0.58283092031E+02 -0.16655171313E+03  0.17843917700E+03  0.00000000000E+00 0.  1.
         11    1    1    2    0    0  0.42082163154E+01 -0.21981346211E+02  0.75626519798E+01  0.23623767074E+02  0.00000000000E+00 0. -1.
</event>
<event>
 7    1  0.2733606E-009  0.9321002E+02  0.7561462E-02  0.1295259E+00
          4   -1    0    0  501    0  0.00000000000E+00  0.00000000000E+00  0.50480091041E+02  0.50480091041E+02  0.00000000000E+00 0. -1.
         -4   -1    0    0    0  501 -0.00000000000E+00 -0.00000000000E+00 -0.36026062416E+03  0.36026062416E+03  0.00000000000E+00 0.  1.
         25    2    1    2    0    0  0.77195518165E+02  0.10207939938E+02 -0.14419480953E+03  0.20616253978E+03  0.12508996622E+03 0.  0.
          5    1    3    3  502    0  0.55882326714E+02  0.16979163046E+02 -0.16515556015E+03  0.17522830213E+03  0.41800000000E+01 0. -1.
         -5    1    3    3    0  502  0.21313191451E+02 -0.67712231081E+01  0.20960750622E+02  0.30934237648E+02  0.41800000000E+01 0. -1.
        -11    1    1    2    0    0 -0.25047339661E+02  0.30133969816E+02 -0.18377880566E+02  0.43280155442E+02  0.00000000000E+00 0. -1.
         11    1    1    2    0    0 -0.52148178504E+02 -0.40341909754E+02 -0.14720784302E+03  0.16129801999E+03  0.00000000000E+00 0.  1.
</event>
<event>
 7    1  0.2733606E-009  0.3124729E+03  0.7561462E-02  0.1079167E+00
         -2   -1    0    0    0  501 -0.00000000000E+00  0.00000000000E+00  0.36188857694E+03  0.36188857694E+03  0.00000000000E+00 0. -1.
          2   -1    0    0  501    0  0.00000000000E+00 -0.00000000000E+00 -0.27415519197E+03  0.27415519197E+03  0.00000000000E+00 0.  1.
         25    2    1    2    0    0  0.10228366298E+03 -0.27541944863E+03  0.75623065441E+02  0.32815263957E+03  0.12508991340E+03 0.  0.
          5    1    3    3  502    0  0.38262423985E+01  0.12298688259E+02  0.10490740244E+02  0.17129678767E+02  0.41800000000E+01 0. -1.
         -5    1    3    3    0  502  0.98457420579E+02 -0.28771813689E+03  0.65132325197E+02  0.31102296081E+03  0.41800000000E+01 0. -1.
        -11    1    1    2    0    0 -0.10085035137E+03  0.14373973963E+03 -0.60461379871E+00  0.17559120616E+03  0.00000000000E+00 0.  1.
         11    1    1    2    0    0 -0.14333116029E+01  0.13167970900E+03  0.12714933325E+02  0.13229992318E+03  0.00000000000E+00 0. -1.
</event>
<event>
 7    1  0.2834177E-009  0.9129155E+02  0.7561462E-02  0.1299754E+00
         -1   -1    0    0    0  501 -0.00000000000E+00  0.00000000000E+00  0.15235944924E+03  0.15235944924E+03  0.00000000000E+00 0.  1.
          1   -1    0    0  501    0  0.00000000000E+00 -0.00000000000E+00 -0.12402021750E+03  0.12402021750E+03  0.00000000000E+00 0. -1.
         25    2    1    2    0    0 -0.96138622908E+01  0.34080105941E+02 -0.61001185928E+02  0.14360582645E+03  0.12509040226E+03 0.  0.
          5    1    3    3  502    0 -0.53458661903E+02 -0.39832583209E+01  0.68513766713E+01  0.54204323090E+02  0.41800000000E+01 0.  1.
         -5    1    3    3    0  502  0.43844799612E+02  0.38063364262E+02 -0.67852562599E+02  0.89401503361E+02  0.41800000000E+01 0.  1.
        -11    1    1    2    0    0 -0.20670213812E+02 -0.34609965325E+02  0.93858953224E+02  0.10214994145E+03  0.00000000000E+00 0.  1.
         11    1    1    2    0    0  0.30284076103E+02  0.52985938430E+00 -0.45185355541E+01  0.30623898836E+02  0.00000000000E+00 0. -1.
</event>
<event>
 7    1  0.2733606E-009  0.6493591E+02  0.7561462E-02  0.1378213E+00
         -1   -1    0    0    0  501 -0.00000000000E+00  0.00000000000E+00  0.50121081518E+03  0.50121081518E+03  0.00000000000E+00 0.  1.
          1   -1    0    0  501    0  0.00000000000E+00 -0.00000000000E+00 -0.30752764936E+02  0.30752764936E+02  0.00000000000E+00 0. -1.
         25    2    1    2    0    0 -0.33110795276E+02  0.18663979541E+02  0.36203348008E+03  0.38491256285E+03  0.12507906078E+03 0.  0.
          5    1    3    3  502    0  0.11303404420E+01 -0.38914211878E+01 -0.94772967967E+01  0.11122606841E+02  0.41800000000E+01 0. -1.
         -5    1    3    3    0  502 -0.34241135718E+02  0.22555400729E+02  0.37151077688E+03  0.37378995601E+03  0.41800000000E+01 0. -1.
        -11    1    1    2    0    0  0.34616237870E+02  0.22731238475E+02  0.94791156251E+02  0.10344252718E+03  0.00000000000E+00 0.  1.
         11    1    1    2    0    0 -0.15054425936E+01 -0.41395218016E+02  0.13633413909E+02  0.43608490078E+02  0.00000000000E+00 0. -1.
</event>
<event>
 7    1  0.2733606E-009  0.1884447E+03  0.7561462E-02  0.1159872E+00
          2   -1    0    0  501    0  0.00000000000E+00  0.00000000000E+00  0.12714228766E+03  0.12714228766E+03  0.00000000000E+00 0. -1.
         -2   -1    0    0    0  501 -0.00000000000E+00 -0.00000000000E+00 -0.37911886259E+03  0.37911886259E+03  0.00000000000E+00 0.  1.
         25    2    1    2    0    0  0.13275128124E+02 -0.18052053929E+03 -0.64181913658E+02  0.22919637963E+03  0.12509103990E+03 0.  0.
          5    1    3    3  502    0  0.14325320129E+02 -0.14111332092E+03  0.12933440896E+02  0.14248835191E+03  0.41800000000E+01 0.  1.
         -5    1    3    3    0  502 -0.10501920051E+01 -0.39407218373E+02 -0.77115354554E+02  0.86708027720E+02  0.41800000000E+01 0.  1.
        -11    1    1    2    0    0 -0.39078293644E+02  0.56671896181E+02 -0.30726931558E+02  0.75385417514E+02  0.00000000000E+00 0. -1.
         11    1    1    2    0    0  0.25803165520E+02  0.12384864311E+03 -0.15706772971E+03  0.20167935310E+03  0.00000000000E+00 0.  1.
</event>
<event>
 7    1  0.2733606E-009  0.1213300E+03  0.7561462E-02  0.1240919E+00
          1   -1    0    0  501    0  0.00000000000E+00  0.00000000000E+00  0.38032899600E+03  0.38032899600E+03  0.00000000000E+00 0. -1.
         -1   -1    0    0    0  501 -0.00000000000E+00 -0.00000000000E+00 -0.42498119065E+02  0.42498119065E+02  0.00000000000E+00 0.  1.
         25    2    1    2    0    0 -0.50280624519E+02  0.38276460686E+02  0.23053064795E+03  0.26978073705E+03  0.12507612798E+03 0.  0.
          5    1    3    3  502    0  0.26456718264E+02 -0.23958688768E+02  0.32596133533E+02  0.48517595056E+02  0.41800000000E+01 0. -1.
         -5    1    3    3    0  502 -0.76737342782E+02  0.62235149454E+02  0.19793451442E+03  0.22126314199E+03  0.41800000000E+01 0. -1.
        -11    1    1    2    0    0  0.62111133994E+02  0.56250513899E+01  0.50226967699E+02  0.80076104135E+02  0.00000000000E+00 0. -1.
         11    1    1    2    0    0 -0.11830509475E+02 -0.43901512076E+02  0.57073261280E+02  0.72970273880E+02  0.00000000000E+00 0.  1.
</event>
<event>
 7    1  0.2733606E-009  0.1176829E+03  0.7561462E-02  0.1246969E+00
         -1   -1    0    0    0  501 -0.00000000000E+00  0.00000000000E+00  0.49436320287E+03  0.49436320287E+03  0.00000000000E+00 0.  1.
          1   -1    0    0  501    0  0.00000000000E+00 -0.00000000000E+00 -0.37464233031E+02  0.37464233031E+02  0.00000000000E+00 0. -1.
         25    2    1    2    0    0  0.24392352504E+02 -0.76632033907E+02  0.22189218669E+03  0.26711553986E+03  0.12508842327E+03 0.  0.
          5    1    3    3  502    0 -0.15562298677E+02 -0.91612248023E+02  0.19619679558E+03  0.21713047718E+03  0.41800000000E+01 0. -1.
         -5    1    3    3    0  502  0.39954651181E+02  0.14980214115E+02  0.25695391117E+02  0.49985062675E+02  0.41800000000E+01 0. -1.
        -11    1    1    2    0    0 -0.43896733039E+02  0.54212118622E+02  0.76848839071E+02  0.10378642032E+03  0.00000000000E+00 0. -1.
         11    1    1    2    0    0  0.19504380536E+02  0.22419915285E+02  0.15815794407E+03  0.16092547572E+03  0.00000000000E+00 0.  1.
</event>
<event>
 7    1  0.2733606E-009  0.9473413E+02  0.7561462E-02  0.1291776E+00
         -2   -1    0    0    0  501 -0.00000000000E+00  0.00000000000E+00  0.98329990739E+02  0.98329990739E+02  0.00000000000E+00 0.  1.
          2   -1    0    0  501    0  0.00000000000E+00 -0.00000000000E+00 -0.13534034534E+03  0.13534034534E+03  0.00000000000E+00 0. -1.
         25    2    1    2    0    0  0.39252093251E+02  0.24882973494E+01 -0.16871957777E+02  0.13220825161E+03  0.12508972934E+03 0.  0.
          5    1    3    3  502    0 -0.30688661949E+02 -0.88247719834E+01 -0.45445344163E+02  0.55699392087E+02  0.41800000000E+01 0. -1.
         -5    1    3    3    0  502  0.69940755200E+02  0.11313069333E+02  0.28573386386E+02  0.76508859521E+02  0.41800000000E+01 0. -1.
        -11    1    1    2    0    0 -0.31885536581E+02  0.35428895932E+02  0.14247034541E+02  0.49748086428E+02  0.00000000000E+00 0.  1.
         11    1    1    2    0    0 -0.73665566702E+01 -0.37917193282E+02 -0.34385431366E+02  0.51713998045E+02  0.00000000000E+00 0. -1.
</event>
<event>
 7    1  0.2733606E-009  0.1072137E+03  0.7561462E-02  0.1265818E+00
          2   -1    0    0  501    0  0.00000000000E+00  0.00000000000E+00  0.94328940500E+03  0.94328940500E+03  0.00000000000E+00 0. -1.
         -2   -1    0    0    0  501 -0.00000000000E+00 -0.00000000000E+00 -0.15976442571E+02  0.15976442571E+02  0.00000000000E+00 0.  1.
         25    2    1    2    0    0  0.42868043503E+02 -0.21241563784E+02  0.62192272900E+03  0.63618227312E+03  0.12510447878E+03 0.  0.
          5    1    3    3  502    0  0.66824024432E+01  0.46840493742E+02  0.35985389452E+03  0.36297518394E+03  0.41800000000E+01 0.  1.
         -5    1    3    3    0  502  0.36185641060E+02 -0.68082057525E+02  0.26206883447E+03  0.27320708918E+03  0.41800000000E+01 0.  1.
        -11    1    1    2    0    0  0.70119772517E+01  0.36801425675E+02  0.21853585469E+03  0.22172377532E+03  0.00000000000E+00 0. -1.
         11    1    1    2    0    0 -0.49880020755E+02 -0.15559861892E+02  0.86854378746E+02  0.10135979913E+03  0.00000000000E+00 0.  1.
</event>
<event>
 7    1  0.2733606E-009  0.2543058E+03  0.7561462E-02  0.1110614E+00
          4   -1    0    0  501    0  0.00000000000E+00  0.00000000000E+00  0.43168102970E+02  0.43168102970E+02  0.00000000000E+00 0. -1.
         -4   -1    0    0    0  501 -0.00000000000E+00 -0.00000000000E+00 -0.19118641554E+04  0.19118641554E+04  0.00000000000E+00 0.  1.
         25    2    1    2    0    0  0.18212883886E+03 -0.15315199347E+03 -0.13591160779E+04  0.13854493268E+04  0.12508747649E+03 0.  0.
          5    1    3    3  502    0 -0.10168718269E+02 -0.54967361648E+01 -0.24234200712E+03  0.24265353440E+03  0.41800000000E+01 0. -1.
         -5    1    3    3    0  502  0.19229755712E+03 -0.14765525731E+03 -0.11167740708E+04  0.11427957924E+04  0.41800000000E+01 0. -1.
        -11    1    1    2    0    0 -0.92674012803E+02  0.22281645762E+02 -0.17227294135E+03  0.19688298735E+03  0.00000000000E+00 0.  1.
         11    1    1    2    0    0 -0.89454826053E+02  0.13087034771E+03 -0.33730703315E+03  0.37269994423E+03  0.00000000000E+00 0. -1.
</event>
<event>
 7    1  0.2733606E-009  0.1138216E+03  0.7561462E-02  0.1253652E+00
          2   -1    0    0  501    0  0.00000000000E+00  0.00000000000E+00  0.22926416675E+03  0.22926416675E+03  0.00000000000E+00 0.  1.
         -2   -1    0    0    0  501 -0.00000000000E+00 -0.00000000000E+00 -0.63629671330E+02  0.63629671330E+02  0.00000000000E+00 0. -1.
         25    2    1    2    0    0 -0.29948556778E+01  0.56413583189E+02  0.10887025275E+03  0.17519065239E+03  0.12509025231E+03 0.  0.
          5    1    3    3  502    0 -0.36817528844E+02  0.83664299508E+02  0.87490836833E+02  0.12659922738E+03  0.41800000000E+01 0.  1.
         -5    1    3    3    0  502  0.33822673166E+02 -0.27250716319E+02  0.21379415912E+02  0.48591425012E+02  0.41800000000E+01 0.  1.
        -11    1    1    2    0    0  0.33181303854E+02 -0.59622908584E+01  0.47405210554E+02  0.58170454918E+02  0.00000000000E+00 0.  1.
         11    1    1    2    0    0 -0.30186448176E+02 -0.50451292331E+02  0.93590321234E+01  0.59532730776E+02  0.00000000000E+00 0. -1.
</event>
<event>
 7    1  0.2733606E-009  0.1614694E+03  0.7561462E-02  0.1187048E+00
         -1   -1    0    0    0  501 -0.00000000000E+00  0.00000000000E+00  0.49760883431E+02  0.49760883431E+02  0.00000000000E+00 0.  1.
          1   -1    0    0  501    0  0.00000000000E+00 -0.00000000000E+00 -0.84581256214E+03  0.84581256214E+03  0.00000000000E+00 0. -1.
         25    2    1    2    0    0  0.12140490168E+03  0.58074125931E+02 -0.65753991689E+03  0.68272814080E+03  0.12508883920E+03 0.  0.
          5    1    3    3  502    0  0.10728573748E+03 -0.15183803407E+02 -0.36231793213E+03  0.37819642211E+03  0.41800000000E+01 0.  1.
         -5    1    3    3    0  502  0.14119164202E+02  0.73257929338E+02 -0.29522198475E+03  0.30453171869E+03  0.41800000000E+01 0.  1.
        -11    1    1    2    0    0 -0.78231430695E+02 -0.16723778206E+02 -0.12974344961E+03  0.15242442135E+03  0.00000000000E+00 0. -1.
         11    1    1    2    0    0 -0.43173470985E+02 -0.41350347725E+02 -0.87683122072E+01  0.60420883417E+02  0.00000000000E+00 0.  1.
</event>
<event>
 7    1  0.2733606E-009  0.1722224E+03  0.7561462E-02  0.1175550E+00
         -1   -1    0    0    0  501 -0.00000000000E+00  0.00000000000E+00  0.65496715101E+02  0.65496715101E+02  0.00000000000E+00 0.  1.
          1   -1    0    0  501    0  0.00000000000E+00 -0.00000000000E+00 -0.60618288663E+03  0.60618288663E+03  0.00000000000E+00 0. -1.
         25    2    1    2    0    0 -0.94540144882E+01  0.16590616721E+03 -0.29503311260E+03  0.36097839978E+03  0.12508650155E+03 0.  0.
          5    1    3    3  502    0  0.26149871648E+02  0.51178582948E+02 -0.19886031210E+03  0.20704096036E+03  0.41800000000E+01 0.  1.
         -5    1    3    3    0  502 -0.35603886136E+02  0.11472758426E+03 -0.96172800498E+02  0.15393743942E+03  0.41800000000E+01 0.  1.
        -11    1    1    2    0    0  0.12171859700E+02 -0.11457311492E+03 -0.22953317907E+03  0.25682802247E+03  0.00000000000E+00 0. -1.
         11    1    1    2    0    0 -0.27178452115E+01 -0.51333052293E+02 -0.16119879856E+02  0.53873179477E+02  0.00000000000E+00 0.  1.
</event>
<event>
 7    1  0.2733606E-009  0.2146717E+03  0.7561462E-02  0.1137919E+00
          1   -1    0    0  501    0  0.00000000000E+00  0.00000000000E+00  0.27157659790E+03  0.27157659790E+03  0.00000000000E+00 0. -1.
         -1   -1    0    0    0  501 -0.00000000000E+00 -0.00000000000E+00 -0.25770160567E+03  0.25770160567E+03  0.00000000000E+00 0.  1.
         25    2    1    2    0    0 -0.18894962996E+03 -0.43713964318E+02  0.15054436167E+03  0.27553735151E+03  0.12507739168E+03 0.  0.
          5    1    3    3  502    0 -0.11505894931E+03  0.36839741242E+02  0.69960122020E+02  0.13966967969E+03  0.41800000000E+01 0.  1.
         -5    1    3    3    0  502 -0.73890680644E+02 -0.80553705560E+02  0.80584239645E+02  0.13586767182E+03  0.41800000000E+01 0.  1.
        -11    1    1    2    0    0  0.16125852092E+03  0.19779721943E+02 -0.68399157257E+02  0.17627816848E+03  0.00000000000E+00 0. -1.
         11    1    1    2    0    0  0.27691109041E+02  0.23934242375E+02 -0.68270212177E+02  0.77462683588E+02  0.00000000000E+00 0.  1.
</event>
<event>
 7    1  0.2733606E-009  0.9291977E+02  0.7561462E-02  0.1295931E+00
          1   -1    0    0  501    0  0.00000000000E+00  0.00000000000E+00  0.38698028095E+02  0.38698028095E+02  0.00000000000E+00 0. -1.
         -1   -1    0    0    0  501 -0.00000000000E+00 -0.00000000000E+00 -0.30861175750E+03  0.30861175750E+03  0.00000000000E+00 0.  1.
         25    2    1    2    0    0 -0.17987601624E+02  0.18298658340E+02 -0.16631544094E+03  0.20968122437E+03  0.12508795005E+03 0.  0.
          5    1    3    3  502    0  0.30598435833E+02  0.34785877752E+02 -0.14784582529E+03  0.15499090948E+03  0.41800000000E+01 0.  1.
         -5    1    3    3    0  502 -0.48586037457E+02 -0.16487219413E+02 -0.18469615654E+02  0.54690314885E+02  0.41800000000E+01 0.  1.
        -11    1    1    2    0    0 -0.23670605587E+02 -0.35588888588E+02 -0.33646382887E+02  0.54396191422E+02  0.00000000000E+00 0. -1.
         11    1    1    2    0    0  0.41658207211E+02  0.17290230249E+02 -0.69951905568E+02  0.83232369801E+02  0.00000000000E+00 0.  1.
</event>
<event>
 7    1  0.2733606E-009  0.1068195E+03  0.7561462E-02  0.1266576E+00
          2   -1    0    0  501    0  0.00000000000E+00  0.00000000000E+00  0.38884953442E+03  0.38884953442E+03  0.00000000000E+00 0.  1.
         -2   -1    0    0    0  501 -0.00000000000E+00 -0.00000000000E+00 -0.36563199124E+02  0.36563199124E+02  0.00000000000E+00 0. -1.
         25    2    1    2    0    0  0.34648059331E+02  0.11284996796E+02  0.26640723294E+03  0.29656141568E+03  0.12509204747E+03 0.  0.
          5    1    3    3  502    0 -0.40597679101E+02  0.22505731069E+02  0.56431257706E+02  0.73189061516E+02  0.41800000000E+01 0.  1.
         -5    1    3    3    0  502  0.75245738432E+02 -0.11220734274E+02  0.20997597523E+03  0.22337235416E+03  0.41800000000E+01 0.  1.
        -11    1    1    2    0    0 -0.51949429686E+02 -0.34148660145E+02  0.37466236808E+02  0.72585075153E+02  0.00000000000E+00 0. -1.
         11    1    1    2    0    0  0.17301370356E+02  0.22863663349E+02  0.48412865546E+02  0.56266242707E+02  0.00000000000E+00 0.  1.
</event>
<event>
 7    1  0.2733606E-009  0.1627765E+03  0.7561462E-02  0.1185597E+00
          1   -1    0    0  501    0  0.00000000000E+00  0.00000000000E+00  0.67205897272E+03  0.67205897272E+03  0.00000000000E+00 0. -1.
         -1   -1    0    0    0  501 -0.00000000000E+00 -0.00000000000E+00 -0.48106826392E+02  0.48106826392E+02  0.00000000000E+00 0.  1.
         25    2    1    2    0    0  0.12168941719E+03 -0.69530221989E+02  0.39213057968E+03  0.43480562931E+03  0.12508708060E+03 0.  0.
          5    1    3    3  502    0  0.12381830223E+02  0.32131182637E+02  0.11346648906E+03  0.11865007019E+03  0.41800000000E+01 0.  1.
         -5    1    3    3    0  502  0.10930758696E+03 -0.10166140463E+03  0.27866409062E+03  0.31615555912E+03  0.41800000000E+01 0.  1.
        -11    1    1    2    0    0 -0.83884455516E+02  0.37098588384E+02  0.68126541000E+02  0.11425468361E+03  0.00000000000E+00 0.  1.
         11    1    1    2    0    0 -0.37804961669E+02  0.32431633605E+02  0.16369502565E+03  0.17110548620E+03  0.00000000000E+00 0. -1.
</event>
<event>
 7    1  0.2733606E-009  0.7760223E+02  0.7561462E-02  0.1335997E+00
          2   -1    0    0  501    0  0.00000000000E+00  0.00000000000E+00  0.49428752637E+03  0.49428752637E+03  0.00000000000E+00 0. -1.
         -2   -1    0    0    0  501 -0.00000000000E+00 -0.00000000000E+00 -0.25794560903E+02  0.25794560903E+02  0.00000000000E+00 0.  1.
         25    2    1    2    0    0 -0.17269169536E+02  0.20784100943E+02  0.29802069163E+03  0.32433794285E+03  0.12509422634E+03 0.  0.
          5    1    3    3  502    0 -0.47330803426E+01  0.42168826772E+02  0.29606945182E+03  0.29912406239E+03  0.41800000000E+01 0. -1.
         -5    1    3    3    0  502 -0.12536089193E+02 -0.21384725829E+02  0.19512398123E+01  0.25213880460E+02  0.41800000000E+01 0. -1.
        -11    1    1    2    0    0  0.29789198109E+02 -0.48554860706E+02  0.14583454135E+03  0.15656527161E+03  0.00000000000E+00 0. -1.
         11    1    1    2    0    0 -0.12520028573E+02  0.27770759763E+02  0.24637732489E+02  0.39178872820E+02  0.00000000000E+00 0.  1.
</event>
<event>
 7    1  0.2733606E-009  0.9288267E+02  0.7561462E-02  0.1296017E+00
          1   -1    0    0  501    0  0.00000000000E+00  0.00000000000E+00  0.33280662845E+03  0.33280662845E+03  0.00000000000E+00 0. -1.
         -1   -1    0    0    0  501 -0.00000000000E+00 -0.00000000000E+00 -0.42059559929E+02  0.42059559929E+02  0.00000000000E+00 0.  1.
         25    2    1    2    0    0  0.42465714592E+02 -0.14433883347E+02  0.18718658451E+03  0.22956613732E+03  0.12510043997E+03 0.  0.
          5    1    3    3  502    0 -0.91471837619E+01  0.22720129321E+02 -0.64841080169E+01  0.25678615693E+02  0.41800000000E+01 0.  1.
         -5    1    3    3    0  502  0.51612898354E+02 -0.37154012669E+02  0.19367069252E+03  0.20388752163E+03  0.41800000000E+01 0.  1.
        -11    1    1    2    0    0  0.74459835841E+01 -0.29664414774E+02  0.54798022989E+02  0.62755426052E+02  0.00000000000E+00 0. -1.
         11    1    1    2    0    0 -0.49911698176E+02  0.44098298122E+02  0.48762461028E+02  0.82544625007E+02  0.00000000000E+00 0.  1.
</event>
<event>
 7    1  0.2733606E-009  0.7636049E+02  0.7561462E-02  0.1339709E+00
         -2   -1    0    0    0  501 -0.00000000000E+00  0.00000000000E+00  0.53861343717E+02  0.53861343717E+02  0.00000000000E+00 0.  1.
          2   -1    0    0  501    0  0.00000000000E+00 -0.00000000000E+00 -0.25227352895E+03  0.25227352895E+03  0.00000000000E+00 0. -1.
         25    2    1    2    0    0 -0.78845895622E+01  0.12363692912E+02 -0.17256756217E+03  0.21363845709E+03  0.12508716632E+03 0.  0.
          5    1    3    3  502    0  0.27210736225E+02  0.82873136301E+01  0.78048116336E+01  0.29790790821E+02  0.41800000000E+01 0.  1.
         -5    1    3    3    0  502 -0.35095325787E+02  0.40763792820E+01 -0.18037237381E+03  0.18384766627E+03  0.41800000000E+01 0.  1.
        -11    1    1    2    0    0 -0.36162114410E+02  0.11944862251E+02 -0.67056802961E+01  0.38669683229E+02  0.00000000000E+00 0. -1.
         11    1    1    2    0    0  0.44046703973E+02 -0.24308555163E+02 -0.19138942763E+02  0.53826732346E+02  0.00000000000E+00 0.  1.
</event>
<event>
 7    1  0.2733606E-009  0.1177242E+03  0.7561462E-02  0.1246899E+00
         -1   -1    0    0    0  501 -0.00000000000E+00  0.00000000000E+00  0.51087155193E+02  0.51087155193E+02  0.00000000000E+00 0.  1.
          1   -1    0    0  501    0  0.00000000000E+00 -0.00000000000E+00 -0.48308367122E+03  0.48308367122E+03  0.00000000000E+00 0. -1.
         25    2    1    2    0    0 -0.32225674470E+02 -0.76887931770E+02 -0.10624345533E+03  0.18406751940E+03  0.12507170645E+03 0.  0.
          5    1    3    3  502    0 -0.61207139165E+02 -0.78444564937E+02 -0.11626039289E+03  0.15308107332E+03  0.41800000000E+01 0.  1.
         -5    1    3    3    0  502  0.28981464696E+02  0.15566331676E+01  0.10016937568E+02  0.30986446085E+02  0.41800000000E+01 0.  1.
        -11    1    1    2    0    0  0.32551268878E+02  0.30418694787E+01 -0.27126724723E+02  0.42481728657E+02  0.00000000000E+00 0.  1.
         11    1    1    2    0    0 -0.32559440816E+00  0.73846062291E+02 -0.29862633598E+03  0.30762157835E+03  0.00000000000E+00 0. -1.
</event>
<event>
 7    1  0.2733606E-009  0.1595393E+03  0.7561462E-02  0.1189218E+00
          2   -1    0    0  501    0  0.00000000000E+00  0.00000000000E+00  0.14052740785E+03  0.14052740785E+03  0.00000000000E+00 0. -1.
         -2   -1    0    0    0  501 -0.00000000000E+00 -0.00000000000E+00 -0.21379580844E+03  0.21379580844E+03  0.00000000000E+00 0.  1.
         25    2    1    2    0    0  0.10834565773E+03 -0.51601067072E+02 -0.10056224404E+03  0.20040038011E+03  0.12508435453E+03 0.  0.
          5    1    3    3  502    0 -0.31036760160E+01  0.29460095767E+02 -0.28806596320E+00  0.29917978364E+02  0.41800000000E+01 0. -1.
         -5    1    3    3    0  502  0.11144933375E+03 -0.81061162839E+02 -0.10027417808E+03  0.17048240174E+03  0.41800000000E+01 0. -1.
        -11    1    1    2    0    0 -0.61515565495E+02 -0.20907160718E+02  0.78517872958E+01  0.65444058028E+02  0.00000000000E+00 0.  1.
         11    1    1    2    0    0 -0.46830092236E+02  0.72508227789E+02  0.19442056165E+02  0.88478778156E+02  0.00000000000E+00 0. -1.
</event>
<event>
 7    1  0.2733606E-009  0.9482791E+02  0.7561462E-02  0.1291564E+00
          1   -1    0    0  501    0  0.00000000000E+00  0.00000000000E+00  0.17038345919E+03  0.17038345919E+03  0.00000000000E+00 0. -1.
         -1   -1    0    0    0  501 -0.00000000000E+00 -0.00000000000E+00 -0.90456843778E+02  0.90456843778E+02  0.00000000000E+00 0.  1.
         25    2    1    2    0    0  0.10330982532E+02  0.30802960239E+02  0.96656678490E+02  0.16138497392E+03  0.12508814792E+03 0.  0.
          5    1    3    3  502    0  0.55116920076E+02 -0.14844373251E+02  0.18149714678E+02  0.60042608527E+02  0.41800000000E+01 0.  1.
         -5    1    3    3    0  502 -0.44785937544E+02  0.45647333489E+02  0.78506963812E+02  0.10134236539E+03  0.41800000000E+01 0.  1.
        -11    1    1    2    0    0 -0.26681739291E+02  0.66260353169E+01  0.27753066690E+02  0.39064718945E+02  0.00000000000E+00 0. -1.
         11    1    1    2    0    0  0.16350756759E+02 -0.37428995556E+02 -0.44483129767E+02  0.60390610104E+02  0.00000000000E+00 0.  1.
</event>
<event>
 7    1  0.2733606E-009  0.1200806E+03  0.7561462E-02  0.1242964E+00
         -2   -1    0    0    0  501 -0.00000000000E+00  0.00000000000E+00  0.40375250541E+03  0.40375250541E+03  0.00000000000E+00 0.  1.
          2   -1    0    0  501    0  0.00000000000E+00 -0.00000000000E+00 -0.42502183190E+02  0.42502183190E+02  0.00000000000E+00 0. -1.
         25    2    1    2    0    0 -0.63719309544E+02 -0.27760241319E+02  0.15699782107E+03  0.21242980690E+03  0.12508927064E+03 0.  0.
          5    1    3    3  502    0 -0.97500899021E+02 -0.53242791899E+01  0.84243749604E+02  0.12903199218E+03  0.41800000000E+01 0.  1.
         -5    1    3    3    0  502  0.33781589476E+02 -0.22435962129E+02  0.72754071468E+02  0.83397814716E+02  0.41800000000E+01 0.  1.
        -11    1    1    2    0    0 -0.21228103846E+01  0.35319209314E+02  0.12798044822E+03  0.13278158004E+03  0.00000000000E+00 0.  1.
         11    1    1    2    0    0  0.65842119929E+02 -0.75589679951E+01  0.76272052927E+02  0.10104330167E+03  0.00000000000E+00 0. -1.
</event>
<event>
 7    1  0.2733606E-009  0.1080315E+03  0.7561462E-02  0.1264259E+00
          1   -1    0    0  501    0  0.00000000000E+00  0.00000000000E+00  0.15240775214E+04  0.15240775214E+04  0.00000000000E+00 0. -1.
         -1   -1    0    0    0  501 -0.00000000000E+00 -0.00000000000E+00 -0.24259444126E+02  0.24259444126E+02  0.00000000000E+00 0.  1.
         25    2    1    2    0    0 -0.45044531403E+02 -0.33435834720E+02  0.13849112576E+04  0.13916799242E+04  0.12508738967E+03 0.  0.
          5    1    3    3  502    0 -0.10319430113E+02 -0.77930881330E+02  0.91283646167E+03  0.91622464007E+03  0.41800000000E+01 0.  1.
         -5    1    3    3    0  502 -0.34725101291E+02  0.44495046610E+02  0.47207479593E+03  0.47545528411E+03  0.41800000000E+01 0.  1.
        -11    1    1    2    0    0  0.61835229461E+01 -0.16412352520E+02  0.84894683856E+02  0.86687419031E+02  0.00000000000E+00 0. -1.
         11    1    1    2    0    0  0.38861008457E+02  0.49848187240E+02  0.30012135783E+02  0.69969622292E+02  0.00000000000E+00 0.  1.
</event>
<event>
 7    1  0.2733606E-009  0.1127823E+03  0.7561462E-02  0.1255502E+00
          2   -1    0    0  501    0  0.00000000000E+00  0.00000000000E+00  0.54944407291E+03  0.54944407291E+03  0.00000000000E+00 0. -1.
         -2   -1    0    0    0  501 -0.00000000000E+00 -0.00000000000E+00 -0.37774113560E+02  0.37774113560E+02  0.00000000000E+00 0.  1.
         25    2    1    2    0    0  0.72678233415E+02  0.76686620392E+01  0.29409920864E+03  0.32784608112E+03  0.12509106441E+03 0.  0.
          5    1    3    3  502    0  0.75201286810E+02 -0.30171377263E+02  0.94139770890E+02  0.12427917930E+03  0.41800000000E+01 0.  1.
         -5    1    3    3    0  502 -0.25230533946E+01  0.37840039302E+02  0.19995943775E+03  0.20356690182E+03  0.41800000000E+01 0.  1.
        -11    1    1    2    0    0  0.15860074791E+02 -0.79397445624E+01 -0.61469017487E+01  0.18771412233E+02  0.00000000000E+00 0.  1.
         11    1    1    2    0    0 -0.88538308207E+02  0.27108252314E+00  0.22371765246E+03  0.24060069312E+03  0.00000000000E+00 0. -1.
</event>
<event>
 7    1  0.2733606E-009  0.9028238E+02  0.7561462E-02  0.1302169E+00
         -2   -1    0    0    0  501 -0.00000000000E+00  0.00000000000E+00  0.40645420555E+03  0.40645420555E+03  0.00000000000E+00 0.  1.
          2   -1    0    0  501    0  0.00000000000E+00 -0.00000000000E+00 -0.37416395759E+02  0.37416395759E+02  0.00000000000E+00 0. -1.
         25    2    1    2    0    0 -0.10497060963E+02  0.99427254354E+01  0.30749959060E+03  0.33228328265E+03  0.12508851117E+03 0.  0.
          5    1    3    3  502    0  0.33038722390E+02 -0.17114345204E+02  0.25867078832E+03  0.26136661439E+03  0.41800000000E+01 0.  1.
         -5    1    3    3    0  502 -0.43535783352E+02  0.27057070640E+02  0.48828802285E+02  0.70916668254E+02  0.41800000000E+01 0.  1.
        -11    1    1    2    0    0  0.92691190644E+00  0.40419511092E+02  0.17696967571E+02  0.44133645938E+02  0.00000000000E+00 0. -1.
         11    1    1    2    0    0  0.95701490561E+01 -0.50362236527E+02  0.43841251617E+02  0.67453672727E+02  0.00000000000E+00 0.  1.
</event>
<event>
 7    1  0.2733606E-009  0.6786069E+02  0.7561462E-02  0.1367523E+00
         -2   -1    0    0    0  501 -0.00000000000E+00  0.00000000000E+00  0.45041119534E+02  0.45041119534E+02  0.00000000000E+00 0.  1.
          2   -1    0    0  501    0  0.00000000000E+00 -0.00000000000E+00 -0.31935714983E+03  0.31935714983E+03  0.00000000000E+00 0. -1.
         25    2    1    2    0    0 -0.24749196379E+01 -0.49675612725E+02 -0.12954054086E+03  0.18682884940E+03  0.12510186055E+03 0.  0.
          5    1    3    3  502    0  0.54632398050E+01  0.19110802115E+01 -0.13408138646E+03  0.13427132908E+03  0.41800000000E+01 0.  1.
         -5    1    3    3    0  502 -0.79381594429E+01 -0.51586692936E+02  0.45408455979E+01  0.52557520320E+02  0.41800000000E+01 0.  1.
        -11    1    1    2    0    0 -0.56374262625E+01 -0.12397983684E+02  0.55677089967E+01  0.14713597717E+02  0.00000000000E+00 0.  1.
         11    1    1    2    0    0  0.81123459004E+01  0.62073596409E+02 -0.15034319843E+03  0.16285582226E+03  0.00000000000E+00 0. -1.
</event>
<event>
 7    1  0.2733606E-009  0.1595467E+03  0.7561462E-02  0.1189209E+00
          1   -1    0    0  501    0  0.00000000000E+00  0.00000000000E+00  0.40621589273E+03  0.40621589273E+03  0.00000000000E+00 0. -1.
         -1   -1    0    0    0  501 -0.00000000000E+00 -0.00000000000E+00 -0.73431357465E+02  0.73431357465E+02  0.00000000000E+00 0.  1.
         25    2    1    2    0    0  0.23095475175E+02 -0.13163937092E+03  0.17068236994E+03  0.25028512811E+03  0.12509136258E+03 0.  0.
          5    1    3    3  502    0  0.30139335486E+02 -0.15452964076E+03  0.15702165010E+03  0.22239842719E+03  0.41800000000E+01 0.  1.
         -5    1    3    3    0  502 -0.70438603108E+01  0.22890269839E+02  0.13660719845E+02  0.27886700917E+02  0.41800000000E+01 0.  1.
        -11    1    1    2    0    0 -0.29894850381E+02  0.83962438664E+02  0.39208210116E+02  0.97368767714E+02  0.00000000000E+00 0.  1.
         11    1    1    2    0    0  0.67993752057E+01  0.47676932257E+02  0.12289395521E+03  0.13199335438E+03  0.00000000000E+00 0. -1.
</event>
<event>
 7    1  0.2733606E-009  0.1018559E+03  0.7561462E-02  0.1276441E+00
          1   -1    0    0  501    0  0.00000000000E+00  0.00000000000E+00  0.75651486336E+03  0.75651486336E+03  0.00000000000E+00 0. -1.
         -1   -1    0    0    0  501 -0.00000000000E+00 -0.00000000000E+00 -0.16710359800E+02  0.16710359800E+02  0.00000000000E+00 0.  1.
         25    2    1    2    0    0 -0.62271997102E+01  0.29501694383E+02  0.46514429921E+03  0.48261421960E+03  0.12509251730E+03 0.  0.
          5    1    3    3  502    0 -0.50891987126E+02 -0.13011324428E+02  0.10809255409E+03  0.12025290669E+03  0.41800000000E+01 0.  1.
         -5    1    3    3    0  502  0.44664787416E+02  0.42513018812E+02  0.35705174512E+03  0.36236131291E+03  0.41800000000E+01 0.  1.
        -11    1    1    2    0    0  0.25341676083E+02 -0.53104084657E+02  0.12853678602E+03  0.14136459852E+03  0.00000000000E+00 0.  1.
         11    1    1    2    0    0 -0.19114476373E+02  0.23602390273E+02  0.14612341833E+03  0.14924640504E+03  0.00000000000E+00 0. -1.
</event>
<event>
 7    1  0.2733606E-009  0.1444943E+03  0.7561462E-02  0.1207406E+00
         -2   -1    0    0    0  501 -0.00000000000E+00  0.00000000000E+00  0.16459142944E+02  0.16459142944E+02  0.00000000000E+00 0.  1.
          2   -1    0    0  501    0  0.00000000000E+00 -0.00000000000E+00 -0.19525151259E+04  0.19525151259E+04  0.00000000000E+00 0. -1.
         25    2    1    2    0    0 -0.10734037554E+03 -0.70596717382E+01 -0.15288972962E+04  0.15377731083E+04  0.12508954741E+03 0.  0.
          5    1    3    3  502    0 -0.10514544840E+03 -0.48077255317E+02 -0.13036140868E+04  0.13087376160E+04  0.41800000000E+01 0.  1.
         -5    1    3    3    0  502 -0.21949271404E+01  0.41017583579E+02 -0.22528320942E+03  0.22903549226E+03  0.41800000000E+01 0.  1.
        -11    1    1    2    0    0  0.74244082626E+02 -0.31971020357E+02 -0.32072015941E+03  0.33075028435E+03  0.00000000000E+00 0. -1.
         11    1    1    2    0    0  0.33096292918E+02  0.39030692095E+02 -0.86438527262E+02  0.10045087618E+03  0.00000000000E+00 0.  1.
</event>
<event>
 7    1  0.2733606E-009  0.1073865E+03  0.7561462E-02  0.1265488E+00
          3   -1    0    0  501    0  0.00000000000E+00  0.00000000000E+00  0.51072330381E+02  0.51072330381E+02  0.00000000000E+00 0. -1.
         -3   -1    0    0    0  501 -0.00000000000E+00 -0.00000000000E+00 -0.41439338052E+03  0.41439338052E+03  0.00000000000E+00 0.  1.
         25    2    1    2    0    0  0.53775203829E+02  0.48499090430E+02 -0.29763053175E+03  0.33087010915E+03  0.12508861409E+03 0.  0.
          5    1    3    3  502    0 -0.16121800017E+02  0.13486003172E+02  0.16746568887E+01  0.21495617996E+02  0.41800000000E+01 0. -1.
         -5    1    3    3    0  502  0.69897003846E+02  0.35013087258E+02 -0.29930518864E+03  0.30937449115E+03  0.41800000000E+01 0. -1.
        -11    1    1    2    0    0  0.24858519950E+02 -0.18099302328E+02 -0.30279171825E+02  0.43155057703E+02  0.00000000000E+00 0.  1.
         11    1    1    2    0    0 -0.78633723779E+02 -0.30399788101E+02 -0.35411346563E+02  0.91440544056E+02  0.00000000000E+00 0. -1.
</event>
<event>
 7    1  0.2733606E-009  0.1756507E+03  0.7561462E-02  0.1172080E+00
         -1   -1    0    0    0  501 -0.00000000000E+00  0.00000000000E+00  0.62811462500E+03  0.62811462500E+03  0.00000000000E+00 0.  1.
          1   -1    0    0  501    0  0.00000000000E+00 -0.00000000000E+00 -0.68307466641E+02  0.68307466641E+02  0.00000000000E+00 0. -1.
         25    2    1    2    0    0 -0.79813736594E+02  0.13080487780E+03  0.39740254615E+03  0.44390924807E+03  0.12508592342E+03 0.  0.
          5    1    3    3  502    0 -0.52183488623E+02  0.12970065865E+03  0.39093821697E+03  0.41520541811E+03  0.41800000000E+01 0. -1.
         -5    1    3    3    0  502 -0.27630247971E+02  0.11042191429E+01  0.64643291760E+01  0.28703829963E+02  0.41800000000E+01 0. -1.
        -11    1    1    2    0    0  0.16477263807E+02 -0.11762619428E+03  0.14102498793E+03  0.18437860240E+03  0.00000000000E+00 0.  1.
         11    1    1    2    0    0  0.63336472787E+02 -0.13178683515E+02  0.21379624281E+02  0.68134241162E+02  0.00000000000E+00 0. -1.
</event>
<event>
 7    1  0.2733606E-009  0.1240348E+03  0.7561462E-02  0.1236585E+00
         -2   -1    0    0    0  501 -0.00000000000E+00  0.00000000000E+00  0.69703579484E+03  0.69703579484E+03  0.00000000000E+00 0.  1.
          2   -1    0    0  501    0  0.00000000000E+00 -0.00000000000E+00 -0.43632192403E+02  0.43632192403E+02  0.00000000000E+00 0. -1.
         25    2    1    2    0    0 -0.10583922592E+03 -0.44096752458E+02  0.50061501617E+03  0.52859202149E+03  0.12509062893E+03 0.  0.
          5    1    3    3  502    0 -0.66178036939E+02 -0.10300686511E+02  0.78589465864E+02  0.10334124666E+03  0.41800000000E+01 0. -1.
         -5    1    3    3    0  502 -0.39661188983E+02 -0.33796065947E+02  0.42202555030E+03  0.42525077483E+03  0.41800000000E+01 0. -1.
        -11    1    1    2    0    0  0.50655833034E+01 -0.12233483536E+02  0.66860899410E+02  0.68159358298E+02  0.00000000000E+00 0.  1.
         11    1    1    2    0    0  0.10077364262E+03  0.56330235993E+02  0.85927686863E+02  0.14391660746E+03  0.00000000000E+00 0. -1.
</event>
<event>
 7    1  0.2733606E-009  0.1183386E+03  0.7561462E-02  0.1245863E+00
         -1   -1    0    0    0  501 -0.00000000000E+00  0.00000000000E+00  0.41853326828E+02  0.41853326828E+02  0.00000000000E+00 0.  1.
          1   -1    0    0  501    0  0.00000000000E+00 -0.00000000000E+00 -0.50900790993E+03  0.50900790993E+03  0.00000000000E+00 0. -1.
         25    2    1    2    0    0  0.10420625407E+03  0.19493354424E+02 -0.28615067698E+03  0.32980178271E+03  0.12509225271E+03 0.  0.
          5    1    3    3  502    0  0.18386462910E+02  0.14681740246E+02  0.64959172493E+01  0.24764588749E+02  0.41800000000E+01 0. -1.
         -5    1    3    3    0  502  0.85819791163E+02  0.48116141783E+01 -0.29264659423E+03  0.30503719397E+03  0.41800000000E+01 0. -1.
        -11    1    1    2    0    0 -0.42882020809E+02 -0.43299936017E+02 -0.92955297696E+02  0.11115052648E+03  0.00000000000E+00 0.  1.
         11    1    1    2    0    0 -0.61324233263E+02  0.23806581593E+02 -0.88048608423E+02  0.10990892756E+03  0.00000000000E+00 0. -1.
</event>
<event>
 7    1  0.2733606E-009  0.2281270E+03  0.7561462E-02  0.1127965E+00
          2   -1    0    0  501    0  0.00000000000E+00  0.00000000000E+00  0.15061247365E+04  0.15061247365E+04  0.00000000000E+00 0. -1.
         -2   -1    0    0    0  501 -0.00000000000E+00 -0.00000000000E+00 -0.47395358502E+02  0.47395358502E+02  0.00000000000E+00 0.  1.
         25    2    1    2    0    0 -0.14559779690E+03  0.17440991333E+03  0.10065204486E+04  0.10393977542E+04  0.12508693636E+03 0.  0.
          5    1    3    3  502    0 -0.86936643100E+02  0.12247204025E+03  0.86158324152E+03  0.87458592204E+03  0.41800000000E+01 0.  1.
         -5    1    3    3    0  502 -0.58661153796E+02  0.51937873081E+02  0.14493720712E+03  0.16481183220E+03  0.41800000000E+01 0.  1.
        -11    1    1    2    0    0  0.25331777607E+02 -0.23313317110E+02  0.16140952102E+03  0.16504012599E+03  0.00000000000E+00 0. -1.
         11    1    1    2    0    0  0.12026601929E+03 -0.15109659622E+03  0.29079940835E+03  0.34908221479E+03  0.00000000000E+00 0.  1.
</event>
<event>
 7    1  0.2733606E-009  0.2853206E+03  0.7561462E-02  0.1092818E+00
          2   -1    0    0  501    0  0.00000000000E+00  0.00000000000E+00  0.24120714319E+03  0.24120714319E+03  0.00000000000E+00 0. -1.
         -2   -1    0    0    0  501 -0.00000000000E+00 -0.00000000000E+00 -0.34855146113E+03  0.34855146113E+03  0.00000000000E+00 0.  1.
         25    2    1    2    0    0  0.80949426689E+02  0.25092935069E+03 -0.38819965322E+01  0.29185700164E+03  0.12508833197E+03 0.  0.
          5    1    3    3  502    0  0.83832652209E+02  0.26435062856E+03 -0.55393453795E+01  0.27741183310E+03  0.41800000000E+01 0. -1.
         -5    1    3    3    0  502 -0.28832255195E+01 -0.13421277872E+02  0.16573488473E+01  0.14445168546E+02  0.41800000000E+01 0. -1.
        -11    1    1    2    0    0 -0.82771632372E+02 -0.10837137366E+03 -0.58776741841E+02  0.14849310804E+03  0.00000000000E+00 0.  1.
         11    1    1    2    0    0  0.18222056832E+01 -0.14255797703E+03 -0.44685579575E+02  0.14940849464E+03  0.00000000000E+00 0. -1.
</event>
<event>
 7    1  0.2733606E-009  0.1292722E+03  0.7561462E-02  0.1228540E+00
         -1   -1    0    0    0  501 -0.00000000000E+00  0.00000000000E+00  0.13919797973E+03  0.13919797973E+03  0.00000000000E+00 0.  1.
          1   -1    0    0  501    0  0.00000000000E+00 -0.00000000000E+00 -0.15162680156E+03  0.15162680156E+03  0.00000000000E+00 0. -1.
         25    2    1    2    0    0  0.85778382649E+02  0.42165485986E+02  0.54470435902E+01  0.15751775163E+03  0.12508522158E+03 0.  0.
          5    1    3    3  502    0  0.90431107508E+01  0.57232575878E+02 -0.36570457686E+02  0.68645585212E+02  0.41800000000E+01 0. -1.
         -5    1    3    3    0  502  0.76735271898E+02 -0.15067089893E+02  0.42017501276E+02  0.88872166422E+02  0.41800000000E+01 0. -1.
        -11    1    1    2    0    0 -0.98344217137E+02 -0.26110646052E+02 -0.34034335184E+02  0.10729252934E+03  0.00000000000E+00 0. -1.
         11    1    1    2    0    0  0.12565834488E+02 -0.16054839934E+02  0.16158469765E+02  0.26014500319E+02  0.00000000000E+00 0.  1.
</event>
<event>
 7    1  0.2733606E-009  0.1056849E+03  0.7561462E-02  0.1268776E+00
         -1   -1    0    0    0  501 -0.00000000000E+00  0.00000000000E+00  0.14976232721E+03  0.14976232721E+03  0.00000000000E+00 0.  1.
          1   -1    0    0  501    0  0.00000000000E+00 -0.00000000000E+00 -0.12015243021E+03  0.12015243021E+03  0.00000000000E+00 0. -1.
         25    2    1    2    0    0  0.40770804004E+02 -0.60806205135E+01 -0.51792996796E+02  0.14152548094E+03  0.12509082634E+03 0.  0.
          5    1    3    3  502    0  0.16136724871E+02  0.48923469413E+02 -0.61503160706E+02  0.80336859073E+02  0.41800000000E+01 0.  1.
         -5    1    3    3    0  502  0.24634079134E+02 -0.55004089927E+02  0.97101639096E+01  0.61188621872E+02  0.41800000000E+01 0.  1.
        -11    1    1    2    0    0 -0.56305375828E+02  0.35104014115E+02  0.55384242727E+02  0.86429170403E+02  0.00000000000E+00 0.  1.
         11    1    1    2    0    0  0.15534571823E+02 -0.29023393602E+02  0.26018651075E+02  0.41960106073E+02  0.00000000000E+00 0. -1.
</event>
<event>
 7    1  0.2733606E-009  0.1318146E+03  0.7561462E-02  0.1224788E+00
         -2   -1    0    0    0  501 -0.00000000000E+00  0.00000000000E+00  0.19319542457E+03  0.19319542457E+03  0.00000000000E+00 0. -1.
          2   -1    0    0  501    0  0.00000000000E+00 -0.00000000000E+00 -0.91639484791E+02  0.91639484791E+02  0.00000000000E+00 0.  1.
         25    2    1    2    0    0  0.80189241345E+02  0.13850209476E+02  0.71455981647E+02  0.16545249132E+03  0.12508567800E+03 0.  0.
          5    1    3    3  502    0  0.20174716921E+02  0.66163861822E+02  0.37558452129E+02  0.78821225189E+02  0.41800000000E+01 0. -1.
         -5    1    3    3    0  502  0.60014524424E+02 -0.52313652346E+02  0.33897529518E+02  0.86631266129E+02  0.41800000000E+01 0. -1.
        -11    1    1    2    0    0 -0.83790468316E+01  0.29540705517E+02  0.15088232242E+01  0.30743100946E+02  0.00000000000E+00 0. -1.
         11    1    1    2    0    0 -0.71810194513E+02 -0.43390914993E+02  0.28591134907E+02  0.88639317096E+02  0.00000000000E+00 0.  1.
</event>
<event>
 7    1  0.2733606E-009  0.5211286E+02  0.7561462E-02  0.1434267E+00
          1   -1    0    0  501    0  0.00000000000E+00  0.00000000000E+00  0.12596758977E+04  0.12596758977E+04  0.00000000000E+00 0. -1.
         -1   -1    0    0    0  501 -0.00000000000E+00 -0.00000000000E+00 -0.17404741648E+02  0.17404741648E+02  0.00000000000E+00 0.  1.
         25    2    1    2    0    0 -0.17413898378E+02  0.80366815264E+01  0.10997609768E+04  0.11070185424E+04  0.12509202627E+03 0.  0.
          5    1    3    3  502    0 -0.53065226683E+00  0.27117371420E+01 -0.17873997772E+01  0.53199913646E+01  0.41800000000E+01 0. -1.
         -5    1    3    3    0  502 -0.16883246112E+02  0.53249443844E+01  0.11015483766E+04  0.11016985511E+04  0.41800000000E+01 0. -1.
        -11    1    1    2    0    0  0.46593624179E+02 -0.18349425786E+02  0.43513965061E+02  0.66341031015E+02  0.00000000000E+00 0.  1.
         11    1    1    2    0    0 -0.29179725801E+02  0.10312744260E+02  0.98996214155E+02  0.10372106589E+03  0.00000000000E+00 0. -1.
</event>
<event>
 7    1  0.2733606E-009  0.1258507E+03  0.7561462E-02  0.1233746E+00
         -2   -1    0    0    0  501 -0.00000000000E+00  0.00000000000E+00  0.68695568747E+02  0.68695568747E+02  0.00000000000E+00 0.  1.
          2   -1    0    0  501    0  0.00000000000E+00 -0.00000000000E+00 -0.33708262624E+03  0.33708262624E+03  0.00000000000E+00 0. -1.
         25    2    1    2    0    0 -0.42858134520E+02  0.94568232317E+02 -0.16479205074E+03  0.23148041358E+03  0.12508713613E+03 0.  0.
          5    1    3    3  502    0 -0.58311949079E+02  0.44690904572E+02 -0.16325616757E+03  0.17907431141E+03  0.41800000000E+01 0.  1.
         -5    1    3    3    0  502  0.15453814559E+02  0.49877327746E+02 -0.15358831708E+01  0.52406102169E+02  0.41800000000E+01 0.  1.
        -11    1    1    2    0    0 -0.18670303310E+02 -0.10094372677E+02  0.67955221834E+01  0.22285773650E+02  0.00000000000E+00 0.  1.
         11    1    1    2    0    0  0.61528437830E+02 -0.84473859640E+02 -0.11039052894E+03  0.15201200776E+03  0.00000000000E+00 0. -1.
</event>
<event>
 7    1  0.2733606E-009  0.1250714E+03  0.7561462E-02  0.1234958E+00
         -3   -1    0    0    0  501 -0.00000000000E+00  0.00000000000E+00  0.41188296737E+02  0.41188296737E+02  0.00000000000E+00 0.  1.
          3   -1    0    0  501    0  0.00000000000E+00 -0.00000000000E+00 -0.56433221309E+03  0.56433221309E+03  0.00000000000E+00 0. -1.
         25    2    1    2    0    0 -0.26591933608E+02 -0.10257908308E+03 -0.22568438435E+03  0.27895111445E+03  0.12510269258E+03 0.  0.
          5    1    3    3  502    0 -0.41315257456E+02 -0.95415752710E+02 -0.23684680873E+03  0.25869866558E+03  0.41800000000E+01 0. -1.
         -5    1    3    3    0  502  0.14723323848E+02 -0.71633303746E+01  0.11162424382E+02  0.20252448871E+02  0.41800000000E+01 0. -1.
        -11    1    1    2    0    0  0.46381653815E+02  0.98647545671E+02 -0.27770151610E+03  0.29832989813E+03  0.00000000000E+00 0.  1.
         11    1    1    2    0    0 -0.19789720207E+02  0.39315374135E+01 -0.19758015909E+02  0.28239497250E+02  0.00000000000E+00 0. -1.
</event>
<event>
 7    1  0.2733606E-009  0.8196070E+02  0.7561462E-02  0.1323578E+00
          1   -1    0    0  501    0  0.00000000000E+00  0.00000000000E+00  0.29967741601E+02  0.29967741601E+02  0.00000000000E+00 0. -1.
         -1   -1    0    0    0  501 -0.00000000000E+00 -0.00000000000E+00 -0.38597690536E+03  0.38597690536E+03  0.00000000000E+00 0.  1.
         25    2    1    2    0    0  0.22219150323E+02 -0.25597534862E+02 -0.21955540157E+03  0.25495315717E+03  0.12509042154E+03 0.  0.
          5    1    3    3  502    0 -0.19038159531E+02  0.28325066544E+02 -0.16271197335E+03  0.16630520011E+03  0.41800000000E+01 0. -1.
         -5    1    3    3    0  502  0.41257309854E+02 -0.53922601406E+02 -0.56843428218E+02  0.88647957057E+02  0.41800000000E+01 0. -1.
        -11    1    1    2    0    0 -0.99125604619E+01  0.40781365676E+02 -0.13502208809E+03  0.14139428175E+03  0.00000000000E+00 0.  1.
         11    1    1    2    0    0 -0.12306589862E+02 -0.15183830814E+02 -0.14316741059E+01  0.19597208040E+02  0.00000000000E+00 0. -1.
</event>
<event>
 7    1  0.2733606E-009  0.1105241E+03  0.7561462E-02  0.1259602E+00
          1   -1    0    0  501    0  0.00000000000E+00  0.00000000000E+00  0.37931342791E+03  0.37931342791E+03  0.00000000000E+00 0. -1.
         -1   -1    0    0    0  501 -0.00000000000E+00 -0.00000000000E+00 -0.51084043354E+02  0.51084043354E+02  0.00000000000E+00 0.  1.
         25    2    1    2    0    0 -0.48560480598E+01  0.74338596161E+02  0.10811907857E+03  0.18134671343E+03  0.12508831776E+03 0.  0.
          5    1    3    3  502    0  0.30013775226E+02 -0.52050918492E+01 -0.12045408637E+02  0.33022476492E+02  0.41800000000E+01 0.  1.
         -5    1    3    3    0  502 -0.34869823285E+02  0.79543688010E+02  0.12016448721E+03  0.14832423694E+03  0.41800000000E+01 0.  1.
        -11    1    1    2    0    0 -0.31448483096E+02 -0.51856510723E+02  0.18191819270E+03  0.19176113691E+03  0.00000000000E+00 0. -1.
         11    1    1    2    0    0  0.36304531155E+02 -0.22482085438E+02  0.38192113282E+02  0.57289620919E+02  0.00000000000E+00 0.  1.
</event>
<event>
 7    1  0.2733606E-009  0.1010201E+03  0.7561462E-02  0.1278165E+00
         -1   -1    0    0    0  501 -0.00000000000E+00  0.00000000000E+00  0.33180116539E+03  0.33180116539E+03  0.00000000000E+00 0.  1.
          1   -1    0    0  501    0  0.00000000000E+00 -0.00000000000E+00 -0.51057074700E+02  0.51057074700E+02  0.00000000000E+00 0. -1.
         25    2    1    2    0    0  0.10358250761E+02 -0.56878209161E+02  0.95458967821E+02  0.16763309335E+03  0.12508403340E+03 0.  0.
          5    1    3    3  502    0  0.44688711124E+02 -0.13915943454E+02  0.10179482003E+03  0.11211776027E+03  0.41800000000E+01 0.  1.
         -5    1    3    3    0  502 -0.34330460363E+02 -0.42962265708E+02 -0.63358522078E+01  0.55515333077E+02  0.41800000000E+01 0.  1.
        -11    1    1    2    0    0 -0.20450555572E+01 -0.21239251997E+02  0.86064531033E+02  0.88670127887E+02  0.00000000000E+00 0.  1.
         11    1    1    2    0    0 -0.83131952043E+01  0.78117461159E+02  0.99220591838E+02  0.12655501885E+03  0.00000000000E+00 0. -1.
</event>
<event>
 7    1  0.2733606E-009  0.7216312E+02  0.7561462E-02  0.1352888E+00
         -1   -1    0    0    0  501 -0.00000000000E+00  0.00000000000E+00  0.15417815447E+03  0.15417815447E+03  0.00000000000E+00 0.  1.
          1   -1    0    0  501    0  0.00000000000E+00 -0.00000000000E+00 -0.11255893030E+03  0.11255893030E+03  0.00000000000E+00 0. -1.
         25    2    1    2    0    0  0.18882254428E+02  0.50745741158E+02  0.76026867839E+02  0.15607480631E+03  0.12509033038E+03 0.  0.
          5    1    3    3  502    0  0.45459036100E+02  0.27159161246E+02 -0.17508477478E+02  0.55929984680E+02  0.41800000000E+01 0. -1.
         -5    1    3    3    0  502 -0.26576781672E+02  0.23586579913E+02  0.93535345317E+02  0.10014482163E+03  0.41800000000E+01 0. -1.
        -11    1    1    2    0    0 -0.26052515572E+01 -0.23843209016E+02  0.30344695344E+02  0.38679277234E+02  0.00000000000E+00 0.  1.
         11    1    1    2    0    0 -0.16277002871E+02 -0.26902532142E+02 -0.64752339013E+02  0.71983001228E+02  0.00000000000E+00 0. -1.
</event>
<event>
 7    1  0.2733606E-009  0.1805573E+03  0.7561462E-02  0.1167265E+00
         -1   -1    0    0    0  501 -0.00000000000E+00  0.00000000000E+00  0.56725317853E+02  0.56725317853E+02  0.00000000000E+00 0.  1.
          1   -1    0    0  501    0  0.00000000000E+00 -0.00000000000E+00 -0.96574076146E+03  0.96574076146E+03  0.00000000000E+00 0. -1.
         25    2    1    2    0    0  0.14050999164E+03  0.36082081127E+02 -0.78611793631E+03  0.80911974573E+03  0.12509348027E+03 0.  0.
          5    1    3    3  502    0  0.33255164918E+02 -0.45292035284E+02 -0.20567060148E+03  0.21324901680E+03  0.41800000000E+01 0. -1.
         -5    1    3    3    0  502  0.10725482672E+03  0.81374116411E+02 -0.58044733483E+03  0.59587072893E+03  0.41800000000E+01 0. -1.
        -11    1    1    2    0    0 -0.11211888380E+03 -0.64959731995E+02 -0.71778140920E+02  0.14813005232E+03  0.00000000000E+00 0.  1.
         11    1    1    2    0    0 -0.28391107839E+02  0.28877650868E+02 -0.51119366378E+02  0.65216281271E+02  0.00000000000E+00 0. -1.
</event>
<event>
 7    1  0.2733606E-009  0.1250062E+03  0.7561462E-02  0.1235060E+00
          1   -1    0    0  501    0  0.00000000000E+00  0.00000000000E+00  0.23754254011E+03  0.23754254011E+03  0.00000000000E+00 0. -1.
         -1   -1    0    0    0  501 -0.00000000000E+00 -0.00000000000E+00 -0.13438122372E+03  0.13438122372E+03  0.00000000000E+00 0.  1.
         25    2    1    2    0    0 -0.21644526535E+02  0.61453356578E+02 -0.76591315483E+02  0.16049479084E+03  0.12508935892E+03 0.  0.
          5    1    3    3  502    0 -0.53249455825E+02  0.85334109057E+02 -0.48449587733E+02  0.11172398877E+03  0.41800000000E+01 0. -1.
         -5    1    3    3    0  502  0.31604929290E+02 -0.23880752479E+02 -0.28141727750E+02  0.48770802076E+02  0.41800000000E+01 0. -1.
        -11    1    1    2    0    0  0.41327710097E+01 -0.82230902210E+02  0.15017322331E+03  0.17126295009E+03  0.00000000000E+00 0.  1.
         11    1    1    2    0    0  0.17511755525E+02  0.20777545633E+02  0.29579408565E+02  0.40166022895E+02  0.00000000000E+00 0. -1.
</event>
<event>
 7    1  0.2733606E-009  0.1215870E+03  0.7561462E-02  0.1240502E+00
          2   -1    0    0  501    0  0.00000000000E+00  0.00000000000E+00  0.76279522288E+03  0.76279522288E+03  0.00000000000E+00 0. -1.
         -2   -1    0    0    0  501 -0.00000000000E+00 -0.00000000000E+00 -0.32479316922E+02  0.32479316922E+02  0.00000000000E+00 0.  1.
         25    2    1    2    0    0  0.33961444669E+02  0.72327335466E+02  0.59732101221E+03  0.61548791295E+03  0.12509338983E+03 0.  0.
          5    1    3    3  502    0 -0.38238458677E+02  0.37112904006E+02  0.38032601066E+03  0.38406365898E+03  0.41800000000E+01 0. -1.
         -5    1    3    3    0  502  0.72199903346E+02  0.35214431460E+02  0.21699500155E+03  0.23142425397E+03  0.41800000000E+01 0. -1.
        -11    1    1    2    0    0 -0.38979036472E+02 -0.22672926035E+01  0.13755206618E+02  0.41397000002E+02  0.00000000000E+00 0.  1.
         11    1    1    2    0    0  0.50175918028E+01 -0.70060042863E+02  0.11923968713E+03  0.13838962685E+03  0.00000000000E+00 0. -1.
</event>
<event>
 7    1  0.2733606E-009  0.1054426E+03  0.7561462E-02  0.1269250E+00
          2   -1    0    0  501    0  0.00000000000E+00  0.00000000000E+00  0.75777715394E+02  0.75777715394E+02  0.00000000000E+00 0. -1.
         -2   -1    0    0    0  501 -0.00000000000E+00 -0.00000000000E+00 -0.28462553588E+03  0.28462553588E+03  0.00000000000E+00 0.  1.
         25    2    1    2    0    0 -0.42902092626E+02  0.15896558924E+02 -0.80304545269E+01  0.13343285373E+03  0.12508616278E+03 0.  0.
          5    1    3    3  502    0 -0.84315249832E+02 -0.86193455578E+01 -0.63953860000E+01  0.85098342136E+02  0.41800000000E+01 0. -1.
         -5    1    3    3    0  502  0.41413157206E+02  0.24515904482E+02 -0.16350685270E+01  0.48334511598E+02  0.41800000000E+01 0. -1.
        -11    1    1    2    0    0  0.33834345007E+02  0.20936330765E+02 -0.17866776629E+03  0.18304443056E+03  0.00000000000E+00 0.  1.
         11    1    1    2    0    0  0.90677476192E+01 -0.36832889689E+02 -0.22149599669E+02  0.43925966981E+02  0.00000000000E+00 0. -1.
</event>
<event>
 7    1  0.2733606E-009  0.1561848E+03  0.7561462E-02  0.1193073E+00
         -1   -1    0    0    0  501 -0.00000000000E+00  0.00000000000E+00  0.98062680009E+03  0.98062680009E+03  0.00000000000E+00 0.  1.
          1   -1    0    0  501    0  0.00000000000E+00 -0.00000000000E+00 -0.25927937015E+02  0.25927937015E+02  0.00000000000E+00 0. -1.
         25    2    1    2    0    0  0.18507123722E+02 -0.11118016243E+03  0.41881459598E+03  0.45139438691E+03  0.12509070539E+03 0.  0.
          5    1    3    3  502    0 -0.27751237451E+02 -0.11720029566E+03  0.32288435240E+03  0.34464157890E+03  0.41800000000E+01 0.  1.
         -5    1    3    3    0  502  0.46258361173E+02  0.60201332374E+01  0.95930243584E+02  0.10675280800E+03  0.41800000000E+01 0.  1.
        -11    1    1    2    0    0  0.36318085396E+02  0.30235688694E+02  0.17430274936E+03  0.18059526193E+03  0.00000000000E+00 0.  1.
         11    1    1    2    0    0 -0.54825209118E+02  0.80944473733E+02  0.36158151774E+03  0.37456508827E+03  0.00000000000E+00 0. -1.
</event>
<event>
 7    1  0.2733606E-009  0.1049525E+03  0.7561462E-02  0.1270213E+00
         -2   -1    0    0    0  501 -0.00000000000E+00  0.00000000000E+00  0.65713291803E+02  0.65713291803E+02  0.00000000000E+00 0.  1.
          2   -1    0    0  501    0  0.00000000000E+00 -0.00000000000E+00 -0.19958136190E+03  0.19958136190E+03  0.00000000000E+00 0. -1.
         25    2    1    2    0    0  0.27356504892E+02  0.16905000677E+02 -0.94906156625E+02  0.16028019251E+03  0.12509358153E+03 0.  0.
          5    1    3    3  502    0  0.62488752790E+02  0.50338407101E+02 -0.55564168748E+02  0.97691599963E+02  0.41800000000E+01 0.  1.
         -5    1    3    3    0  502 -0.35132247898E+02 -0.33433406424E+02 -0.39341987877E+02  0.62588592552E+02  0.41800000000E+01 0.  1.
        -11    1    1    2    0    0  0.25449561481E+02 -0.63862732770E-01  0.13403330860E+02  0.28763406199E+02  0.00000000000E+00 0.  1.
         11    1    1    2    0    0 -0.52806066373E+02 -0.16841137944E+02 -0.52365244328E+02  0.76251054987E+02  0.00000000000E+00 0. -1.
</event>
<event>
 7    1  0.2733606E-009  0.1592277E+03  0.7561462E-02  0.1189571E+00
         -1   -1    0    0    0  501 -0.00000000000E+00  0.00000000000E+00  0.13968314133E+03  0.13968314133E+03  0.00000000000E+00 0.  1.
          1   -1    0    0  501    0  0.00000000000E+00 -0.00000000000E+00 -0.24539636964E+03  0.24539636964E+03  0.00000000000E+00 0. -1.
         25    2    1    2    0    0  0.18987459252E+02  0.11825395879E+03 -0.14929673494E+03  0.22865104977E+03  0.12508902878E+03 0.  0.
          5    1    3    3  502    0  0.68939924227E+02  0.57000205228E+02 -0.10480761643E+03  0.13785443558E+03  0.41800000000E+01 0.  1.
         -5    1    3    3    0  502 -0.49952464975E+02  0.61253753564E+02 -0.44489118507E+02  0.90796614189E+02  0.41800000000E+01 0.  1.
        -11    1    1    2    0    0  0.31648788687E+02 -0.80786108809E+02  0.19067131054E+02  0.88834659275E+02  0.00000000000E+00 0. -1.
         11    1    1    2    0    0 -0.50636247939E+02 -0.37467849982E+02  0.24516375573E+02  0.67593801926E+02  0.00000000000E+00 0.  1.
</event>
<event>
 7    1  0.2733606E-009  0.8759518E+02  0.7561462E-02  0.1308782E+00
         -1   -1    0    0    0  501 -0.00000000000E+00  0.00000000000E+00  0.97568875403E+01  0.97568875403E+01  0.00000000000E+00 0.  1.
          1   -1    0    0  501    0  0.00000000000E+00 -0.00000000000E+00 -0.13673037269E+04  0.13673037269E+04  0.00000000000E+00 0. -1.
         25    2    1    2    0    0 -0.30008873234E+02 -0.13539837467E+02 -0.92141336728E+03  0.93044837667E+03  0.12509088129E+03 0.  0.
          5    1    3    3  502    0 -0.43122649295E+02 -0.34077988026E+02 -0.17177282688E+03  0.18040024558E+03  0.41800000000E+01 0.  1.
         -5    1    3    3    0  502  0.13113776061E+02  0.20538150558E+02 -0.74964054040E+03  0.75004813109E+03  0.41800000000E+01 0.  1.
        -11    1    1    2    0    0  0.58614688896E+02 -0.85081420876E+01 -0.24156988530E+03  0.24872490772E+03  0.00000000000E+00 0.  1.
         11    1    1    2    0    0 -0.28605815662E+02  0.22047979555E+02 -0.19456358675E+03  0.19788733002E+03  0.00000000000E+00 0. -1.
</event>
<event>
 7    1  0.2733606E-009  0.7495393E+02  0.7561462E-02  0.1344014E+00
          1   -1    0    0  501    0  0.00000000000E+00  0.00000000000E+00  0.30785769580E+03  0.30785769580E+03  0.00000000000E+00 0. -1.
         -1   -1    0    0    0  501 -0.00000000000E+00 -0.00000000000E+00 -0.43172675056E+02  0.43172675056E+02  0.00000000000E+00 0.  1.
         25    2    1    2    0    0 -0.21838655891E+02  0.80767754315E+01  0.19663664091E+03  0.23420533477E+03  0.12507601327E+03 0.  0.
          5    1    3    3  502    0  0.21545965774E+02  0.34231530227E+02  0.17377651199E+03  0.17847065536E+03  0.41800000000E+01 0. -1.
         -5    1    3    3    0  502 -0.43384621665E+02 -0.26154754795E+02  0.22860128913E+02  0.55734679414E+02  0.41800000000E+01 0. -1.
        -11    1    1    2    0    0  0.68230089279E+01  0.22950973433E+02 -0.14065611222E+02  0.27769444564E+02  0.00000000000E+00 0.  1.
         11    1    1    2    0    0  0.15015646963E+02 -0.31027748865E+02  0.82113991066E+02  0.89055591526E+02  0.00000000000E+00 0. -1.
</event>
<event>
 7    1  0.2733606E-009  0.7349732E+02  0.7561462E-02  0.1348589E+00
         -2   -1    0    0    0  501 -0.00000000000E+00  0.00000000000E+00  0.42017944285E+02  0.42017944285E+02  0.00000000000E+00 0.  1.
          2   -1    0    0  501    0  0.00000000000E+00 -0.00000000000E+00 -0.32140391871E+03  0.32140391871E+03  0.00000000000E+00 0. -1.
         25    2    1    2    0    0  0.12583903682E+02 -0.31471370735E+02 -0.17695995777E+03  0.21934195665E+03  0.12508903024E+03 0.  0.
          5    1    3    3  502    0  0.27413884277E+02 -0.10751788713E+02 -0.18866301191E+03  0.19099300111E+03  0.41800000000E+01 0.  1.
         -5    1    3    3    0  502 -0.14829980595E+02 -0.20719582022E+02  0.11703054144E+02  0.28348955535E+02  0.41800000000E+01 0.  1.
        -11    1    1    2    0    0 -0.49101011715E+02  0.14751184085E+02 -0.87145945297E+02  0.10110846930E+03  0.00000000000E+00 0. -1.
         11    1    1    2    0    0  0.36517108034E+02  0.16720186651E+02 -0.15280071366E+02  0.42971437045E+02  0.00000000000E+00 0.  1.
</event>
<event>
 7    1  0.2733606E-009  0.1060576E+03  0.7561462E-02  0.1268050E+00
          1   -1    0    0  501    0  0.00000000000E+00  0.00000000000E+00  0.13235230689E+04  0.13235230689E+04  0.00000000000E+00 0. -1.
         -1   -1    0    0    0  501 -0.00000000000E+00 -0.00000000000E+00 -0.15022090074E+02  0.15022090074E+02  0.00000000000E+00 0.  1.
         25    2    1    2    0    0  0.48979958558E+02  0.33696624561E+02  0.10287877965E+04  0.10380686503E+04  0.12509074225E+03 0.  0.
          5    1    3    3  502    0  0.16657624597E+02  0.65420536122E+02  0.28597579496E+03  0.29386553168E+03  0.41800000000E+01 0.  1.
         -5    1    3    3    0  502  0.32322333962E+02 -0.31723911561E+02  0.74281200150E+03  0.74420311865E+03  0.41800000000E+01 0.  1.
        -11    1    1    2    0    0 -0.28713087555E+02  0.24265178725E+02  0.17582486970E+03  0.17979884622E+03  0.00000000000E+00 0. -1.
         11    1    1    2    0    0 -0.20266871004E+02 -0.57961803286E+02  0.10388831263E+03  0.12067766240E+03  0.00000000000E+00 0.  1.
</event>
<event>
 7    1  0.2733606E-009  0.1097858E+03  0.7561462E-02  0.1260967E+00
         -2   -1    0    0    0  501 -0.00000000000E+00  0.00000000000E+00  0.10750790183E+02  0.10750790183E+02  0.00000000000E+00 0.  1.
          2   -1    0    0  501    0  0.00000000000E+00 -0.00000000000E+00 -0.15032618033E+04  0.15032618033E+04  0.00000000000E+00 0. -1.
         25    2    1    2    0    0  0.22280724951E+02  0.35742697808E+01 -0.12017722115E+04  0.12084758439E+04  0.12509280819E+03 0.  0.
          5    1    3    3  502    0  0.67624256026E+02  0.30081777730E+02 -0.74232246354E+03  0.74601478915E+03  0.41800000000E+01 0.  1.
         -5    1    3    3    0  502 -0.45343531076E+02 -0.26507507950E+02 -0.45944974799E+03  0.46246105470E+03  0.41800000000E+01 0.  1.
        -11    1    1    2    0    0 -0.22243710480E+02 -0.45594460583E+02 -0.13461468572E+03  0.14385670336E+03  0.00000000000E+00 0.  1.
         11    1    1    2    0    0 -0.37014470672E-01  0.42020190802E+02 -0.15612411589E+03  0.16168004628E+03  0.00000000000E+00 0. -1.
</event>
<event>
 7    1  0.2733606E-009  0.9657190E+02  0.7561462E-02  0.1287675E+00
         -3   -1    0    0    0  501 -0.00000000000E+00  0.00000000000E+00  0.24268012853E+03  0.24268012853E+03  0.00000000000E+00 0.  1.
          3   -1    0    0  501    0  0.00000000000E+00 -0.00000000000E+00 -0.54313893254E+02  0.54313893254E+02  0.00000000000E+00 0. -1.
         25    2    1    2    0    0  0.35070947637E+02 -0.20214402358E+01  0.93522984581E+02  0.16008652038E+03  0.12508831990E+03 0.  0.
          5    1    3    3  502    0  0.75297116575E+02 -0.28200701156E+02  0.47614082841E+02  0.93538807962E+02  0.41800000000E+01 0. -1.
         -5    1    3    3    0  502 -0.40226168937E+02  0.26179260920E+02  0.45908901741E+02  0.66547712423E+02  0.41800000000E+01 0. -1.
        -11    1    1    2    0    0 -0.97458621771E+01 -0.25352950630E+02 -0.73366478522E+01  0.28135037532E+02  0.00000000000E+00 0. -1.
         11    1    1    2    0    0 -0.25325085460E+02  0.27374390866E+02  0.10217989855E+03  0.10877246387E+03  0.00000000000E+00 0.  1.
</event>
<event>
 7    1  0.2733606E-009  0.9235944E+02  0.7561462E-02  0.1297237E+00
         -2   -1    0    0    0  501 -0.00000000000E+00  0.00000000000E+00  0.21872196521E+02  0.21872196521E+02  0.00000000000E+00 0.  1.
          2   -1    0    0  501    0  0.00000000000E+00 -0.00000000000E+00 -0.53460900377E+03  0.53460900377E+03  0.00000000000E+00 0. -1.
         25    2    1    2    0    0 -0.15418416153E+02 -0.23987201481E+02 -0.36719287781E+03  0.38896097247E+03  0.12508763010E+03 0.  0.
          5    1    3    3  502    0 -0.10750797373E+02  0.38648842754E+02 -0.27111035048E+03  0.27409415760E+03  0.41800000000E+01 0.  1.
         -5    1    3    3    0  502 -0.46676187805E+01 -0.62636044235E+02 -0.96082527322E+02  0.11486681487E+03  0.41800000000E+01 0.  1.
        -11    1    1    2    0    0  0.79560761778E+01  0.51919152780E+02 -0.77866598413E+02  0.93926059866E+02  0.00000000000E+00 0.  1.
         11    1    1    2    0    0  0.74623399753E+01 -0.27931951300E+02 -0.67677331029E+02  0.73594167952E+02  0.00000000000E+00 0. -1.
</event>
<event>
 7    1  0.2733606E-009  0.8039569E+02  0.7561462E-02  0.1327932E+00
          2   -1    0    0  501    0  0.00000000000E+00  0.00000000000E+00  0.78055637667E+02  0.78055637667E+02  0.00000000000E+00 0. -1.
         -2   -1    0    0    0  501 -0.00000000000E+00 -0.00000000000E+00 -0.19390148808E+03  0.19390148808E+03  0.00000000000E+00 0.  1.
         25    2    1    2    0    0 -0.22722852267E+02 -0.28183987764E+02 -0.11159742724E+03  0.17149256914E+03  0.12508017558E+03 0.  0.
          5    1    3    3  502    0  0.42055863967E+02 -0.14109609768E+02 -0.92030053859E+02  0.10224861855E+03  0.41800000000E+01 0.  1.
         -5    1    3    3    0  502 -0.64778716235E+02 -0.14074377997E+02 -0.19567373382E+02  0.69243950596E+02  0.41800000000E+01 0.  1.
        -11    1    1    2    0    0 -0.75394930208E+01  0.15031997822E+02 -0.44993872451E+02  0.48033878374E+02  0.00000000000E+00 0.  1.
         11    1    1    2    0    0  0.30262345288E+02  0.13151989943E+02  0.40745449283E+02  0.52430678225E+02  0.00000000000E+00 0. -1.
</event>
<event>
 7    1  0.2733606E-009  0.5828543E+02  0.7561462E-02  0.1405171E+00
         -1   -1    0    0    0  501 -0.00000000000E+00  0.00000000000E+00  0.84430356919E+02  0.84430356919E+02  0.00000000000E+00 0.  1.
          1   -1    0    0  501    0  0.00000000000E+00 -0.00000000000E+00 -0.21131145830E+03  0.21131145830E+03  0.00000000000E+00 0. -1.
         25    2    1    2    0    0  0.19054470012E+02  0.23337991058E+01 -0.13153166265E+03  0.18252787687E+03  0.12508928055E+03 0.  0.
          5    1    3    3  502    0  0.18855922515E+02 -0.23129572957E+02 -0.14857679521E+03  0.15160164720E+03  0.41800000000E+01 0.  1.
         -5    1    3    3    0  502  0.19854749745E+00  0.25463372063E+02  0.17045132555E+02  0.30926229672E+02  0.41800000000E+01 0.  1.
        -11    1    1    2    0    0 -0.22748203826E+02  0.24565915649E+02  0.50108308586E+02  0.60264480238E+02  0.00000000000E+00 0.  1.
         11    1    1    2    0    0  0.36937338140E+01 -0.26899714755E+02 -0.45457747314E+02  0.52949458111E+02  0.00000000000E+00 0. -1.
</event>
<event>
 7    1  0.2733606E-009  0.9597465E+02  0.7561462E-02  0.1288996E+00
         -1   -1    0    0    0  501 -0.00000000000E+00  0.00000000000E+00  0.64531672070E+03  0.64531672070E+03  0.00000000000E+00 0.  1.
          1   -1    0    0  501    0  0.00000000000E+00 -0.00000000000E+00 -0.21813086972E+02  0.21813086972E+02  0.00000000000E+00 0. -1.
         25    2    1    2    0    0  0.60538054775E+01 -0.45159543052E+02  0.31158375478E+03  0.33883135764E+03  0.12508485035E+03 0.  0.
          5    1    3    3  502    0  0.56057938161E+01 -0.83961342375E+02  0.14466782741E+03  0.16741321521E+03  0.41800000000E+01 0.  1.
         -5    1    3    3    0  502  0.44801166137E+00  0.38801799323E+02  0.16691592737E+03  0.17141814243E+03  0.41800000000E+01 0.  1.
        -11    1    1    2    0    0  0.51615474272E+01 -0.10601187838E+02  0.57931897271E+00  0.11805183857E+02  0.00000000000E+00 0. -1.
         11    1    1    2    0    0 -0.11215352905E+02  0.55760730890E+02  0.31134055998E+03  0.31649326618E+03  0.00000000000E+00 0.  1.
</event>
<event>
 7    1  0.2733606E-009  0.7769806E+02  0.7561462E-02  0.1335714E+00
         -2   -1    0    0    0  501 -0.00000000000E+00  0.00000000000E+00  0.42357547290E+02  0.42357547290E+02  0.00000000000E+00 0.  1.
          2   -1    0    0  501    0  0.00000000000E+00 -0.00000000000E+00 -0.38010798787E+03  0.38010798787E+03  0.00000000000E+00 0. -1.
         25    2    1    2    0    0  0.40691016643E+02  0.61621790852E+01 -0.27453859524E+03  0.30448577481E+03  0.12508563266E+03 0.  0.
          5    1    3    3  502    0  0.40224830157E+02  0.46460227625E+02 -0.59420786618E+02  0.85585582865E+02  0.41800000000E+01 0. -1.
         -5    1    3    3    0  502  0.46618648639E+00 -0.40298048540E+02 -0.21511780863E+03  0.21890019195E+03  0.41800000000E+01 0. -1.
        -11    1    1    2    0    0 -0.32875281006E+02 -0.19208012018E+02 -0.83997765801E+02  0.92224489625E+02  0.00000000000E+00 0. -1.
         11    1    1    2    0    0 -0.78157356371E+01  0.13045832933E+02  0.20785920466E+02  0.25755270724E+02  0.00000000000E+00 0.  1.
</event>
<event>
 7    1  0.2733606E-009  0.1010729E+03  0.7561462E-02  0.1278056E+00
         -1   -1    0    0    0  501 -0.00000000000E+00  0.00000000000E+00  0.42724356471E+02  0.42724356471E+02  0.00000000000E+00 0.  1.
          1   -1    0    0  501    0  0.00000000000E+00 -0.00000000000E+00 -0.36042824631E+03  0.36042824631E+03  0.00000000000E+00 0. -1.
         25    2    1    2    0    0  0.21446787064E+02  0.52258822801E+02 -0.21711160470E+03  0.25685781612E+03  0.12509012580E+03 0.  0.
          5    1    3    3  502    0 -0.25167256461E+02  0.79219812013E+02 -0.12977526499E+03  0.15416958590E+03  0.41800000000E+01 0. -1.
         -5    1    3    3    0  502  0.46614043525E+02 -0.26960989212E+02 -0.87336339703E+02  0.10268823022E+03  0.41800000000E+01 0. -1.
        -11    1    1    2    0    0 -0.79443267063E+01 -0.50696658417E+02 -0.11533903220E+03  0.12623928014E+03  0.00000000000E+00 0. -1.
         11    1    1    2    0    0 -0.13502460358E+02 -0.15621643846E+01  0.14746747052E+02  0.20055506523E+02  0.00000000000E+00 0.  1.
</event>
<event>
 7    1  0.2733606E-009  0.1666025E+03  0.7561462E-02  0.1181438E+00
          1   -1    0    0  501    0  0.00000000000E+00  0.00000000000E+00  0.13754160846E+04  0.13754160846E+04  0.00000000000E+00 0. -1.
         -1   -1    0    0    0  501 -0.00000000000E+00 -0.00000000000E+00 -0.26044848944E+02  0.26044848944E+02  0.00000000000E+00 0.  1.
         25    2    1    2    0    0 -0.81041959127E+02  0.12747102111E+03  0.59704569169E+03  0.62843246415E+03  0.12508854333E+03 0.  0.
          5    1    3    3  502    0 -0.10189313490E+03  0.93928939575E+02  0.32264416797E+03  0.35117173599E+03  0.41800000000E+01 0.  1.
         -5    1    3    3    0  502  0.20851175771E+02  0.33542081531E+02  0.27440152372E+03  0.27726072817E+03  0.41800000000E+01 0.  1.
        -11    1    1    2    0    0  0.82102133315E+02 -0.10959344156E+03  0.73652219399E+03  0.74914379459E+03  0.00000000000E+00 0. -1.
         11    1    1    2    0    0 -0.10601741886E+01 -0.17877579547E+02  0.15803349955E+02  0.23884674785E+02  0.00000000000E+00 0.  1.
</event>
<event>
 7    1  0.2733606E-009  0.7734718E+02  0.7561462E-02  0.1336753E+00
         -2   -1    0    0    0  501 -0.00000000000E+00  0.00000000000E+00  0.43511688888E+02  0.43511688888E+02  0.00000000000E+00 0. -1.
          2   -1    0    0  501    0  0.00000000000E+00 -0.00000000000E+00 -0.32500246529E+03  0.32500246529E+03  0.00000000000E+00 0.  1.
         25    2    1    2    0    0  0.11094383473E+02 -0.39598322176E+02 -0.20389534127E+03  0.24271940709E+03  0.12509311701E+03 0.  0.
          5    1    3    3  502    0  0.36112856492E+02 -0.44285992785E+02 -0.20875121691E+03  0.21647154668E+03  0.41800000000E+01 0. -1.
         -5    1    3    3    0  502 -0.25018473019E+02  0.46876706093E+01  0.48558756411E+01  0.26247860412E+02  0.41800000000E+01 0. -1.
        -11    1    1    2    0    0  0.17050193096E+02 -0.59521865831E+01  0.11812782484E+02  0.21579607034E+02  0.00000000000E+00 0. -1.
         11    1    1    2    0    0 -0.28144576569E+02  0.45550508759E+02 -0.89408217610E+02  0.10421514005E+03  0.00000000000E+00 0.  1.
</event>
<event>
 7    1  0.2733606E-009  0.8617618E+02  0.7561462E-02  0.1312385E+00
         -1   -1    0    0    0  501 -0.00000000000E+00  0.00000000000E+00  0.18830950342E+03  0.18830950342E+03  0.00000000000E+00 0.  1.
          1   -1    0    0  501    0  0.00000000000E+00 -0.00000000000E+00 -0.10328017381E+03  0.10328017381E+03  0.00000000000E+00 0. -1.
         25    2    1    2    0    0 -0.53475751154E+02  0.10326466810E+02  0.11844379573E+03  0.18067336269E+03  0.12509052466E+03 0.  0.
          5    1    3    3  502    0 -0.75131210359E+02  0.18151725650E+02  0.13244261841E+03  0.15340372709E+03  0.41800000000E+01 0.  1.
         -5    1    3    3    0  502  0.21655459205E+02 -0.78252588398E+01 -0.13998822679E+02  0.27269635599E+02  0.41800000000E+01 0.  1.
        -11    1    1    2    0    0  0.33057382306E+02  0.17205771953E+02 -0.57854375738E+02  0.68818296299E+02  0.00000000000E+00 0. -1.
         11    1    1    2    0    0  0.20418368848E+02 -0.27532238763E+02  0.24439909620E+02  0.42098018243E+02  0.00000000000E+00 0.  1.
</event>
<event>
 7    1  0.2733606E-009  0.3166081E+03  0.7561462E-02  0.1077221E+00
          2   -1    0    0  501    0  0.00000000000E+00  0.00000000000E+00  0.13457845408E+04  0.13457845408E+04  0.00000000000E+00 0. -1.
         -2   -1    0    0    0  501 -0.00000000000E+00 -0.00000000000E+00 -0.84735849332E+02  0.84735849332E+02  0.00000000000E+00 0.  1.
         25    2    1    2    0    0 -0.23611101029E+03  0.18969738847E+03  0.85801722303E+03  0.91846276574E+03  0.12508712431E+03 0.  0.
          5    1    3    3  502    0 -0.17901277777E+03  0.66263635869E+02  0.47119889584E+03  0.50841156152E+03  0.41800000000E+01 0. -1.
         -5    1    3    3    0  502 -0.57098232523E+02  0.12343375260E+03  0.38681832719E+03  0.41005120422E+03  0.41800000000E+01 0. -1.
        -11    1    1    2    0    0  0.11610228556E+03 -0.12209019092E+03  0.28299792331E+03  0.32935327541E+03  0.00000000000E+00 0. -1.
         11    1    1    2    0    0  0.12000872474E+03 -0.67607197546E+02  0.12003354510E+03  0.18270434894E+03  0.00000000000E+00 0.  1.
</event>
<event>
 7    1  0.2733606E-009  0.9076925E+02  0.7561462E-02  0.1300999E+00
         -2   -1    0    0    0  501 -0.00000000000E+00  0.00000000000E+00  0.21331901029E+03  0.21331901029E+03  0.00000000000E+00 0. -1.
          2   -1    0    0  501    0  0.00000000000E+00 -0.00000000000E+00 -0.56107408059E+02  0.56107408059E+02  0.00000000000E+00 0.  1.
         25    2    1    2    0    0  0.50791278555E+01  0.46972483282E+02  0.70999255686E+02  0.15139752460E+03  0.12509238354E+03 0.  0.
          5    1    3    3  502    0  0.96443236974E+01  0.80640931403E+02  0.81953539723E+02  0.11545487374E+03  0.41800000000E+01 0. -1.
         -5    1    3    3    0  502 -0.45651958419E+01 -0.33668448120E+02 -0.10954284037E+02  0.35942650858E+02  0.41800000000E+01 0. -1.
        -11    1    1    2    0    0 -0.21917419123E+02 -0.76625658861E+01  0.16604984617E+01  0.23277573588E+02  0.00000000000E+00 0. -1.
         11    1    1    2    0    0  0.16838291268E+02 -0.39309917396E+02  0.84551848083E+02  0.94751320164E+02  0.00000000000E+00 0.  1.
</event>
<event>
 7    1  0.2733606E-009  0.8055950E+02  0.7561462E-02  0.1327471E+00
          2   -1    0    0  501    0  0.00000000000E+00  0.00000000000E+00  0.31850506451E+03  0.31850506451E+03  0.00000000000E+00 0.  1.
         -2   -1    0    0    0  501 -0.00000000000E+00 -0.00000000000E+00 -0.44997818238E+02  0.44997818238E+02  0.00000000000E+00 0. -1.
         25    2    1    2    0    0 -0.23677228715E+01  0.38638840642E+02  0.10425409325E+03  0.16738944933E+03  0.12510693694E+03 0.  0.
          5    1    3    3  502    0 -0.67219279188E+01  0.60063271853E+02 -0.20731663916E+00  0.60582970551E+02  0.41800000000E+01 0.  1.
         -5    1    3    3    0  502  0.43542050473E+01 -0.21424431211E+02  0.10446140988E+03  0.10680647878E+03  0.41800000000E+01 0.  1.
        -11    1    1    2    0    0 -0.49091953335E+01 -0.57682655639E+02  0.54317582389E+02  0.79383806390E+02  0.00000000000E+00 0. -1.
         11    1    1    2    0    0  0.72769182050E+01  0.19043814997E+02  0.11493557064E+03  0.11672962703E+03  0.00000000000E+00 0.  1.
</event>
<event>
 7    1  0.2733606E-009  0.1342740E+03  0.7561462E-02  0.1221248E+00
          3   -1    0    0  501    0  0.00000000000E+00  0.00000000000E+00  0.18848083490E+03  0.18848083490E+03  0.00000000000E+00 0. -1.
         -3   -1    0    0    0  501 -0.00000000000E+00 -0.00000000000E+00 -0.10214075192E+03  0.10214075192E+03  0.00000000000E+00 0.  1.
         25    2    1    2    0    0  0.74799593847E+02 -0.34585270353E+02  0.73528452785E+02  0.16688288715E+03  0.12510933014E+03 0.  0.
          5    1    3    3  502    0  0.36378736985E+02 -0.78714632640E+02  0.23899075875E+02  0.90044678487E+02  0.41800000000E+01 0. -1.
         -5    1    3    3    0  502  0.38420856863E+02  0.44129362286E+02  0.49629376910E+02  0.76838208661E+02  0.41800000000E+01 0. -1.
        -11    1    1    2    0    0  0.11622587510E+02  0.34758315253E+02  0.35572223076E+01  0.36822260254E+02  0.00000000000E+00 0.  1.
         11    1    1    2    0    0 -0.86422181357E+02 -0.17304489965E+00  0.92544078875E+01  0.86916439414E+02  0.00000000000E+00 0. -1.
</event>
<event>
 7    1  0.2733606E-009  0.1073615E+03  0.7561462E-02  0.1265535E+00
          2   -1    0    0  501    0  0.00000000000E+00  0.00000000000E+00  0.50021647061E+02  0.50021647061E+02  0.00000000000E+00 0.  1.
         -2   -1    0    0    0  501 -0.00000000000E+00 -0.00000000000E+00 -0.37062912217E+03  0.37062912217E+03  0.00000000000E+00 0. -1.
         25    2    1    2    0    0  0.80016241531E+02  0.17302795998E+02 -0.18480820290E+03  0.23770432724E+03  0.12508912692E+03 0.  0.
          5    1    3    3  502    0  0.57829077207E+02 -0.13232921746E+02 -0.19026092146E+03  0.19933891497E+03  0.41800000000E+01 0. -1.
         -5    1    3    3    0  502  0.22187164324E+02  0.30535717744E+02  0.54527185598E+01  0.38365412269E+02  0.41800000000E+01 0. -1.
        -11    1    1    2    0    0 -0.12230071045E+02 -0.43058665699E+02 -0.79138779651E+02  0.90920678474E+02  0.00000000000E+00 0. -1.
         11    1    1    2    0    0 -0.67786170487E+02  0.25755869701E+02 -0.56660492558E+02  0.92025763513E+02  0.00000000000E+00 0.  1.
</event>
<event>
 7    1  0.2733606E-009  0.1224049E+03  0.7561462E-02  0.1239182E+00
          4   -1    0    0  501    0  0.00000000000E+00  0.00000000000E+00  0.10401628998E+03  0.10401628998E+03  0.00000000000E+00 0. -1.
         -4   -1    0    0    0  501 -0.00000000000E+00 -0.00000000000E+00 -0.17167276800E+03  0.17167276800E+03  0.00000000000E+00 0.  1.
         25    2    1    2    0    0  0.43135523105E+02 -0.54771207062E+02 -0.73274446767E+02  0.16085389831E+03  0.12507707054E+03 0.  0.
          5    1    3    3  502    0 -0.36141199013E+02 -0.36776162454E+02 -0.60505933763E+00  0.51735006405E+02  0.41800000000E+01 0.  1.
         -5    1    3    3    0  502  0.79276722117E+02 -0.17995044607E+02 -0.72669387429E+02  0.10911889190E+03  0.41800000000E+01 0.  1.
        -11    1    1    2    0    0  0.36616818418E+01  0.63894436644E+02  0.16154397630E+02  0.66006602024E+02  0.00000000000E+00 0.  1.
         11    1    1    2    0    0 -0.46797204946E+02 -0.91232295820E+01 -0.10536428883E+02  0.48828557652E+02  0.00000000000E+00 0. -1.
</event>
<event>
 7    1  0.2733606E-009  0.9669029E+02  0.7561462E-02  0.1287414E+00
         -2   -1    0    0    0  501 -0.00000000000E+00  0.00000000000E+00  0.48020195665E+02  0.48020195665E+02  0.00000000000E+00 0.  1.
          2   -1    0    0  501    0  0.00000000000E+00 -0.00000000000E+00 -0.27321403457E+03  0.27321403457E+03  0.00000000000E+00 0. -1.
         25    2    1    2    0    0 -0.26390394426E+02  0.21853272514E+02 -0.13897129181E+03  0.19008809655E+03  0.12508575485E+03 0.  0.
          5    1    3    3  502    0 -0.58993396254E+02  0.13746712636E+02 -0.14360885182E+03  0.15591718196E+03  0.41800000000E+01 0. -1.
         -5    1    3    3    0  502  0.32603001828E+02  0.81065598775E+01  0.46375600083E+01  0.34170914592E+02  0.41800000000E+01 0. -1.
        -11    1    1    2    0    0  0.41779098137E+02 -0.50951883193E+02 -0.58374755713E+02  0.88029537921E+02  0.00000000000E+00 0.  1.
         11    1    1    2    0    0 -0.15388703711E+02  0.29098610679E+02 -0.27847791385E+02  0.43116595765E+02  0.00000000000E+00 0. -1.
</event>
<event>
 7    1  0.2733606E-009  0.8416682E+02  0.7561462E-02  0.1317626E+00
         -2   -1    0    0    0  501 -0.00000000000E+00  0.00000000000E+00  0.21107740335E+02  0.21107740335E+02  0.00000000000E+00 0.  1.
          2   -1    0    0  501    0  0.00000000000E+00 -0.00000000000E+00 -0.59328795965E+03  0.59328795965E+03  0.00000000000E+00 0. -1.
         25    2    1    2    0    0  0.88466999445E+01  0.20614038322E+02 -0.38347483783E+03  0.40398509692E+03  0.12509118519E+03 0.  0.
          5    1    3    3  502    0 -0.24534194110E+02 -0.27927483622E+02 -0.37364504729E+02  0.52872011837E+02  0.41800000000E+01 0.  1.
         -5    1    3    3    0  502  0.33380894054E+02  0.48541521944E+02 -0.34611033310E+03  0.35111308508E+03  0.41800000000E+01 0.  1.
        -11    1    1    2    0    0 -0.23702007423E+02 -0.40571113207E+02 -0.46717392771E+02  0.66259453439E+02  0.00000000000E+00 0.  1.
         11    1    1    2    0    0  0.14855307478E+02  0.19957074884E+02 -0.14198798872E+03  0.14415114963E+03  0.00000000000E+00 0. -1.
</event>
<event>
 7    1  0.2733606E-009  0.8239047E+02  0.7561462E-02  0.1322401E+00
          1   -1    0    0  501    0  0.00000000000E+00  0.00000000000E+00  0.50651079216E+02  0.50651079216E+02  0.00000000000E+00 0. -1.
         -1   -1    0    0    0  501 -0.00000000000E+00 -0.00000000000E+00 -0.38924165458E+03  0.38924165458E+03  0.00000000000E+00 0.  1.
         25    2    1    2    0    0 -0.46901522052E+02  0.65379741751E+02 -0.11958364961E+03  0.19084417042E+03  0.12508790800E+03 0.  0.
          5    1    3    3  502    0 -0.51964102777E+01  0.49004051371E+01  0.26236071749E+02  0.27510370973E+02  0.41800000000E+01 0. -1.
         -5    1    3    3    0  502 -0.41705111774E+02  0.60479336614E+02 -0.14581972136E+03  0.16333379945E+03  0.41800000000E+01 0. -1.
        -11    1    1    2    0    0  0.35449765425E+02 -0.61209895396E+02 -0.22471937057E+03  0.23558890609E+03  0.00000000000E+00 0.  1.
         11    1    1    2    0    0  0.11451756627E+02 -0.41698463544E+01  0.57124448157E+01  0.13459657285E+02  0.00000000000E+00 0. -1.
</event>
<event>
 7    1  0.2733606E-009  0.1313370E+03  0.7561462E-02  0.1225485E+00
          1   -1    0    0  501    0  0.00000000000E+00  0.00000000000E+00  0.35802991280E+03  0.35802991280E+03  0.00000000000E+00 0. -1.
         -1   -1    0    0    0  501 -0.00000000000E+00 -0.00000000000E+00 -0.51417712476E+02  0.51417712476E+02  0.00000000000E+00 0.  1.
         25    2    1    2    0    0 -0.45531072145E+02  0.55264563870E+02  0.20948259617E+03  0.25427790824E+03  0.12508815280E+03 0.  0.
          5    1    3    3  502    0 -0.89043928695E+02  0.41124164064E+02  0.14077428027E+03  0.17162426546E+03  0.41800000000E+01 0. -1.
         -5    1    3    3    0  502  0.43512856550E+02  0.14140399806E+02  0.68708315901E+02  0.82653642785E+02  0.41800000000E+01 0. -1.
        -11    1    1    2    0    0 -0.12488355601E+02 -0.59108435531E+02  0.33924756793E+02  0.69286761362E+02  0.00000000000E+00 0. -1.
         11    1    1    2    0    0  0.58019427746E+02  0.38438716615E+01  0.63204847361E+02  0.85882955674E+02  0.00000000000E+00 0.  1.
</event>
<event>
 7    1  0.2733606E-009  0.2238464E+03  0.7561462E-02  0.1131047E+00
         -2   -1    0    0    0  501 -0.00000000000E+00  0.00000000000E+00  0.41031449522E+02  0.41031449522E+02  0.00000000000E+00 0.  1.
          2   -1    0    0  501    0  0.00000000000E+00 -0.00000000000E+00 -0.12339360977E+04  0.12339360977E+04  0.00000000000E+00 0. -1.
         25    2    1    2    0    0 -0.18028073120E+03 -0.82310685228E+02 -0.57757279467E+03  0.62330917848E+03  0.12509119828E+03 0.  0.
          5    1    3    3  502    0 -0.16164423084E+03 -0.13593493485E+02 -0.37725382770E+03  0.41067208737E+03  0.41800000000E+01 0.  1.
         -5    1    3    3    0  502 -0.18636500353E+02 -0.68717191743E+02 -0.20031896697E+03  0.21263709111E+03  0.41800000000E+01 0.  1.
        -11    1    1    2    0    0  0.14766029963E+02 -0.15854974458E+02 -0.50731765421E+02  0.55164552737E+02  0.00000000000E+00 0. -1.
         11    1    1    2    0    0  0.16551470123E+03  0.98165659686E+02 -0.56460008805E+03  0.59649381597E+03  0.00000000000E+00 0.  1.
</event>
<event>
 7    1  0.2733606E-009  0.1149823E+03  0.7561462E-02  0.1251612E+00
          4   -1    0    0  501    0  0.00000000000E+00  0.00000000000E+00  0.69823128417E+02  0.69823128417E+02  0.00000000000E+00 0. -1.
         -4   -1    0    0    0  501 -0.00000000000E+00 -0.00000000000E+00 -0.27057545942E+03  0.27057545942E+03  0.00000000000E+00 0.  1.
         25    2    1    2    0    0  0.39253595850E+02 -0.72621230394E+02 -0.12737572248E+03  0.19668965390E+03  0.12509019698E+03 0.  0.
          5    1    3    3  502    0  0.42686117493E+02  0.11557992784E+02 -0.97604806205E+02  0.10723741147E+03  0.41800000000E+01 0. -1.
         -5    1    3    3    0  502 -0.34325216432E+01 -0.84179223178E+02 -0.29770916277E+02  0.89452242430E+02  0.41800000000E+01 0. -1.
        -11    1    1    2    0    0 -0.21049125955E+02  0.79112042805E+02 -0.16329913742E+02  0.83477225056E+02  0.00000000000E+00 0. -1.
         11    1    1    2    0    0 -0.18204469895E+02 -0.64908124114E+01 -0.57046694780E+02  0.60231708886E+02  0.00000000000E+00 0.  1.
</event>
<event>
 7    1  0.2733606E-009  0.7439176E+02  0.7561462E-02  0.1345765E+00
          2   -1    0    0  501    0  0.00000000000E+00  0.00000000000E+00  0.49951389554E+03  0.49951389554E+03  0.00000000000E+00 0. -1.
         -2   -1    0    0    0  501 -0.00000000000E+00 -0.00000000000E+00 -0.49408868452E+02  0.49408868452E+02  0.00000000000E+00 0.  1.
         25    2    1    2    0    0  0.42979987435E+01 -0.14812725471E+02  0.43963343810E+03  0.45734505259E+03  0.12509615344E+03 0.  0.
          5    1    3    3  502    0 -0.50709250445E+02 -0.40598638275E+02  0.22037574493E+03  0.22978820436E+03  0.41800000000E+01 0.  1.
         -5    1    3    3    0  502  0.55007249188E+02  0.25785912804E+02  0.21925769317E+03  0.22755684823E+03  0.41800000000E+01 0.  1.
        -11    1    1    2    0    0  0.61236688668E+01  0.89299578532E+01 -0.39105390752E+02  0.40576779733E+02  0.00000000000E+00 0.  1.
         11    1    1    2    0    0 -0.10421667610E+02  0.58827676180E+01  0.49576979744E+02  0.51000931669E+02  0.00000000000E+00 0. -1.
</event>
<event>
 7    1  0.2733606E-009  0.1196546E+03  0.7561462E-02  0.1243668E+00
          2   -1    0    0  501    0  0.00000000000E+00  0.00000000000E+00  0.20351905498E+03  0.20351905498E+03  0.00000000000E+00 0. -1.
         -2   -1    0    0    0  501 -0.00000000000E+00 -0.00000000000E+00 -0.10232899351E+03  0.10232899351E+03  0.00000000000E+00 0.  1.
         25    2    1    2    0    0  0.20590646261E+02  0.94313675142E+02  0.50794722695E+02  0.16597124247E+03  0.12508918995E+03 0.  0.
          5    1    3    3  502    0 -0.31730993373E+02  0.82795369347E+02  0.65432384411E+02  0.11027601034E+03  0.41800000000E+01 0.  1.
         -5    1    3    3    0  502  0.52321639633E+02  0.11518305794E+02 -0.14637661716E+02  0.55695232137E+02  0.41800000000E+01 0.  1.
        -11    1    1    2    0    0 -0.25209123559E+01 -0.26716456991E+02 -0.25239968274E+02  0.36839924969E+02  0.00000000000E+00 0.  1.
         11    1    1    2    0    0 -0.18069733905E+02 -0.67597218151E+02  0.75635307046E+02  0.10303688105E+03  0.00000000000E+00 0. -1.
</event>
<event>
 7    1  0.2733606E-009  0.8002921E+02  0.7561462E-02  0.1328969E+00
         -3   -1    0    0    0  501 -0.00000000000E+00  0.00000000000E+00  0.16219240189E+03  0.16219240189E+03  0.00000000000E+00 0.  1.
          3   -1    0    0  501    0  0.00000000000E+00 -0.00000000000E+00 -0.72696532493E+02  0.72696532493E+02  0.00000000000E+00 0. -1.
         25    2    1    2    0    0  0.96510936618E+01  0.60152459977E+01  0.43898594812E+02  0.13306506198E+03  0.12509954956E+03 0.  0.
          5    1    3    3  502    0 -0.34852094965E+02  0.11812995378E+02  0.71279168034E+02  0.80326879554E+02  0.41800000000E+01 0. -1.
         -5    1    3    3    0  502  0.44503188627E+02 -0.57977493806E+01 -0.27380573222E+02  0.52738182428E+02  0.41800000000E+01 0. -1.
        -11    1    1    2    0    0  0.89472128559E+01 -0.39037222894E+02  0.49558604257E+02  0.63718228515E+02  0.00000000000E+00 0.  1.
         11    1    1    2    0    0 -0.18598306518E+02  0.33021976896E+02 -0.39613296687E+01  0.38105643889E+02  0.00000000000E+00 0. -1.
</event>
<event>
 7    1  0.2733606E-009  0.7701193E+02  0.7561462E-02  0.1337752E+00
          3   -1    0    0  501    0  0.00000000000E+00  0.00000000000E+00  0.14114492355E+03  0.14114492355E+03  0.00000000000E+00 0. -1.
         -3   -1    0    0    0  501 -0.00000000000E+00 -0.00000000000E+00 -0.86362868520E+02  0.86362868520E+02  0.00000000000E+00 0.  1.
         25    2    1    2    0    0 -0.15356205306E+02 -0.89627828762E+01  0.45238579629E+02  0.13420837648E+03  0.12509682136E+03 0.  0.
          5    1    3    3  502    0  0.22302584088E+02 -0.39610795456E+00  0.79337233549E+02  0.82519277662E+02  0.41800000000E+01 0. -1.
         -5    1    3    3    0  502 -0.37658789395E+02 -0.85666749217E+01 -0.34098653920E+02  0.51689098822E+02  0.41800000000E+01 0. -1.
        -11    1    1    2    0    0  0.98525525766E+01  0.50059292203E+02  0.13697053685E+01  0.51038040920E+02  0.00000000000E+00 0.  1.
         11    1    1    2    0    0  0.55036527298E+01 -0.41096509327E+02  0.81737700332E+01  0.42261374667E+02  0.00000000000E+00 0. -1.
</event>
<event>
 7    1  0.2733606E-009  0.1682363E+03  0.7561462E-02  0.1179700E+00
         -4   -1    0    0    0  501 -0.00000000000E+00  0.00000000000E+00  0.65193345199E+02  0.65193345199E+02  0.00000000000E+00 0.  1.
          4   -1    0    0  501    0  0.00000000000E+00 -0.00000000000E+00 -0.48305792144E+03  0.48305792144E+03  0.00000000000E+00 0. -1.
         25    2    1    2    0    0 -0.11521913426E+03 -0.78010894057E+02 -0.20415725903E+03  0.27692816958E+03  0.12509147134E+03 0.  0.
          5    1    3    3  502    0 -0.29335492343E+02 -0.84785677544E+02 -0.15075906017E+03  0.17548489636E+03  0.41800000000E+01 0.  1.
         -5    1    3    3    0  502 -0.85883641920E+02  0.67747834872E+01 -0.53398198861E+02  0.10144327322E+03  0.41800000000E+01 0.  1.
        -11    1    1    2    0    0  0.42973046709E+02 -0.12351890565E+02 -0.97900141033E+02  0.10762755018E+03  0.00000000000E+00 0. -1.
         11    1    1    2    0    0  0.72246087555E+02  0.90362784621E+02 -0.11580717617E+03  0.16369554687E+03  0.00000000000E+00 0.  1.
</event>
<event>
 7    1  0.2733606E-009  0.1594937E+03  0.7561462E-02  0.1189270E+00
          2   -1    0    0  501    0  0.00000000000E+00  0.00000000000E+00  0.22299430768E+03  0.22299430768E+03  0.00000000000E+00 0. -1.
         -2   -1    0    0    0  501 -0.00000000000E+00 -0.00000000000E+00 -0.14709212716E+03  0.14709212716E+03  0.00000000000E+00 0.  1.
         25    2    1    2    0    0 -0.57812660950E+02 -0.12932653900E+03  0.13478215954E+02  0.18946328817E+03  0.12508804020E+03 0.  0.
          5    1    3    3  502    0 -0.58818509736E+02 -0.25512562844E+02  0.47754176805E+02  0.80052743568E+02  0.41800000000E+01 0.  1.
         -5    1    3    3    0  502  0.10058487866E+01 -0.10381397616E+03 -0.34275960851E+02  0.10941054460E+03  0.41800000000E+01 0.  1.
        -11    1    1    2    0    0 -0.96058101943E+01  0.10621619790E+02 -0.17359664938E+02  0.22504407639E+02  0.00000000000E+00 0.  1.
         11    1    1    2    0    0  0.67418471144E+02  0.11870491921E+03  0.79783629500E+02  0.15811873903E+03  0.00000000000E+00 0. -1.
</event>
<event>
 7    1  0.2733606E-009  0.1088163E+03  0.7561462E-02  0.1262778E+00
         -3   -1    0    0    0  501 -0.00000000000E+00  0.00000000000E+00  0.23230576944E+03  0.23230576944E+03  0.00000000000E+00 0.  1.
          3   -1    0    0  501    0  0.00000000000E+00 -0.00000000000E+00 -0.59026646638E+02  0.59026646638E+02  0.00000000000E+00 0. -1.
         25    2    1    2    0    0 -0.60967070148E+00 -0.42163383115E+02  0.10621776288E+03  0.16942724350E+03  0.12508099422E+03 0.  0.
          5    1    3    3  502    0 -0.61771167865E+02 -0.19402724929E+02  0.66548790174E+02  0.92942760814E+02  0.41800000000E+01 0. -1.
         -5    1    3    3    0  502  0.61161497163E+02 -0.22760658187E+02  0.39668972703E+02  0.76484482686E+02  0.41800000000E+01 0. -1.
        -11    1    1    2    0    0 -0.33289354376E+02  0.41826973124E+02  0.69771658751E+02  0.87896309139E+02  0.00000000000E+00 0.  1.
         11    1    1    2    0    0  0.33899025078E+02  0.33640999146E+00 -0.27102988229E+01  0.34008863442E+02  0.00000000000E+00 0. -1.
</event>
<event>
 7    1  0.2733606E-009  0.1701516E+03  0.7561462E-02  0.1177690E+00
         -2   -1    0    0    0  501 -0.00000000000E+00  0.00000000000E+00  0.52095187904E+03  0.52095187904E+03  0.00000000000E+00 0. -1.
          2   -1    0    0  501    0  0.00000000000E+00 -0.00000000000E+00 -0.74609225020E+02  0.74609225020E+02  0.00000000000E+00 0.  1.
         25    2    1    2    0    0  0.10938441544E+03  0.73195683022E+02  0.38211044024E+03  0.42305905527E+03  0.12509203553E+03 0.  0.
          5    1    3    3  502    0 -0.15864956615E+02 -0.19454776667E+02  0.62226974325E+02  0.67229858822E+02  0.41800000000E+01 0. -1.
         -5    1    3    3    0  502  0.12524937205E+03  0.92650459689E+02  0.31988346592E+03  0.35582919645E+03  0.41800000000E+01 0. -1.
        -11    1    1    2    0    0 -0.23941598241E+02  0.20988527986E+02  0.50416340372E+01  0.32235640325E+02  0.00000000000E+00 0.  1.
         11    1    1    2    0    0 -0.85442817195E+02 -0.94184211008E+02  0.59190579742E+02  0.14026640846E+03  0.00000000000E+00 0. -1.
</event>
<event>
 7    1  0.2733606E-009  0.1436616E+03  0.7561462E-02  0.1208485E+00
         -2   -1    0    0    0  501 -0.00000000000E+00  0.00000000000E+00  0.87707592964E+02  0.87707592964E+02  0.00000000000E+00 0. -1.
          2   -1    0    0  501    0  0.00000000000E+00 -0.00000000000E+00 -0.36244135602E+03  0.36244135602E+03  0.00000000000E+00 0.  1.
         25    2    1    2    0    0  0.19925347795E+02  0.12563337770E+03 -0.67052441390E+02  0.19058991773E+03  0.12509085405E+03 0.  0.
          5    1    3    3  502    0  0.58990707032E+02  0.85366067308E+02 -0.10376641397E+01  0.10385479339E+03  0.41800000000E+01 0.  1.
         -5    1    3    3    0  502 -0.39065359238E+02  0.40267310393E+02 -0.66014777251E+02  0.86735124339E+02  0.41800000000E+01 0.  1.
        -11    1    1    2    0    0 -0.46790243112E+01 -0.25160434616E+02 -0.12769319282E+03  0.13023245460E+03  0.00000000000E+00 0.  1.
         11    1    1    2    0    0 -0.15246323483E+02 -0.10047294308E+03 -0.79988128838E+02  0.12932657665E+03  0.00000000000E+00 0. -1.
</event>
<event>
 7    1  0.2733606E-009  0.1009456E+03  0.7561462E-02  0.1278320E+00
          2   -1    0    0  501    0  0.00000000000E+00  0.00000000000E+00  0.76533013241E+03  0.76533013241E+03  0.00000000000E+00 0. -1.
         -2   -1    0    0    0  501 -0.00000000000E+00 -0.00000000000E+00 -0.24288373142E+02  0.24288373142E+02  0.00000000000E+00 0.  1.
         25    2    1    2    0    0 -0.43241266938E+02  0.39775124025E+02  0.58621588993E+03  0.60228642333E+03  0.12509196004E+03 0.  0.
          5    1    3    3  502    0 -0.29972599586E+02 -0.22767806554E+02  0.52473775445E+02  0.64712435054E+02  0.41800000000E+01 0.  1.
         -5    1    3    3    0  502 -0.13268667352E+02  0.62542930579E+02  0.53374211449E+03  0.53757398828E+03  0.41800000000E+01 0.  1.
        -11    1    1    2    0    0 -0.96771818071E+01 -0.45687612026E+02  0.43028350830E+02  0.63501533175E+02  0.00000000000E+00 0.  1.
         11    1    1    2    0    0  0.52918448745E+02  0.59124880018E+01  0.11179751851E+03  0.12383054905E+03  0.00000000000E+00 0. -1.
</event>
<event>
 7    1  0.2733606E-009  0.8826622E+02  0.7561462E-02  0.1307105E+00
          1   -1    0    0  501    0  0.00000000000E+00  0.00000000000E+00  0.12377711170E+03  0.12377711170E+03  0.00000000000E+00 0. -1.
         -1   -1    0    0    0  501 -0.00000000000E+00 -0.00000000000E+00 -0.17037720269E+03  0.17037720269E+03  0.00000000000E+00 0.  1.
         25    2    1    2    0    0  0.56894847089E+02  0.56758002959E+02  0.27459920829E+02  0.15119035474E+03  0.12508389820E+03 0.  0.
          5    1    3    3  502    0  0.29081594350E+02  0.61013288974E+02 -0.39529379300E+02  0.78411764354E+02  0.41800000000E+01 0.  1.
         -5    1    3    3    0  502  0.27813252739E+02 -0.42552860151E+01  0.66989300128E+02  0.72778590387E+02  0.41800000000E+01 0.  1.
        -11    1    1    2    0    0 -0.22603830030E+02 -0.22053948069E+02  0.19734709392E+02  0.37239340921E+02  0.00000000000E+00 0. -1.
         11    1    1    2    0    0 -0.34291017059E+02 -0.34704054889E+02 -0.93794721211E+02  0.10572461872E+03  0.00000000000E+00 0.  1.
</event>
<event>
 7    1  0.2733606E-009  0.9821074E+02  0.7561462E-02  0.1284104E+00
         -2   -1    0    0    0  501 -0.00000000000E+00  0.00000000000E+00  0.47326190285E+02  0.47326190285E+02  0.00000000000E+00 0. -1.
          2   -1    0    0  501    0  0.00000000000E+00 -0.00000000000E+00 -0.38254001436E+03  0.38254001436E+03  0.00000000000E+00 0.  1.
         25    2    1    2    0    0  0.40844592832E+02  0.33281421464E+02 -0.27783377406E+03  0.30921512705E+03  0.12508579060E+03 0.  0.
          5    1    3    3  502    0  0.65233290344E+02  0.21869296153E+02 -0.27296635976E+03  0.28153464128E+03  0.41800000000E+01 0. -1.
         -5    1    3    3    0  502 -0.24388697512E+02  0.11412125311E+02 -0.48674143071E+01  0.27680485770E+02  0.41800000000E+01 0. -1.
        -11    1    1    2    0    0 -0.37493690545E+02  0.22918929943E+02 -0.45215901357E+02  0.63051819291E+02  0.00000000000E+00 0.  1.
         11    1    1    2    0    0 -0.33509022876E+01 -0.56200351407E+02 -0.12164148656E+02  0.57599258302E+02  0.00000000000E+00 0. -1.
</event>
<event>
 7    1  0.2733606E-009  0.9466851E+02  0.7561462E-02  0.1291924E+00
          3   -1    0    0  501    0  0.00000000000E+00  0.00000000000E+00  0.22869714419E+03  0.22869714419E+03  0.00000000000E+00 0. -1.
         -3   -1    0    0    0  501 -0.00000000000E+00 -0.00000000000E+00 -0.69757424539E+02  0.69757424539E+02  0.00000000000E+00 0.  1.
         25    2    1    2    0    0 -0.19136001758E+02  0.16266518496E+02  0.13231554803E+02  0.12827065639E+03  0.12508997187E+03 0.  0.
          5    1    3    3  502    0  0.29837168192E+02  0.54367844175E+02 -0.77452531059E+01  0.62638490017E+02  0.41800000000E+01 0.  1.
         -5    1    3    3    0  502 -0.48973169949E+02 -0.38101325679E+02  0.20976807909E+02  0.65632166377E+02  0.41800000000E+01 0.  1.
        -11    1    1    2    0    0  0.30114265520E+01  0.22658077121E+02  0.51274190492E+01  0.23425361786E+02  0.00000000000E+00 0.  1.
         11    1    1    2    0    0  0.16124575206E+02 -0.38924595617E+02  0.14058074580E+03  0.14675855055E+03  0.00000000000E+00 0. -1.
</event>
<event>
 7    1  0.2733606E-009  0.1609872E+03  0.7561462E-02  0.1187587E+00
          1   -1    0    0  501    0  0.00000000000E+00  0.00000000000E+00  0.15246353454E+03  0.15246353454E+03  0.00000000000E+00 0. -1.
         -1   -1    0    0    0  501 -0.00000000000E+00 -0.00000000000E+00 -0.28863746897E+03  0.28863746897E+03  0.00000000000E+00 0.  1.
         25    2    1    2    0    0 -0.11252404377E+03  0.82636160294E+02 -0.18876786446E+03  0.26602901730E+03  0.12509091085E+03 0.  0.
          5    1    3    3  502    0 -0.37965341629E+02  0.72463562511E+02 -0.16947582968E+03  0.18823353661E+03  0.41800000000E+01 0. -1.
         -5    1    3    3    0  502 -0.74558702139E+02  0.10172597783E+02 -0.19292034781E+02  0.77795480693E+02  0.41800000000E+01 0. -1.
        -11    1    1    2    0    0  0.85229251026E+02 -0.84496657668E+01  0.41757376437E+02  0.95284314391E+02  0.00000000000E+00 0.  1.
         11    1    1    2    0    0  0.27294792742E+02 -0.74186494527E+02  0.10836553595E+02  0.79787671822E+02  0.00000000000E+00 0. -1.
</event>
<event>
 7    1  0.2733606E-009  0.1020143E+03  0.7561462E-02  0.1276116E+00
          1   -1    0    0  501    0  0.00000000000E+00  0.00000000000E+00  0.11638298509E+02  0.11638298509E+02  0.00000000000E+00 0. -1.
         -1   -1    0    0    0  501 -0.00000000000E+00 -0.00000000000E+00 -0.12132038784E+04  0.12132038784E+04  0.00000000000E+00 0.  1.
         25    2    1    2    0    0  0.40876191768E+02 -0.23882911552E+02 -0.76489942608E+03  0.77650397057E+03  0.12508408287E+03 0.  0.
          5    1    3    3  502    0  0.24817040745E+02  0.33998457198E+02 -0.59029740026E+03  0.59181101186E+03  0.41800000000E+01 0. -1.
         -5    1    3    3    0  502  0.16059151023E+02 -0.57881368751E+02 -0.17460202581E+03  0.18469295871E+03  0.41800000000E+01 0. -1.
        -11    1    1    2    0    0 -0.51956644033E+02  0.50641490655E+02 -0.32169972527E+03  0.32977987609E+03  0.00000000000E+00 0.  1.
         11    1    1    2    0    0  0.11080452265E+02 -0.26758579103E+02 -0.11496642852E+03  0.11855833022E+03  0.00000000000E+00 0. -1.
</event>
<event>
 7    1  0.2733606E-009  0.1106280E+03  0.7561462E-02  0.1259411E+00
          1   -1    0    0  501    0  0.00000000000E+00  0.00000000000E+00  0.14974131642E+03  0.14974131642E+03  0.00000000000E+00 0. -1.
         -1   -1    0    0    0  501 -0.00000000000E+00 -0.00000000000E+00 -0.92624551861E+02  0.92624551861E+02  0.00000000000E+00 0.  1.
         25    2    1    2    0    0  0.24345820013E+02 -0.30621854361E+02  0.72706715871E+01  0.13126301691E+03  0.12508676998E+03 0.  0.
          5    1    3    3  502    0 -0.50223245808E+01  0.44532213410E+02 -0.15018042289E+02  0.47448453817E+02  0.41800000000E+01 0. -1.
         -5    1    3    3    0  502  0.29368144594E+02 -0.75154067771E+02  0.22288713876E+02  0.83814563088E+02  0.41800000000E+01 0. -1.
        -11    1    1    2    0    0 -0.16338257419E+02  0.61457423476E+02  0.18077196930E+02  0.66111561808E+02  0.00000000000E+00 0.  1.
         11    1    1    2    0    0 -0.80075625938E+01 -0.30835569115E+02  0.31768896045E+02  0.44991289571E+02  0.00000000000E+00 0. -1.
</event>
<event>
 7    1  0.2733606E-009  0.1796659E+03  0.7561462E-02  0.1168127E+00
         -3   -1    0    0    0  501 -0.00000000000E+00  0.00000000000E+00  0.23891934514E+03  0.23891934514E+03  0.00000000000E+00 0.  1.
          3   -1    0    0  501    0  0.00000000000E+00 -0.00000000000E+00 -0.16064029058E+03  0.16064029058E+03  0.00000000000E+00 0. -1.
         25    2    1    2    0    0  0.10050055206E+03  0.12370999655E+03  0.11322192161E+02  0.20294005496E+03  0.12510775219E+03 0.  0.
          5    1    3    3  502    0 -0.14661754634E+02  0.71048291837E+02 -0.13289778622E+02  0.73870951244E+02  0.41800000000E+01 0. -1.
         -5    1    3    3    0  502  0.11516230670E+03  0.52661704715E+02  0.24611970783E+02  0.12906910371E+03  0.41800000000E+01 0. -1.
        -11    1    1    2    0    0 -0.62270027813E+02 -0.86789905156E+02  0.89044875668E+02  0.13906485496E+03  0.00000000000E+00 0.  1.
         11    1    1    2    0    0 -0.38230524251E+02 -0.36920091396E+02 -0.22088013263E+02  0.57554725811E+02  0.00000000000E+00 0. -1.
</event>
<event>
 7    1  0.2733606E-009  0.9331093E+02  0.7561462E-02  0.1295026E+00
          1   -1    0    0  501    0  0.00000000000E+00  0.00000000000E+00  0.79880109912E+02  0.79880109912E+02  0.00000000000E+00 0. -1.
         -1   -1    0    0    0  501 -0.00000000000E+00 -0.00000000000E+00 -0.15509984865E+03  0.15509984865E+03  0.00000000000E+00 0.  1.
         25    2    1    2    0    0  0.40654405439E+01 -0.21744201873E+02 -0.57701244283E+02  0.13952461012E+03  0.12509334560E+03 0.  0.
          5    1    3    3  502    0 -0.39913149239E+02  0.61999276175E+01  0.20478666716E+02  0.45479080632E+02  0.41800000000E+01 0.  1.
         -5    1    3    3    0  502  0.43978589783E+02 -0.27944129491E+02 -0.78179910999E+02  0.94045529485E+02  0.41800000000E+01 0.  1.
        -11    1    1    2    0    0  0.41885987104E+02 -0.21650214872E+01 -0.99488184986E+01  0.43105709868E+02  0.00000000000E+00 0. -1.
         11    1    1    2    0    0 -0.45951427648E+02  0.23909223361E+02 -0.75696759524E+01  0.52349638572E+02  0.00000000000E+00 0.  1.
</event>
<event>
 7    1  0.2733606E-009  0.1067739E+03  0.7561462E-02  0.1266663E+00
          2   -1    0    0  501    0  0.00000000000E+00  0.00000000000E+00  0.24366875866E+03  0.24366875866E+03  0.00000000000E+00 0.  1.
         -2   -1    0    0    0  501 -0.00000000000E+00 -0.00000000000E+00 -0.52040117185E+02  0.52040117185E+02  0.00000000000E+00 0. -1.
         25    2    1    2    0    0  0.22973903347E+02 -0.20907953907E+02  0.12368906589E+03  0.17863706805E+03  0.12508906543E+03 0.  0.
          5    1    3    3  502    0 -0.45027991590E+02 -0.30425487107E+02  0.81150721922E+02  0.97755523428E+02  0.41800000000E+01 0.  1.
         -5    1    3    3    0  502  0.68001894937E+02  0.95175331999E+01  0.42538343972E+02  0.80881544626E+02  0.41800000000E+01 0.  1.
        -11    1    1    2    0    0 -0.47266853000E+02  0.37917397387E+02  0.62253703376E+02  0.86875819428E+02  0.00000000000E+00 0.  1.
         11    1    1    2    0    0  0.24292949654E+02 -0.17009443480E+02  0.56858722038E+01  0.30195988361E+02  0.00000000000E+00 0. -1.
</event>
<event>
 7    1  0.2733606E-009  0.1946661E+03  0.7561462E-02  0.1154319E+00
          2   -1    0    0  501    0  0.00000000000E+00  0.00000000000E+00  0.47938115275E+03  0.47938115275E+03  0.00000000000E+00 0. -1.
         -2   -1    0    0    0  501 -0.00000000000E+00 -0.00000000000E+00 -0.11633954587E+03  0.11633954587E+03  0.00000000000E+00 0.  1.
         25    2    1    2    0    0 -0.18195266542E+03  0.24974299505E+01  0.56416235146E+02  0.22790888424E+03  0.12508660327E+03 0.  0.
          5    1    3    3  502    0 -0.53299480452E+02  0.41251487802E+02  0.64307096522E+02  0.93249101473E+02  0.41800000000E+01 0. -1.
         -5    1    3    3    0  502 -0.12865318496E+03 -0.38754057852E+02 -0.78908613766E+01  0.13465978277E+03  0.41800000000E+01 0. -1.
        -11    1    1    2    0    0  0.48757347524E+02 -0.20649138667E+02  0.16166381973E+03  0.17011424537E+03  0.00000000000E+00 0. -1.
         11    1    1    2    0    0  0.13319531789E+03  0.18151708716E+02  0.14496155199E+03  0.19769756901E+03  0.00000000000E+00 0.  1.
</event>
<event>
 7    1  0.2733606E-009  0.1551623E+03  0.7561462E-02  0.1194269E+00
         -2   -1    0    0    0  501 -0.00000000000E+00  0.00000000000E+00  0.23567855152E+02  0.23567855152E+02  0.00000000000E+00 0.  1.
          2   -1    0    0  501    0  0.00000000000E+00 -0.00000000000E+00 -0.12445034893E+04  0.12445034893E+04  0.00000000000E+00 0. -1.
         25    2    1    2    0    0  0.31581314023E+02  0.11356227755E+03 -0.43014322372E+03  0.46321074265E+03  0.12508888406E+03 0.  0.
          5    1    3    3  502    0 -0.35756604926E+02  0.10087092120E+02 -0.43729331029E+02  0.57532695187E+02  0.41800000000E+01 0.  1.
         -5    1    3    3    0  502  0.67337918949E+02  0.10347518543E+03 -0.38641389269E+03  0.40567804746E+03  0.41800000000E+01 0.  1.
        -11    1    1    2    0    0  0.32703691361E+02 -0.35049161913E+02 -0.28248393846E+03  0.28652251337E+03  0.00000000000E+00 0.  1.
         11    1    1    2    0    0 -0.64285005384E+02 -0.78513115640E+02 -0.50830847196E+03  0.51833808842E+03  0.00000000000E+00 0. -1.
</event>
<event>
 7    1  0.2733606E-009  0.1201889E+03  0.7561462E-02  0.1242786E+00
          1   -1    0    0  501    0  0.00000000000E+00  0.00000000000E+00  0.62962066773E+03  0.62962066773E+03  0.00000000000E+00 0.  1.
         -1   -1    0    0    0  501 -0.00000000000E+00 -0.00000000000E+00 -0.24872122818E+02  0.24872122818E+02  0.00000000000E+00 0. -1.
         25    2    1    2    0    0  0.56514069848E+02 -0.15964990555E+02  0.32253069721E+03  0.35088736977E+03  0.12508866697E+03 0.  0.
          5    1    3    3  502    0 -0.38211906607E+02 -0.45308560977E+01  0.13498219940E+03  0.14042202469E+03  0.41800000000E+01 0. -1.
         -5    1    3    3    0  502  0.94725976456E+02 -0.11434134457E+02  0.18754849781E+03  0.21046534508E+03  0.41800000000E+01 0. -1.
        -11    1    1    2    0    0 -0.62119507620E+02  0.44929570655E+02  0.24112260024E+03  0.25301701107E+03  0.00000000000E+00 0.  1.
         11    1    1    2    0    0  0.56054377711E+01 -0.28964580100E+02  0.41095247464E+02  0.50588409711E+02  0.00000000000E+00 0. -1.
</event>
<event>
 7    1  0.2733606E-009  0.9319036E+02  0.7561462E-02  0.1295305E+00
          2   -1    0    0  501    0  0.00000000000E+00  0.00000000000E+00  0.15966261959E+02  0.15966261959E+02  0.00000000000E+00 0. -1.
         -2   -1    0    0    0  501 -0.00000000000E+00 -0.00000000000E+00 -0.14503147494E+04  0.14503147494E+04  0.00000000000E+00 0.  1.
         25    2    1    2    0    0 -0.69523842129E+02  0.40446930211E+02 -0.11072507403E+04  0.11171935579E+04  0.12509086699E+03 0.  0.
          5    1    3    3  502    0 -0.15041952687E+02  0.46214642763E+02 -0.13766076554E+03  0.14604797950E+03  0.41800000000E+01 0. -1.
         -5    1    3    3    0  502 -0.54481889442E+02 -0.57677125514E+01 -0.96958997481E+03  0.97114557839E+03  0.41800000000E+01 0. -1.
        -11    1    1    2    0    0  0.20891736948E+02 -0.22789208373E+02 -0.18176605390E+02  0.35863653948E+02  0.00000000000E+00 0. -1.
         11    1    1    2    0    0  0.48632105180E+02 -0.17657721838E+02 -0.30892114171E+03  0.31322379953E+03  0.00000000000E+00 0.  1.
</event>
<event>
 7    1  0.2733606E-009  0.1224633E+03  0.7561462E-02  0.1239088E+00
         -2   -1    0    0    0  501 -0.00000000000E+00  0.00000000000E+00  0.23394209180E+02  0.23394209180E+02  0.00000000000E+00 0.  1.
          2   -1    0    0  501    0  0.00000000000E+00 -0.00000000000E+00 -0.81990540229E+03  0.81990540229E+03  0.00000000000E+00 0. -1.
         25    2    1    2    0    0 -0.71390955771E+02  0.34741643337E+01 -0.57849666504E+03  0.59616675807E+03  0.12509066147E+03 0.  0.
          5    1    3    3  502    0 -0.26120874986E+02  0.55058017279E+02 -0.40434523938E+03  0.40893303900E+03  0.41800000000E+01 0. -1.
         -5    1    3    3    0  502 -0.45270080785E+02 -0.51583852945E+02 -0.17415142566E+03  0.18723371907E+03  0.41800000000E+01 0. -1.
        -11    1    1    2    0    0 -0.21801201155E+02  0.51568408254E+00 -0.57318585902E+02  0.61326817883E+02  0.00000000000E+00 0.  1.
         11    1    1    2    0    0  0.93192156927E+02 -0.39898484162E+01 -0.16069594216E+03  0.18580603551E+03  0.00000000000E+00 0. -1.
</event>
<event>
 7    1  0.2733606E-009  0.9350633E+02  0.7561462E-02  0.1294576E+00
          3   -1    0    0  501    0  0.00000000000E+00  0.00000000000E+00  0.84145997045E+02  0.84145997045E+02  0.00000000000E+00 0. -1.
         -3   -1    0    0    0  501 -0.00000000000E+00 -0.00000000000E+00 -0.18924048113E+03  0.18924048113E+03  0.00000000000E+00 0.  1.
         25    2    1    2    0    0 -0.56772818879E+02  0.17157119915E+02 -0.37049951838E+02  0.14331075943E+03  0.12509098732E+03 0.  0.
          5    1    3    3  502    0 -0.58288658006E+02 -0.29560684051E-01 -0.78706407684E+02  0.98029278975E+02  0.41800000000E+01 0. -1.
         -5    1    3    3    0  502  0.15158391267E+01  0.17186680599E+02  0.41656455846E+02  0.45281480452E+02  0.41800000000E+01 0. -1.
        -11    1    1    2    0    0  0.63354825471E+02 -0.47873274710E+02 -0.47235779395E+02  0.92395363503E+02  0.00000000000E+00 0.  1.
         11    1    1    2    0    0 -0.65820065914E+01  0.30716154795E+02 -0.20808752853E+02  0.37680355246E+02  0.00000000000E+00 0. -1.
</event>
<event>
 7    1  0.2733606E-009  0.1215871E+03  0.7561462E-02  0.1240502E+00
          1   -1    0    0  501    0  0.00000000000E+00  0.00000000000E+00  0.67558218505E+03  0.67558218505E+03  0.00000000000E+00 0. -1.
         -1   -1    0    0    0  501 -0.00000000000E+00 -0.00000000000E+00 -0.37325994612E+02  0.37325994612E+02  0.00000000000E+00 0.  1.
         25    2    1    2    0    0 -0.99118502387E+01  0.72207845497E+02  0.13735201206E+03  0.19956280166E+03  0.12509004303E+03 0.  0.
          5    1    3    3  502    0 -0.25846218639E+02 -0.29882881398E+02  0.52231294702E+02  0.65624646017E+02  0.41800000000E+01 0. -1.
         -5    1    3    3    0  502  0.15934368401E+02  0.10209072690E+03  0.85120717354E+02  0.13393815564E+03  0.41800000000E+01 0. -1.
        -11    1    1    2    0    0  0.74033190682E+01 -0.85846624064E+02  0.48337159794E+03  0.49099139879E+03  0.00000000000E+00 0. -1.
         11    1    1    2    0    0  0.25085311705E+01  0.13638778567E+02  0.17532580447E+02  0.22353979211E+02  0.00000000000E+00 0.  1.
</event>
<event>
 7    1  0.2733606E-009  0.9521503E+02  0.7561462E-02  0.1290693E+00
          2   -1    0    0  501    0  0.00000000000E+00  0.00000000000E+00  0.78253233791E+02  0.78253233791E+02  0.00000000000E+00 0. -1.
         -2   -1    0    0    0  501 -0.00000000000E+00 -0.00000000000E+00 -0.23184967930E+03  0.23184967930E+03  0.00000000000E+00 0.  1.
         25    2    1    2    0    0 -0.59407462949E+02 -0.40681770315E+02 -0.49739838354E+02  0.15265983786E+03  0.12508685577E+03 0.  0.
          5    1    3    3  502    0 -0.82135850855E+02 -0.45437930412E+02 -0.73411726207E+02  0.11923781892E+03  0.41800000000E+01 0.  1.
         -5    1    3    3    0  502  0.22728387906E+02  0.47561600977E+01  0.23671887853E+02  0.33422018942E+02  0.41800000000E+01 0.  1.
        -11    1    1    2    0    0  0.27450968114E+02  0.25617763494E+02 -0.11453738389E+03  0.12053479898E+03  0.00000000000E+00 0.  1.
         11    1    1    2    0    0  0.31956494835E+02  0.15064006821E+02  0.10680776739E+02  0.36908276245E+02  0.00000000000E+00 0. -1.
</event>
<event>
 7    1  0.2733606E-009  0.1223077E+03  0.7561462E-02  0.1239338E+00
          1   -1    0    0  501    0  0.00000000000E+00  0.00000000000E+00  0.56991805835E+02  0.56991805835E+02  0.00000000000E+00 0. -1.
         -1   -1    0    0    0  501 -0.00000000000E+00 -0.00000000000E+00 -0.65931750040E+03  0.65931750040E+03  0.00000000000E+00 0.  1.
         25    2    1    2    0    0  0.91707102042E+02  0.43229500362E+01 -0.72757843449E+02  0.17137894953E+03  0.12509260609E+03 0.  0.
          5    1    3    3  502    0  0.62517840928E+02  0.37595315483E+02 -0.96448305623E+02  0.12100262905E+03  0.41800000000E+01 0.  1.
         -5    1    3    3    0  502  0.29189261115E+02 -0.33272365447E+02  0.23690462174E+02  0.50376320478E+02  0.41800000000E+01 0.  1.
        -11    1    1    2    0    0 -0.46107283312E+02  0.41794948656E+02 -0.29944264713E+03  0.30584080537E+03  0.00000000000E+00 0. -1.
         11    1    1    2    0    0 -0.45599818730E+02 -0.46117898692E+02 -0.23012520399E+03  0.23908955133E+03  0.00000000000E+00 0.  1.
</event>
<event>
 7    1  0.4206755E-009  0.1507047E+03  0.7561462E-02  0.1199610E+00
         -4   -1    0    0    0  501 -0.00000000000E+00  0.00000000000E+00  0.13524046332E+03  0.13524046332E+03  0.00000000000E+00 0.  1.
          4   -1    0    0  501    0  0.00000000000E+00 -0.00000000000E+00 -0.20750352991E+03  0.20750352991E+03  0.00000000000E+00 0. -1.
         25    2    1    2    0    0 -0.32042880685E+02  0.12032303712E+03 -0.13339551562E+02  0.17699855332E+03  0.12508463045E+03 0.  0.
          5    1    3    3  502    0 -0.56901742993E+02  0.36977585356E+01 -0.39314914752E+01  0.57309779262E+02  0.41800000000E+01 0.  1.
         -5    1    3    3    0  502  0.24858862308E+02  0.11662527859E+03 -0.94080600866E+01  0.11968877406E+03  0.41800000000E+01 0.  1.
        -11    1    1    2    0    0  0.11086458032E+02 -0.25511272676E+02  0.25003065218E+02  0.37401709260E+02  0.00000000000E+00 0.  1.
         11    1    1    2    0    0  0.20956422653E+02 -0.94811764445E+02 -0.83926580249E+02  0.12834373066E+03  0.00000000000E+00 0. -1.
</event>
<event>
 7    1  0.2733606E-009  0.1400948E+03  0.7561462E-02  0.1213201E+00
         -2   -1    0    0    0  501 -0.00000000000E+00  0.00000000000E+00  0.15134400792E+03  0.15134400792E+03  0.00000000000E+00 0. -1.
          2   -1    0    0  501    0  0.00000000000E+00 -0.00000000000E+00 -0.17203714518E+03  0.17203714518E+03  0.00000000000E+00 0.  1.
         25    2    1    2    0    0 -0.27326899493E+02 -0.11397238198E+03  0.12601620680E+02  0.17188084383E+03  0.12509100823E+03 0.  0.
          5    1    3    3  502    0 -0.29333888492E+02  0.14873642011E+02 -0.20227830686E+02  0.38837350257E+02  0.41800000000E+01 0.  1.
         -5    1    3    3    0  502  0.20069889986E+01 -0.12884602399E+03  0.32829451366E+02  0.13304349357E+03  0.41800000000E+01 0.  1.
        -11    1    1    2    0    0  0.11884515508E+02  0.23593485733E+02 -0.51630188010E+02  0.57996298087E+02  0.00000000000E+00 0.  1.
         11    1    1    2    0    0  0.15442383985E+02  0.90378896250E+02  0.18335430070E+02  0.93504011178E+02  0.00000000000E+00 0. -1.
</event>
<event>
 7    1  0.2733606E-009  0.1536293E+03  0.7561462E-02  0.1196083E+00
          1   -1    0    0  501    0  0.00000000000E+00  0.00000000000E+00  0.14902045641E+03  0.14902045641E+03  0.00000000000E+00 0. -1.
         -1   -1    0    0    0  501 -0.00000000000E+00 -0.00000000000E+00 -0.19686805952E+03  0.19686805952E+03  0.00000000000E+00 0.  1.
         25    2    1    2    0    0  0.78839425875E+02 -0.96392048913E+02  0.21182247481E+02  0.17777734222E+03  0.12509601765E+03 0.  0.
          5    1    3    3  502    0 -0.28841033108E+02 -0.10422961782E+02  0.25131376134E+02  0.39868556400E+02  0.41800000000E+01 0.  1.
         -5    1    3    3    0  502  0.10768045898E+03 -0.85969087132E+02 -0.39491286533E+01  0.13790878582E+03  0.41800000000E+01 0.  1.
        -11    1    1    2    0    0 -0.19647167614E+02  0.71660383938E+02 -0.59161697331E+00  0.74307279805E+02  0.00000000000E+00 0. -1.
         11    1    1    2    0    0 -0.59192258262E+02  0.24731664975E+02 -0.68438233625E+02  0.93803893907E+02  0.00000000000E+00 0.  1.
</event>
<event>
 7    1  0.2733606E-009  0.1327166E+03  0.7561462E-02  0.1223480E+00
          3   -1    0    0  501    0  0.00000000000E+00  0.00000000000E+00  0.41071427948E+03  0.41071427948E+03  0.00000000000E+00 0. -1.
         -3   -1    0    0    0  501 -0.00000000000E+00 -0.00000000000E+00 -0.91474912931E+02  0.91474912931E+02  0.00000000000E+00 0.  1.
         25    2    1    2    0    0  0.12840746047E+03 -0.83834128785E+00  0.28561604623E+03  0.33721431080E+03  0.12509111409E+03 0.  0.
          5    1    3    3  502    0  0.33631833045E+02 -0.19659517692E+02  0.39177712369E+01  0.39375349666E+02  0.41800000000E+01 0.  1.
         -5    1    3    3    0  502  0.94775627421E+02  0.18821176404E+02  0.28169827500E+03  0.29783896114E+03  0.41800000000E+01 0.  1.
        -11    1    1    2    0    0 -0.76407975299E+02 -0.78726818327E+01  0.67540691239E+02  0.10228344334E+03  0.00000000000E+00 0. -1.
         11    1    1    2    0    0 -0.51999485167E+02  0.87110231205E+01 -0.33917370925E+02  0.62691438267E+02  0.00000000000E+00 0.  1.
</event>
<event>
 7    1  0.2733606E-009  0.1811554E+03  0.7561462E-02  0.1166690E+00
         -1   -1    0    0    0  501 -0.00000000000E+00  0.00000000000E+00  0.93477578594E+02  0.93477578594E+02  0.00000000000E+00 0.  1.
          1   -1    0    0  501    0  0.00000000000E+00 -0.00000000000E+00 -0.38003474349E+03  0.38003474349E+03  0.00000000000E+00 0. -1.
         25    2    1    2    0    0 -0.14197598766E+03  0.59796342759E+02 -0.16044662615E+03  0.25519227056E+03  0.12508873424E+03 0.  0.
          5    1    3    3  502    0 -0.64922832106E+01 -0.32861578151E+02 -0.34419789308E+02  0.48210241193E+02  0.41800000000E+01 0.  1.
         -5    1    3    3    0  502 -0.13548370445E+03  0.92657920910E+02 -0.12602683684E+03  0.20698202937E+03  0.41800000000E+01 0.  1.
        -11    1    1    2    0    0  0.11231422309E+03 -0.18979559132E+02 -0.44333627845E+02  0.12223002467E+03  0.00000000000E+00 0.  1.
         11    1    1    2    0    0  0.29661764566E+02 -0.40816783627E+02 -0.81776910908E+02  0.96090026852E+02  0.00000000000E+00 0. -1.
</event>
<event>
 7    1  0.2733606E-009  0.1701252E+03  0.7561462E-02  0.1177717E+00
          1   -1    0    0  501    0  0.00000000000E+00  0.00000000000E+00  0.13452639170E+04  0.13452639170E+04  0.00000000000E+00 0. -1.
         -1   -1    0    0    0  501 -0.00000000000E+00 -0.00000000000E+00 -0.25787990269E+02  0.25787990269E+02  0.00000000000E+00 0.  1.
         25    2    1    2    0    0  0.13442996438E+03 -0.66322798749E+02  0.70587873142E+03  0.73238125608E+03  0.12508953526E+03 0.  0.
          5    1    3    3  502    0  0.85634018152E+02  0.22747834689E+02  0.41137110942E+03  0.42082574911E+03  0.41800000000E+01 0. -1.
         -5    1    3    3    0  502  0.48795946227E+02 -0.89070633438E+02  0.29450762200E+03  0.31155550697E+03  0.41800000000E+01 0. -1.
        -11    1    1    2    0    0 -0.10971806339E+03  0.54316186394E+02  0.58964795032E+03  0.60222338618E+03  0.00000000000E+00 0. -1.
         11    1    1    2    0    0 -0.24711900988E+02  0.12006612355E+02  0.23949244969E+02  0.36447264991E+02  0.00000000000E+00 0.  1.
</event>
<event>
 7    1  0.2733606E-009  0.1030567E+03  0.7561462E-02  0.1273996E+00
          3   -1    0    0  501    0  0.00000000000E+00  0.00000000000E+00  0.93817784523E+02  0.93817784523E+02  0.00000000000E+00 0. -1.
         -3   -1    0    0    0  501 -0.00000000000E+00 -0.00000000000E+00 -0.13174593080E+03  0.13174593080E+03  0.00000000000E+00 0.  1.
         25    2    1    2    0    0  0.19397862520E+02  0.20592468634E+02 -0.31483630917E+02  0.13205609004E+03  0.12508902856E+03 0.  0.
          5    1    3    3  502    0 -0.52625362337E+02  0.56948899745E+00 -0.68520412271E+01  0.53236979139E+02  0.41800000000E+01 0. -1.
         -5    1    3    3    0  502  0.72023224858E+02  0.20022979637E+02 -0.24631589689E+02  0.78819110900E+02  0.41800000000E+01 0. -1.
        -11    1    1    2    0    0 -0.46960199938E+02 -0.19546106048E+02  0.20600138343E+02  0.54878742147E+02  0.00000000000E+00 0. -1.
         11    1    1    2    0    0  0.27562337418E+02 -0.10463625860E+01 -0.27044653708E+02  0.38628883142E+02  0.00000000000E+00 0.  1.
</event>
<event>
 7    1  0.2733606E-009  0.1296968E+03  0.7561462E-02  0.1227906E+00
         -2   -1    0    0    0  501 -0.00000000000E+00  0.00000000000E+00  0.13652491813E+03  0.13652491813E+03  0.00000000000E+00 0.  1.
          2   -1    0    0  501    0  0.00000000000E+00 -0.00000000000E+00 -0.15527075635E+03  0.15527075635E+03  0.00000000000E+00 0. -1.
         25    2    1    2    0    0 -0.69629016753E+01 -0.92120923230E+02 -0.38516331497E+02  0.16020528221E+03  0.12508988033E+03 0.  0.
          5    1    3    3  502    0 -0.26214265022E+02  0.25025275336E+02 -0.12802605662E+02  0.38663047060E+02  0.41800000000E+01 0. -1.
         -5    1    3    3    0  502  0.19251363347E+02 -0.11714619857E+03 -0.25713725836E+02  0.12154223515E+03  0.41800000000E+01 0. -1.
        -11    1    1    2    0    0  0.98814319368E+01 -0.18932984897E+01  0.34900492650E+02  0.36321779465E+02  0.00000000000E+00 0.  1.
         11    1    1    2    0    0 -0.29185302616E+01  0.94014221720E+02 -0.15129999368E+02  0.95268612802E+02  0.00000000000E+00 0. -1.
</event>
<event>
 7    1  0.2733606E-009  0.1100922E+03  0.7561462E-02  0.1260399E+00
          2   -1    0    0  501    0  0.00000000000E+00  0.00000000000E+00  0.69691446824E+03  0.69691446824E+03  0.00000000000E+00 0. -1.
         -2   -1    0    0    0  501 -0.00000000000E+00 -0.00000000000E+00 -0.18124997673E+02  0.18124997673E+02  0.00000000000E+00 0.  1.
         25    2    1    2    0    0  0.16417332778E+02 -0.21516345199E+02  0.34453454845E+03  0.36754006731E+03  0.12509661896E+03 0.  0.
          5    1    3    3  502    0 -0.18499198092E+02 -0.65900173297E+02  0.15000849042E+03  0.16493960340E+03  0.41800000000E+01 0.  1.
         -5    1    3    3    0  502  0.34916530870E+02  0.44383828099E+02  0.19452605803E+03  0.20260046391E+03  0.41800000000E+01 0.  1.
        -11    1    1    2    0    0 -0.32606142991E+02 -0.27943054292E+02  0.15618581911E+03  0.16198143392E+03  0.00000000000E+00 0.  1.
         11    1    1    2    0    0  0.16188810213E+02  0.49459399491E+02  0.17806910301E+03  0.18551796468E+03  0.00000000000E+00 0. -1.
</event>
<event>
 7    1  0.2733606E-009  0.1441082E+03  0.7561462E-02  0.1207906E+00
          1   -1    0    0  501    0  0.00000000000E+00  0.00000000000E+00  0.12872223917E+04  0.12872223917E+04  0.00000000000E+00 0. -1.
         -1   -1    0    0    0  501 -0.00000000000E+00 -0.00000000000E+00 -0.16389004692E+02  0.16389004692E+02  0.00000000000E+00 0.  1.
         25    2    1    2    0    0 -0.54913199563E+02 -0.78424478389E+02  0.64105192884E+03  0.66011938147E+03  0.12507663266E+03 0.  0.
          5    1    3    3  502    0 -0.83386855802E+02 -0.12770327646E+02  0.38951492398E+03  0.39856718052E+03  0.41800000000E+01 0. -1.
         -5    1    3    3    0  502  0.28473656239E+02 -0.65654150743E+02  0.25153700486E+03  0.26155220095E+03  0.41800000000E+01 0. -1.
        -11    1    1    2    0    0 -0.20940375139E+02  0.44083198759E+02  0.22368208857E+03  0.22894432613E+03  0.00000000000E+00 0.  1.
         11    1    1    2    0    0  0.75853574702E+02  0.34341279630E+02  0.40609936960E+03  0.41454768878E+03  0.00000000000E+00 0. -1.
</event>
<event>
 7    1  0.2733606E-009  0.1010387E+03  0.7561462E-02  0.1278127E+00
         -2   -1    0    0    0  501 -0.00000000000E+00  0.00000000000E+00  0.11283168175E+04  0.11283168175E+04  0.00000000000E+00 0.  1.
          2   -1    0    0  501    0  0.00000000000E+00 -0.00000000000E+00 -0.16332016240E+02  0.16332016240E+02  0.00000000000E+00 0. -1.
         25    2    1    2    0    0  0.75387907887E+01 -0.58186958327E+02  0.92079480381E+03  0.93110220118E+03  0.12508270392E+03 0.  0.
          5    1    3    3  502    0  0.50698207909E+02 -0.22798272299E+01  0.62046600449E+03  0.62255203881E+03  0.41800000000E+01 0. -1.
         -5    1    3    3    0  502 -0.43159417120E+02 -0.55907131097E+02  0.30032879932E+03  0.30855016237E+03  0.41800000000E+01 0. -1.
        -11    1    1    2    0    0 -0.28401693999E+02  0.14273017498E+02  0.25142727317E+02  0.40528162893E+02  0.00000000000E+00 0. -1.
         11    1    1    2    0    0  0.20862903210E+02  0.43913940829E+02  0.16604727010E+03  0.17301846964E+03  0.00000000000E+00 0.  1.
</event>
<event>
 7    1  0.3613644E-009  0.7781496E+02  0.7561462E-02  0.1335369E+00
          1   -1    0    0  501    0  0.00000000000E+00  0.00000000000E+00  0.11953849606E+03  0.11953849606E+03  0.00000000000E+00 0. -1.
         -1   -1    0    0    0  501 -0.00000000000E+00 -0.00000000000E+00 -0.11592820474E+03  0.11592820474E+03  0.00000000000E+00 0.  1.
         25    2    1    2    0    0  0.14095925459E+02  0.10491445752E+02  0.45624001859E+02  0.13430492284E+03  0.12508995645E+03 0.  0.
          5    1    3    3  502    0  0.57155286031E+02 -0.31710875379E+02  0.18489440055E+02  0.68056139562E+02  0.41800000000E+01 0.  1.
         -5    1    3    3    0  502 -0.43059360572E+02  0.42202321131E+02  0.27134561804E+02  0.66248783279E+02  0.41800000000E+01 0.  1.
        -11    1    1    2    0    0 -0.12462479390E+02  0.54998627868E+01 -0.68684028227E+02  0.70021836713E+02  0.00000000000E+00 0.  1.
         11    1    1    2    0    0 -0.16334460690E+01 -0.15991308539E+02  0.26670317691E+02  0.31139941243E+02  0.00000000000E+00 0. -1.
</event>
<event>
 7    1  0.2733606E-009  0.9012993E+02  0.7561462E-02  0.1302537E+00
          1   -1    0    0  501    0  0.00000000000E+00  0.00000000000E+00  0.46608208303E+03  0.46608208303E+03  0.00000000000E+00 0. -1.
         -1   -1    0    0    0  501 -0.00000000000E+00 -0.00000000000E+00 -0.44302849600E+02  0.44302849600E+02  0.00000000000E+00 0.  1.
         25    2    1    2    0    0 -0.25954826847E+02  0.19263882121E+02  0.38608930642E+03  0.40713377517E+03  0.12509279819E+03 0.  0.
          5    1    3    3  502    0  0.48024827904E+02  0.18238062971E+02  0.20695714197E+03  0.21327855506E+03  0.41800000000E+01 0. -1.
         -5    1    3    3    0  502 -0.73979654751E+02  0.10258191498E+01  0.17913216445E+03  0.19385522010E+03  0.41800000000E+01 0. -1.
        -11    1    1    2    0    0 -0.12477401140E+02 -0.27102434253E+01  0.55502437923E+02  0.56952186736E+02  0.00000000000E+00 0. -1.
         11    1    1    2    0    0  0.38432227987E+02 -0.16553638696E+02 -0.19812510910E+02  0.46298970730E+02  0.00000000000E+00 0.  1.
</event>
<event>
 7    1  0.2733606E-009  0.9505951E+02  0.7561462E-02  0.1291042E+00
         -1   -1    0    0    0  501 -0.00000000000E+00  0.00000000000E+00  0.19144367055E+02  0.19144367055E+02  0.00000000000E+00 0.  1.
          1   -1    0    0  501    0  0.00000000000E+00 -0.00000000000E+00 -0.85621883056E+03  0.85621883056E+03  0.00000000000E+00 0. -1.
         25    2    1    2    0    0  0.50245928890E+02 -0.45260703932E+02 -0.50659947959E+03  0.52617596288E+03  0.12507968062E+03 0.  0.
          5    1    3    3  502    0  0.62771117711E+02 -0.40234345489E+02 -0.13475341804E+03  0.15406158460E+03  0.41800000000E+01 0. -1.
         -5    1    3    3    0  502 -0.12525188821E+02 -0.50263584434E+01 -0.37184606155E+03  0.37211437828E+03  0.41800000000E+01 0. -1.
        -11    1    1    2    0    0 -0.13212787965E+02 -0.21346316940E+02 -0.29609131464E+02  0.38819372467E+02  0.00000000000E+00 0.  1.
         11    1    1    2    0    0 -0.37033140925E+02  0.66607020872E+02 -0.30086585245E+03  0.31036786226E+03  0.00000000000E+00 0. -1.
</event>
<event>
 7    1  0.2733606E-009  0.8244962E+02  0.7561462E-02  0.1322240E+00
         -2   -1    0    0    0  501 -0.00000000000E+00  0.00000000000E+00  0.10098558151E+03  0.10098558151E+03  0.00000000000E+00 0. -1.
          2   -1    0    0  501    0  0.00000000000E+00 -0.00000000000E+00 -0.20590027324E+03  0.20590027324E+03  0.00000000000E+00 0.  1.
         25    2    1    2    0    0 -0.14691318378E+02  0.41208668757E+02  0.31716376003E+02  0.13626697811E+03  0.12509505026E+03 0.  0.
          5    1    3    3  502    0  0.41780055048E+01  0.52224080904E+02 -0.36845675678E+02  0.64186342570E+02  0.41800000000E+01 0.  1.
         -5    1    3    3    0  502 -0.18869323883E+02 -0.11015412148E+02  0.68562051681E+02  0.72080635536E+02  0.41800000000E+01 0.  1.
        -11    1    1    2    0    0 -0.22985078930E+02  0.11185380646E+02 -0.82559797825E+02  0.86426539967E+02  0.00000000000E+00 0.  1.
         11    1    1    2    0    0  0.37676397309E+02 -0.52394049403E+02 -0.54071269900E+02  0.84192336680E+02  0.00000000000E+00 0. -1.
</event>
<event>
 7    1  0.2733606E-009  0.1330411E+03  0.7561462E-02  0.1223012E+00
          2   -1    0    0  501    0  0.00000000000E+00  0.00000000000E+00  0.30386260591E+03  0.30386260591E+03  0.00000000000E+00 0. -1.
         -2   -1    0    0    0  501 -0.00000000000E+00 -0.00000000000E+00 -0.70724431852E+02  0.70724431852E+02  0.00000000000E+00 0.  1.
         25    2    1    2    0    0  0.53750560142E+02  0.75481422493E+02  0.16841199938E+03  0.22933652195E+03  0.12508425523E+03 0.  0.
          5    1    3    3  502    0  0.53101859107E+02 -0.22313096729E+02  0.64732543577E+02  0.86749388034E+02  0.41800000000E+01 0.  1.
         -5    1    3    3    0  502  0.64870103533E+00  0.97794519221E+02  0.10367945580E+03  0.14258713392E+03  0.41800000000E+01 0.  1.
        -11    1    1    2    0    0 -0.65390891106E+02 -0.49622932851E+02  0.88158441909E+01  0.82559815971E+02  0.00000000000E+00 0.  1.
         11    1    1    2    0    0  0.11640330963E+02 -0.25858489642E+02  0.55910330490E+02  0.62690699844E+02  0.00000000000E+00 0. -1.
</event>
<event>
 7    1  0.2733606E-009  0.1361347E+03  0.7561462E-02  0.1218627E+00
          1   -1    0    0  501    0  0.00000000000E+00  0.00000000000E+00  0.56704770888E+03  0.56704770888E+03  0.00000000000E+00 0. -1.
         -1   -1    0    0    0  501 -0.00000000000E+00 -0.00000000000E+00 -0.41094317218E+02  0.41094317218E+02  0.00000000000E+00 0.  1.
         25    2    1    2    0    0 -0.45018772810E+02  0.72803646595E+02  0.15643964473E+03  0.21782479098E+03  0.12508883347E+03 0.  0.
          5    1    3    3  502    0 -0.86664823612E+02  0.66024002534E+02  0.11681035599E+03  0.15978764730E+03  0.41800000000E+01 0.  1.
         -5    1    3    3    0  502  0.41646050802E+02  0.67796440618E+01  0.39629288737E+02  0.58037143682E+02  0.41800000000E+01 0.  1.
        -11    1    1    2    0    0  0.11826425959E+02  0.19468203735E+02  0.35273104412E+02  0.41988893799E+02  0.00000000000E+00 0.  1.
         11    1    1    2    0    0  0.33192346851E+02 -0.92271850330E+02  0.33424064252E+03  0.34832834132E+03  0.00000000000E+00 0. -1.
</event>
<event>
 7    1  0.2733606E-009  0.1051849E+03  0.7561462E-02  0.1269756E+00
         -4   -1    0    0    0  501 -0.00000000000E+00  0.00000000000E+00  0.33855715593E+02  0.33855715593E+02  0.00000000000E+00 0.  1.
          4   -1    0    0  501    0  0.00000000000E+00 -0.00000000000E+00 -0.40341422393E+03  0.40341422393E+03  0.00000000000E+00 0. -1.
         25    2    1    2    0    0  0.34094654786E+02 -0.29558804101E+02 -0.19303983658E+03  0.23440735195E+03  0.12508501012E+03 0.  0.
          5    1    3    3  502    0  0.68469368970E+02 -0.45442859910E+01 -0.49681949050E+02  0.84820242182E+02  0.41800000000E+01 0.  1.
         -5    1    3    3    0  502 -0.34374714185E+02 -0.25014518110E+02 -0.14335788753E+03  0.14958710977E+03  0.41800000000E+01 0.  1.
        -11    1    1    2    0    0 -0.26224339421E+02 -0.29415303821E+02 -0.56233708632E+02  0.68667358064E+02  0.00000000000E+00 0.  1.
         11    1    1    2    0    0 -0.78703153644E+01  0.58974107923E+02 -0.12028496312E+03  0.13419522951E+03  0.00000000000E+00 0. -1.
</event>
<event>
 7    1  0.2733606E-009  0.8727530E+02  0.7561462E-02  0.1309587E+00
          3   -1    0    0  501    0  0.00000000000E+00  0.00000000000E+00  0.22495697699E+02  0.22495697699E+02  0.00000000000E+00 0. -1.
         -3   -1    0    0    0  501 -0.00000000000E+00 -0.00000000000E+00 -0.96338668837E+03  0.96338668837E+03  0.00000000000E+00 0.  1.
         25    2    1    2    0    0 -0.29891319560E+02  0.37389675198E+01 -0.82875191379E+03  0.83868141477E+03  0.12509720223E+03 0.  0.
          5    1    3    3  502    0 -0.53706619517E+02  0.44034869941E+02 -0.30546907586E+03  0.31329267380E+03  0.41800000000E+01 0. -1.
         -5    1    3    3    0  502  0.23815299957E+02 -0.40295902422E+02 -0.52328283793E+03  0.52538874097E+03  0.41800000000E+01 0. -1.
        -11    1    1    2    0    0  0.15399129467E+02  0.22934029931E+02 -0.11350136893E+03  0.11681465519E+03  0.00000000000E+00 0.  1.
         11    1    1    2    0    0  0.14492190093E+02 -0.26672997451E+02  0.13622920597E+01  0.30386316104E+02  0.00000000000E+00 0. -1.
</event>
<event>
 7    1  0.2733606E-009  0.1675283E+03  0.7561462E-02  0.1180450E+00
         -2   -1    0    0    0  501 -0.00000000000E+00  0.00000000000E+00  0.37280476193E+02  0.37280476193E+02  0.00000000000E+00 0. -1.
          2   -1    0    0  501    0  0.00000000000E+00 -0.00000000000E+00 -0.89178199365E+03  0.89178199365E+03  0.00000000000E+00 0.  1.
         25    2    1    2    0    0  0.12533302025E+03  0.58106233780E+02 -0.57012715809E+03  0.59981447218E+03  0.12509086409E+03 0.  0.
          5    1    3    3  502    0  0.73193515094E+02  0.83454347002E+02 -0.23809406973E+03  0.26273213949E+03  0.41800000000E+01 0.  1.
         -5    1    3    3    0  502  0.52139505157E+02 -0.25348113221E+02 -0.33203308836E+03  0.33708233269E+03  0.41800000000E+01 0.  1.
        -11    1    1    2    0    0 -0.46790015198E+02 -0.72215323575E+02 -0.15293685243E+03  0.17548230485E+03  0.00000000000E+00 0.  1.
         11    1    1    2    0    0 -0.78543005053E+02  0.14109089795E+02 -0.13143750693E+03  0.15376569281E+03  0.00000000000E+00 0. -1.
</event>
<event>
 7    1  0.2733606E-009  0.1146863E+03  0.7561462E-02  0.1252130E+00
          1   -1    0    0  501    0  0.00000000000E+00  0.00000000000E+00  0.40589321453E+03  0.40589321453E+03  0.00000000000E+00 0. -1.
         -1   -1    0    0    0  501 -0.00000000000E+00 -0.00000000000E+00 -0.44554590157E+02  0.44554590157E+02  0.00000000000E+00 0.  1.
         25    2    1    2    0    0 -0.37468532744E+02 -0.65719454634E+02  0.22988726020E+03  0.27243093909E+03  0.12509007357E+03 0.  0.
          5    1    3    3  502    0 -0.25116030564E+02  0.23330960912E+02  0.14379607514E+03  0.14788486182E+03  0.41800000000E+01 0.  1.
         -5    1    3    3    0  502 -0.12352502181E+02 -0.89050415546E+02  0.86091185063E+02  0.12454607727E+03  0.41800000000E+01 0.  1.
        -11    1    1    2    0    0  0.55386371160E+02  0.25838468225E+02  0.31142883011E+02  0.68594137597E+02  0.00000000000E+00 0. -1.
         11    1    1    2    0    0 -0.17917838416E+02  0.39880986409E+02  0.10030848115E+03  0.10942272799E+03  0.00000000000E+00 0.  1.
</event>
<event>
 7    1  0.2733606E-009  0.9892761E+02  0.7561462E-02  0.1282567E+00
         -1   -1    0    0    0  501 -0.00000000000E+00  0.00000000000E+00  0.87420717147E+01  0.87420717147E+01  0.00000000000E+00 0.  1.
          1   -1    0    0  501    0  0.00000000000E+00 -0.00000000000E+00 -0.14891861477E+04  0.14891861477E+04  0.00000000000E+00 0. -1.
         25    2    1    2    0    0  0.67233285357E+01  0.25823286611E+02 -0.10258273498E+04  0.10337704059E+04  0.12508978923E+03 0.  0.
          5    1    3    3  502    0  0.24862481007E+02  0.61437679712E+02 -0.32095337702E+03  0.32775184831E+03  0.41800000000E+01 0. -1.
         -5    1    3    3    0  502 -0.18139152471E+02 -0.35614393101E+02 -0.70487397273E+03  0.70601855760E+03  0.41800000000E+01 0. -1.
        -11    1    1    2    0    0 -0.20415289659E+02 -0.55197363225E+02 -0.33963041052E+03  0.34469167195E+03  0.00000000000E+00 0. -1.
         11    1    1    2    0    0  0.13691961123E+02  0.29374076614E+02 -0.11498631571E+03  0.11946614155E+03  0.00000000000E+00 0.  1.
</event>
<event>
 7    1  0.2733606E-009  0.1360895E+03  0.7561462E-02  0.1218690E+00
         -2   -1    0    0    0  501 -0.00000000000E+00  0.00000000000E+00  0.60297978543E+02  0.60297978543E+02  0.00000000000E+00 0.  1.
          2   -1    0    0  501    0  0.00000000000E+00 -0.00000000000E+00 -0.39212730267E+03  0.39212730267E+03  0.00000000000E+00 0. -1.
         25    2    1    2    0    0 -0.53607222436E+02  0.89461501830E+02 -0.13326171891E+03  0.21043494700E+03  0.12508831514E+03 0.  0.
          5    1    3    3  502    0 -0.31221303469E+02 -0.16524204300E+02  0.37008287492E+01  0.35762936841E+02  0.41800000000E+01 0. -1.
         -5    1    3    3    0  502 -0.22385918967E+02  0.10598570613E+03 -0.13696254766E+03  0.17467201016E+03  0.41800000000E+01 0. -1.
        -11    1    1    2    0    0  0.66842824134E+02 -0.42027493518E+02 -0.16339895430E+03  0.18147587062E+03  0.00000000000E+00 0. -1.
         11    1    1    2    0    0 -0.13235601698E+02 -0.47434008312E+02 -0.35168650910E+02  0.60514463591E+02  0.00000000000E+00 0.  1.
</event>
<event>
 7    1  0.2733606E-009  0.1097119E+03  0.7561462E-02  0.1261104E+00
         -1   -1    0    0    0  501 -0.00000000000E+00  0.00000000000E+00  0.35862296138E+02  0.35862296138E+02  0.00000000000E+00 0.  1.
          1   -1    0    0  501    0  0.00000000000E+00 -0.00000000000E+00 -0.76460230735E+03  0.76460230735E+03  0.00000000000E+00 0. -1.
         25    2    1    2    0    0  0.20467234539E+02  0.89201803375E+02 -0.59084712523E+03  0.61083787848E+03  0.12508684575E+03 0.  0.
          5    1    3    3  502    0  0.49611441198E+02  0.58482387413E+02 -0.53572812798E+03  0.54120567647E+03  0.41800000000E+01 0. -1.
         -5    1    3    3    0  502 -0.29144206659E+02  0.30719415962E+02 -0.55118997247E+02  0.69632202007E+02  0.41800000000E+01 0. -1.
        -11    1    1    2    0    0  0.12418560261E+02 -0.26530494018E+02 -0.10953021081E+03  0.11337969320E+03  0.00000000000E+00 0. -1.
         11    1    1    2    0    0 -0.32885794800E+02 -0.62671309357E+02 -0.28362675181E+02  0.76247031808E+02  0.00000000000E+00 0.  1.
</event>
<event>
 7    1  0.2733606E-009  0.1118981E+03  0.7561462E-02  0.1257095E+00
         -2   -1    0    0    0  501 -0.00000000000E+00  0.00000000000E+00  0.19355902886E+03  0.19355902886E+03  0.00000000000E+00 0.  1.
          2   -1    0    0  501    0  0.00000000000E+00 -0.00000000000E+00 -0.98574787604E+02  0.98574787604E+02  0.00000000000E+00 0. -1.
         25    2    1    2    0    0 -0.25108885838E+02  0.75159032827E+02  0.19664048948E+02  0.14937594967E+03  0.12508862120E+03 0.  0.
          5    1    3    3  502    0 -0.47605344155E+02  0.48034071824E+02  0.63578548148E+02  0.92915257266E+02  0.41800000000E+01 0. -1.
         -5    1    3    3    0  502  0.22496458317E+02  0.27124961003E+02 -0.43914499200E+02  0.56460692399E+02  0.41800000000E+01 0. -1.
        -11    1    1    2    0    0  0.59681529185E+02 -0.47781071011E+02  0.40167776607E+02  0.86361831560E+02  0.00000000000E+00 0. -1.
         11    1    1    2    0    0 -0.34572643347E+02 -0.27377961816E+02  0.35152415702E+02  0.56396035241E+02  0.00000000000E+00 0.  1.
</event>
<event>
 7    1  0.2733606E-009  0.1679482E+03  0.7561462E-02  0.1180005E+00
         -2   -1    0    0    0  501 -0.00000000000E+00  0.00000000000E+00  0.32705957418E+02  0.32705957418E+02  0.00000000000E+00 0.  1.
          2   -1    0    0  501    0  0.00000000000E+00 -0.00000000000E+00 -0.96959550349E+03  0.96959550349E+03  0.00000000000E+00 0. -1.
         25    2    1    2    0    0 -0.30369536297E+02  0.12960678898E+03 -0.61616492330E+03  0.64266964796E+03  0.12507931573E+03 0.  0.
          5    1    3    3  502    0  0.29978522598E+02  0.11052601519E+03 -0.32314235128E+03  0.34286026810E+03  0.41800000000E+01 0.  1.
         -5    1    3    3    0  502 -0.60348058895E+02  0.19080773786E+02 -0.29302257202E+03  0.29980937986E+03  0.41800000000E+01 0.  1.
        -11    1    1    2    0    0 -0.24968634367E+02 -0.79104244251E+02 -0.21147294081E+03  0.22716011722E+03  0.00000000000E+00 0. -1.
         11    1    1    2    0    0  0.55338170664E+02 -0.50502544727E+02 -0.10925168196E+03  0.13247169572E+03  0.00000000000E+00 0.  1.
</event>
<event>
 7    1  0.2733606E-009  0.1078921E+03  0.7561462E-02  0.1264524E+00
          2   -1    0    0  501    0  0.00000000000E+00  0.00000000000E+00  0.61133236994E+03  0.61133236994E+03  0.00000000000E+00 0. -1.
         -2   -1    0    0    0  501 -0.00000000000E+00 -0.00000000000E+00 -0.24095162815E+02  0.24095162815E+02  0.00000000000E+00 0.  1.
         25    2    1    2    0    0  0.50434754920E+02 -0.19198098788E+02  0.34891141927E+03  0.37456541390E+03  0.12509132381E+03 0.  0.
          5    1    3    3  502    0  0.18898185640E+02 -0.70778034440E+02  0.15674232535E+03  0.17306732949E+03  0.41800000000E+01 0.  1.
         -5    1    3    3    0  502  0.31536569280E+02  0.51579935652E+02  0.19216909392E+03  0.20149808441E+03  0.41800000000E+01 0.  1.
        -11    1    1    2    0    0 -0.37326038801E+02 -0.18668936807E+02  0.20361201302E+03  0.20784516887E+03  0.00000000000E+00 0. -1.
         11    1    1    2    0    0 -0.13108716118E+02  0.37867035595E+02  0.34713774833E+02  0.53016949990E+02  0.00000000000E+00 0.  1.
</event>
<event>
 7    1  0.2733606E-009  0.9657861E+02  0.7561462E-02  0.1287660E+00
         -1   -1    0    0    0  501 -0.00000000000E+00  0.00000000000E+00  0.29019384254E+03  0.29019384254E+03  0.00000000000E+00 0.  1.
          1   -1    0    0  501    0  0.00000000000E+00 -0.00000000000E+00 -0.50053294325E+02  0.50053294325E+02  0.00000000000E+00 0. -1.
         25    2    1    2    0    0  0.15316646065E+02  0.85933206157E+01  0.20211601069E+03  0.23833878243E+03  0.12508416619E+03 0.  0.
          5    1    3    3  502    0 -0.48668528163E+02  0.19079998094E+02  0.13545192996E+03  0.14524933628E+03  0.41800000000E+01 0.  1.
         -5    1    3    3    0  502  0.63985174228E+02 -0.10486677478E+02  0.66664080725E+02  0.93089446150E+02  0.41800000000E+01 0.  1.
        -11    1    1    2    0    0 -0.19845981765E+02  0.30499337831E+02  0.49017724110E+02  0.61047603370E+02  0.00000000000E+00 0.  1.
         11    1    1    2    0    0  0.45293357006E+01 -0.39092658446E+02 -0.10993186579E+02  0.40860751063E+02  0.00000000000E+00 0. -1.
</event>
<event>
 7    1  0.2733606E-009  0.2419717E+03  0.7561462E-02  0.1118486E+00
         -2   -1    0    0    0  501 -0.00000000000E+00  0.00000000000E+00  0.12475089192E+03  0.12475089192E+03  0.00000000000E+00 0.  1.
          2   -1    0    0  501    0  0.00000000000E+00 -0.00000000000E+00 -0.52650686979E+03  0.52650686979E+03  0.00000000000E+00 0. -1.
         25    2    1    2    0    0 -0.19317072849E+02 -0.21953233876E+03 -0.11521411279E+03  0.27836900388E+03  0.12508962175E+03 0.  0.
          5    1    3    3  502    0  0.23017542255E+02 -0.20802621389E+03 -0.95324798430E+02  0.23001956985E+03  0.41800000000E+01 0.  1.
         -5    1    3    3    0  502 -0.42334615104E+02 -0.11506124873E+02 -0.19889314362E+02  0.48349434034E+02  0.41800000000E+01 0.  1.
        -11    1    1    2    0    0 -0.22658276301E+02  0.38242784515E+02 -0.22387451284E+02  0.49770533726E+02  0.00000000000E+00 0.  1.
         11    1    1    2    0    0  0.41975349150E+02  0.18128955425E+03 -0.26415441380E+03  0.32311822410E+03  0.00000000000E+00 0. -1.
</event>
<event>
 7    1  0.4566281E-009  0.1050727E+03  0.7561462E-02  0.1269977E+00
          2   -1    0    0  501    0  0.00000000000E+00  0.00000000000E+00  0.54267298050E+02  0.54267298050E+02  0.00000000000E+00 0.  1.
         -2   -1    0    0    0  501 -0.00000000000E+00 -0.00000000000E+00 -0.31766916460E+03  0.31766916460E+03  0.00000000000E+00 0. -1.
         25    2    1    2    0    0 -0.10904024051E+02 -0.65000081882E+02 -0.19190402164E+03  0.23836613668E+03  0.12508938088E+03 0.  0.
          5    1    3    3  502    0 -0.65788635232E+02 -0.39000287089E+02 -0.13402498152E+03  0.15436753218E+03  0.41800000000E+01 0.  1.
         -5    1    3    3    0  502  0.54884611181E+02 -0.25999794793E+02 -0.57879040122E+02  0.83998604507E+02  0.41800000000E+01 0.  1.
        -11    1    1    2    0    0  0.21088233057E+02  0.33635556037E+02  0.13871428936E+02  0.42053308361E+02  0.00000000000E+00 0.  1.
         11    1    1    2    0    0 -0.10184209006E+02  0.31364525845E+02 -0.85369273844E+02  0.91517017605E+02  0.00000000000E+00 0. -1.
</event>
<event>
 7    1  0.2733606E-009  0.4678974E+03  0.7561462E-02  0.1022515E+00
          1   -1    0    0  501    0  0.00000000000E+00  0.00000000000E+00  0.13214987807E+04  0.13214987807E+04  0.00000000000E+00 0. -1.
         -1   -1    0    0    0  501 -0.00000000000E+00 -0.00000000000E+00 -0.17375770089E+03  0.17375770089E+03  0.00000000000E+00 0.  1.
         25    2    1    2    0    0 -0.21939478977E+03  0.41086401428E+03  0.54008868069E+03  0.72407598561E+03  0.12508772092E+03 0.  0.
          5    1    3    3  502    0 -0.12174790916E+03  0.27134645686E+03  0.25409417945E+03  0.39119404069E+03  0.41800000000E+01 0.  1.
         -5    1    3    3    0  502 -0.97646880610E+02  0.13951755742E+03  0.28599450123E+03  0.33288194492E+03  0.41800000000E+01 0.  1.
        -11    1    1    2    0    0  0.19243299993E+03 -0.32170944911E+03  0.53396085180E+03  0.65241215528E+03  0.00000000000E+00 0.  1.
         11    1    1    2    0    0  0.26961789838E+02 -0.89154565173E+02  0.73691547276E+02  0.11876834066E+03  0.00000000000E+00 0. -1.
</event>
<event>
 7    1  0.2733606E-009  0.1264073E+03  0.7561462E-02  0.1232886E+00
          2   -1    0    0  501    0  0.00000000000E+00  0.00000000000E+00  0.42356876594E+03  0.42356876594E+03  0.00000000000E+00 0. -1.
         -2   -1    0    0    0  501 -0.00000000000E+00 -0.00000000000E+00 -0.72187873335E+02  0.72187873335E+02  0.00000000000E+00 0.  1.
         25    2    1    2    0    0  0.27821777808E+02  0.10371304227E+03  0.67093046333E+02  0.17798770497E+03  0.12509076624E+03 0.  0.
          5    1    3    3  502    0  0.21437706294E+02 -0.96927062567E+01 -0.22835573691E+02  0.33052377094E+02  0.41800000000E+01 0. -1.
         -5    1    3    3    0  502  0.63840715142E+01  0.11340574852E+03  0.89928620025E+02  0.14493532788E+03  0.41800000000E+01 0. -1.
        -11    1    1    2    0    0 -0.46976950948E+01 -0.86000176492E+02  0.27344394807E+03  0.28668744554E+03  0.00000000000E+00 0.  1.
         11    1    1    2    0    0 -0.23124082713E+02 -0.17712865774E+02  0.10843898198E+02  0.31081488758E+02  0.00000000000E+00 0. -1.
</event>
<event>
 7    1  0.2733606E-009  0.1297334E+03  0.7561462E-02  0.1227852E+00
         -2   -1    0    0    0  501 -0.00000000000E+00  0.00000000000E+00  0.11622268063E+03  0.11622268063E+03  0.00000000000E+00 0.  1.
          2   -1    0    0  501    0  0.00000000000E+00 -0.00000000000E+00 -0.23497572413E+03  0.23497572413E+03  0.00000000000E+00 0. -1.
         25    2    1    2    0    0 -0.98319734893E+02 -0.69450609565E+02 -0.69901258434E+02  0.18714570584E+03  0.12508865594E+03 0.  0.
          5    1    3    3  502    0 -0.16328716966E+02 -0.32488959142E+02 -0.88002042692E+02  0.95309975249E+02  0.41800000000E+01 0. -1.
         -5    1    3    3    0  502 -0.81991017927E+02 -0.36961650422E+02  0.18100784259E+02  0.91835730592E+02  0.41800000000E+01 0. -1.
        -11    1    1    2    0    0  0.48962499734E+02  0.16783843585E+01 -0.62178212205E+02  0.79159796786E+02  0.00000000000E+00 0. -1.
         11    1    1    2    0    0  0.49357235159E+02  0.67772225206E+02  0.13326427144E+02  0.84892902132E+02  0.00000000000E+00 0.  1.
</event>
<event>
 7    1  0.2733606E-009  0.1125477E+03  0.7561462E-02  0.1255923E+00
          2   -1    0    0  501    0  0.00000000000E+00  0.00000000000E+00  0.11922042136E+03  0.11922042136E+03  0.00000000000E+00 0.  1.
         -2   -1    0    0    0  501 -0.00000000000E+00 -0.00000000000E+00 -0.12399040669E+03  0.12399040669E+03  0.00000000000E+00 0. -1.
         25    2    1    2    0    0 -0.13160163678E+02  0.50993012832E+02  0.15406047610E+02  0.13659454030E+03  0.12508894784E+03 0.  0.
          5    1    3    3  502    0 -0.39636295827E+02 -0.23225761054E+02 -0.19783846265E+02  0.50193076181E+02  0.41800000000E+01 0.  1.
         -5    1    3    3    0  502  0.26476132149E+02  0.74218773886E+02  0.35189893876E+02  0.86401464118E+02  0.41800000000E+01 0.  1.
        -11    1    1    2    0    0 -0.28482838656E+02  0.63543434690E+01 -0.20637049008E+02  0.35742657576E+02  0.00000000000E+00 0. -1.
         11    1    1    2    0    0  0.41643002334E+02 -0.57347356301E+02  0.46101606984E+00  0.70873630173E+02  0.00000000000E+00 0.  1.
</event>
<event>
 7    1  0.2733606E-009  0.1109509E+03  0.7561462E-02  0.1258819E+00
          2   -1    0    0  501    0  0.00000000000E+00  0.00000000000E+00  0.32389073041E+03  0.32389073041E+03  0.00000000000E+00 0. -1.
         -2   -1    0    0    0  501 -0.00000000000E+00 -0.00000000000E+00 -0.46914325244E+02  0.46914325244E+02  0.00000000000E+00 0.  1.
         25    2    1    2    0    0 -0.18215146115E+02  0.31295453036E+02  0.22752658015E+03  0.26215903377E+03  0.12509123624E+03 0.  0.
          5    1    3    3  502    0 -0.70978373911E+02  0.16841792108E+02  0.15362556392E+03  0.17011720023E+03  0.41800000000E+01 0.  1.
         -5    1    3    3    0  502  0.52763227796E+02  0.14453660928E+02  0.73901016237E+02  0.92041833546E+02  0.41800000000E+01 0.  1.
        -11    1    1    2    0    0 -0.30467738656E+02  0.78893311752E+01  0.47906214037E+01  0.31835117381E+02  0.00000000000E+00 0.  1.
         11    1    1    2    0    0  0.48682884771E+02 -0.39184784211E+02  0.44659203610E+02  0.76810904502E+02  0.00000000000E+00 0. -1.
</event>
<event>
 7    1  0.2733606E-009  0.1489460E+03  0.7561462E-02  0.1201774E+00
         -3   -1    0    0    0  501 -0.00000000000E+00  0.00000000000E+00  0.13737604039E+03  0.13737604039E+03  0.00000000000E+00 0.  1.
          3   -1    0    0  501    0  0.00000000000E+00 -0.00000000000E+00 -0.17236571881E+03  0.17236571881E+03  0.00000000000E+00 0. -1.
         25    2    1    2    0    0 -0.74907250484E+01 -0.10954201839E+03 -0.27591190456E+02  0.16872411698E+03  0.12510391323E+03 0.  0.
          5    1    3    3  502    0 -0.53529610880E+02 -0.94129405948E+02  0.75745455443E+01  0.10863061468E+03  0.41800000000E+01 0.  1.
         -5    1    3    3    0  502  0.46038885831E+02 -0.15412612446E+02 -0.35165736001E+02  0.60093502306E+02  0.41800000000E+01 0.  1.
        -11    1    1    2    0    0 -0.32923407920E+02  0.90142872854E+02 -0.63387019287E+01  0.96176231251E+02  0.00000000000E+00 0.  1.
         11    1    1    2    0    0  0.40414132969E+02  0.19399145540E+02 -0.10597860356E+01  0.44841410969E+02  0.00000000000E+00 0. -1.
</event>
<event>
 7    1  0.2733606E-009  0.9770344E+02  0.7561462E-02  0.1285201E+00
          4   -1    0    0  501    0  0.00000000000E+00  0.00000000000E+00  0.10543455571E+03  0.10543455571E+03  0.00000000000E+00 0. -1.
         -4   -1    0    0    0  501 -0.00000000000E+00 -0.00000000000E+00 -0.11228999277E+03  0.11228999277E+03  0.00000000000E+00 0.  1.
         25    2    1    2    0    0  0.85944956392E+01 -0.30356944106E+01  0.90440603371E+00  0.12542592925E+03  0.12509102678E+03 0.  0.
          5    1    3    3  502    0  0.46534617740E+02 -0.31161775013E+02  0.35760262777E+02  0.66579243493E+02  0.41800000000E+01 0. -1.
         -5    1    3    3    0  502 -0.37940122101E+02  0.28126080602E+02 -0.34855856744E+02  0.58846685756E+02  0.41800000000E+01 0. -1.
        -11    1    1    2    0    0  0.38863577503E+02 -0.14149969789E+02 -0.60156038741E+01  0.41794578492E+02  0.00000000000E+00 0.  1.
         11    1    1    2    0    0 -0.47458073143E+02  0.17185664200E+02 -0.17442392228E+01  0.50504040738E+02  0.00000000000E+00 0. -1.
</event>
<event>
 7    1  0.2733606E-009  0.1488626E+03  0.7561462E-02  0.1201878E+00
         -1   -1    0    0    0  501 -0.00000000000E+00  0.00000000000E+00  0.74853735578E+02  0.74853735578E+02  0.00000000000E+00 0.  1.
          1   -1    0    0  501    0  0.00000000000E+00 -0.00000000000E+00 -0.37036329517E+03  0.37036329517E+03  0.00000000000E+00 0. -1.
         25    2    1    2    0    0 -0.56959308357E+01  0.11248590089E+03 -0.81770093683E+02  0.18712945640E+03  0.12508222777E+03 0.  0.
          5    1    3    3  502    0 -0.56665423766E+02  0.70344497235E+02 -0.80164476079E+02  0.12084342831E+03  0.41800000000E+01 0.  1.
         -5    1    3    3    0  502  0.50969492930E+02  0.42141403657E+02 -0.16056176044E+01  0.66286028088E+02  0.41800000000E+01 0.  1.
        -11    1    1    2    0    0  0.25247168870E+02  0.15866992622E+01 -0.19334090201E+02  0.31839349779E+02  0.00000000000E+00 0.  1.
         11    1    1    2    0    0 -0.19551238034E+02 -0.11407260015E+03 -0.19440537571E+03  0.22624822456E+03  0.00000000000E+00 0. -1.
</event>
<event>
 7    1  0.2733606E-009  0.1473082E+03  0.7561462E-02  0.1203820E+00
          1   -1    0    0  501    0  0.00000000000E+00  0.00000000000E+00  0.88473921927E+02  0.88473921927E+02  0.00000000000E+00 0. -1.
         -1   -1    0    0    0  501 -0.00000000000E+00 -0.00000000000E+00 -0.29761443924E+03  0.29761443924E+03  0.00000000000E+00 0.  1.
         25    2    1    2    0    0 -0.67530209489E+02  0.80185100495E+02 -0.47568624050E+02  0.16999888504E+03  0.12508743896E+03 0.  0.
          5    1    3    3  502    0 -0.97850378493E+01  0.10109182321E+03 -0.29188431437E+02  0.10575793406E+03  0.41800000000E+01 0. -1.
         -5    1    3    3    0  502 -0.57745171640E+02 -0.20906722717E+02 -0.18380192613E+02  0.64240950981E+02  0.41800000000E+01 0. -1.
        -11    1    1    2    0    0  0.36735273346E+02  0.83504968105E+01 -0.11937688358E+02  0.39518596990E+02  0.00000000000E+00 0. -1.
         11    1    1    2    0    0  0.30794936144E+02 -0.88535597306E+02 -0.14963420491E+03  0.17657087914E+03  0.00000000000E+00 0.  1.
</event>
<event>
 7    1  0.2733606E-009  0.1568617E+03  0.7561462E-02  0.1192286E+00
         -2   -1    0    0    0  501 -0.00000000000E+00  0.00000000000E+00  0.12166855976E+04  0.12166855976E+04  0.00000000000E+00 0.  1.
          2   -1    0    0  501    0  0.00000000000E+00 -0.00000000000E+00 -0.23610626018E+02  0.23610626018E+02  0.00000000000E+00 0. -1.
         25    2    1    2    0    0  0.12463697229E+03  0.33085231922E+02  0.62791198602E+03  0.65310604272E+03  0.12508010798E+03 0.  0.
          5    1    3    3  502    0  0.54195855836E+02 -0.43262167073E+02  0.17219623971E+03  0.18568204884E+03  0.41800000000E+01 0.  1.
         -5    1    3    3    0  502  0.70441116452E+02  0.76347398995E+02  0.45571574631E+03  0.46742399388E+03  0.41800000000E+01 0.  1.
        -11    1    1    2    0    0 -0.55840963897E+02  0.13189704669E+02  0.10534765421E+03  0.11995961740E+03  0.00000000000E+00 0. -1.
         11    1    1    2    0    0 -0.68796008391E+02 -0.46274936592E+02  0.45981533135E+03  0.46723056350E+03  0.00000000000E+00 0.  1.
</event>
<event>
 7    1  0.2733606E-009  0.3903068E+03  0.7561462E-02  0.1047189E+00
         -2   -1    0    0    0  501 -0.00000000000E+00  0.00000000000E+00  0.94647436962E+03  0.94647436962E+03  0.00000000000E+00 0. -1.
          2   -1    0    0  501    0  0.00000000000E+00 -0.00000000000E+00 -0.18190177015E+03  0.18190177015E+03  0.00000000000E+00 0.  1.
         25    2    1    2    0    0  0.28708798643E+03  0.25467705351E+03  0.23211300025E+03  0.46562156342E+03  0.12508829641E+03 0.  0.
          5    1    3    3  502    0  0.14691039348E+03  0.74949621704E+02  0.15101543888E+03  0.22365876841E+03  0.41800000000E+01 0. -1.
         -5    1    3    3    0  502  0.14017759295E+03  0.17972743180E+03  0.81097561371E+02  0.24196279500E+03  0.41800000000E+01 0. -1.
        -11    1    1    2    0    0 -0.24039103635E+03 -0.23746211868E+03  0.41485191930E+03  0.53504973892E+03  0.00000000000E+00 0.  1.
         11    1    1    2    0    0 -0.46696950085E+02 -0.17214934822E+02  0.11760767992E+03  0.12770483743E+03  0.00000000000E+00 0. -1.
</event>
<event>
 7    1  0.2733606E-009  0.1243321E+03  0.7561462E-02  0.1236117E+00
          1   -1    0    0  501    0  0.00000000000E+00  0.00000000000E+00  0.88585949545E+02  0.88585949545E+02  0.00000000000E+00 0. -1.
         -1   -1    0    0    0  501 -0.00000000000E+00 -0.00000000000E+00 -0.26470408489E+03  0.26470408489E+03  0.00000000000E+00 0.  1.
         25    2    1    2    0    0 -0.83951232309E+02 -0.36484429193E+02 -0.15519760953E+03  0.21934576529E+03  0.12508934315E+03 0.  0.
          5    1    3    3  502    0  0.41818573385E+01 -0.54348093994E+02 -0.99376456478E+02  0.11342114333E+03  0.41800000000E+01 0.  1.
         -5    1    3    3    0  502 -0.88133089647E+02  0.17863664801E+02 -0.55821153051E+02  0.10592462197E+03  0.41800000000E+01 0.  1.
        -11    1    1    2    0    0  0.54851291896E+01 -0.10975992428E+02 -0.38643218448E+02  0.40544511145E+02  0.00000000000E+00 0.  1.
         11    1    1    2    0    0  0.78466103119E+02  0.47460421620E+02  0.17722692633E+02  0.93399757994E+02  0.00000000000E+00 0. -1.
</event>
<event>
 7    1  0.2733606E-009  0.8939031E+02  0.7561462E-02  0.1304335E+00
          1   -1    0    0  501    0  0.00000000000E+00  0.00000000000E+00  0.32167890353E+02  0.32167890353E+02  0.00000000000E+00 0. -1.
         -1   -1    0    0    0  501 -0.00000000000E+00 -0.00000000000E+00 -0.43592765055E+03  0.43592765055E+03  0.00000000000E+00 0.  1.
         25    2    1    2    0    0 -0.28361956364E+02  0.25533826904E+02 -0.24952080241E+03  0.28171690296E+03  0.12508959066E+03 0.  0.
          5    1    3    3  502    0 -0.47944070897E+02  0.26181448195E+02 -0.25510318675E+03  0.26091993112E+03  0.41800000000E+01 0. -1.
         -5    1    3    3    0  502  0.19582114533E+02 -0.64762129060E+00  0.55823843386E+01  0.20796971843E+02  0.41800000000E+01 0. -1.
        -11    1    1    2    0    0 -0.32255531319E+02  0.99067873740E+01 -0.60270191752E+02  0.69072858278E+02  0.00000000000E+00 0. -1.
         11    1    1    2    0    0  0.60617487683E+02 -0.35440614278E+02 -0.93968766037E+02  0.11730577967E+03  0.00000000000E+00 0.  1.
</event>
<event>
 7    1  0.2733606E-009  0.2601098E+03  0.7561462E-02  0.1107077E+00
          2   -1    0    0  501    0  0.00000000000E+00  0.00000000000E+00  0.11273882371E+04  0.11273882371E+04  0.00000000000E+00 0. -1.
         -2   -1    0    0    0  501 -0.00000000000E+00 -0.00000000000E+00 -0.13562191396E+03  0.13562191396E+03  0.00000000000E+00 0.  1.
         25    2    1    2    0    0  0.25104865495E+03  0.19073282577E+02  0.52092104349E+02  0.28592291944E+03  0.12509640789E+03 0.  0.
          5    1    3    3  502    0  0.20654908038E+03 -0.52328982320E+01 -0.84642524287E+01  0.20683090146E+03  0.41800000000E+01 0.  1.
         -5    1    3    3    0  502  0.44499574570E+02  0.24306180809E+02  0.60556356778E+02  0.79092017983E+02  0.41800000000E+01 0.  1.
        -11    1    1    2    0    0 -0.11831216303E+03 -0.46539499514E+02  0.55025732613E+03  0.56475376749E+03  0.00000000000E+00 0.  1.
         11    1    1    2    0    0 -0.13273649191E+03  0.27466216937E+02  0.38941689270E+03  0.41233346418E+03  0.00000000000E+00 0. -1.
</event>
<event>
 7    1  0.3045306E-009  0.1818372E+03  0.7561462E-02  0.1166037E+00
         -2   -1    0    0    0  501 -0.00000000000E+00  0.00000000000E+00  0.21504766981E+02  0.21504766981E+02  0.00000000000E+00 0.  1.
          2   -1    0    0  501    0  0.00000000000E+00 -0.00000000000E+00 -0.17267855155E+04  0.17267855155E+04  0.00000000000E+00 0. -1.
         25    2    1    2    0    0 -0.32233277513E+02 -0.15464814554E+03 -0.97613674180E+03  0.99671628525E+03  0.12508149944E+03 0.  0.
          5    1    3    3  502    0  0.40227870426E+02 -0.38792248201E+02 -0.43418080731E+03  0.43778255552E+03  0.41800000000E+01 0. -1.
         -5    1    3    3    0  502 -0.72461147939E+02 -0.11585589734E+03 -0.54195593449E+03  0.55893372973E+03  0.41800000000E+01 0. -1.
        -11    1    1    2    0    0 -0.71311843888E+01  0.11439793020E+03 -0.59753089421E+03  0.60842494176E+03  0.00000000000E+00 0. -1.
         11    1    1    2    0    0  0.39364461902E+02  0.40250215342E+02 -0.13161311254E+03  0.14314905549E+03  0.00000000000E+00 0.  1.
</event>
<event>
 7    1  0.2733606E-009  0.1186813E+03  0.7561462E-02  0.1245289E+00
          2   -1    0    0  501    0  0.00000000000E+00  0.00000000000E+00  0.11274174103E+04  0.11274174103E+04  0.00000000000E+00 0.  1.
         -2   -1    0    0    0  501 -0.00000000000E+00 -0.00000000000E+00 -0.13666335016E+02  0.13666335016E+02  0.00000000000E+00 0. -1.
         25    2    1    2    0    0  0.25183145922E+02  0.55512043963E+02  0.59335542478E+03  0.60945369105E+03  0.12508942224E+03 0.  0.
          5    1    3    3  502    0 -0.26021427846E+02 -0.22968750173E+02  0.75885953485E+02  0.83551352640E+02  0.41800000000E+01 0.  1.
         -5    1    3    3    0  502  0.51204573768E+02  0.78480794137E+02  0.51746947129E+03  0.52590233841E+03  0.41800000000E+01 0.  1.
        -11    1    1    2    0    0  0.24094809200E+02 -0.54191505371E+02  0.27210148709E+03  0.27848967371E+03  0.00000000000E+00 0. -1.
         11    1    1    2    0    0 -0.49277955122E+02 -0.13205385924E+01  0.24829416337E+03  0.25314038051E+03  0.00000000000E+00 0.  1.
</event>
<event>
 7    1  0.2733606E-009  0.2252637E+03  0.7561462E-02  0.1130019E+00
          2   -1    0    0  501    0  0.00000000000E+00  0.00000000000E+00  0.32973122522E+03  0.32973122522E+03  0.00000000000E+00 0. -1.
         -2   -1    0    0    0  501 -0.00000000000E+00 -0.00000000000E+00 -0.22547448577E+03  0.22547448577E+03  0.00000000000E+00 0.  1.
         25    2    1    2    0    0  0.12933380537E+03 -0.16318288211E+03  0.19421496019E+03  0.31100286579E+03  0.12508974994E+03 0.  0.
          5    1    3    3  502    0  0.32033124927E+02  0.17709008744E+02  0.21865729313E+02  0.42840548569E+02  0.41800000000E+01 0. -1.
         -5    1    3    3    0  502  0.97300680440E+02 -0.18089189085E+03  0.17234923088E+03  0.26816231722E+03  0.41800000000E+01 0. -1.
        -11    1    1    2    0    0 -0.52508174615E+02  0.68729703045E+02 -0.86614414455E+02  0.12240480903E+03  0.00000000000E+00 0.  1.
         11    1    1    2    0    0 -0.76825630752E+02  0.94453179065E+02 -0.33438062888E+01  0.12179803618E+03  0.00000000000E+00 0. -1.
</event>
<event>
 7    1  0.2733606E-009  0.1569970E+03  0.7561462E-02  0.1192129E+00
          2   -1    0    0  501    0  0.00000000000E+00  0.00000000000E+00  0.36316239118E+03  0.36316239118E+03  0.00000000000E+00 0. -1.
         -2   -1    0    0    0  501 -0.00000000000E+00 -0.00000000000E+00 -0.75493761138E+02  0.75493761138E+02  0.00000000000E+00 0.  1.
         25    2    1    2    0    0 -0.10594782086E+03 -0.65278514180E+02  0.16980302269E+03  0.24488080604E+03  0.12508923811E+03 0.  0.
          5    1    3    3  502    0 -0.12662822373E+03 -0.80285911783E+02  0.15136736140E+03  0.21309642224E+03  0.41800000000E+01 0.  1.
         -5    1    3    3    0  502  0.20680402870E+02  0.15007397603E+02  0.18435661297E+02  0.31784383793E+02  0.41800000000E+01 0.  1.
        -11    1    1    2    0    0  0.46121386505E+02  0.63209121533E+02  0.10759482986E+03  0.13303842584E+03  0.00000000000E+00 0. -1.
         11    1    1    2    0    0  0.59826434359E+02  0.20693926476E+01  0.10270777489E+02  0.60736920437E+02  0.00000000000E+00 0.  1.
</event>
<event>
 7    1  0.2733606E-009  0.1091073E+03  0.7561462E-02  0.1262232E+00
          2   -1    0    0  501    0  0.00000000000E+00  0.00000000000E+00  0.98435661454E+02  0.98435661454E+02  0.00000000000E+00 0. -1.
         -2   -1    0    0    0  501 -0.00000000000E+00 -0.00000000000E+00 -0.23398093447E+03  0.23398093447E+03  0.00000000000E+00 0.  1.
         25    2    1    2    0    0 -0.37474543790E+02 -0.46396527677E+02 -0.14974265292E+03  0.20402832703E+03  0.12509083464E+03 0.  0.
          5    1    3    3  502    0 -0.16283225634E+02 -0.88476861810E+02 -0.11062291834E+03  0.14264712046E+03  0.41800000000E+01 0.  1.
         -5    1    3    3    0  502 -0.21191318156E+02  0.42080334133E+02 -0.39119734585E+02  0.61381206570E+02  0.41800000000E+01 0.  1.
        -11    1    1    2    0    0  0.27235674623E+02 -0.56457853603E+01  0.54891094445E+02  0.61536079774E+02  0.00000000000E+00 0.  1.
         11    1    1    2    0    0  0.10238869167E+02  0.52042313037E+02 -0.40693714540E+02  0.66852189127E+02  0.00000000000E+00 0. -1.
</event>
<event>
 7    1  0.2733606E-009  0.1138359E+03  0.7561462E-02  0.1253627E+00
          2   -1    0    0  501    0  0.00000000000E+00  0.00000000000E+00  0.67011239159E+03  0.67011239159E+03  0.00000000000E+00 0. -1.
         -2   -1    0    0    0  501 -0.00000000000E+00 -0.00000000000E+00 -0.22080154330E+02  0.22080154330E+02  0.00000000000E+00 0.  1.
         25    2    1    2    0    0  0.45551422295E+02 -0.65617113226E+00  0.43734868182E+03  0.45716153505E+03  0.12508971582E+03 0.  0.
          5    1    3    3  502    0  0.36758819268E+02  0.59922010691E+02  0.20103424578E+03  0.21301196806E+03  0.41800000000E+01 0.  1.
         -5    1    3    3    0  502  0.87926030272E+01 -0.60578181824E+02  0.23631443604E+03  0.24414956699E+03  0.41800000000E+01 0.  1.
        -11    1    1    2    0    0  0.10003471341E+02  0.31012603540E+02  0.32874670325E+02  0.46288173071E+02  0.00000000000E+00 0.  1.
         11    1    1    2    0    0 -0.55554893636E+02 -0.30356432408E+02  0.17780888511E+03  0.18874283780E+03  0.00000000000E+00 0. -1.
</event>
<event>
 7    1  0.2733606E-009  0.1018933E+03  0.7561462E-02  0.1276364E+00
          2   -1    0    0  501    0  0.00000000000E+00  0.00000000000E+00  0.17676292659E+04  0.17676292659E+04  0.00000000000E+00 0. -1.
         -2   -1    0    0    0  501 -0.00000000000E+00 -0.00000000000E+00 -0.17320568416E+02  0.17320568416E+02  0.00000000000E+00 0.  1.
         25    2    1    2    0    0 -0.22875165804E+02  0.63608479559E+02  0.15375695553E+04  0.15441298950E+04  0.12509070012E+03 0.  0.
          5    1    3    3  502    0  0.10434254008E+02  0.75178109112E+02  0.13996541538E+04  0.14017167489E+04  0.41800000000E+01 0.  1.
         -5    1    3    3    0  502 -0.33309419812E+02 -0.11569629553E+02  0.13791540153E+03  0.14241314601E+03  0.41800000000E+01 0.  1.
        -11    1    1    2    0    0 -0.19019204458E+02 -0.39718149711E+02  0.33848973501E+02  0.55542907394E+02  0.00000000000E+00 0.  1.
         11    1    1    2    0    0  0.41894370262E+02 -0.23890329848E+02  0.17889016870E+03  0.18527703198E+03  0.00000000000E+00 0. -1.
</event>
<event>
 7    1  0.2733606E-009  0.1142979E+03  0.7561462E-02  0.1252812E+00
         -1   -1    0    0    0  501 -0.00000000000E+00  0.00000000000E+00  0.40142695709E+03  0.40142695709E+03  0.00000000000E+00 0.  1.
          1   -1    0    0  501    0  0.00000000000E+00 -0.00000000000E+00 -0.49846622682E+02  0.49846622682E+02  0.00000000000E+00 0. -1.
         25    2    1    2    0    0  0.56293399828E+02  0.48556645947E+02  0.10939861258E+03  0.18205118999E+03  0.12509150496E+03 0.  0.
          5    1    3    3  502    0 -0.35464037833E+02  0.38667374147E+02  0.47042788823E+02  0.70592918789E+02  0.41800000000E+01 0. -1.
         -5    1    3    3    0  502  0.91757437661E+02  0.98892718001E+01  0.62355823756E+02  0.11145827120E+03  0.41800000000E+01 0. -1.
        -11    1    1    2    0    0 -0.43667416743E+02 -0.54322817917E+02  0.24528854121E+03  0.25499858878E+03  0.00000000000E+00 0.  1.
         11    1    1    2    0    0 -0.12625983085E+02  0.57661719705E+01 -0.31068193872E+01  0.14223800995E+02  0.00000000000E+00 0. -1.
</event>
<event>
 7    1  0.2733606E-009  0.1071374E+03  0.7561462E-02  0.1265965E+00
          3   -1    0    0  501    0  0.00000000000E+00  0.00000000000E+00  0.26869984038E+03  0.26869984038E+03  0.00000000000E+00 0. -1.
         -3   -1    0    0    0  501 -0.00000000000E+00 -0.00000000000E+00 -0.64408845842E+02  0.64408845842E+02  0.00000000000E+00 0.  1.
         25    2    1    2    0    0  0.27377335125E+02  0.62691743400E+02  0.73854605869E+02  0.16056585005E+03  0.12508843362E+03 0.  0.
          5    1    3    3  502    0  0.31240628824E+02 -0.73415867179E+01 -0.23862688008E+02  0.40209153981E+02  0.41800000000E+01 0. -1.
         -5    1    3    3    0  502 -0.38632936998E+01  0.70033330118E+02  0.97717293877E+02  0.12035669607E+03  0.41800000000E+01 0. -1.
        -11    1    1    2    0    0  0.28995412599E+02 -0.43144050425E+02  0.73857398828E+02  0.90316434830E+02  0.00000000000E+00 0. -1.
         11    1    1    2    0    0 -0.56372747724E+02 -0.19547692976E+02  0.56578989845E+02  0.82226401347E+02  0.00000000000E+00 0.  1.
</event>
<event>
 7    1  0.2733606E-009  0.1314503E+03  0.7561462E-02  0.1225320E+00
          1   -1    0    0  501    0  0.00000000000E+00  0.00000000000E+00  0.31488961936E+02  0.31488961936E+02  0.00000000000E+00 0. -1.
         -1   -1    0    0    0  501 -0.00000000000E+00 -0.00000000000E+00 -0.75530625039E+03  0.75530625039E+03  0.00000000000E+00 0.  1.
         25    2    1    2    0    0  0.44476691476E+02 -0.85277276497E+02 -0.25759465583E+03  0.30208124809E+03  0.12509070216E+03 0.  0.
          5    1    3    3  502    0  0.66382782537E+02 -0.12902469515E+02 -0.18563349145E+03  0.19761177365E+03  0.41800000000E+01 0.  1.
         -5    1    3    3    0  502 -0.21906091061E+02 -0.72374806982E+02 -0.71961164372E+02  0.10446947444E+03  0.41800000000E+01 0.  1.
        -11    1    1    2    0    0 -0.58968125585E+02  0.86699566637E+02 -0.45322526060E+03  0.46519586362E+03  0.00000000000E+00 0. -1.
         11    1    1    2    0    0  0.14491434109E+02 -0.14222901404E+01 -0.12997372034E+02  0.19518100614E+02  0.00000000000E+00 0.  1.
</event>
<event>
 7    1  0.2733606E-009  0.8838213E+02  0.7561462E-02  0.1306818E+00
          1   -1    0    0  501    0  0.00000000000E+00  0.00000000000E+00  0.35323576731E+03  0.35323576731E+03  0.00000000000E+00 0. -1.
         -1   -1    0    0    0  501 -0.00000000000E+00 -0.00000000000E+00 -0.46425152612E+02  0.46425152612E+02  0.00000000000E+00 0.  1.
         25    2    1    2    0    0 -0.60263545935E+02 -0.22802994146E+00  0.20985435453E+03  0.25162935882E+03  0.12508691833E+03 0.  0.
          5    1    3    3  502    0 -0.20821132953E+02 -0.10849060539E+02 -0.11516595798E+02  0.26482561636E+02  0.41800000000E+01 0. -1.
         -5    1    3    3    0  502 -0.39442412982E+02  0.10621030597E+02  0.22137095033E+03  0.22514679718E+03  0.41800000000E+01 0. -1.
        -11    1    1    2    0    0  0.40952733539E+02  0.46352745839E+02  0.54273418195E+02  0.82287953879E+02  0.00000000000E+00 0.  1.
         11    1    1    2    0    0  0.19310812396E+02 -0.46124715897E+02  0.42682841975E+02  0.65743607226E+02  0.00000000000E+00 0. -1.
</event>
<event>
 7    1  0.2733606E-009  0.1894265E+03  0.7561462E-02  0.1158980E+00
          2   -1    0    0  501    0  0.00000000000E+00  0.00000000000E+00  0.15184521968E+04  0.15184521968E+04  0.00000000000E+00 0. -1.
         -2   -1    0    0    0  501 -0.00000000000E+00 -0.00000000000E+00 -0.26937157630E+02  0.26937157630E+02  0.00000000000E+00 0.  1.
         25    2    1    2    0    0  0.13640873242E+03  0.10113546170E+03  0.80683509388E+03  0.83394615285E+03  0.12509034032E+03 0.  0.
          5    1    3    3  502    0  0.99760661666E+02  0.41572144231E+01  0.50450620780E+03  0.51430871872E+03  0.41800000000E+01 0. -1.
         -5    1    3    3    0  502  0.36648070754E+02  0.96978247274E+02  0.30232888608E+03  0.31963743413E+03  0.41800000000E+01 0. -1.
        -11    1    1    2    0    0 -0.58389604428E+02 -0.70010563219E+02  0.20350202868E+03  0.22298856595E+03  0.00000000000E+00 0.  1.
         11    1    1    2    0    0 -0.78019127993E+02 -0.31124898478E+02  0.48117791663E+03  0.48845463565E+03  0.00000000000E+00 0. -1.
</event>
<event>
 7    1  0.2733606E-009  0.1307480E+03  0.7561462E-02  0.1226350E+00
         -1   -1    0    0    0  501 -0.00000000000E+00  0.00000000000E+00  0.27789016374E+02  0.27789016374E+02  0.00000000000E+00 0.  1.
          1   -1    0    0  501    0  0.00000000000E+00 -0.00000000000E+00 -0.91294972336E+03  0.91294972336E+03  0.00000000000E+00 0. -1.
         25    2    1    2    0    0  0.31609950669E+02  0.11186068570E+03 -0.50291843291E+03  0.53111730833E+03  0.12508654230E+03 0.  0.
          5    1    3    3  502    0  0.29201890632E+02  0.11856557935E+03 -0.50727316442E+03  0.52177972628E+03  0.41800000000E+01 0. -1.
         -5    1    3    3    0  502  0.24080600366E+01 -0.67048936517E+01  0.43547315075E+01  0.93375820490E+01  0.41800000000E+01 0. -1.
        -11    1    1    2    0    0  0.18282822853E+02 -0.26798774027E+02 -0.31270332408E+02  0.45058512955E+02  0.00000000000E+00 0.  1.
         11    1    1    2    0    0 -0.49892773522E+02 -0.85061911675E+02 -0.35097194167E+03  0.36456291845E+03  0.00000000000E+00 0. -1.
</event>
<event>
 7    1  0.2733606E-009  0.9213437E+02  0.7561462E-02  0.1297764E+00
          1   -1    0    0  501    0  0.00000000000E+00  0.00000000000E+00  0.21400528896E+03  0.21400528896E+03  0.00000000000E+00 0. -1.
         -1   -1    0    0    0  501 -0.00000000000E+00 -0.00000000000E+00 -0.80077038835E+02  0.80077038835E+02  0.00000000000E+00 0.  1.
         25    2    1    2    0    0  0.59069670888E+01  0.47224133212E+02  0.13792163617E+03  0.19218544398E+03  0.12509139113E+03 0.  0.
          5    1    3    3  502    0  0.52857957531E+02  0.63977821189E+02  0.76265651132E+02  0.11278761998E+03  0.41800000000E+01 0.  1.
         -5    1    3    3    0  502 -0.46950990442E+02 -0.16753687977E+02  0.61655985039E+02  0.79397823997E+02  0.41800000000E+01 0.  1.
        -11    1    1    2    0    0  0.36309047073E+01 -0.36959356065E+02 -0.45126329970E+02  0.58442819288E+02  0.00000000000E+00 0.  1.
         11    1    1    2    0    0 -0.95378717961E+01 -0.10264777147E+02  0.41132943921E+02  0.43454064526E+02  0.00000000000E+00 0. -1.
</event>
<event>
 7    1  0.2733606E-009  0.1227431E+03  0.7561462E-02  0.1238639E+00
          1   -1    0    0  501    0  0.00000000000E+00  0.00000000000E+00  0.53821186215E+02  0.53821186215E+02  0.00000000000E+00 0. -1.
         -1   -1    0    0    0  501 -0.00000000000E+00 -0.00000000000E+00 -0.38202217558E+03  0.38202217558E+03  0.00000000000E+00 0.  1.
         25    2    1    2    0    0 -0.23977992003E+01 -0.83580037612E+02 -0.22916542341E+03  0.27414355944E+03  0.12508608143E+03 0.  0.
          5    1    3    3  502    0  0.16742745135E+02 -0.10801746185E+03 -0.21167798019E+03  0.23827112976E+03  0.41800000000E+01 0. -1.
         -5    1    3    3    0  502 -0.19140544336E+02  0.24437424242E+02 -0.17487443226E+02  0.35872429687E+02  0.41800000000E+01 0. -1.
        -11    1    1    2    0    0 -0.28510496457E+02  0.22487999414E+02 -0.84127645694E+02  0.91629794804E+02  0.00000000000E+00 0.  1.
         11    1    1    2    0    0  0.30908295657E+02  0.61092038198E+02 -0.14907920261E+02  0.70070007550E+02  0.00000000000E+00 0. -1.
</event>
<event>
 7    1  0.2733606E-009  0.1473378E+03  0.7561462E-02  0.1203783E+00
         -2   -1    0    0    0  501 -0.00000000000E+00  0.00000000000E+00  0.87669301204E+02  0.87669301204E+02  0.00000000000E+00 0.  1.
          2   -1    0    0  501    0  0.00000000000E+00 -0.00000000000E+00 -0.34632145935E+03  0.34632145935E+03  0.00000000000E+00 0. -1.
         25    2    1    2    0    0  0.11543178140E+03 -0.52462036012E+02 -0.20433343637E+03  0.27106533774E+03  0.12508997851E+03 0.  0.
          5    1    3    3  502    0  0.12518272702E+03 -0.64742821225E+02 -0.21079069268E+03  0.25359916515E+03  0.41800000000E+01 0. -1.
         -5    1    3    3    0  502 -0.97509456158E+01  0.12280785214E+02  0.64572563079E+01  0.17466172588E+02  0.41800000000E+01 0. -1.
        -11    1    1    2    0    0 -0.76024754844E+02  0.60588407365E+02 -0.69943999235E+02  0.11976176971E+03  0.00000000000E+00 0. -1.
         11    1    1    2    0    0 -0.39407026558E+02 -0.81263713534E+01  0.15625277460E+02  0.43163653103E+02  0.00000000000E+00 0.  1.
</event>
<event>
 7    1  0.2733606E-009  0.1041661E+03  0.7561462E-02  0.1271771E+00
          2   -1    0    0  501    0  0.00000000000E+00  0.00000000000E+00  0.11753280086E+04  0.11753280086E+04  0.00000000000E+00 0. -1.
         -2   -1    0    0    0  501 -0.00000000000E+00 -0.00000000000E+00 -0.11481682595E+02  0.11481682595E+02  0.00000000000E+00 0.  1.
         25    2    1    2    0    0 -0.12669861006E+02 -0.34534820579E+02  0.77969230532E+03  0.79051941510E+03  0.12509066898E+03 0.  0.
          5    1    3    3  502    0  0.34971531789E+02  0.18403075968E+02  0.51016095077E+03  0.51170631160E+03  0.41800000000E+01 0. -1.
         -5    1    3    3    0  502 -0.47641392795E+02 -0.52937896547E+02  0.26953135455E+03  0.27881310350E+03  0.41800000000E+01 0. -1.
        -11    1    1    2    0    0 -0.13652440121E+02  0.59456471723E+02  0.23361930565E+03  0.24145277203E+03  0.00000000000E+00 0.  1.
         11    1    1    2    0    0  0.26322301127E+02 -0.24921651145E+02  0.15053471501E+03  0.15483750403E+03  0.00000000000E+00 0. -1.
</event>
<event>
 7    1  0.2733606E-009  0.1107403E+03  0.7561462E-02  0.1259205E+00
          3   -1    0    0  501    0  0.00000000000E+00  0.00000000000E+00  0.50252105526E+03  0.50252105526E+03  0.00000000000E+00 0.  1.
         -3   -1    0    0    0  501 -0.00000000000E+00 -0.00000000000E+00 -0.38129693780E+02  0.38129693780E+02  0.00000000000E+00 0. -1.
         25    2    1    2    0    0 -0.60507638748E+02 -0.11449678399E+01  0.13829928776E+03  0.19605730122E+03  0.12509711056E+03 0.  0.
          5    1    3    3  502    0 -0.33409218857E+02 -0.46668458542E+02  0.13013476906E+03  0.14229072860E+03  0.41800000000E+01 0.  1.
         -5    1    3    3    0  502 -0.27098419891E+02  0.45523490702E+02  0.81645187014E+01  0.53766572626E+02  0.41800000000E+01 0.  1.
        -11    1    1    2    0    0 -0.23613074326E+02 -0.10547425930E+02  0.92233963597E+02  0.95791072202E+02  0.00000000000E+00 0. -1.
         11    1    1    2    0    0  0.84120713075E+02  0.11692393770E+02  0.23385811012E+03  0.24880237561E+03  0.00000000000E+00 0.  1.
</event>
<event>
 7    1  0.2733606E-009  0.6995632E+02  0.7561462E-02  0.1360242E+00
          1   -1    0    0  501    0  0.00000000000E+00  0.00000000000E+00  0.40456712296E+03  0.40456712296E+03  0.00000000000E+00 0. -1.
         -1   -1    0    0    0  501 -0.00000000000E+00 -0.00000000000E+00 -0.39823183018E+02  0.39823183018E+02  0.00000000000E+00 0.  1.
         25    2    1    2    0    0  0.17199043279E+02 -0.22517034728E+02  0.25232440437E+03  0.28304771005E+03  0.12508228165E+03 0.  0.
          5    1    3    3  502    0  0.14200401767E+02 -0.48200314030E+02  0.28948466203E+02  0.58141274311E+02  0.41800000000E+01 0.  1.
         -5    1    3    3    0  502  0.29986415119E+01  0.25683279303E+02  0.22337593816E+03  0.22490643574E+03  0.41800000000E+01 0.  1.
        -11    1    1    2    0    0  0.10901252131E+01  0.38796663907E+02 -0.70005061742E+01  0.39438263019E+02  0.00000000000E+00 0.  1.
         11    1    1    2    0    0 -0.18289168492E+02 -0.16279629179E+02  0.11942004175E+03  0.12190433290E+03  0.00000000000E+00 0. -1.
</event>
<event>
 7    1  0.2733606E-009  0.1373872E+03  0.7561462E-02  0.1216889E+00
          2   -1    0    0  501    0  0.00000000000E+00  0.00000000000E+00  0.64498172782E+03  0.64498172782E+03  0.00000000000E+00 0. -1.
         -2   -1    0    0    0  501 -0.00000000000E+00 -0.00000000000E+00 -0.35744524859E+02  0.35744524859E+02  0.00000000000E+00 0.  1.
         25    2    1    2    0    0 -0.15281267053E+01 -0.10616637700E+03  0.34093731117E+03  0.37836240285E+03  0.12508486306E+03 0.  0.
          5    1    3    3  502    0 -0.11286687716E+02 -0.13280656672E+03  0.30079284260E+03  0.32902702023E+03  0.41800000000E+01 0.  1.
         -5    1    3    3    0  502  0.97585610112E+01  0.26640189720E+02  0.40144468567E+02  0.49335382616E+02  0.41800000000E+01 0.  1.
        -11    1    1    2    0    0  0.16510310197E+02  0.23422452656E+02  0.94134013021E+01  0.30163119124E+02  0.00000000000E+00 0.  1.
         11    1    1    2    0    0 -0.14982183492E+02  0.82743924346E+02  0.25888649049E+03  0.27220073070E+03  0.00000000000E+00 0. -1.
</event>
<event>
 7    1  0.2733606E-009  0.1171169E+03  0.7561462E-02  0.1247931E+00
         -2   -1    0    0    0  501 -0.00000000000E+00  0.00000000000E+00  0.75797233320E+03  0.75797233320E+03  0.00000000000E+00 0.  1.
          2   -1    0    0  501    0  0.00000000000E+00 -0.00000000000E+00 -0.24875339465E+02  0.24875339465E+02  0.00000000000E+00 0. -1.
         25    2    1    2    0    0 -0.40673872720E+02 -0.75683769328E+02  0.34552656026E+03  0.37738392476E+03  0.12509047111E+03 0.  0.
          5    1    3    3  502    0 -0.70630376658E+02 -0.88681609589E+02  0.30341729407E+03  0.32393302506E+03  0.41800000000E+01 0.  1.
         -5    1    3    3    0  502  0.29956503938E+02  0.12997840262E+02  0.42109266190E+02  0.53450899700E+02  0.41800000000E+01 0.  1.
        -11    1    1    2    0    0  0.30864836606E+01  0.22659533754E+02  0.15190392054E+02  0.27454122861E+02  0.00000000000E+00 0. -1.
         11    1    1    2    0    0  0.37587389059E+02  0.53024235574E+02  0.37238004143E+03  0.37800962505E+03  0.00000000000E+00 0.  1.
</event>
<event>
 7    1  0.2733606E-009  0.1241099E+03  0.7561462E-02  0.1236467E+00
          2   -1    0    0  501    0  0.00000000000E+00  0.00000000000E+00  0.75882725295E+03  0.75882725295E+03  0.00000000000E+00 0. -1.
         -2   -1    0    0    0  501 -0.00000000000E+00 -0.00000000000E+00 -0.30437638042E+02  0.30437638042E+02  0.00000000000E+00 0.  1.
         25    2    1    2    0    0 -0.26724015066E+02 -0.91395682202E+02  0.27727011475E+03  0.31873684092E+03  0.12508842279E+03 0.  0.
          5    1    3    3  502    0 -0.46470541067E+02 -0.43451085762E+02  0.38748458451E+02  0.74608467839E+02  0.41800000000E+01 0.  1.
         -5    1    3    3    0  502  0.19746526001E+02 -0.47944596440E+02  0.23852165630E+03  0.24412837308E+03  0.41800000000E+01 0.  1.
        -11    1    1    2    0    0  0.38773627450E+02 -0.14670490668E+01  0.10409651660E+03  0.11109289441E+03  0.00000000000E+00 0.  1.
         11    1    1    2    0    0 -0.12049612384E+02  0.92862731269E+02  0.34702298355E+03  0.35943515567E+03  0.00000000000E+00 0. -1.
</event>
<event>
 7    1  0.2733606E-009  0.1467515E+03  0.7561462E-02  0.1204523E+00
          2   -1    0    0  501    0  0.00000000000E+00  0.00000000000E+00  0.47345048691E+03  0.47345048691E+03  0.00000000000E+00 0. -1.
         -2   -1    0    0    0  501 -0.00000000000E+00 -0.00000000000E+00 -0.71735091677E+02  0.71735091677E+02  0.00000000000E+00 0.  1.
         25    2    1    2    0    0 -0.40830001667E+02  0.99747479167E+02  0.64302382895E+02  0.17719623432E+03  0.12508821037E+03 0.  0.
          5    1    3    3  502    0 -0.77238248107E+02  0.80425760958E+02  0.74949725531E+02  0.13442092007E+03  0.41800000000E+01 0.  1.
         -5    1    3    3    0  502  0.36408246439E+02  0.19321718209E+02 -0.10647342635E+02  0.42775314242E+02  0.41800000000E+01 0.  1.
        -11    1    1    2    0    0 -0.26264728726E+02 -0.51616639293E+02  0.19447067085E+03  0.20291120040E+03  0.00000000000E+00 0. -1.
         11    1    1    2    0    0  0.67094730394E+02 -0.48130839874E+02  0.14294234149E+03  0.16507814387E+03  0.00000000000E+00 0.  1.
</event>
<event>
 7    1  0.2733606E-009  0.1095701E+03  0.7561462E-02  0.1261368E+00
          2   -1    0    0  501    0  0.00000000000E+00  0.00000000000E+00  0.33480230833E+03  0.33480230833E+03  0.00000000000E+00 0. -1.
         -2   -1    0    0    0  501 -0.00000000000E+00 -0.00000000000E+00 -0.47634990410E+02  0.47634990410E+02  0.00000000000E+00 0.  1.
         25    2    1    2    0    0 -0.29121749478E+02  0.49234969087E+02  0.18320614445E+03  0.22909505587E+03  0.12509154563E+03 0.  0.
          5    1    3    3  502    0 -0.36776788579E+02  0.73957496820E+02  0.57605068391E+02  0.10078720067E+03  0.41800000000E+01 0.  1.
         -5    1    3    3    0  502  0.76550391009E+01 -0.24722527733E+02  0.12560107606E+03  0.12830785521E+03  0.41800000000E+01 0.  1.
        -11    1    1    2    0    0 -0.34352821778E+01  0.27056507376E+02  0.12916109815E+02  0.30177502345E+02  0.00000000000E+00 0. -1.
         11    1    1    2    0    0  0.32557031656E+02 -0.76291476463E+02  0.91045063658E+02  0.12316474052E+03  0.00000000000E+00 0.  1.
</event>
<event>
 7    1  0.2733606E-009  0.1557511E+03  0.7561462E-02  0.1193579E+00
          2   -1    0    0  501    0  0.00000000000E+00  0.00000000000E+00  0.38556853367E+03  0.38556853367E+03  0.00000000000E+00 0. -1.
         -2   -1    0    0    0  501 -0.00000000000E+00 -0.00000000000E+00 -0.88736947772E+02  0.88736947772E+02  0.00000000000E+00 0.  1.
         25    2    1    2    0    0  0.56869438275E+02  0.13804954305E+03  0.14566183890E+03  0.24322964455E+03  0.12510587249E+03 0.  0.
          5    1    3    3  502    0 -0.83988909014E+01  0.36811890659E+02 -0.16304478898E+02  0.41339631038E+02  0.41800000000E+01 0. -1.
         -5    1    3    3    0  502  0.65268329177E+02  0.10123765239E+03  0.16196631780E+03  0.20189001351E+03  0.41800000000E+01 0. -1.
        -11    1    1    2    0    0 -0.45026538533E+02 -0.65534442477E+02  0.22047841702E+02  0.82512178778E+02  0.00000000000E+00 0.  1.
         11    1    1    2    0    0 -0.11842899743E+02 -0.72515100570E+02  0.12912190529E+03  0.14856365811E+03  0.00000000000E+00 0. -1.
</event>
<event>
 7    1  0.2733606E-009  0.9451689E+02  0.7561462E-02  0.1292268E+00
          2   -1    0    0  501    0  0.00000000000E+00  0.00000000000E+00  0.12602347006E+03  0.12602347006E+03  0.00000000000E+00 0. -1.
         -2   -1    0    0    0  501 -0.00000000000E+00 -0.00000000000E+00 -0.10700754676E+03  0.10700754676E+03  0.00000000000E+00 0.  1.
         25    2    1    2    0    0 -0.13483951088E+01  0.28669031040E+02 -0.73812441887E+01  0.12856030638E+03  0.12509811389E+03 0.  0.
          5    1    3    3  502    0 -0.40288845726E+01 -0.46122821879E+02 -0.23197542776E+02  0.51953296332E+02  0.41800000000E+01 0. -1.
         -5    1    3    3    0  502  0.26804894638E+01  0.74791852918E+02  0.15816298588E+02  0.76607010043E+02  0.41800000000E+01 0. -1.
        -11    1    1    2    0    0  0.31278335320E+02 -0.14833886343E+02  0.52176737574E+02  0.62616215059E+02  0.00000000000E+00 0. -1.
         11    1    1    2    0    0 -0.29929940212E+02 -0.13835144696E+02 -0.25779570090E+02  0.41854495384E+02  0.00000000000E+00 0.  1.
</event>
<event>
 7    1  0.2733606E-009  0.1613531E+03  0.7561462E-02  0.1187178E+00
         -1   -1    0    0    0  501 -0.00000000000E+00  0.00000000000E+00  0.45836094998E+02  0.45836094998E+02  0.00000000000E+00 0. -1.
          1   -1    0    0  501    0  0.00000000000E+00 -0.00000000000E+00 -0.11593061787E+04  0.11593061787E+04  0.00000000000E+00 0.  1.
         25    2    1    2    0    0 -0.28373171028E+02  0.13064216531E+03 -0.98557159611E+03  0.10024329196E+04  0.12509186623E+03 0.  0.
          5    1    3    3  502    0 -0.60067455454E+02  0.12478257225E+03 -0.61378115214E+03  0.62922457411E+03  0.41800000000E+01 0. -1.
         -5    1    3    3    0  502  0.31694284426E+02  0.58595930566E+01 -0.37179044397E+03  0.37320834546E+03  0.41800000000E+01 0. -1.
        -11    1    1    2    0    0  0.42669516856E+02 -0.13056201849E+03 -0.95492897663E+02  0.16729023236E+03  0.00000000000E+00 0. -1.
         11    1    1    2    0    0 -0.14296345828E+02 -0.80146821961E-01 -0.32405589927E+02  0.35419121757E+02  0.00000000000E+00 0.  1.
</event>
<event>
 7    1  0.2733606E-009  0.1071959E+03  0.7561462E-02  0.1265853E+00
          1   -1    0    0  501    0  0.00000000000E+00  0.00000000000E+00  0.45468130722E+03  0.45468130722E+03  0.00000000000E+00 0. -1.
         -1   -1    0    0    0  501 -0.00000000000E+00 -0.00000000000E+00 -0.51217521406E+02  0.51217521406E+02  0.00000000000E+00 0.  1.
         25    2    1    2    0    0  0.22372400645E+02 -0.10223454427E+03  0.18270919128E+03  0.24491255690E+03  0.12508831120E+03 0.  0.
          5    1    3    3  502    0  0.39212777840E+01 -0.79601565744E+02  0.23788853244E+02  0.83277653827E+02  0.41800000000E+01 0.  1.
         -5    1    3    3    0  502  0.18451122861E+02 -0.22632978524E+02  0.15892033803E+03  0.16163490307E+03  0.41800000000E+01 0.  1.
        -11    1    1    2    0    0 -0.17923583262E+02  0.60072233100E+02  0.20720005878E+03  0.21647584712E+03  0.00000000000E+00 0. -1.
         11    1    1    2    0    0 -0.44488173838E+01  0.42162311168E+02  0.13554535760E+02  0.44510424608E+02  0.00000000000E+00 0.  1.
</event>
<event>
 7    1  0.2733606E-009  0.2035277E+03  0.7561462E-02  0.1146796E+00
          3   -1    0    0  501    0  0.00000000000E+00  0.00000000000E+00  0.21638723700E+03  0.21638723700E+03  0.00000000000E+00 0. -1.
         -3   -1    0    0    0  501 -0.00000000000E+00 -0.00000000000E+00 -0.37049407900E+03  0.37049407900E+03  0.00000000000E+00 0.  1.
         25    2    1    2    0    0  0.12952523167E+03 -0.13438245839E+03 -0.26539261610E+03  0.34773018953E+03  0.12509042036E+03 0.  0.
          5    1    3    3  502    0  0.11867617382E+02  0.44830304971E+01 -0.10272116770E+03  0.10358594789E+03  0.41800000000E+01 0.  1.
         -5    1    3    3    0  502  0.11765761429E+03 -0.13886548889E+03 -0.16267144840E+03  0.24414424165E+03  0.41800000000E+01 0.  1.
        -11    1    1    2    0    0 -0.88549095318E+02  0.14446544746E+03  0.87263260714E+02  0.19059403050E+03  0.00000000000E+00 0. -1.
         11    1    1    2    0    0 -0.40976136353E+02 -0.10082989068E+02  0.24022513397E+02  0.48557095969E+02  0.00000000000E+00 0.  1.
</event>
<event>
 7    1  0.2733606E-009  0.1000486E+03  0.7561462E-02  0.1280194E+00
         -1   -1    0    0    0  501 -0.00000000000E+00  0.00000000000E+00  0.37906588732E+03  0.37906588732E+03  0.00000000000E+00 0.  1.
          1   -1    0    0  501    0  0.00000000000E+00 -0.00000000000E+00 -0.32753796630E+02  0.32753796630E+02  0.00000000000E+00 0. -1.
         25    2    1    2    0    0  0.16374070289E+01 -0.17601631265E+02  0.24146937735E+03  0.27252013914E+03  0.12508903834E+03 0.  0.
          5    1    3    3  502    0  0.62547460896E+02  0.36227213345E+00  0.12071304620E+03  0.13601995453E+03  0.41800000000E+01 0.  1.
         -5    1    3    3    0  502 -0.60910053867E+02 -0.17963903399E+02  0.12075633115E+03  0.13650018461E+03  0.41800000000E+01 0.  1.
        -11    1    1    2    0    0  0.31863247404E+02  0.23707413565E+02  0.13714131638E+02  0.42016489616E+02  0.00000000000E+00 0. -1.
         11    1    1    2    0    0 -0.33500654433E+02 -0.61057822995E+01  0.91128581704E+02  0.97283055196E+02  0.00000000000E+00 0.  1.
</event>
<event>
 7    1  0.2733606E-009  0.1041551E+03  0.7561462E-02  0.1271793E+00
         -2   -1    0    0    0  501 -0.00000000000E+00  0.00000000000E+00  0.16960955916E+03  0.16960955916E+03  0.00000000000E+00 0.  1.
          2   -1    0    0  501    0  0.00000000000E+00 -0.00000000000E+00 -0.72206230051E+02  0.72206230051E+02  0.00000000000E+00 0. -1.
         25    2    1    2    0    0  0.12364800156E+02  0.15220862528E+02  0.63354334963E+02  0.14158162046E+03  0.12508805120E+03 0.  0.
          5    1    3    3  502    0 -0.17445063312E+02  0.64524433602E+02  0.46060992827E+02  0.81282348796E+02  0.41800000000E+01 0. -1.
         -5    1    3    3    0  502  0.29809863468E+02 -0.49303571074E+02  0.17293342136E+02  0.60299271661E+02  0.41800000000E+01 0. -1.
        -11    1    1    2    0    0 -0.18682256349E+02 -0.47311030047E+02  0.42689486260E+02  0.66405967379E+02  0.00000000000E+00 0.  1.
         11    1    1    2    0    0  0.63174561926E+01  0.32090167518E+02 -0.86404921175E+01  0.33828201373E+02  0.00000000000E+00 0. -1.
</event>
<event>
 7    1  0.2733606E-009  0.1449996E+03  0.7561462E-02  0.1206756E+00
          2   -1    0    0  501    0  0.00000000000E+00  0.00000000000E+00  0.15101871907E+03  0.15101871907E+03  0.00000000000E+00 0.  1.
         -2   -1    0    0    0  501 -0.00000000000E+00 -0.00000000000E+00 -0.15066714191E+03  0.15066714191E+03  0.00000000000E+00 0. -1.
         25    2    1    2    0    0 -0.42981227777E+02  0.93718371650E+02 -0.13127777814E+02  0.16263469014E+03  0.12508870757E+03 0.  0.
          5    1    3    3  502    0 -0.82760022643E+02  0.33010010297E+02 -0.11301264242E+02  0.89911473690E+02  0.41800000000E+01 0.  1.
         -5    1    3    3    0  502  0.39778794866E+02  0.60708361353E+02 -0.18265135718E+01  0.72723216451E+02  0.41800000000E+01 0.  1.
        -11    1    1    2    0    0  0.14940935365E+02  0.11725077442E+02  0.22649284773E+02  0.29558401366E+02  0.00000000000E+00 0.  1.
         11    1    1    2    0    0  0.28040292411E+02 -0.10544344909E+03 -0.91699297974E+01  0.10949276948E+03  0.00000000000E+00 0. -1.
</event>
<event>
 7    1  0.2733606E-009  0.3616536E+02  0.7561462E-02  0.1538489E+00
          1   -1    0    0  501    0  0.00000000000E+00  0.00000000000E+00  0.19552299579E+03  0.19552299579E+03  0.00000000000E+00 0. -1.
         -1   -1    0    0    0  501 -0.00000000000E+00 -0.00000000000E+00 -0.61824826946E+02  0.61824826946E+02  0.00000000000E+00 0.  1.
         25    2    1    2    0    0 -0.26124647036E+01  0.12612421107E+02  0.61418467499E+02  0.13994946184E+03  0.12509086929E+03 0.  0.
          5    1    3    3  502    0 -0.22177812823E+01  0.60445841139E+01  0.10014874305E+03  0.10044251433E+03  0.41800000000E+01 0.  1.
         -5    1    3    3    0  502 -0.39468342123E+00  0.65678369936E+01 -0.38730275546E+02  0.39506947511E+02  0.41800000000E+01 0.  1.
        -11    1    1    2    0    0  0.76701139729E+01 -0.34013968009E+02  0.85083856687E+02  0.91951309598E+02  0.00000000000E+00 0. -1.
         11    1    1    2    0    0 -0.50576492694E+01  0.21401546902E+02 -0.12804155341E+02  0.25447051301E+02  0.00000000000E+00 0.  1.
</event>
<event>
 7    1  0.2733606E-009  0.8254417E+02  0.7561462E-02  0.1321983E+00
         -1   -1    0    0    0  501 -0.00000000000E+00  0.00000000000E+00  0.10491950781E+03  0.10491950781E+03  0.00000000000E+00 0.  1.
          1   -1    0    0  501    0  0.00000000000E+00 -0.00000000000E+00 -0.12030967232E+03  0.12030967232E+03  0.00000000000E+00 0. -1.
         25    2    1    2    0    0 -0.17564710687E+02 -0.23388784422E+02 -0.16970293168E+02  0.12957965616E+03  0.12508933664E+03 0.  0.
          5    1    3    3  502    0 -0.35759838766E+02  0.45982753286E+01  0.45754379091E+02  0.58402446957E+02  0.41800000000E+01 0. -1.
         -5    1    3    3    0  502  0.18195128079E+02 -0.27987059751E+02 -0.62724672259E+02  0.71177209199E+02  0.41800000000E+01 0. -1.
        -11    1    1    2    0    0  0.42987503178E+02  0.44670903782E+02  0.56196084384E+01  0.62249458417E+02  0.00000000000E+00 0.  1.
         11    1    1    2    0    0 -0.25422792491E+02 -0.21282119359E+02 -0.40394797801E+01  0.33400065559E+02  0.00000000000E+00 0. -1.
</event>
<event>
 7    1  0.2733606E-009  0.1314271E+03  0.7561462E-02  0.1225353E+00
         -1   -1    0    0    0  501 -0.00000000000E+00  0.00000000000E+00  0.70398494936E+02  0.70398494936E+02  0.00000000000E+00 0.  1.
          1   -1    0    0  501    0  0.00000000000E+00 -0.00000000000E+00 -0.39364132836E+03  0.39364132836E+03  0.00000000000E+00 0. -1.
         25    2    1    2    0    0  0.55674857038E+02 -0.11118381845E+03 -0.16587006751E+03  0.24211795583E+03  0.12508674608E+03 0.  0.
          5    1    3    3  502    0  0.57414964281E+02 -0.10548182837E+03 -0.56994181193E+02  0.13299888469E+03  0.41800000000E+01 0. -1.
         -5    1    3    3    0  502 -0.17401072425E+01 -0.57019900837E+01 -0.10887588631E+03  0.10911907113E+03  0.41800000000E+01 0. -1.
        -11    1    1    2    0    0 -0.46615855558E+01  0.69144985119E+02 -0.24483649317E+02  0.73499717216E+02  0.00000000000E+00 0.  1.
         11    1    1    2    0    0 -0.51013271482E+02  0.42038833336E+02 -0.13288911660E+03  0.14842215026E+03  0.00000000000E+00 0. -1.
</event>
<event>
 7    1  0.2733606E-009  0.1013742E+03  0.7561462E-02  0.1277432E+00
         -2   -1    0    0    0  501 -0.00000000000E+00  0.00000000000E+00  0.17944485863E+02  0.17944485863E+02  0.00000000000E+00 0.  1.
          2   -1    0    0  501    0  0.00000000000E+00 -0.00000000000E+00 -0.72644279037E+03  0.72644279037E+03  0.00000000000E+00 0. -1.
         25    2    1    2    0    0  0.29101897224E+02  0.73183156711E+01 -0.49725404040E+03  0.51362425682E+03  0.12509124004E+03 0.  0.
          5    1    3    3  502    0  0.15895905283E+02 -0.52478032422E+02 -0.34677699448E+03  0.35111021061E+03  0.41800000000E+01 0.  1.
         -5    1    3    3    0  502  0.13205991941E+02  0.59796348093E+02 -0.15047704592E+03  0.16251404621E+03  0.41800000000E+01 0.  1.
        -11    1    1    2    0    0  0.97742747438E+01 -0.36487820763E+02 -0.52034916113E+02  0.64300311086E+02  0.00000000000E+00 0.  1.
         11    1    1    2    0    0 -0.38876171968E+02  0.29169505092E+02 -0.15920934800E+03  0.16646270833E+03  0.00000000000E+00 0. -1.
</event>
<event>
 7    1  0.2733606E-009  0.1620760E+03  0.7561462E-02  0.1186373E+00
         -1   -1    0    0    0  501 -0.00000000000E+00  0.00000000000E+00  0.12041744314E+03  0.12041744314E+03  0.00000000000E+00 0.  1.
          1   -1    0    0  501    0  0.00000000000E+00 -0.00000000000E+00 -0.30941240501E+03  0.30941240501E+03  0.00000000000E+00 0. -1.
         25    2    1    2    0    0 -0.10674198500E+03 -0.62379264323E+02 -0.21311526266E+03  0.27631348549E+03  0.12508398421E+03 0.  0.
          5    1    3    3  502    0 -0.12843647704E+03 -0.76587825979E+02 -0.18035095635E+03  0.23431936236E+03  0.41800000000E+01 0. -1.
         -5    1    3    3    0  502  0.21694492039E+02  0.14208561656E+02 -0.32764306311E+02  0.41994123127E+02  0.41800000000E+01 0. -1.
        -11    1    1    2    0    0  0.53589139042E+02 -0.13856461849E+02  0.24617368558E+02  0.60578974842E+02  0.00000000000E+00 0.  1.
         11    1    1    2    0    0  0.53152845963E+02  0.76235726172E+02 -0.49706777286E+00  0.92937387822E+02  0.00000000000E+00 0. -1.
</event>
<event>
 7    1  0.2733606E-009  0.1219011E+03  0.7561462E-02  0.1239993E+00
         -4   -1    0    0    0  501 -0.00000000000E+00  0.00000000000E+00  0.78777452830E+03  0.78777452830E+03  0.00000000000E+00 0. -1.
          4   -1    0    0  501    0  0.00000000000E+00 -0.00000000000E+00 -0.20276515403E+02  0.20276515403E+02  0.00000000000E+00 0.  1.
         25    2    1    2    0    0  0.44009882462E+02  0.39224349097E+02  0.49442409819E+03  0.51339849784E+03  0.12508960545E+03 0.  0.
          5    1    3    3  502    0  0.87501199244E+02  0.22991819349E+02  0.29442303650E+03  0.30803811525E+03  0.41800000000E+01 0.  1.
         -5    1    3    3    0  502 -0.43491316782E+02  0.16232529749E+02  0.20000106169E+03  0.20536038259E+03  0.41800000000E+01 0.  1.
        -11    1    1    2    0    0 -0.40626705823E+02  0.21391468558E+02  0.79778954082E+02  0.92047844448E+02  0.00000000000E+00 0.  1.
         11    1    1    2    0    0 -0.33831766393E+01 -0.60615817656E+02  0.19329496062E+03  0.20260470142E+03  0.00000000000E+00 0. -1.
</event>
<event>
 7    1  0.2733606E-009  0.1247734E+03  0.7561462E-02  0.1235424E+00
          2   -1    0    0  501    0  0.00000000000E+00  0.00000000000E+00  0.36750675229E+03  0.36750675229E+03  0.00000000000E+00 0. -1.
         -2   -1    0    0    0  501 -0.00000000000E+00 -0.00000000000E+00 -0.60186262483E+02  0.60186262483E+02  0.00000000000E+00 0.  1.
         25    2    1    2    0    0 -0.87075433586E+02 -0.28075646222E+02  0.10395137019E+03  0.18660982382E+03  0.12508783288E+03 0.  0.
          5    1    3    3  502    0 -0.11780719149E+03 -0.15612170381E+02  0.94459531730E+02  0.15186293085E+03  0.41800000000E+01 0.  1.
         -5    1    3    3    0  502  0.30731757903E+02 -0.12463475841E+02  0.94918384609E+01  0.34746892972E+02  0.41800000000E+01 0.  1.
        -11    1    1    2    0    0  0.55014141274E+02  0.64740365325E+00  0.30024127637E+02  0.62677133885E+02  0.00000000000E+00 0.  1.
         11    1    1    2    0    0  0.32061292312E+02  0.27428242568E+02  0.17334499198E+03  0.17840605708E+03  0.00000000000E+00 0. -1.
</event>
<event>
 7    1  0.2733606E-009  0.9968486E+02  0.7561462E-02  0.1280960E+00
          1   -1    0    0  501    0  0.00000000000E+00  0.00000000000E+00  0.43847228039E+03  0.43847228039E+03  0.00000000000E+00 0. -1.
         -1   -1    0    0    0  501 -0.00000000000E+00 -0.00000000000E+00 -0.36864132981E+02  0.36864132981E+02  0.00000000000E+00 0.  1.
         25    2    1    2    0    0 -0.41062598967E+02 -0.40738087505E+02  0.19491910401E+03  0.23871938294E+03  0.12509099838E+03 0.  0.
          5    1    3    3  502    0  0.23304834463E+02 -0.35578249847E+01  0.14971915065E+03  0.15162146912E+03  0.41800000000E+01 0.  1.
         -5    1    3    3    0  502 -0.64367433430E+02 -0.37180262521E+02  0.45199953362E+02  0.87097913818E+02  0.41800000000E+01 0.  1.
        -11    1    1    2    0    0  0.57575115890E+02  0.54651430288E+02  0.99560596630E+02  0.12733414783E+03  0.00000000000E+00 0.  1.
         11    1    1    2    0    0 -0.16512516923E+02 -0.13913342783E+02  0.10712844677E+03  0.10928288261E+03  0.00000000000E+00 0. -1.
</event>
<event>
 7    1  0.3269678E-009  0.1462794E+03  0.7561462E-02  0.1205121E+00
         -1   -1    0    0    0  501 -0.00000000000E+00  0.00000000000E+00  0.55361782476E+02  0.55361782476E+02  0.00000000000E+00 0.  1.
          1   -1    0    0  501    0  0.00000000000E+00 -0.00000000000E+00 -0.41342490272E+03  0.41342490272E+03  0.00000000000E+00 0. -1.
         25    2    1    2    0    0 -0.45909079392E+02 -0.94374025094E+02 -0.19160372755E+03  0.25174122416E+03  0.12509018884E+03 0.  0.
          5    1    3    3  502    0 -0.16585182301E+02 -0.12158531991E+03 -0.13780846892E+03  0.18457167929E+03  0.41800000000E+01 0. -1.
         -5    1    3    3    0  502 -0.29323897091E+02  0.27211294817E+02 -0.53795258633E+02  0.67169544867E+02  0.41800000000E+01 0. -1.
        -11    1    1    2    0    0 -0.20001981429E+02  0.37483780278E+02 -0.96203420847E+02  0.10516753885E+03  0.00000000000E+00 0.  1.
         11    1    1    2    0    0  0.65911060821E+02  0.56890244815E+02 -0.70255971841E+02  0.11187792219E+03  0.00000000000E+00 0. -1.
</event>
<event>
 7    1  0.2733606E-009  0.9467019E+02  0.7561462E-02  0.1291921E+00
          1   -1    0    0  501    0  0.00000000000E+00  0.00000000000E+00  0.37181475618E+02  0.37181475618E+02  0.00000000000E+00 0. -1.
         -1   -1    0    0    0  501 -0.00000000000E+00 -0.00000000000E+00 -0.42494695693E+03  0.42494695693E+03  0.00000000000E+00 0.  1.
         25    2    1    2    0    0  0.22280848045E+02  0.92787535872E+01 -0.31860278587E+03  0.34312953374E+03  0.12509040852E+03 0.  0.
          5    1    3    3  502    0  0.58882846786E+02  0.21947964292E+02 -0.82276105867E+02  0.10361338127E+03  0.41800000000E+01 0.  1.
         -5    1    3    3    0  502 -0.36601998741E+02 -0.12669210705E+02 -0.23632668000E+03  0.23951615247E+03  0.41800000000E+01 0.  1.
        -11    1    1    2    0    0 -0.54556165335E+02 -0.40349896716E+01 -0.16730625464E+02  0.57206382040E+02  0.00000000000E+00 0. -1.
         11    1    1    2    0    0  0.32275317290E+02 -0.52437639156E+01 -0.52432069982E+02  0.61792516770E+02  0.00000000000E+00 0.  1.
</event>
<event>
 7    1  0.2733606E-009  0.1928219E+03  0.7561462E-02  0.1155940E+00
         -3   -1    0    0    0  501 -0.00000000000E+00  0.00000000000E+00  0.57890026416E+03  0.57890026416E+03  0.00000000000E+00 0.  1.
          3   -1    0    0  501    0  0.00000000000E+00 -0.00000000000E+00 -0.93722150938E+02  0.93722150938E+02  0.00000000000E+00 0. -1.
         25    2    1    2    0    0  0.44208695533E+02 -0.15470111261E+03  0.43637937887E+03  0.48162293511E+03  0.12508735476E+03 0.  0.
          5    1    3    3  502    0  0.81692086381E+02 -0.13977033594E+03  0.36903379850E+03  0.40300466575E+03  0.41800000000E+01 0.  1.
         -5    1    3    3    0  502 -0.37483390849E+02 -0.14930776673E+02  0.67345580368E+02  0.78618269357E+02  0.41800000000E+01 0.  1.
        -11    1    1    2    0    0 -0.39846344214E+01  0.14037909041E+03  0.26807847495E+02  0.14297142031E+03  0.00000000000E+00 0. -1.
         11    1    1    2    0    0 -0.40224061111E+02  0.14322022195E+02  0.21990886863E+02  0.48028059684E+02  0.00000000000E+00 0.  1.
</event>
<event>
 7    1  0.2733606E-009  0.1057431E+03  0.7561462E-02  0.1268662E+00
          3   -1    0    0  501    0  0.00000000000E+00  0.00000000000E+00  0.10253190539E+03  0.10253190539E+03  0.00000000000E+00 0. -1.
         -3   -1    0    0    0  501 -0.00000000000E+00 -0.00000000000E+00 -0.23014033248E+03  0.23014033248E+03  0.00000000000E+00 0.  1.
         25    2    1    2    0    0  0.65769829116E+02  0.42547347802E+02 -0.15112734590E+03  0.21124183074E+03  0.12509072367E+03 0.  0.
          5    1    3    3  502    0  0.70076308357E+02  0.71823821133E+02 -0.15100757665E+03  0.18135630918E+03  0.41800000000E+01 0.  1.
         -5    1    3    3    0  502 -0.43064792408E+01 -0.29276473331E+02 -0.11976925508E+00  0.29885521558E+02  0.41800000000E+01 0.  1.
        -11    1    1    2    0    0 -0.57532928350E+02 -0.26956744184E+02 -0.26163900110E+02  0.68711378756E+02  0.00000000000E+00 0.  1.
         11    1    1    2    0    0 -0.82369007663E+01 -0.15590603618E+02  0.49682818932E+02  0.52719028371E+02  0.00000000000E+00 0. -1.
</event>
<event>
 7    1  0.2733606E-009  0.2076940E+03  0.7561462E-02  0.1143405E+00
         -2   -1    0    0    0  501 -0.00000000000E+00  0.00000000000E+00  0.17774525804E+03  0.17774525804E+03  0.00000000000E+00 0.  1.
          2   -1    0    0  501    0  0.00000000000E+00 -0.00000000000E+00 -0.26194219631E+03  0.26194219631E+03  0.00000000000E+00 0. -1.
         25    2    1    2    0    0 -0.12000738801E+03  0.14231515953E+03 -0.41997522012E+02  0.22818129742E+03  0.12509010684E+03 0.  0.
          5    1    3    3  502    0  0.20154778250E+02  0.37406827405E+02 -0.30901498324E+02  0.52705415485E+02  0.41800000000E+01 0. -1.
         -5    1    3    3    0  502 -0.14016216626E+03  0.10490833212E+03 -0.11096023688E+02  0.17547588193E+03  0.41800000000E+01 0. -1.
        -11    1    1    2    0    0  0.82652099592E+02 -0.13676756551E+03 -0.58769015323E+02  0.17026606739E+03  0.00000000000E+00 0. -1.
         11    1    1    2    0    0  0.37355288417E+02 -0.55475940112E+01  0.16569599061E+02  0.41240089537E+02  0.00000000000E+00 0.  1.
</event>
<event>
 7    1  0.2733606E-009  0.9448601E+02  0.7561462E-02  0.1292338E+00
         -1   -1    0    0    0  501 -0.00000000000E+00  0.00000000000E+00  0.49192110896E+02  0.49192110896E+02  0.00000000000E+00 0.  1.
          1   -1    0    0  501    0  0.00000000000E+00 -0.00000000000E+00 -0.31202291490E+03  0.31202291490E+03  0.00000000000E+00 0. -1.
         25    2    1    2    0    0  0.29333757973E+02  0.28880611042E+02 -0.21266446115E+03  0.25013661444E+03  0.12509034254E+03 0.  0.
          5    1    3    3  502    0  0.62344247492E+02  0.49127118345E+02 -0.18779766292E+03  0.20392575500E+03  0.41800000000E+01 0. -1.
         -5    1    3    3    0  502 -0.33010489520E+02 -0.20246507303E+02 -0.24866798232E+02  0.46210859444E+02  0.41800000000E+01 0. -1.
        -11    1    1    2    0    0 -0.46718396249E+02 -0.18223755018E+02  0.67690291581E+01  0.50601714899E+02  0.00000000000E+00 0.  1.
         11    1    1    2    0    0  0.17384638276E+02 -0.10656856025E+02 -0.56935372004E+02  0.60476696451E+02  0.00000000000E+00 0. -1.
</event>
<event>
 7    1  0.2733606E-009  0.1079838E+03  0.7561462E-02  0.1264350E+00
         -1   -1    0    0    0  501 -0.00000000000E+00  0.00000000000E+00  0.21941800534E+02  0.21941800534E+02  0.00000000000E+00 0.  1.
          1   -1    0    0  501    0  0.00000000000E+00 -0.00000000000E+00 -0.66885126349E+03  0.66885126349E+03  0.00000000000E+00 0. -1.
         25    2    1    2    0    0 -0.42606527184E+02 -0.11811799948E+02 -0.44262609161E+03  0.46208334916E+03  0.12509328448E+03 0.  0.
          5    1    3    3  502    0 -0.28835816289E+02 -0.60418754934E+02 -0.35115951825E+03  0.35750861515E+03  0.41800000000E+01 0. -1.
         -5    1    3    3    0  502 -0.13770710895E+02  0.48606954987E+02 -0.91466573359E+02  0.10457473401E+03  0.41800000000E+01 0. -1.
        -11    1    1    2    0    0  0.69951585627E+02  0.11221192068E+02 -0.11259974027E+03  0.13303323266E+03  0.00000000000E+00 0.  1.
         11    1    1    2    0    0 -0.27345058443E+02  0.59060787942E+00 -0.91683631080E+02  0.95676482204E+02  0.00000000000E+00 0. -1.
</event>
<event>
 7    1  0.2733606E-009  0.1161483E+03  0.7561462E-02  0.1249590E+00
         -2   -1    0    0    0  501 -0.00000000000E+00  0.00000000000E+00  0.19791067460E+03  0.19791067460E+03  0.00000000000E+00 0.  1.
          2   -1    0    0  501    0  0.00000000000E+00 -0.00000000000E+00 -0.71148809454E+02  0.71148809454E+02  0.00000000000E+00 0. -1.
         25    2    1    2    0    0  0.80889732536E+01 -0.49898558090E+02  0.84782175239E+02  0.15934588141E+03  0.12509114715E+03 0.  0.
          5    1    3    3  502    0  0.44013276443E+02 -0.74981893196E+02  0.73457225406E+02  0.11389859163E+03  0.41800000000E+01 0. -1.
         -5    1    3    3    0  502 -0.35924303189E+02  0.25083335105E+02  0.11324949833E+02  0.45447289780E+02  0.41800000000E+01 0. -1.
        -11    1    1    2    0    0  0.39660668534E+02  0.16444238508E+02  0.15096553201E+02  0.45511399970E+02  0.00000000000E+00 0.  1.
         11    1    1    2    0    0 -0.47749641788E+02  0.33454319582E+02  0.26883136710E+02  0.64202202680E+02  0.00000000000E+00 0. -1.
</event>
<event>
 7    1  0.2733606E-009  0.2116247E+03  0.7561462E-02  0.1140286E+00
          1   -1    0    0  501    0  0.00000000000E+00  0.00000000000E+00  0.41808263400E+03  0.41808263400E+03  0.00000000000E+00 0. -1.
         -1   -1    0    0    0  501 -0.00000000000E+00 -0.00000000000E+00 -0.12975360639E+03  0.12975360639E+03  0.00000000000E+00 0.  1.
         25    2    1    2    0    0 -0.31252961614E+02 -0.20178780307E+03  0.16875321032E+03  0.29295167296E+03  0.12509185272E+03 0.  0.
          5    1    3    3  502    0  0.13989631190E+02 -0.14088557917E+03  0.46626774185E+02  0.14911735201E+03  0.41800000000E+01 0.  1.
         -5    1    3    3    0  502 -0.45242592804E+02 -0.60902223899E+02  0.12212643614E+03  0.14383432095E+03  0.41800000000E+01 0.  1.
        -11    1    1    2    0    0  0.51762702414E+01  0.11222657493E+03  0.12754170843E+02  0.11306753189E+03  0.00000000000E+00 0.  1.
         11    1    1    2    0    0  0.26076691372E+02  0.89561228141E+02  0.10682164644E+03  0.14181703553E+03  0.00000000000E+00 0. -1.
</event>
<event>
 7    1  0.2733606E-009  0.1463683E+03  0.7561462E-02  0.1205008E+00
         -2   -1    0    0    0  501 -0.00000000000E+00  0.00000000000E+00  0.30651442756E+03  0.30651442756E+03  0.00000000000E+00 0. -1.
          2   -1    0    0  501    0  0.00000000000E+00 -0.00000000000E+00 -0.96651774902E+02  0.96651774902E+02  0.00000000000E+00 0.  1.
         25    2    1    2    0    0 -0.12978640932E+03  0.19711030298E+02  0.78824319846E+02  0.19772078989E+03  0.12508877087E+03 0.  0.
          5    1    3    3  502    0 -0.28256302748E+02  0.17047560127E+02 -0.32822142646E+02  0.46731182300E+02  0.41800000000E+01 0. -1.
         -5    1    3    3    0  502 -0.10153010657E+03  0.26634701710E+01  0.11164646249E+03  0.15098960759E+03  0.41800000000E+01 0. -1.
        -11    1    1    2    0    0  0.22398376213E+00  0.21777225809E+02  0.13223010123E+02  0.25478338434E+02  0.00000000000E+00 0.  1.
         11    1    1    2    0    0  0.12956242556E+03 -0.41488256107E+02  0.11781532269E+03  0.17996707413E+03  0.00000000000E+00 0. -1.
</event>
<event>
 7    1  0.2733606E-009  0.1133992E+03  0.7561462E-02  0.1254402E+00
         -1   -1    0    0    0  501 -0.00000000000E+00  0.00000000000E+00  0.87062264673E+02  0.87062264673E+02  0.00000000000E+00 0.  1.
          1   -1    0    0  501    0  0.00000000000E+00 -0.00000000000E+00 -0.26244490510E+03  0.26244490510E+03  0.00000000000E+00 0. -1.
         25    2    1    2    0    0 -0.35627633287E+02 -0.94919464665E+02 -0.12150205813E+03  0.20171592206E+03  0.12509008777E+03 0.  0.
          5    1    3    3  502    0 -0.29179098239E+02 -0.77611050122E+02 -0.14767419404E+03  0.16941084635E+03  0.41800000000E+01 0.  1.
         -5    1    3    3    0  502 -0.64485350482E+01 -0.17308414543E+02  0.26172135916E+02  0.32305075710E+02  0.41800000000E+01 0.  1.
        -11    1    1    2    0    0  0.75974096644E+01 -0.12057852783E+02  0.12374478002E+02  0.18874325237E+02  0.00000000000E+00 0.  1.
         11    1    1    2    0    0  0.28030223622E+02  0.10697731745E+03 -0.66255060301E+02  0.12891692247E+03  0.00000000000E+00 0. -1.
</event>
<event>
 7    1  0.2733606E-009  0.1602507E+03  0.7561462E-02  0.1188414E+00
         -1   -1    0    0    0  501 -0.00000000000E+00  0.00000000000E+00  0.61109484209E+02  0.61109484209E+02  0.00000000000E+00 0.  1.
          1   -1    0    0  501    0  0.00000000000E+00 -0.00000000000E+00 -0.70175672818E+03  0.70175672818E+03  0.00000000000E+00 0. -1.
         25    2    1    2    0    0 -0.62931303855E+02 -0.12110539407E+03 -0.53873594687E+03  0.56965428081E+03  0.12507083477E+03 0.  0.
          5    1    3    3  502    0  0.35952708850E+02 -0.49959041926E+02 -0.21714054716E+03  0.22573434113E+03  0.41800000000E+01 0. -1.
         -5    1    3    3    0  502 -0.98884012705E+02 -0.71146352147E+02 -0.32159539971E+03  0.34391993968E+03  0.41800000000E+01 0. -1.
        -11    1    1    2    0    0  0.38447355547E+02  0.62149817540E+02 -0.10655226571E+03  0.12920597624E+03  0.00000000000E+00 0. -1.
         11    1    1    2    0    0  0.24483948308E+02  0.58955576533E+02  0.46409686125E+01  0.64005955338E+02  0.00000000000E+00 0.  1.
</event>
<event>
 7    1  0.2733606E-009  0.7425082E+02  0.7561462E-02  0.1346207E+00
          1   -1    0    0  501    0  0.00000000000E+00  0.00000000000E+00  0.18028830811E+02  0.18028830811E+02  0.00000000000E+00 0. -1.
         -1   -1    0    0    0  501 -0.00000000000E+00 -0.00000000000E+00 -0.69190809222E+03  0.69190809222E+03  0.00000000000E+00 0.  1.
         25    2    1    2    0    0 -0.11563874567E+02 -0.59697045481E+01 -0.30830040891E+03  0.33296260823E+03  0.12508235599E+03 0.  0.
          5    1    3    3  502    0 -0.29452363901E+02 -0.23262351037E+02 -0.18473192744E+02  0.42039385882E+02  0.41800000000E+01 0.  1.
         -5    1    3    3    0  502  0.17888489334E+02  0.17292646489E+02 -0.28982721616E+03  0.29092322235E+03  0.41800000000E+01 0.  1.
        -11    1    1    2    0    0 -0.74886029051E+01 -0.37398419880E+02 -0.96611995372E+02  0.10386817912E+03  0.00000000000E+00 0. -1.
         11    1    1    2    0    0  0.19052477472E+02  0.43368124428E+02 -0.26896685713E+03  0.27310613569E+03  0.00000000000E+00 0.  1.
</event>
<event>
 7    1  0.2733606E-009  0.1318488E+03  0.7561462E-02  0.1224738E+00
          2   -1    0    0  501    0  0.00000000000E+00  0.00000000000E+00  0.93618773793E+03  0.93618773793E+03  0.00000000000E+00 0. -1.
         -2   -1    0    0    0  501 -0.00000000000E+00 -0.00000000000E+00 -0.73414379215E+02  0.73414379215E+02  0.00000000000E+00 0.  1.
         25    2    1    2    0    0 -0.74596102394E+02 -0.33361513496E+02  0.87344635971E+03  0.88613413105E+03  0.12509031078E+03 0.  0.
          5    1    3    3  502    0 -0.86539779795E+02 -0.68961236728E+02  0.69102894028E+03  0.69984516456E+03  0.41800000000E+01 0.  1.
         -5    1    3    3    0  502  0.11943677401E+02  0.35599723232E+02  0.18241741943E+03  0.18628896649E+03  0.41800000000E+01 0.  1.
        -11    1    1    2    0    0 -0.17184362496E+02  0.11964316110E+02 -0.19758109426E+02  0.28789408860E+02  0.00000000000E+00 0.  1.
         11    1    1    2    0    0  0.91780464890E+02  0.21397197386E+02  0.90851084305E+01  0.94678577232E+02  0.00000000000E+00 0. -1.
</event>
<event>
 7    1  0.2733606E-009  0.1195287E+03  0.7561462E-02  0.1243877E+00
          1   -1    0    0  501    0  0.00000000000E+00  0.00000000000E+00  0.59696285815E+02  0.59696285815E+02  0.00000000000E+00 0. -1.
         -1   -1    0    0    0  501 -0.00000000000E+00 -0.00000000000E+00 -0.32601689271E+03  0.32601689271E+03  0.00000000000E+00 0.  1.
         25    2    1    2    0    0  0.48106061894E+02 -0.48086917166E+02 -0.71448198950E+02  0.15930738183E+03  0.12508977568E+03 0.  0.
          5    1    3    3  502    0  0.18521923546E+02  0.42669069522E+02 -0.20211023621E+02  0.50888790726E+02  0.41800000000E+01 0. -1.
         -5    1    3    3    0  502  0.29584138349E+02 -0.90755986688E+02 -0.51237175329E+02  0.10841859111E+03  0.41800000000E+01 0. -1.
        -11    1    1    2    0    0 -0.53633327407E+02  0.61915137888E+02 -0.19500725232E+03  0.21151323024E+03  0.00000000000E+00 0.  1.
         11    1    1    2    0    0  0.55272655129E+01 -0.13828220723E+02  0.13484438309E+00  0.14892566448E+02  0.00000000000E+00 0. -1.
</event>
<event>
 7    1  0.2733606E-009  0.8635098E+02  0.7561462E-02  0.1311937E+00
          1   -1    0    0  501    0  0.00000000000E+00  0.00000000000E+00  0.30176844204E+02  0.30176844204E+02  0.00000000000E+00 0. -1.
         -1   -1    0    0    0  501 -0.00000000000E+00 -0.00000000000E+00 -0.52875024761E+03  0.52875024761E+03  0.00000000000E+00 0.  1.
         25    2    1    2    0    0  0.23795152510E+00  0.56100460789E+02 -0.36174776875E+03  0.38685417223E+03  0.12508950418E+03 0.  0.
          5    1    3    3  502    0 -0.11173210087E+02  0.82219174482E+02 -0.13667169324E+03  0.15994204391E+03  0.41800000000E+01 0. -1.
         -5    1    3    3    0  502  0.11411161612E+02 -0.26118713693E+02 -0.22507607551E+03  0.22691212832E+03  0.41800000000E+01 0. -1.
        -11    1    1    2    0    0  0.11118590783E+02 -0.18995048631E+02 -0.13099704448E+03  0.13283320592E+03  0.00000000000E+00 0.  1.
         11    1    1    2    0    0 -0.11356542308E+02 -0.37105412157E+02 -0.58285901770E+01  0.39239713659E+02  0.00000000000E+00 0. -1.
</event>
<event>
 7    1  0.2733606E-009  0.1154131E+03  0.7561462E-02  0.1250862E+00
          1   -1    0    0  501    0  0.00000000000E+00  0.00000000000E+00  0.30552035879E+02  0.30552035879E+02  0.00000000000E+00 0. -1.
         -1   -1    0    0    0  501 -0.00000000000E+00 -0.00000000000E+00 -0.75012447849E+03  0.75012447849E+03  0.00000000000E+00 0.  1.
         25    2    1    2    0    0  0.57923138980E+02  0.14798893160E+02 -0.60309905108E+03  0.61882974107E+03  0.12509071009E+03 0.  0.
          5    1    3    3  502    0  0.91532932001E+02  0.30733554645E+02 -0.49732043761E+03  0.50662404117E+03  0.41800000000E+01 0. -1.
         -5    1    3    3    0  502 -0.33609793020E+02 -0.15934661486E+02 -0.10577861346E+03  0.11220569990E+03  0.41800000000E+01 0. -1.
        -11    1    1    2    0    0 -0.46593850330E+01 -0.38264598289E+02 -0.89995609445E+02  0.97903519193E+02  0.00000000000E+00 0.  1.
         11    1    1    2    0    0 -0.53263753947E+02  0.23465705130E+02 -0.26477782091E+02  0.63943254111E+02  0.00000000000E+00 0. -1.
</event>
<event>
 7    1  0.2733606E-009  0.6975561E+02  0.7561462E-02  0.1360926E+00
          4   -1    0    0  501    0  0.00000000000E+00  0.00000000000E+00  0.19127170451E+02  0.19127170451E+02  0.00000000000E+00 0. -1.
         -4   -1    0    0    0  501 -0.00000000000E+00 -0.00000000000E+00 -0.64056306231E+03  0.64056306231E+03  0.00000000000E+00 0.  1.
         25    2    1    2    0    0  0.17731259621E+02 -0.73872436362E+01 -0.33005872511E+03  0.35348874370E+03  0.12508621412E+03 0.  0.
          5    1    3    3  502    0 -0.12617436603E+02 -0.73522155738E+01  0.57825092678E+01  0.16253141042E+02  0.41800000000E+01 0. -1.
         -5    1    3    3    0  502  0.30348696225E+02 -0.35028062371E-01 -0.33584123438E+03  0.33723560266E+03  0.41800000000E+01 0. -1.
        -11    1    1    2    0    0  0.34213189915E+02 -0.14704418100E+02 -0.10171150931E+03  0.10831432686E+03  0.00000000000E+00 0. -1.
         11    1    1    2    0    0 -0.51944449537E+02  0.22091661736E+02 -0.18966565744E+03  0.19788716221E+03  0.00000000000E+00 0.  1.
</event>
<event>
 7    1  0.2733606E-009  0.1004026E+03  0.7561462E-02  0.1279452E+00
         -3   -1    0    0    0  501 -0.00000000000E+00  0.00000000000E+00  0.19519903747E+02  0.19519903747E+02  0.00000000000E+00 0.  1.
          3   -1    0    0  501    0  0.00000000000E+00 -0.00000000000E+00 -0.79271916485E+03  0.79271916485E+03  0.00000000000E+00 0. -1.
         25    2    1    2    0    0  0.41509486259E+02  0.40216011188E+02 -0.48714037802E+03  0.50625315540E+03  0.12508454918E+03 0.  0.
          5    1    3    3  502    0 -0.12503481532E+02  0.45466778894E+02 -0.63887928621E+02  0.79515437853E+02  0.41800000000E+01 0.  1.
         -5    1    3    3    0  502  0.54012967791E+02 -0.52507677054E+01 -0.42325244940E+03  0.42673771754E+03  0.41800000000E+01 0.  1.
        -11    1    1    2    0    0  0.11843681992E+02 -0.43984477673E+02 -0.19615819742E+03  0.20137761914E+03  0.00000000000E+00 0. -1.
         11    1    1    2    0    0 -0.53353168250E+02  0.37684664851E+01 -0.89900685668E+02  0.10460829406E+03  0.00000000000E+00 0.  1.
</event>
<event>
 7    1  0.2733606E-009  0.2827308E+03  0.7561462E-02  0.1094207E+00
         -1   -1    0    0    0  501 -0.00000000000E+00  0.00000000000E+00  0.89352174486E+02  0.89352174486E+02  0.00000000000E+00 0.  1.
          1   -1    0    0  501    0  0.00000000000E+00 -0.00000000000E+00 -0.93972210453E+03  0.93972210453E+03  0.00000000000E+00 0. -1.
         25    2    1    2    0    0 -0.11667766963E+02 -0.26626241140E+03 -0.38227497428E+03  0.48250724622E+03  0.12508908101E+03 0.  0.
          5    1    3    3  502    0  0.43566084774E+02 -0.33408971219E+02 -0.70858545632E+02  0.89736107501E+02  0.41800000000E+01 0. -1.
         -5    1    3    3    0  502 -0.55233851737E+02 -0.23285344018E+03 -0.31141642865E+03  0.39277113872E+03  0.41800000000E+01 0. -1.
        -11    1    1    2    0    0 -0.16386765811E+02  0.42734499738E+02 -0.32401562585E+02  0.56076954442E+02  0.00000000000E+00 0.  1.
         11    1    1    2    0    0  0.28054532774E+02  0.22352791166E+03 -0.43569339318E+03  0.49049007835E+03  0.00000000000E+00 0. -1.
</event>
<event>
 7    1  0.2733606E-009  0.1426028E+03  0.7561462E-02  0.1209869E+00
          1   -1    0    0  501    0  0.00000000000E+00  0.00000000000E+00  0.17009872182E+04  0.17009872182E+04  0.00000000000E+00 0. -1.
         -1   -1    0    0    0  501 -0.00000000000E+00 -0.00000000000E+00 -0.19111510711E+02  0.19111510711E+02  0.00000000000E+00 0.  1.
         25    2    1    2    0    0  0.71215620536E+02 -0.99991051476E+02  0.12463198884E+04  0.12585832400E+04  0.12509449593E+03 0.  0.
          5    1    3    3  502    0 -0.55498199465E+01 -0.55026886996E+02  0.87404186702E+03  0.87579987240E+03  0.41800000000E+01 0.  1.
         -5    1    3    3    0  502  0.76765440482E+02 -0.44964164480E+02  0.37227802135E+03  0.38278336761E+03  0.41800000000E+01 0.  1.
        -11    1    1    2    0    0 -0.52479593822E+00  0.58921728101E+02  0.27615776995E+03  0.28237414782E+03  0.00000000000E+00 0. -1.
         11    1    1    2    0    0 -0.70690824598E+02  0.41069323375E+02  0.15939804917E+03  0.17914134108E+03  0.00000000000E+00 0.  1.
</event>
<event>
 7    1  0.2733606E-009  0.1238245E+03  0.7561462E-02  0.1236918E+00
          3   -1    0    0  501    0  0.00000000000E+00  0.00000000000E+00  0.86757225692E+02  0.86757225692E+02  0.00000000000E+00 0.  1.
         -3   -1    0    0    0  501 -0.00000000000E+00 -0.00000000000E+00 -0.19775697849E+03  0.19775697849E+03  0.00000000000E+00 0. -1.
         25    2    1    2    0    0 -0.51817116629E+02 -0.51604216432E+02 -0.59114531386E+02  0.15649634571E+03  0.12509424315E+03 0.  0.
          5    1    3    3  502    0  0.11991997191E+02  0.34900446694E+02 -0.18699187898E+02  0.41581019758E+02  0.41800000000E+01 0.  1.
         -5    1    3    3    0  502 -0.63809113820E+02 -0.86504663126E+02 -0.40415343488E+02  0.11491532595E+03  0.41800000000E+01 0.  1.
        -11    1    1    2    0    0  0.28783078751E+02 -0.15002833614E+02  0.10273683554E+02  0.34045546149E+02  0.00000000000E+00 0. -1.
         11    1    1    2    0    0  0.23034037878E+02  0.66607050046E+02 -0.62158904963E+02  0.93972312321E+02  0.00000000000E+00 0.  1.
</event>
<event>
 7    1  0.2733606E-009  0.9325668E+02  0.7561462E-02  0.1295151E+00
         -4   -1    0    0    0  501 -0.00000000000E+00  0.00000000000E+00  0.93116641042E+02  0.93116641042E+02  0.00000000000E+00 0.  1.
          4   -1    0    0  501    0  0.00000000000E+00 -0.00000000000E+00 -0.13771538250E+03  0.13771538250E+03  0.00000000000E+00 0. -1.
         25    2    1    2    0    0  0.84570444474E+01 -0.24303527672E+02 -0.44483746225E+02  0.13523084857E+03  0.12508555340E+03 0.  0.
          5    1    3    3  502    0  0.55962589193E+02 -0.29491401469E+02  0.82641289184E+01  0.63932170123E+02  0.41800000000E+01 0. -1.
         -5    1    3    3    0  502 -0.47505544746E+02  0.51878737969E+01 -0.52747875144E+02  0.71298678447E+02  0.41800000000E+01 0. -1.
        -11    1    1    2    0    0  0.27305371656E+02 -0.63627788463E+01  0.28906099362E+02  0.40269477974E+02  0.00000000000E+00 0.  1.
         11    1    1    2    0    0 -0.35762416104E+02  0.30666306518E+02 -0.29021094592E+02  0.55331696995E+02  0.00000000000E+00 0. -1.
</event>
<event>
 7    1  0.2733606E-009  0.1123936E+03  0.7561462E-02  0.1256200E+00
          2   -1    0    0  501    0  0.00000000000E+00  0.00000000000E+00  0.73455164097E+03  0.73455164097E+03  0.00000000000E+00 0. -1.
         -2   -1    0    0    0  501 -0.00000000000E+00 -0.00000000000E+00 -0.45379662759E+02  0.45379662759E+02  0.00000000000E+00 0.  1.
         25    2    1    2    0    0  0.56117037736E+02  0.43841089390E+02  0.63682203079E+03  0.65288715508E+03  0.12509266694E+03 0.  0.
          5    1    3    3  502    0  0.19445037105E+01  0.72538364394E+02  0.22348251546E+03  0.23500532445E+03  0.41800000000E+01 0. -1.
         -5    1    3    3    0  502  0.54172534026E+02 -0.28697275004E+02  0.41333951533E+03  0.41788183063E+03  0.41800000000E+01 0. -1.
        -11    1    1    2    0    0 -0.45525947027E+02  0.28622157767E-01 -0.13254195804E+02  0.47416098304E+02  0.00000000000E+00 0.  1.
         11    1    1    2    0    0 -0.10591090709E+02 -0.43869711548E+02  0.65604143220E+02  0.79628050342E+02  0.00000000000E+00 0. -1.
</event>
<event>
 7    1  0.2936827E-009  0.9751169E+02  0.7561462E-02  0.1285617E+00
          2   -1    0    0  501    0  0.00000000000E+00  0.00000000000E+00  0.21148187574E+03  0.21148187574E+03  0.00000000000E+00 0. -1.
         -2   -1    0    0    0  501 -0.00000000000E+00 -0.00000000000E+00 -0.76418585162E+02  0.76418585162E+02  0.00000000000E+00 0.  1.
         25    2    1    2    0    0 -0.61020827106E+02 -0.26107647587E+02  0.79745297350E+02  0.16251896014E+03  0.12509176373E+03 0.  0.
          5    1    3    3  502    0 -0.67213766867E+02  0.28617843651E+02  0.10465715940E+02  0.73916676345E+02  0.41800000000E+01 0.  1.
         -5    1    3    3    0  502  0.61929397613E+01 -0.54725491238E+02  0.69279581410E+02  0.88602283800E+02  0.41800000000E+01 0.  1.
        -11    1    1    2    0    0  0.38091799487E+02  0.13251908382E+02 -0.20423888717E+02  0.45207670746E+02  0.00000000000E+00 0.  1.
         11    1    1    2    0    0  0.22929027619E+02  0.12855739205E+02  0.75741881944E+02  0.80173830010E+02  0.00000000000E+00 0. -1.
</event>
<event>
 7    1  0.2733606E-009  0.1373176E+03  0.7561462E-02  0.1216985E+00
         -2   -1    0    0    0  501 -0.00000000000E+00  0.00000000000E+00  0.26300807852E+03  0.26300807852E+03  0.00000000000E+00 0.  1.
          2   -1    0    0  501    0  0.00000000000E+00 -0.00000000000E+00 -0.12922795448E+03  0.12922795448E+03  0.00000000000E+00 0. -1.
         25    2    1    2    0    0  0.32972120246E+01 -0.97390687334E+02 -0.48003071018E+02  0.16567282341E+03  0.12508945600E+03 0.  0.
          5    1    3    3  502    0 -0.54762505168E+02 -0.31029055499E+02  0.40215635838E+01  0.63209015426E+02  0.41800000000E+01 0. -1.
         -5    1    3    3    0  502  0.58059717192E+02 -0.66361631834E+02 -0.52024634602E+02  0.10246380798E+03  0.41800000000E+01 0. -1.
        -11    1    1    2    0    0  0.18848042748E+02 -0.41946915194E+01  0.27145991978E+01  0.19499056417E+02  0.00000000000E+00 0. -1.
         11    1    1    2    0    0 -0.22145254772E+02  0.10158537885E+03  0.17906859587E+03  0.20706415318E+03  0.00000000000E+00 0.  1.
</event>
<event>
 7    1  0.2733606E-009  0.7626809E+02  0.7561462E-02  0.1339989E+00
          1   -1    0    0  501    0  0.00000000000E+00  0.00000000000E+00  0.50091564739E+02  0.50091564739E+02  0.00000000000E+00 0. -1.
         -1   -1    0    0    0  501 -0.00000000000E+00 -0.00000000000E+00 -0.29203962378E+03  0.29203962378E+03  0.00000000000E+00 0.  1.
         25    2    1    2    0    0  0.41205150508E+02  0.22697335034E+02 -0.98373929909E+02  0.16595063749E+03  0.12509656491E+03 0.  0.
          5    1    3    3  502    0  0.10797611139E+02  0.50175527662E+02  0.77842997289E+01  0.52079167665E+02  0.41800000000E+01 0. -1.
         -5    1    3    3    0  502  0.30407539369E+02 -0.27478192628E+02 -0.10615822964E+03  0.11387146983E+03  0.41800000000E+01 0. -1.
        -11    1    1    2    0    0 -0.31105212100E+02  0.39438581817E+01 -0.14431271353E+03  0.14767954335E+03  0.00000000000E+00 0.  1.
         11    1    1    2    0    0 -0.10099938408E+02 -0.26641193216E+02  0.73858439715E+00  0.28501007679E+02  0.00000000000E+00 0. -1.
</event>
<event>
 7    1  0.2733606E-009  0.1405975E+03  0.7561462E-02  0.1212527E+00
          2   -1    0    0  501    0  0.00000000000E+00  0.00000000000E+00  0.43544653263E+03  0.43544653263E+03  0.00000000000E+00 0. -1.
         -2   -1    0    0    0  501 -0.00000000000E+00 -0.00000000000E+00 -0.52120037332E+02  0.52120037332E+02  0.00000000000E+00 0.  1.
         25    2    1    2    0    0 -0.66995045377E+02 -0.79544227607E+02  0.22755461443E+03  0.27972266950E+03  0.12509216216E+03 0.  0.
          5    1    3    3  502    0 -0.77264103904E+02 -0.98212124453E+02  0.22558998356E+03  0.25792184131E+03  0.41800000000E+01 0.  1.
         -5    1    3    3    0  502  0.10269058526E+02  0.18667896846E+02  0.19646308753E+01  0.21800828198E+02  0.41800000000E+01 0.  1.
        -11    1    1    2    0    0  0.63578841371E+02  0.97376634328E+02  0.14766055590E+03  0.18795775523E+03  0.00000000000E+00 0. -1.
         11    1    1    2    0    0  0.34162040062E+01 -0.17832406721E+02  0.81113249699E+01  0.19886145228E+02  0.00000000000E+00 0.  1.
</event>
<event>
 7    1  0.2733606E-009  0.1095262E+03  0.7561462E-02  0.1261450E+00
         -1   -1    0    0    0  501 -0.00000000000E+00  0.00000000000E+00  0.10360541542E+03  0.10360541542E+03  0.00000000000E+00 0.  1.
          1   -1    0    0  501    0  0.00000000000E+00 -0.00000000000E+00 -0.15933095978E+03  0.15933095978E+03  0.00000000000E+00 0. -1.
         25    2    1    2    0    0  0.99044808983E+01  0.38762240685E+02 -0.86845487764E+02  0.15744775032E+03  0.12508815008E+03 0.  0.
          5    1    3    3  502    0  0.39096552015E+02  0.74307463380E+02 -0.65473289859E+02  0.10655685608E+03  0.41800000000E+01 0.  1.
         -5    1    3    3    0  502 -0.29192071117E+02 -0.35545222695E+02 -0.21372197905E+02  0.50890894233E+02  0.41800000000E+01 0.  1.
        -11    1    1    2    0    0 -0.37848642998E+02  0.36316239574E+01 -0.10929753610E+02  0.39562203975E+02  0.00000000000E+00 0.  1.
         11    1    1    2    0    0  0.27944162100E+02 -0.42393864643E+02  0.42049697008E+02  0.65926420905E+02  0.00000000000E+00 0. -1.
</event>
<event>
 7    1  0.2733606E-009  0.1081132E+03  0.7561462E-02  0.1264104E+00
          2   -1    0    0  501    0  0.00000000000E+00  0.00000000000E+00  0.21162391822E+03  0.21162391822E+03  0.00000000000E+00 0.  1.
         -2   -1    0    0    0  501 -0.00000000000E+00 -0.00000000000E+00 -0.79410990774E+02  0.79410990774E+02  0.00000000000E+00 0. -1.
         25    2    1    2    0    0 -0.33522180418E+02  0.63442708332E+02  0.87082157977E+02  0.16846509347E+03  0.12509385140E+03 0.  0.
          5    1    3    3  502    0  0.79615000500E+01  0.80460021674E+02  0.13329475612E+02  0.82050885985E+02  0.41800000000E+01 0. -1.
         -5    1    3    3    0  502 -0.41483680468E+02 -0.17017313341E+02  0.73752682365E+02  0.86414207481E+02  0.41800000000E+01 0. -1.
        -11    1    1    2    0    0 -0.13323239330E+02 -0.28184045792E+01 -0.18503812296E+02  0.22974837978E+02  0.00000000000E+00 0. -1.
         11    1    1    2    0    0  0.46845419747E+02 -0.60624303753E+02  0.63634581767E+02  0.99594977552E+02  0.00000000000E+00 0.  1.
</event>
<event>
 7    1  0.2733606E-009  0.2351086E+03  0.7561462E-02  0.1123095E+00
          2   -1    0    0  501    0  0.00000000000E+00  0.00000000000E+00  0.10684461534E+04  0.10684461534E+04  0.00000000000E+00 0. -1.
         -2   -1    0    0    0  501 -0.00000000000E+00 -0.00000000000E+00 -0.58275968588E+02  0.58275968588E+02  0.00000000000E+00 0.  1.
         25    2    1    2    0    0 -0.86124382386E+01 -0.21240171169E+03  0.66824019215E+03  0.71230747884E+03  0.12509328031E+03 0.  0.
          5    1    3    3  502    0  0.49645784236E+02 -0.11088241896E+03  0.42971892468E+03  0.44658195368E+03  0.41800000000E+01 0. -1.
         -5    1    3    3    0  502 -0.58258222475E+02 -0.10151929273E+03  0.23852126747E+03  0.26572552516E+03  0.41800000000E+01 0. -1.
        -11    1    1    2    0    0 -0.41091271159E+02  0.11618499498E+03  0.21254291917E+03  0.24568666654E+03  0.00000000000E+00 0. -1.
         11    1    1    2    0    0  0.49703709398E+02  0.96216716709E+02  0.12938707344E+03  0.16872797656E+03  0.00000000000E+00 0.  1.
</event>
<event>
 7    1  0.2733606E-009  0.1090370E+03  0.7561462E-02  0.1262364E+00
         -2   -1    0    0    0  501 -0.00000000000E+00  0.00000000000E+00  0.42989220790E+03  0.42989220790E+03  0.00000000000E+00 0.  1.
          2   -1    0    0  501    0  0.00000000000E+00 -0.00000000000E+00 -0.38220731050E+02  0.38220731050E+02  0.00000000000E+00 0. -1.
         25    2    1    2    0    0  0.52582201179E+02  0.19294226592E+02  0.29429150682E+03  0.32464136682E+03  0.12508945202E+03 0.  0.
          5    1    3    3  502    0  0.36127036073E+02 -0.38316310173E+02  0.23267176333E+03  0.23859363825E+03  0.41800000000E+01 0.  1.
         -5    1    3    3    0  502  0.16455165106E+02  0.57610536766E+02  0.61619743484E+02  0.86047728571E+02  0.41800000000E+01 0.  1.
        -11    1    1    2    0    0  0.24996813507E+02  0.93040085579E+00  0.19708520112E+02  0.31845440745E+02  0.00000000000E+00 0.  1.
         11    1    1    2    0    0 -0.77579014686E+02 -0.20224627448E+02  0.77671449921E+02  0.11162613138E+03  0.00000000000E+00 0. -1.
</event>
<event>
 7    1  0.2733606E-009  0.1025425E+03  0.7561462E-02  0.1275039E+00
         -2   -1    0    0    0  501 -0.00000000000E+00  0.00000000000E+00  0.43984210784E+02  0.43984210784E+02  0.00000000000E+00 0.  1.
          2   -1    0    0  501    0  0.00000000000E+00 -0.00000000000E+00 -0.45584428491E+03  0.45584428491E+03  0.00000000000E+00 0. -1.
         25    2    1    2    0    0 -0.70619794072E+02 -0.49052716918E+02 -0.17352583127E+03  0.23054191969E+03  0.12508012738E+03 0.  0.
          5    1    3    3  502    0 -0.47630504605E+02  0.23687353053E+00  0.86210458150E+00  0.47821927003E+02  0.41800000000E+01 0.  1.
         -5    1    3    3    0  502 -0.22989289467E+02 -0.49289590448E+02 -0.17438793585E+03  0.18271999269E+03  0.41800000000E+01 0.  1.
        -11    1    1    2    0    0 -0.45393221202E+01  0.22589912981E+02 -0.62053157852E+01  0.23862429838E+02  0.00000000000E+00 0.  1.
         11    1    1    2    0    0  0.75159116192E+02  0.26462803937E+02 -0.23212892707E+03  0.24542414616E+03  0.00000000000E+00 0. -1.
</event>
<event>
 7    1  0.2733606E-009  0.9452902E+02  0.7561462E-02  0.1292240E+00
          1   -1    0    0  501    0  0.00000000000E+00  0.00000000000E+00  0.16013577435E+03  0.16013577435E+03  0.00000000000E+00 0. -1.
         -1   -1    0    0    0  501 -0.00000000000E+00 -0.00000000000E+00 -0.75827295449E+02  0.75827295449E+02  0.00000000000E+00 0.  1.
         25    2    1    2    0    0  0.55536527438E+01  0.11352224944E+02  0.37955934743E+02  0.13133319293E+03  0.12509212011E+03 0.  0.
          5    1    3    3  502    0  0.37808053670E+02  0.49254862479E+02 -0.88806017203E+01  0.62863565656E+02  0.41800000000E+01 0.  1.
         -5    1    3    3    0  502 -0.32254400926E+02 -0.37902637535E+02  0.46836536464E+02  0.68469627274E+02  0.41800000000E+01 0.  1.
        -11    1    1    2    0    0 -0.35835908194E+02  0.12896772749E+02 -0.69392304468E+01  0.38712943348E+02  0.00000000000E+00 0.  1.
         11    1    1    2    0    0  0.30282255451E+02 -0.24248997692E+02  0.53291774601E+02  0.65916933518E+02  0.00000000000E+00 0. -1.
</event>
<event>
 7    1  0.2733606E-009  0.1149586E+03  0.7561462E-02  0.1251653E+00
         -2   -1    0    0    0  501 -0.00000000000E+00  0.00000000000E+00  0.12665255159E+02  0.12665255159E+02  0.00000000000E+00 0.  1.
          2   -1    0    0  501    0  0.00000000000E+00 -0.00000000000E+00 -0.23721924089E+04  0.23721924089E+04  0.00000000000E+00 0. -1.
         25    2    1    2    0    0  0.46377379226E+02 -0.30333569462E+02 -0.20951755185E+04  0.20996378655E+04  0.12509087231E+03 0.  0.
          5    1    3    3  502    0  0.80070743719E+02  0.89889005469E-01 -0.16909252016E+04  0.16928251067E+04  0.41800000000E+01 0.  1.
         -5    1    3    3    0  502 -0.33693364493E+02 -0.30423458467E+02 -0.40425031687E+03  0.40681275881E+03  0.41800000000E+01 0.  1.
        -11    1    1    2    0    0 -0.69782234901E+02  0.54606292005E+01 -0.14391301658E+03  0.16003229399E+03  0.00000000000E+00 0.  1.
         11    1    1    2    0    0  0.23404855675E+02  0.24872940261E+02 -0.12043861873E+03  0.12518750460E+03  0.00000000000E+00 0. -1.
</event>
<event>
 7    1  0.2733606E-009  0.1293074E+03  0.7561462E-02  0.1228487E+00
          1   -1    0    0  501    0  0.00000000000E+00  0.00000000000E+00  0.49600329990E+03  0.49600329990E+03  0.00000000000E+00 0. -1.
         -1   -1    0    0    0  501 -0.00000000000E+00 -0.00000000000E+00 -0.42427799011E+02  0.42427799011E+02  0.00000000000E+00 0.  1.
         25    2    1    2    0    0 -0.75598315092E+02  0.42952342631E+02  0.34854753083E+03  0.38038503377E+03  0.12508950269E+03 0.  0.
          5    1    3    3  502    0 -0.31951290897E+02 -0.39732170426E+02  0.71202617469E+02  0.87674485976E+02  0.41800000000E+01 0.  1.
         -5    1    3    3    0  502 -0.43647024196E+02  0.82684513057E+02  0.27734491336E+03  0.29271054779E+03  0.41800000000E+01 0.  1.
        -11    1    1    2    0    0  0.36977218287E+02  0.18453258038E+02  0.18909764981E+02  0.45446854854E+02  0.00000000000E+00 0. -1.
         11    1    1    2    0    0  0.38621096805E+02 -0.61405600669E+02  0.86118205073E+02  0.11259921029E+03  0.00000000000E+00 0.  1.
</event>
<event>
 7    1  0.2733606E-009  0.1254959E+03  0.7561462E-02  0.1234296E+00
          3   -1    0    0  501    0  0.00000000000E+00  0.00000000000E+00  0.10420953244E+03  0.10420953244E+03  0.00000000000E+00 0. -1.
         -3   -1    0    0    0  501 -0.00000000000E+00 -0.00000000000E+00 -0.15983810764E+03  0.15983810764E+03  0.00000000000E+00 0.  1.
         25    2    1    2    0    0 -0.66881099021E+02 -0.86827805718E+01 -0.49378272801E+02  0.15044846704E+03  0.12509218731E+03 0.  0.
          5    1    3    3  502    0 -0.61603532251E+01 -0.59743921364E+02 -0.75908759232E+01  0.60682616037E+02  0.41800000000E+01 0.  1.
         -5    1    3    3    0  502 -0.60720745796E+02  0.51061140792E+02 -0.41787396878E+02  0.89765851005E+02  0.41800000000E+01 0.  1.
        -11    1    1    2    0    0 -0.18628702519E+02 -0.13491735197E+02  0.75089432084E+01  0.24195861304E+02  0.00000000000E+00 0. -1.
         11    1    1    2    0    0  0.85509801539E+02  0.22174515769E+02 -0.13759245603E+02  0.89403311731E+02  0.00000000000E+00 0.  1.
</event>
<event>
 7    1  0.2733606E-009  0.9948885E+02  0.7561462E-02  0.1281375E+00
          3   -1    0    0  501    0  0.00000000000E+00  0.00000000000E+00  0.28575197891E+02  0.28575197891E+02  0.00000000000E+00 0. -1.
         -3   -1    0    0    0  501 -0.00000000000E+00 -0.00000000000E+00 -0.44564832883E+03  0.44564832883E+03  0.00000000000E+00 0.  1.
         25    2    1    2    0    0  0.13076794302E+02  0.77856869367E+01 -0.29367229786E+03  0.31956614773E+03  0.12508990678E+03 0.  0.
          5    1    3    3  502    0  0.53056296405E+02 -0.33062586674E+02 -0.20162831230E+03  0.21113870784E+03  0.41800000000E+01 0.  1.
         -5    1    3    3    0  502 -0.39979502102E+02  0.40848273610E+02 -0.92043985558E+02  0.10842743990E+03  0.41800000000E+01 0.  1.
        -11    1    1    2    0    0 -0.16051973739E+00 -0.42228314703E+02 -0.23783888482E+02  0.48465757815E+02  0.00000000000E+00 0. -1.
         11    1    1    2    0    0 -0.12916274565E+02  0.34442627766E+02 -0.99616944593E+02  0.10619162117E+03  0.00000000000E+00 0.  1.
</event>
<event>
 7    1  0.2733606E-009  0.1440533E+03  0.7561462E-02  0.1207977E+00
          4   -1    0    0  501    0  0.00000000000E+00  0.00000000000E+00  0.59660698505E+03  0.59660698505E+03  0.00000000000E+00 0. -1.
         -4   -1    0    0    0  501 -0.00000000000E+00 -0.00000000000E+00 -0.43509175898E+02  0.43509175898E+02  0.00000000000E+00 0.  1.
         25    2    1    2    0    0 -0.11753752707E+03 -0.28136156690E+02  0.32701792090E+03  0.37039730664E+03  0.12508689217E+03 0.  0.
          5    1    3    3  502    0 -0.63585489175E+01 -0.43701740781E+02  0.31951651503E+02  0.54668580788E+02  0.41800000000E+01 0.  1.
         -5    1    3    3    0  502 -0.11117897815E+03  0.15565584091E+02  0.29506626940E+03  0.31572872585E+03  0.41800000000E+01 0.  1.
        -11    1    1    2    0    0  0.96654118820E+02  0.42985466583E+02  0.11726146630E+03  0.15792409728E+03  0.00000000000E+00 0. -1.
         11    1    1    2    0    0  0.20883408247E+02 -0.14849309893E+02  0.10881842195E+03  0.11179475703E+03  0.00000000000E+00 0.  1.
</event>
<event>
 7    1  0.2733606E-009  0.8110956E+02  0.7561462E-02  0.1325932E+00
         -1   -1    0    0    0  501 -0.00000000000E+00  0.00000000000E+00  0.78921956260E+01  0.78921956260E+01  0.00000000000E+00 0.  1.
          1   -1    0    0  501    0  0.00000000000E+00 -0.00000000000E+00 -0.20616974640E+04  0.20616974640E+04  0.00000000000E+00 0. -1.
         25    2    1    2    0    0 -0.29541056356E+02  0.45710541664E+02 -0.14832046777E+04  0.14894652149E+04  0.12509349630E+03 0.  0.
          5    1    3    3  502    0 -0.26697289044E+02  0.45038732210E+02 -0.21756203770E+03  0.22381229923E+03  0.41800000000E+01 0. -1.
         -5    1    3    3    0  502 -0.28437673118E+01  0.67180945373E+00 -0.12656426400E+04  0.12656529157E+04  0.41800000000E+01 0. -1.
        -11    1    1    2    0    0  0.14075849308E+02  0.26898006790E+02 -0.15483369906E+03  0.15778183250E+03  0.00000000000E+00 0. -1.
         11    1    1    2    0    0  0.15465207049E+02 -0.72608548454E+02 -0.41576689158E+03  0.42234261219E+03  0.00000000000E+00 0.  1.
</event>
<event>
 7    1  0.2733606E-009  0.8180622E+02  0.7561462E-02  0.1324002E+00
         -2   -1    0    0    0  501 -0.00000000000E+00  0.00000000000E+00  0.34832672166E+02  0.34832672166E+02  0.00000000000E+00 0.  1.
          2   -1    0    0  501    0  0.00000000000E+00 -0.00000000000E+00 -0.37319632322E+03  0.37319632322E+03  0.00000000000E+00 0. -1.
         25    2    1    2    0    0 -0.32407700310E+02 -0.66015660738E+01 -0.21213378173E+03  0.24848012202E+03  0.12509112668E+03 0.  0.
          5    1    3    3  502    0 -0.98510386748E+01 -0.40999906262E+02 -0.20133655716E+03  0.20574721608E+03  0.41800000000E+01 0.  1.
         -5    1    3    3    0  502 -0.22556661635E+02  0.34398340189E+02 -0.10797224575E+02  0.42732905943E+02  0.41800000000E+01 0.  1.
        -11    1    1    2    0    0  0.36291345927E+02 -0.27523172060E+02 -0.23546589635E+02  0.51274054578E+02  0.00000000000E+00 0.  1.
         11    1    1    2    0    0 -0.38836456170E+01  0.34124738134E+02 -0.10268327969E+03  0.10827481879E+03  0.00000000000E+00 0. -1.
</event>
<event>
 7    1  0.2733606E-009  0.1448086E+03  0.7561462E-02  0.1207001E+00
          1   -1    0    0  501    0  0.00000000000E+00  0.00000000000E+00  0.76833015975E+03  0.76833015975E+03  0.00000000000E+00 0. -1.
         -1   -1    0    0    0  501 -0.00000000000E+00 -0.00000000000E+00 -0.36732669811E+02  0.36732669811E+02  0.00000000000E+00 0.  1.
         25    2    1    2    0    0 -0.12532137097E+03  0.66966079687E+01  0.33217470044E+03  0.37648020520E+03  0.12508805982E+03 0.  0.
          5    1    3    3  502    0 -0.98994718876E+02  0.34489963560E+02  0.31895094295E+03  0.33576284541E+03  0.41800000000E+01 0.  1.
         -5    1    3    3    0  502 -0.26326652099E+02 -0.27793355592E+02  0.13223757498E+02  0.40717359788E+02  0.41800000000E+01 0.  1.
        -11    1    1    2    0    0  0.40327151874E+01  0.21330199848E+02  0.12988941091E+03  0.13169092331E+03  0.00000000000E+00 0. -1.
         11    1    1    2    0    0  0.12128865579E+03 -0.28026807817E+02  0.26953337859E+03  0.29689170105E+03  0.00000000000E+00 0.  1.
</event>
<event>
 7    1  0.2733606E-009  0.6717689E+02  0.7561462E-02  0.1369965E+00
          2   -1    0    0  501    0  0.00000000000E+00  0.00000000000E+00  0.41234189691E+03  0.41234189691E+03  0.00000000000E+00 0. -1.
         -2   -1    0    0    0  501 -0.00000000000E+00 -0.00000000000E+00 -0.31037607219E+02  0.31037607219E+02  0.00000000000E+00 0.  1.
         25    2    1    2    0    0 -0.24248895730E+02 -0.68732753049E+01  0.24644437917E+03  0.27752206797E+03  0.12509362625E+03 0.  0.
          5    1    3    3  502    0  0.14729946358E+02  0.88830675532E+01  0.23229055857E+03  0.23296406635E+03  0.41800000000E+01 0.  1.
         -5    1    3    3    0  502 -0.38978842088E+02 -0.15756342858E+02  0.14153820595E+02  0.44558001618E+02  0.41800000000E+01 0.  1.
        -11    1    1    2    0    0  0.11698145780E+02  0.38572993900E+02  0.18033892235E+02  0.44158167333E+02  0.00000000000E+00 0.  1.
         11    1    1    2    0    0  0.12550749950E+02 -0.31699718595E+02  0.11682601829E+03  0.12169926883E+03  0.00000000000E+00 0. -1.
</event>
<event>
 7    1  0.2733606E-009  0.1102665E+03  0.7561462E-02  0.1260077E+00
          1   -1    0    0  501    0  0.00000000000E+00  0.00000000000E+00  0.26317448416E+03  0.26317448416E+03  0.00000000000E+00 0. -1.
         -1   -1    0    0    0  501 -0.00000000000E+00 -0.00000000000E+00 -0.13256272782E+03  0.13256272782E+03  0.00000000000E+00 0.  1.
         25    2    1    2    0    0 -0.53588155855E+02  0.65152155397E+02  0.20592259777E+03  0.25528944998E+03  0.12510832586E+03 0.  0.
          5    1    3    3  502    0 -0.70486484464E+02  0.23711141222E+02  0.42412714125E+02  0.85713904529E+02  0.41800000000E+01 0.  1.
         -5    1    3    3    0  502  0.16898328610E+02  0.41441014175E+02  0.16350988364E+03  0.16957554545E+03  0.41800000000E+01 0.  1.
        -11    1    1    2    0    0  0.63999713386E+02 -0.44435062408E+02 -0.85011295940E+02  0.11531417312E+03  0.00000000000E+00 0.  1.
         11    1    1    2    0    0 -0.10411557531E+02 -0.20717092989E+02  0.97004545147E+01  0.25133588879E+02  0.00000000000E+00 0. -1.
</event>
<event>
 7    1  0.2733606E-009  0.8816855E+02  0.7561462E-02  0.1307348E+00
         -2   -1    0    0    0  501 -0.00000000000E+00  0.00000000000E+00  0.23115912431E+03  0.23115912431E+03  0.00000000000E+00 0.  1.
          2   -1    0    0  501    0  0.00000000000E+00 -0.00000000000E+00 -0.91144520197E+02  0.91144520197E+02  0.00000000000E+00 0. -1.
         25    2    1    2    0    0 -0.65581268637E+02  0.64880591184E+01 -0.28224756170E+01  0.14140815328E+03  0.12508118060E+03 0.  0.
          5    1    3    3  502    0 -0.74353519252E+02  0.33020284638E+02  0.39488732927E+02  0.90529649568E+02  0.41800000000E+01 0. -1.
         -5    1    3    3    0  502  0.87722506148E+01 -0.26532225520E+02 -0.42311208544E+02  0.50878503716E+02  0.41800000000E+01 0. -1.
        -11    1    1    2    0    0  0.53647722724E+02 -0.14570686980E+01  0.15444518332E+03  0.16350387107E+03  0.00000000000E+00 0.  1.
         11    1    1    2    0    0  0.11933545913E+02 -0.50309904205E+01 -0.11608103592E+02  0.17391620157E+02  0.00000000000E+00 0. -1.
</event>
<event>
 7    1  0.2733606E-009  0.9656889E+02  0.7561462E-02  0.1287681E+00
         -1   -1    0    0    0  501 -0.00000000000E+00  0.00000000000E+00  0.14611136438E+03  0.14611136438E+03  0.00000000000E+00 0.  1.
          1   -1    0    0  501    0  0.00000000000E+00 -0.00000000000E+00 -0.19883500452E+03  0.19883500452E+03  0.00000000000E+00 0. -1.
         25    2    1    2    0    0 -0.32952882709E+01 -0.43025066140E+00  0.10420444518E+03  0.16283511677E+03  0.12508263196E+03 0.  0.
          5    1    3    3  502    0 -0.36055559254E+02  0.46773133450E+02  0.81900003063E+02  0.10105845965E+03  0.41800000000E+01 0. -1.
         -5    1    3    3    0  502  0.32760270983E+02 -0.47203384111E+02  0.22304442122E+02  0.61776657119E+02  0.41800000000E+01 0. -1.
        -11    1    1    2    0    0  0.31824119263E+02  0.23560221263E+02 -0.29175145163E+02  0.49183815306E+02  0.00000000000E+00 0.  1.
         11    1    1    2    0    0 -0.28528830992E+02 -0.23129970601E+02 -0.12775294016E+03  0.13292743681E+03  0.00000000000E+00 0. -1.
</event>
<event>
 7    1  0.2733606E-009  0.9552941E+02  0.7561462E-02  0.1289988E+00
          1   -1    0    0  501    0  0.00000000000E+00  0.00000000000E+00  0.94586633117E+03  0.94586633117E+03  0.00000000000E+00 0. -1.
         -1   -1    0    0    0  501 -0.00000000000E+00 -0.00000000000E+00 -0.15856801101E+02  0.15856801101E+02  0.00000000000E+00 0.  1.
         25    2    1    2    0    0 -0.12229229022E+02 -0.38065074032E+02  0.65019759720E+03  0.66332661229E+03  0.12508707074E+03 0.  0.
          5    1    3    3  502    0  0.41687931956E+02 -0.15775385766E+02  0.94598732825E+02  0.10465724590E+03  0.41800000000E+01 0.  1.
         -5    1    3    3    0  502 -0.53917160979E+02 -0.22289688266E+02  0.55559886438E+03  0.55866936640E+03  0.41800000000E+01 0.  1.
        -11    1    1    2    0    0 -0.12967654594E+02  0.55605095609E+02  0.24678594449E+03  0.25330493308E+03  0.00000000000E+00 0. -1.
         11    1    1    2    0    0  0.25196883617E+02 -0.17540021577E+02  0.33025988371E+02  0.45091586896E+02  0.00000000000E+00 0.  1.
</event>
<event>
 7    1  0.2733606E-009  0.1249034E+03  0.7561462E-02  0.1235220E+00
         -3   -1    0    0    0  501 -0.00000000000E+00  0.00000000000E+00  0.16049307525E+03  0.16049307525E+03  0.00000000000E+00 0.  1.
          3   -1    0    0  501    0  0.00000000000E+00 -0.00000000000E+00 -0.27809579275E+03  0.27809579275E+03  0.00000000000E+00 0. -1.
         25    2    1    2    0    0 -0.10049401009E+03  0.48057763415E+02  0.86539138101E+02  0.18854752232E+03  0.12511015571E+03 0.  0.
          5    1    3    3  502    0 -0.20070126082E+02  0.35646900276E+02  0.97985356744E+02  0.10626435901E+03  0.41800000000E+01 0.  1.
         -5    1    3    3    0  502 -0.80423884004E+02  0.12410863139E+02 -0.11446218644E+02  0.82283163305E+02  0.41800000000E+01 0.  1.
        -11    1    1    2    0    0  0.45071991686E+02 -0.55264164664E+02 -0.17048914892E+03  0.18480303631E+03  0.00000000000E+00 0. -1.
         11    1    1    2    0    0  0.55422018400E+02  0.72064012493E+01 -0.33652706679E+02  0.65238309369E+02  0.00000000000E+00 0.  1.
</event>
<event>
 7    1  0.2733606E-009  0.1033623E+03  0.7561462E-02  0.1273380E+00
         -1   -1    0    0    0  501 -0.00000000000E+00  0.00000000000E+00  0.42772355564E+02  0.42772355564E+02  0.00000000000E+00 0.  1.
          1   -1    0    0  501    0  0.00000000000E+00 -0.00000000000E+00 -0.26781239961E+03  0.26781239961E+03  0.00000000000E+00 0. -1.
         25    2    1    2    0    0  0.90353426572E+01 -0.18178095154E+02 -0.10456965544E+03  0.16429863628E+03  0.12508856257E+03 0.  0.
          5    1    3    3  502    0 -0.56632133725E+02 -0.61711062383E+01 -0.31470590492E+02  0.65216191152E+02  0.41800000000E+01 0.  1.
         -5    1    3    3    0  502  0.65667476382E+02 -0.12006988916E+02 -0.73099064944E+02  0.99082445130E+02  0.41800000000E+01 0.  1.
        -11    1    1    2    0    0  0.97171423879E+01  0.47185771266E+02 -0.64308380680E+02  0.80352272475E+02  0.00000000000E+00 0.  1.
         11    1    1    2    0    0 -0.18752485045E+02 -0.29007676112E+02 -0.56162007924E+02  0.65933846413E+02  0.00000000000E+00 0. -1.
</event>
<event>
 7    1  0.2733606E-009  0.1662999E+03  0.7561462E-02  0.1181762E+00
          2   -1    0    0  501    0  0.00000000000E+00  0.00000000000E+00  0.74483799918E+02  0.74483799918E+02  0.00000000000E+00 0. -1.
         -2   -1    0    0    0  501 -0.00000000000E+00 -0.00000000000E+00 -0.46046386631E+03  0.46046386631E+03  0.00000000000E+00 0.  1.
         25    2    1    2    0    0  0.71225692855E+02 -0.12381534228E+03 -0.13906470296E+03  0.23535168446E+03  0.12509230777E+03 0.  0.
          5    1    3    3  502    0  0.54137216868E+01 -0.92401152057E+02 -0.18647353642E+02  0.94511784884E+02  0.41800000000E+01 0.  1.
         -5    1    3    3    0  502  0.65811971169E+02 -0.31414190219E+02 -0.12041734931E+03  0.14083989957E+03  0.41800000000E+01 0.  1.
        -11    1    1    2    0    0  0.20279199348E+02  0.19403670228E+02 -0.23737251725E+02  0.36758746768E+02  0.00000000000E+00 0.  1.
         11    1    1    2    0    0 -0.91504892203E+02  0.10441167205E+03 -0.22317811171E+03  0.26283723500E+03  0.00000000000E+00 0. -1.
</event>
<event>
 7    1  0.2733606E-009  0.9655360E+02  0.7561462E-02  0.1287715E+00
         -3   -1    0    0    0  501 -0.00000000000E+00  0.00000000000E+00  0.51244042042E+02  0.51244042042E+02  0.00000000000E+00 0. -1.
          3   -1    0    0  501    0  0.00000000000E+00 -0.00000000000E+00 -0.25124357579E+03  0.25124357579E+03  0.00000000000E+00 0.  1.
         25    2    1    2    0    0  0.14677855620E+02  0.10734376362E+02 -0.14564737461E+03  0.19284975348E+03  0.12508878209E+03 0.  0.
          5    1    3    3  502    0  0.67865199844E+02  0.22716609885E+02 -0.84868759115E+02  0.11109414201E+03  0.41800000000E+01 0. -1.
         -5    1    3    3    0  502 -0.53187344224E+02 -0.11982233524E+02 -0.60778615499E+02  0.81755611476E+02  0.41800000000E+01 0. -1.
        -11    1    1    2    0    0  0.38334919322E+01 -0.35562876202E+02 -0.67186044511E+02  0.76114245718E+02  0.00000000000E+00 0.  1.
         11    1    1    2    0    0 -0.18511347552E+02  0.24828499840E+02  0.12833885374E+02  0.33523618634E+02  0.00000000000E+00 0. -1.
</event>
<event>
 7    1  0.2733606E-009  0.1027881E+03  0.7561462E-02  0.1274540E+00
         -3   -1    0    0    0  501 -0.00000000000E+00  0.00000000000E+00  0.17322906246E+03  0.17322906246E+03  0.00000000000E+00 0.  1.
          3   -1    0    0  501    0  0.00000000000E+00 -0.00000000000E+00 -0.79278386598E+02  0.79278386598E+02  0.00000000000E+00 0. -1.
         25    2    1    2    0    0 -0.25600242525E+02  0.78613143738E+01  0.92106590798E+02  0.15763127894E+03  0.12508726295E+03 0.  0.
          5    1    3    3  502    0 -0.59906992869E+02 -0.23567572314E+02  0.13070781512E+02  0.65822458088E+02  0.41800000000E+01 0.  1.
         -5    1    3    3    0  502  0.34306750344E+02  0.31428886688E+02  0.79035809286E+02  0.91808820857E+02  0.41800000000E+01 0.  1.
        -11    1    1    2    0    0 -0.26356077413E+02  0.22081480147E+02  0.53945411968E+01  0.34804247683E+02  0.00000000000E+00 0. -1.
         11    1    1    2    0    0  0.51956319938E+02 -0.29942794521E+02 -0.35504561369E+01  0.60071922427E+02  0.00000000000E+00 0.  1.
</event>
<event>
 7    1  0.2733606E-009  0.2000137E+03  0.7561462E-02  0.1149727E+00
         -1   -1    0    0    0  501 -0.00000000000E+00  0.00000000000E+00  0.23649277747E+04  0.23649277747E+04  0.00000000000E+00 0.  1.
          1   -1    0    0  501    0  0.00000000000E+00 -0.00000000000E+00 -0.19326634212E+02  0.19326634212E+02  0.00000000000E+00 0. -1.
         25    2    1    2    0    0 -0.17596807521E+03  0.57589821820E+02  0.13299108088E+04  0.13485512022E+04  0.12508490999E+03 0.  0.
          5    1    3    3  502    0 -0.17056720205E+03  0.71114167099E+02  0.13125794187E+04  0.13255310626E+04  0.41800000000E+01 0.  1.
         -5    1    3    3    0  502 -0.54008731529E+01 -0.13524345280E+02  0.17331390050E+02  0.23020139598E+02  0.41800000000E+01 0.  1.
        -11    1    1    2    0    0  0.10985280476E+03 -0.73315592217E+02  0.74474047674E+03  0.75636049108E+03  0.00000000000E+00 0.  1.
         11    1    1    2    0    0  0.66115270444E+02  0.15725770397E+02  0.27094985498E+03  0.27934271559E+03  0.00000000000E+00 0. -1.
</event>
<event>
 7    1  0.2733606E-009  0.1140096E+03  0.7561462E-02  0.1253320E+00
          2   -1    0    0  501    0  0.00000000000E+00  0.00000000000E+00  0.35753689487E+03  0.35753689487E+03  0.00000000000E+00 0. -1.
         -2   -1    0    0    0  501 -0.00000000000E+00 -0.00000000000E+00 -0.41799172214E+02  0.41799172214E+02  0.00000000000E+00 0.  1.
         25    2    1    2    0    0  0.46951237229E+02  0.28513846744E+02  0.19055146168E+03  0.23446706203E+03  0.12508990964E+03 0.  0.
          5    1    3    3  502    0 -0.35431067385E+02  0.17618427822E+02  0.19628697847E+02  0.44368093425E+02  0.41800000000E+01 0.  1.
         -5    1    3    3    0  502  0.82382304614E+02  0.10895418922E+02  0.17092276384E+03  0.19009896860E+03  0.41800000000E+01 0.  1.
        -11    1    1    2    0    0 -0.46786274569E+02  0.23950292752E+02  0.79482353462E+02  0.95289120694E+02  0.00000000000E+00 0. -1.
         11    1    1    2    0    0 -0.16496266076E+00 -0.52464139496E+02  0.45703907510E+02  0.69579884359E+02  0.00000000000E+00 0.  1.
</event>
<event>
 7    1  0.2733606E-009  0.3122843E+03  0.7561462E-02  0.1079256E+00
          2   -1    0    0  501    0  0.00000000000E+00  0.00000000000E+00  0.25959491785E+04  0.25959491785E+04  0.00000000000E+00 0. -1.
         -2   -1    0    0    0  501 -0.00000000000E+00 -0.00000000000E+00 -0.40096229063E+02  0.40096229063E+02  0.00000000000E+00 0.  1.
         25    2    1    2    0    0 -0.28541189010E+03  0.10057693783E+03  0.13909503526E+04  0.14289737152E+04  0.12508927986E+03 0.  0.
          5    1    3    3  502    0 -0.25329463894E+03  0.12143126736E+03  0.13032725236E+04  0.13332068369E+04  0.41800000000E+01 0. -1.
         -5    1    3    3    0  502 -0.32117251154E+02 -0.20854329523E+02  0.87677828978E+02  0.95766878281E+02  0.41800000000E+01 0. -1.
        -11    1    1    2    0    0  0.90847762642E+02 -0.51621085334E+02  0.56294668296E+03  0.57256180477E+03  0.00000000000E+00 0. -1.
         11    1    1    2    0    0  0.19456412745E+03 -0.48955852498E+02  0.60195591390E+03  0.63450988760E+03  0.00000000000E+00 0.  1.
</event>
<event>
 7    1  0.2733606E-009  0.1081413E+03  0.7561462E-02  0.1264051E+00
         -2   -1    0    0    0  501 -0.00000000000E+00  0.00000000000E+00  0.45297344757E+02  0.45297344757E+02  0.00000000000E+00 0.  1.
          2   -1    0    0  501    0  0.00000000000E+00 -0.00000000000E+00 -0.42293733729E+03  0.42293733729E+03  0.00000000000E+00 0. -1.
         25    2    1    2    0    0  0.10314617645E+01  0.71696828591E+02 -0.28295625610E+03  0.31757399375E+03  0.12508996562E+03 0.  0.
          5    1    3    3  502    0 -0.34421437391E+02  0.51317383382E+02 -0.26598839937E+03  0.27310366198E+03  0.41800000000E+01 0.  1.
         -5    1    3    3    0  502  0.35452899156E+02  0.20379445209E+02 -0.16967856730E+02  0.44470331768E+02  0.41800000000E+01 0.  1.
        -11    1    1    2    0    0  0.19322928960E+02  0.14827734876E+02 -0.38335118972E+02  0.45418263417E+02  0.00000000000E+00 0. -1.
         11    1    1    2    0    0 -0.20354390725E+02 -0.86524563467E+02 -0.56348617461E+02  0.10524242488E+03  0.00000000000E+00 0.  1.
</event>
<event>
 7    1  0.2733606E-009  0.1258438E+03  0.7561462E-02  0.1233757E+00
         -2   -1    0    0    0  501 -0.00000000000E+00  0.00000000000E+00  0.32655504558E+02  0.32655504558E+02  0.00000000000E+00 0.  1.
          2   -1    0    0  501    0  0.00000000000E+00 -0.00000000000E+00 -0.64516193185E+03  0.64516193185E+03  0.00000000000E+00 0. -1.
         25    2    1    2    0    0  0.60168595236E+02 -0.74897303902E+02 -0.34811499568E+03  0.38218361020E+03  0.12510154157E+03 0.  0.
          5    1    3    3  502    0  0.31538502754E+01 -0.61283866685E+02 -0.29997815514E+03  0.30621891687E+03  0.41800000000E+01 0.  1.
         -5    1    3    3    0  502  0.57014744961E+02 -0.13613437217E+02 -0.48136840546E+02  0.75964693336E+02  0.41800000000E+01 0.  1.
        -11    1    1    2    0    0  0.14706455773E+02 -0.10327184471E+02 -0.49049829796E+02  0.52238074079E+02  0.00000000000E+00 0. -1.
         11    1    1    2    0    0 -0.74875051009E+02  0.85224488373E+02 -0.21534160181E+03  0.24339575213E+03  0.00000000000E+00 0.  1.
</event>
<event>
 7    1  0.2733606E-009  0.7824185E+02  0.7561462E-02  0.1334116E+00
         -4   -1    0    0    0  501 -0.00000000000E+00  0.00000000000E+00  0.51170260348E+02  0.51170260348E+02  0.00000000000E+00 0.  1.
          4   -1    0    0  501    0  0.00000000000E+00 -0.00000000000E+00 -0.23376227901E+03  0.23376227901E+03  0.00000000000E+00 0. -1.
         25    2    1    2    0    0  0.19348679805E+02  0.15830159557E+01 -0.10164099156E+03  0.16234353255E+03  0.12509058336E+03 0.  0.
          5    1    3    3  502    0 -0.41986129330E+02 -0.34920755966E+02 -0.38404772655E+02  0.66893147751E+02  0.41800000000E+01 0. -1.
         -5    1    3    3    0  502  0.61334809134E+02  0.36503771922E+02 -0.63236218906E+02  0.95450384795E+02  0.41800000000E+01 0. -1.
        -11    1    1    2    0    0 -0.65802490826E+01 -0.12033919859E+02  0.17798751329E+02  0.22470212594E+02  0.00000000000E+00 0.  1.
         11    1    1    2    0    0 -0.12768430722E+02  0.10450903903E+02 -0.98749778435E+02  0.10011879422E+03  0.00000000000E+00 0. -1.
</event>
<event>
 7    1  0.3413691E-009  0.8159724E+02  0.7561462E-02  0.1324579E+00
          1   -1    0    0  501    0  0.00000000000E+00  0.00000000000E+00  0.84918435265E+03  0.84918435265E+03  0.00000000000E+00 0. -1.
         -1   -1    0    0    0  501 -0.00000000000E+00 -0.00000000000E+00 -0.21022713636E+02  0.21022713636E+02  0.00000000000E+00 0.  1.
         25    2    1    2    0    0 -0.60065382485E+02  0.37428374497E+02  0.56271389364E+03  0.58077526918E+03  0.12507699153E+03 0.  0.
          5    1    3    3  502    0 -0.21565114102E+02  0.16058113956E+02  0.14600038647E+02  0.30879616231E+02  0.41800000000E+01 0. -1.
         -5    1    3    3    0  502 -0.38500268383E+02  0.21370260541E+02  0.54811385499E+03  0.54989565295E+03  0.41800000000E+01 0. -1.
        -11    1    1    2    0    0  0.84776068655E+00 -0.32302646327E+02  0.22642681471E+02  0.39457200637E+02  0.00000000000E+00 0.  1.
         11    1    1    2    0    0  0.59217621799E+02 -0.51257281708E+01  0.24280506390E+03  0.24997459646E+03  0.00000000000E+00 0. -1.
</event>
<event>
 7    1  0.2733606E-009  0.1258406E+03  0.7561462E-02  0.1233761E+00
          2   -1    0    0  501    0  0.00000000000E+00  0.00000000000E+00  0.20283493363E+03  0.20283493363E+03  0.00000000000E+00 0.  1.
         -2   -1    0    0    0  501 -0.00000000000E+00 -0.00000000000E+00 -0.11376626269E+03  0.11376626269E+03  0.00000000000E+00 0. -1.
         25    2    1    2    0    0 -0.90135844591E+02 -0.61350290304E+02  0.40840438900E+02  0.17089449523E+03  0.12509459800E+03 0.  0.
          5    1    3    3  502    0 -0.70804014461E+02 -0.77485963367E+02  0.74404086869E+02  0.12872732237E+03  0.41800000000E+01 0.  1.
         -5    1    3    3    0  502 -0.19331830130E+02  0.16135673063E+02 -0.33563647968E+02  0.42167172852E+02  0.41800000000E+01 0.  1.
        -11    1    1    2    0    0  0.44299839007E+02  0.60853693478E+02 -0.50301048230E+01  0.75438383470E+02  0.00000000000E+00 0. -1.
         11    1    1    2    0    0  0.45836005583E+02  0.49659682508E+00  0.53258336858E+02  0.70268317620E+02  0.00000000000E+00 0.  1.
</event>
<event>
 7    1  0.2733606E-009  0.9363835E+02  0.7561462E-02  0.1294273E+00
         -2   -1    0    0    0  501 -0.00000000000E+00  0.00000000000E+00  0.13406429594E+03  0.13406429594E+03  0.00000000000E+00 0. -1.
          2   -1    0    0  501    0  0.00000000000E+00 -0.00000000000E+00 -0.92364389144E+02  0.92364389144E+02  0.00000000000E+00 0.  1.
         25    2    1    2    0    0  0.13184485163E+02 -0.19450837325E+02  0.36596614066E+02  0.13242646864E+03  0.12508114052E+03 0.  0.
          5    1    3    3  502    0 -0.29768206332E+02  0.19572931627E+02 -0.27988707671E+02  0.45498196863E+02  0.41800000000E+01 0. -1.
         -5    1    3    3    0  502  0.42952691496E+02 -0.39023768951E+02  0.64585321737E+02  0.86928271775E+02  0.41800000000E+01 0. -1.
        -11    1    1    2    0    0 -0.42519980074E+02  0.39221515323E+02  0.84813072865E+01  0.58465447428E+02  0.00000000000E+00 0.  1.
         11    1    1    2    0    0  0.29335494910E+02 -0.19770677998E+02 -0.33780145527E+01  0.35536769021E+02  0.00000000000E+00 0. -1.
</event>
<event>
 7    1  0.2733606E-009  0.1297604E+03  0.7561462E-02  0.1227812E+00
         -2   -1    0    0    0  501 -0.00000000000E+00  0.00000000000E+00  0.86364054841E+02  0.86364054841E+02  0.00000000000E+00 0.  1.
          2   -1    0    0  501    0  0.00000000000E+00 -0.00000000000E+00 -0.21100912584E+03  0.21100912584E+03  0.00000000000E+00 0. -1.
         25    2    1    2    0    0  0.70158490581E+02 -0.17108762511E+02 -0.33086985438E+02  0.14818177411E+03  0.12509262975E+03 0.  0.
          5    1    3    3  502    0  0.49495216220E+02 -0.70799653730E+02 -0.24298438622E+02  0.89834591981E+02  0.41800000000E+01 0. -1.
         -5    1    3    3    0  502  0.20663274361E+02  0.53690891219E+02 -0.87885468155E+01  0.58347182129E+02  0.41800000000E+01 0. -1.
        -11    1    1    2    0    0  0.19997086585E+02  0.15301254537E+02 -0.33639262430E+02  0.42019184179E+02  0.00000000000E+00 0.  1.
         11    1    1    2    0    0 -0.90155577166E+02  0.18075079738E+01 -0.57918823127E+02  0.10717222239E+03  0.00000000000E+00 0. -1.
</event>
<event>
 7    1  0.2733606E-009  0.7546913E+02  0.7561462E-02  0.1342424E+00
          1   -1    0    0  501    0  0.00000000000E+00  0.00000000000E+00  0.20385649962E+03  0.20385649962E+03  0.00000000000E+00 0. -1.
         -1   -1    0    0    0  501 -0.00000000000E+00 -0.00000000000E+00 -0.67200456356E+02  0.67200456356E+02  0.00000000000E+00 0.  1.
         25    2    1    2    0    0 -0.20564142192E+02  0.28850051409E+02  0.10969569702E+03  0.17010422704E+03  0.12508833959E+03 0.  0.
          5    1    3    3  502    0  0.77876591466E+01  0.65268680580E+02  0.19484635507E+02  0.68686037304E+02  0.41800000000E+01 0. -1.
         -5    1    3    3    0  502 -0.28351801338E+02 -0.36418629171E+02  0.90211061516E+02  0.10141818974E+03  0.41800000000E+01 0. -1.
        -11    1    1    2    0    0  0.20718614354E+02 -0.16782493007E+02  0.60064941184E+02  0.65716894417E+02  0.00000000000E+00 0. -1.
         11    1    1    2    0    0 -0.15447216255E+00 -0.12067558402E+02 -0.33104594946E+02  0.35235834515E+02  0.00000000000E+00 0.  1.
</event>
<event>
 7    1  0.2733606E-009  0.1285919E+03  0.7561462E-02  0.1229560E+00
         -3   -1    0    0    0  501 -0.00000000000E+00  0.00000000000E+00  0.26093044702E+03  0.26093044702E+03  0.00000000000E+00 0.  1.
          3   -1    0    0  501    0  0.00000000000E+00 -0.00000000000E+00 -0.10956255306E+03  0.10956255306E+03  0.00000000000E+00 0. -1.
         25    2    1    2    0    0 -0.76131214671E+02  0.94785527168E+02  0.34218811615E+02  0.17775823923E+03  0.12508719574E+03 0.  0.
          5    1    3    3  502    0 -0.69388835147E+02  0.76769393527E+02  0.78067608962E+02  0.12969338532E+03  0.41800000000E+01 0. -1.
         -5    1    3    3    0  502 -0.67423795240E+01  0.18016133641E+02 -0.43848797347E+02  0.48064853914E+02  0.41800000000E+01 0. -1.
        -11    1    1    2    0    0  0.65194641047E+02 -0.10183871430E+03  0.12778514286E+03  0.17592756375E+03  0.00000000000E+00 0.  1.
         11    1    1    2    0    0  0.10936573624E+02  0.70531871313E+01 -0.10636060507E+02  0.16807197103E+02  0.00000000000E+00 0. -1.
</event>
<event>
 7    1  0.2733606E-009  0.1974735E+03  0.7561462E-02  0.1151888E+00
          1   -1    0    0  501    0  0.00000000000E+00  0.00000000000E+00  0.49059551041E+03  0.49059551041E+03  0.00000000000E+00 0. -1.
         -1   -1    0    0    0  501 -0.00000000000E+00 -0.00000000000E+00 -0.10185010413E+03  0.10185010413E+03  0.00000000000E+00 0.  1.
         25    2    1    2    0    0  0.66802713540E+02 -0.15449623229E+03  0.73677916069E+02  0.22227891699E+03  0.12509113996E+03 0.  0.
          5    1    3    3  502    0 -0.11665487003E+02 -0.11004344651E+03  0.71798264748E+02  0.13197767587E+03  0.41800000000E+01 0.  1.
         -5    1    3    3    0  502  0.78468200543E+02 -0.44452785779E+02  0.18796513212E+01  0.90301241127E+02  0.41800000000E+01 0.  1.
        -11    1    1    2    0    0 -0.82258586203E+02  0.15795282791E+03  0.29520356393E+03  0.34476182359E+03  0.00000000000E+00 0. -1.
         11    1    1    2    0    0  0.15455872664E+02 -0.34565956225E+01  0.19863926287E+02  0.25404873954E+02  0.00000000000E+00 0.  1.
</event>
<event>
 7    1  0.2733606E-009  0.1218488E+03  0.7561462E-02  0.1240078E+00
          1   -1    0    0  501    0  0.00000000000E+00  0.00000000000E+00  0.18126139402E+03  0.18126139402E+03  0.00000000000E+00 0. -1.
         -1   -1    0    0    0  501 -0.00000000000E+00 -0.00000000000E+00 -0.84662467987E+02  0.84662467987E+02  0.00000000000E+00 0.  1.
         25    2    1    2    0    0  0.15733355919E+02  0.57918826449E+02  0.48979332524E+02  0.14713459400E+03  0.12508990684E+03 0.  0.
          5    1    3    3  502    0  0.27428801996E+02  0.94386361083E+02  0.45683851036E+02  0.10846940114E+03  0.41800000000E+01 0. -1.
         -5    1    3    3    0  502 -0.11695446077E+02 -0.36467534634E+02  0.32954814875E+01  0.38665192867E+02  0.41800000000E+01 0. -1.
        -11    1    1    2    0    0 -0.41124605077E+02 -0.68004459082E+02  0.45037175417E+02  0.91346520280E+02  0.00000000000E+00 0. -1.
         11    1    1    2    0    0  0.25391249158E+02  0.10085632633E+02  0.25824180926E+01  0.27442747723E+02  0.00000000000E+00 0.  1.
</event>
<event>
 7    1  0.2733606E-009  0.1522384E+03  0.7561462E-02  0.1197749E+00
         -1   -1    0    0    0  501 -0.00000000000E+00  0.00000000000E+00  0.15579407190E+03  0.15579407190E+03  0.00000000000E+00 0.  1.
          1   -1    0    0  501    0  0.00000000000E+00 -0.00000000000E+00 -0.27058735243E+03  0.27058735243E+03  0.00000000000E+00 0. -1.
         25    2    1    2    0    0 -0.10886692667E+03  0.34875369520E+02  0.75255766946E+02  0.18541810042E+03  0.12509253528E+03 0.  0.
          5    1    3    3  502    0  0.50013109750E+01  0.50810445941E+02  0.71650754284E+01  0.51725479544E+02  0.41800000000E+01 0.  1.
         -5    1    3    3    0  502 -0.11386823764E+03 -0.15935076421E+02  0.68090691518E+02  0.13369262087E+03  0.41800000000E+01 0.  1.
        -11    1    1    2    0    0  0.45050669496E+02 -0.55173335526E+02 -0.54201402371E+02  0.89506713681E+02  0.00000000000E+00 0.  1.
         11    1    1    2    0    0  0.63816257171E+02  0.20297966005E+02 -0.13584764511E+03  0.15145661024E+03  0.00000000000E+00 0. -1.
</event>
<event>
 7    1  0.2733606E-009  0.1587850E+03  0.7561462E-02  0.1190075E+00
         -2   -1    0    0    0  501 -0.00000000000E+00  0.00000000000E+00  0.15600979430E+03  0.15600979430E+03  0.00000000000E+00 0. -1.
          2   -1    0    0  501    0  0.00000000000E+00 -0.00000000000E+00 -0.19481717743E+03  0.19481717743E+03  0.00000000000E+00 0.  1.
         25    2    1    2    0    0 -0.51535771749E+02 -0.12034433582E+03 -0.56447466893E+02  0.18966189253E+03  0.12508645821E+03 0.  0.
          5    1    3    3  502    0  0.22968256781E+02 -0.33504461755E+01 -0.44524244087E+02  0.50384988049E+02  0.41800000000E+01 0. -1.
         -5    1    3    3    0  502 -0.74504028531E+02 -0.11699388964E+03 -0.11923222807E+02  0.13927690448E+03  0.41800000000E+01 0. -1.
        -11    1    1    2    0    0 -0.21452252753E+02  0.47406789232E+02 -0.12796040130E+02  0.53584899519E+02  0.00000000000E+00 0.  1.
         11    1    1    2    0    0  0.72988024502E+02  0.72937546584E+02  0.30436123900E+02  0.10758017968E+03  0.00000000000E+00 0. -1.
</event>
<event>
 7    1  0.2733606E-009  0.8136337E+02  0.7561462E-02  0.1325226E+00
         -1   -1    0    0    0  501 -0.00000000000E+00  0.00000000000E+00  0.55183741451E+03  0.55183741451E+03  0.00000000000E+00 0.  1.
          1   -1    0    0  501    0  0.00000000000E+00 -0.00000000000E+00 -0.31138145242E+02  0.31138145242E+02  0.00000000000E+00 0. -1.
         25    2    1    2    0    0  0.48367155640E+02 -0.23086136553E+02  0.39862384717E+03  0.42121300544E+03  0.12508826073E+03 0.  0.
          5    1    3    3  502    0  0.36739061923E+02 -0.92770137134E+01  0.21762729712E+02  0.43896588238E+02  0.41800000000E+01 0.  1.
         -5    1    3    3    0  502  0.11628093717E+02 -0.13809122839E+02  0.37686111746E+03  0.37731641720E+03  0.41800000000E+01 0.  1.
        -11    1    1    2    0    0  0.12918754729E+02  0.40379022911E+02  0.51494061036E+02  0.66700809868E+02  0.00000000000E+00 0. -1.
         11    1    1    2    0    0 -0.61285910368E+02 -0.17292886358E+02  0.70581361067E+02  0.95061744452E+02  0.00000000000E+00 0.  1.
</event>
<event>
 7    1  0.2733606E-009  0.8851913E+02  0.7561462E-02  0.1306478E+00
          1   -1    0    0  501    0  0.00000000000E+00  0.00000000000E+00  0.55364468467E+02  0.55364468467E+02  0.00000000000E+00 0.  1.
         -1   -1    0    0    0  501 -0.00000000000E+00 -0.00000000000E+00 -0.24603664327E+03  0.24603664327E+03  0.00000000000E+00 0. -1.
         25    2    1    2    0    0 -0.84491583752E+01 -0.35118793818E+01 -0.52585827372E+02  0.13600155968E+03  0.12508970150E+03 0.  0.
          5    1    3    3  502    0 -0.28093973174E+02  0.55780414279E+02 -0.22204681737E+02  0.66417213408E+02  0.41800000000E+01 0.  1.
         -5    1    3    3    0  502  0.19644814799E+02 -0.59292293661E+02 -0.30381145635E+02  0.69584346272E+02  0.41800000000E+01 0.  1.
        -11    1    1    2    0    0  0.24600277520E+02 -0.13765824225E+02 -0.31033919943E+01  0.28360229416E+02  0.00000000000E+00 0.  1.
         11    1    1    2    0    0 -0.16151119145E+02  0.17277703607E+02 -0.13498295544E+03  0.13703932264E+03  0.00000000000E+00 0. -1.
</event>
<event>
 7    1  0.2733606E-009  0.1030365E+03  0.7561462E-02  0.1274037E+00
          2   -1    0    0  501    0  0.00000000000E+00  0.00000000000E+00  0.72800237473E+03  0.72800237473E+03  0.00000000000E+00 0. -1.
         -2   -1    0    0    0  501 -0.00000000000E+00 -0.00000000000E+00 -0.16292685100E+02  0.16292685100E+02  0.00000000000E+00 0.  1.
         25    2    1    2    0    0 -0.15930308628E+01 -0.19193043480E+01  0.44821112712E+03  0.46534558079E+03  0.12508826326E+03 0.  0.
          5    1    3    3  502    0  0.32209351414E+02 -0.51469740227E+02  0.16612580445E+03  0.17692323698E+03  0.41800000000E+01 0. -1.
         -5    1    3    3    0  502 -0.33802382277E+02  0.49550435879E+02  0.28208532267E+03  0.28842234381E+03  0.41800000000E+01 0. -1.
        -11    1    1    2    0    0  0.17946437053E+02  0.39890490890E+02  0.83492522864E+02  0.94256709260E+02  0.00000000000E+00 0.  1.
         11    1    1    2    0    0 -0.16353406190E+02 -0.37971186542E+02  0.18000603965E+03  0.18469276979E+03  0.00000000000E+00 0. -1.
</event>
<event>
 7    1  0.2733606E-009  0.1289284E+03  0.7561462E-02  0.1229055E+00
         -2   -1    0    0    0  501 -0.00000000000E+00  0.00000000000E+00  0.47609232507E+03  0.47609232507E+03  0.00000000000E+00 0. -1.
          2   -1    0    0  501    0  0.00000000000E+00 -0.00000000000E+00 -0.53285594024E+02  0.53285594024E+02  0.00000000000E+00 0.  1.
         25    2    1    2    0    0 -0.11205601836E+03  0.30935832756E+02  0.21218610903E+03  0.27236717918E+03  0.12508940177E+03 0.  0.
          5    1    3    3  502    0 -0.21729593810E+02  0.36514584964E+02  0.11549677701E+01  0.42711784238E+02  0.41800000000E+01 0. -1.
         -5    1    3    3    0  502 -0.90326424547E+02 -0.55787522075E+01  0.21103114126E+03  0.22965539495E+03  0.41800000000E+01 0. -1.
        -11    1    1    2    0    0  0.30145072048E+02  0.11562016803E+02  0.13165756661E+03  0.13555854988E+03  0.00000000000E+00 0. -1.
         11    1    1    2    0    0  0.81910946309E+02 -0.42497849560E+02  0.78963055411E+02  0.12145219003E+03  0.00000000000E+00 0.  1.
</event>
<event>
 7    1  0.2733606E-009  0.2368674E+03  0.7561462E-02  0.1121897E+00
         -2   -1    0    0    0  501 -0.00000000000E+00  0.00000000000E+00  0.20941608268E+03  0.20941608268E+03  0.00000000000E+00 0. -1.
          2   -1    0    0  501    0  0.00000000000E+00 -0.00000000000E+00 -0.28677985738E+03  0.28677985738E+03  0.00000000000E+00 0.  1.
         25    2    1    2    0    0 -0.14004319390E+03 -0.16856335849E+03 -0.30770203039E+02  0.25420392345E+03  0.12508847795E+03 0.  0.
          5    1    3    3  502    0 -0.15886741810E+03 -0.11761836443E+03 -0.20510220186E+02  0.19877393621E+03  0.41800000000E+01 0. -1.
         -5    1    3    3    0  502  0.18824224199E+02 -0.50944994061E+02 -0.10259982853E+02  0.55429987233E+02  0.41800000000E+01 0. -1.
        -11    1    1    2    0    0  0.41101314166E+02  0.28304152900E+02  0.25237052227E+02  0.55922731538E+02  0.00000000000E+00 0. -1.
         11    1    1    2    0    0  0.98941879735E+02  0.14025920559E+03 -0.71830623890E+02  0.18606928507E+03  0.00000000000E+00 0.  1.
</event>
<event>
 7    1  0.2733606E-009  0.9626675E+02  0.7561462E-02  0.1288348E+00
          3   -1    0    0  501    0  0.00000000000E+00  0.00000000000E+00  0.52524139404E+02  0.52524139404E+02  0.00000000000E+00 0. -1.
         -3   -1    0    0    0  501 -0.00000000000E+00 -0.00000000000E+00 -0.28512425656E+03  0.28512425656E+03  0.00000000000E+00 0.  1.
         25    2    1    2    0    0  0.53519405369E+02  0.20085955648E+02 -0.15977092345E+03  0.21081219371E+03  0.12508901099E+03 0.  0.
          5    1    3    3  502    0 -0.67261533636E+01 -0.16603302636E+02  0.14069794306E+02  0.23159065381E+02  0.41800000000E+01 0.  1.
         -5    1    3    3    0  502  0.60245558732E+02  0.36689258284E+02 -0.17384071776E+03  0.18765312833E+03  0.41800000000E+01 0.  1.
        -11    1    1    2    0    0  0.18066667130E+02  0.15251514624E+02 -0.12303988863E+02  0.26653354412E+02  0.00000000000E+00 0.  1.
         11    1    1    2    0    0 -0.71586072498E+02 -0.35337470272E+02 -0.60525204841E+02  0.10018284784E+03  0.00000000000E+00 0. -1.
</event>
<event>
 7    1  0.2733606E-009  0.1040953E+03  0.7561462E-02  0.1271912E+00
          2   -1    0    0  501    0  0.00000000000E+00  0.00000000000E+00  0.13602184912E+03  0.13602184912E+03  0.00000000000E+00 0. -1.
         -2   -1    0    0    0  501 -0.00000000000E+00 -0.00000000000E+00 -0.11884672153E+03  0.11884672153E+03  0.00000000000E+00 0.  1.
         25    2    1    2    0    0  0.54897960160E+02  0.33495168382E+02  0.14857348958E+02  0.14143018905E+03  0.12508415256E+03 0.  0.
          5    1    3    3  502    0  0.19292222939E+02 -0.24342860199E+02 -0.42242850957E+02  0.52599387502E+02  0.41800000000E+01 0.  1.
         -5    1    3    3    0  502  0.35605737221E+02  0.57838028581E+02  0.57100199914E+02  0.88830801547E+02  0.41800000000E+01 0.  1.
        -11    1    1    2    0    0 -0.79183370305E+02 -0.27048674810E+02 -0.11979607614E+02  0.84528976927E+02  0.00000000000E+00 0.  1.
         11    1    1    2    0    0  0.24285410145E+02 -0.64464935719E+01  0.14297386239E+02  0.28909404673E+02  0.00000000000E+00 0. -1.
</event>
<event>
 7    1  0.2733606E-009  0.1072122E+03  0.7561462E-02  0.1265821E+00
          1   -1    0    0  501    0  0.00000000000E+00  0.00000000000E+00  0.28384694492E+03  0.28384694492E+03  0.00000000000E+00 0. -1.
         -1   -1    0    0    0  501 -0.00000000000E+00 -0.00000000000E+00 -0.50102284551E+02  0.50102284551E+02  0.00000000000E+00 0.  1.
         25    2    1    2    0    0 -0.30236968903E+02 -0.23402949598E+02  0.97823917800E+02  0.16333774686E+03  0.12509088023E+03 0.  0.
          5    1    3    3  502    0 -0.43520965757E+02  0.38983601575E+02  0.75653240366E+02  0.95680096311E+02  0.41800000000E+01 0.  1.
         -5    1    3    3    0  502  0.13283996853E+02 -0.62386551173E+02  0.22170677434E+02  0.67657650547E+02  0.41800000000E+01 0.  1.
        -11    1    1    2    0    0  0.52829659952E+02 -0.77996914466E+01  0.38450582463E+02  0.65804676498E+02  0.00000000000E+00 0.  1.
         11    1    1    2    0    0 -0.22592691049E+02  0.31202641045E+02  0.97470160110E+02  0.10480680612E+03  0.00000000000E+00 0. -1.
</event>
<event>
 7    1  0.2733606E-009  0.1748640E+03  0.7561462E-02  0.1172868E+00
         -1   -1    0    0    0  501 -0.00000000000E+00  0.00000000000E+00  0.48143666440E+02  0.48143666440E+02  0.00000000000E+00 0. -1.
          1   -1    0    0  501    0  0.00000000000E+00 -0.00000000000E+00 -0.73047223132E+03  0.73047223132E+03  0.00000000000E+00 0.  1.
         25    2    1    2    0    0 -0.11151914719E+03  0.82479060368E+02 -0.49045514390E+03  0.52481596349E+03  0.12508489822E+03 0.  0.
          5    1    3    3  502    0 -0.12695909035E+03  0.10079850831E+03 -0.43586732554E+03  0.46505563944E+03  0.41800000000E+01 0. -1.
         -5    1    3    3    0  502  0.15439943156E+02 -0.18319447937E+02 -0.54587818364E+02  0.59760324054E+02  0.41800000000E+01 0. -1.
        -11    1    1    2    0    0  0.58015904387E+02 -0.92134417405E+02 -0.10463356314E+03  0.15100588918E+03  0.00000000000E+00 0.  1.
         11    1    1    2    0    0  0.53503242804E+02  0.96553570363E+01 -0.87239857844E+02  0.10279404509E+03  0.00000000000E+00 0. -1.
</event>
<event>
 7    1  0.2733606E-009  0.1182863E+03  0.7561462E-02  0.1245951E+00
          2   -1    0    0  501    0  0.00000000000E+00  0.00000000000E+00  0.38717252032E+03  0.38717252032E+03  0.00000000000E+00 0.  1.
         -2   -1    0    0    0  501 -0.00000000000E+00 -0.00000000000E+00 -0.44626479340E+02  0.44626479340E+02  0.00000000000E+00 0. -1.
         25    2    1    2    0    0  0.30538098546E+01  0.70343069388E+02  0.24043891043E+03  0.28002758523E+03  0.12508839146E+03 0.  0.
          5    1    3    3  502    0  0.53583691820E+02  0.13078765868E+02  0.49081414080E+02  0.73950819832E+02  0.41800000000E+01 0.  1.
         -5    1    3    3    0  502 -0.50529881966E+02  0.57264303520E+02  0.19135749635E+03  0.20607676540E+03  0.41800000000E+01 0.  1.
        -11    1    1    2    0    0  0.33840931474E+02 -0.55501346823E+02  0.35161956448E+02  0.73905150859E+02  0.00000000000E+00 0. -1.
         11    1    1    2    0    0 -0.36894741329E+02 -0.14841722565E+02  0.66945174108E+02  0.77866263573E+02  0.00000000000E+00 0.  1.
</event>
<event>
 7    1  0.2733606E-009  0.1295847E+03  0.7561462E-02  0.1228073E+00
          1   -1    0    0  501    0  0.00000000000E+00  0.00000000000E+00  0.29078498748E+03  0.29078498748E+03  0.00000000000E+00 0. -1.
         -1   -1    0    0    0  501 -0.00000000000E+00 -0.00000000000E+00 -0.63346281788E+02  0.63346281788E+02  0.00000000000E+00 0.  1.
         25    2    1    2    0    0  0.25658158904E+02 -0.73666084949E+02  0.10042941692E+03  0.17837885227E+03  0.12509162228E+03 0.  0.
          5    1    3    3  502    0 -0.12037898207E+02 -0.95779690631E+02  0.42159328941E+02  0.10542078328E+03  0.41800000000E+01 0. -1.
         -5    1    3    3    0  502  0.37696057110E+02  0.22113605681E+02  0.58270087978E+02  0.72958068991E+02  0.41800000000E+01 0. -1.
        -11    1    1    2    0    0 -0.51712123416E+02  0.76602844986E+02  0.11313804523E+03  0.14609023529E+03  0.00000000000E+00 0.  1.
         11    1    1    2    0    0  0.26053964512E+02 -0.29367600371E+01  0.13871243545E+02  0.29662181710E+02  0.00000000000E+00 0. -1.
</event>
<event>
 7    1  0.2733606E-009  0.1080792E+03  0.7561462E-02  0.1264169E+00
         -2   -1    0    0    0  501 -0.00000000000E+00  0.00000000000E+00  0.29562560801E+02  0.29562560801E+02  0.00000000000E+00 0.  1.
          2   -1    0    0  501    0  0.00000000000E+00 -0.00000000000E+00 -0.59848933128E+03  0.59848933128E+03  0.00000000000E+00 0. -1.
         25    2    1    2    0    0  0.58044100529E+02 -0.49598828116E+02 -0.31804139075E+03  0.35018547763E+03  0.12510148344E+03 0.  0.
          5    1    3    3  502    0  0.70195461839E+02 -0.68318753590E+02 -0.31148694083E+03  0.32655235670E+03  0.41800000000E+01 0. -1.
         -5    1    3    3    0  502 -0.12151361310E+02  0.18719925474E+02 -0.65544499153E+01  0.23633120935E+02  0.41800000000E+01 0. -1.
        -11    1    1    2    0    0 -0.30514003544E+02 -0.80213107931E+01 -0.17880406075E+03  0.18156634595E+03  0.00000000000E+00 0. -1.
         11    1    1    2    0    0 -0.27530096984E+02  0.57620138909E+02 -0.72081318981E+02  0.96300068504E+02  0.00000000000E+00 0.  1.
</event>
<event>
 7    1  0.2733606E-009  0.8310783E+02  0.7561462E-02  0.1320456E+00
         -3   -1    0    0    0  501 -0.00000000000E+00  0.00000000000E+00  0.12920503012E+03  0.12920503012E+03  0.00000000000E+00 0.  1.
          3   -1    0    0  501    0  0.00000000000E+00 -0.00000000000E+00 -0.13554521180E+03  0.13554521180E+03  0.00000000000E+00 0. -1.
         25    2    1    2    0    0 -0.17795187263E+02 -0.14142916201E+02 -0.88897464130E+02  0.15512331980E+03  0.12507515520E+03 0.  0.
          5    1    3    3  502    0 -0.44625484328E+02  0.44030633543E+02 -0.46968903837E+02  0.78445400562E+02  0.41800000000E+01 0. -1.
         -5    1    3    3    0  502  0.26830297065E+02 -0.58173549744E+02 -0.41928560293E+02  0.76677919238E+02  0.41800000000E+01 0. -1.
        -11    1    1    2    0    0  0.12950292937E+02  0.24522594542E+02  0.91170659887E+02  0.95295104567E+02  0.00000000000E+00 0.  1.
         11    1    1    2    0    0  0.48448943252E+01 -0.10379678341E+02 -0.86133774337E+01  0.14331817551E+02  0.00000000000E+00 0. -1.
</event>
<event>
 7    1  0.2733606E-009  0.1069564E+03  0.7561462E-02  0.1266312E+00
          1   -1    0    0  501    0  0.00000000000E+00  0.00000000000E+00  0.19309878279E+03  0.19309878279E+03  0.00000000000E+00 0. -1.
         -1   -1    0    0    0  501 -0.00000000000E+00 -0.00000000000E+00 -0.71622867400E+02  0.71622867400E+02  0.00000000000E+00 0.  1.
         25    2    1    2    0    0 -0.36428218682E+02  0.33268484009E+01  0.36550378821E+02  0.13535645713E+03  0.12508939707E+03 0.  0.
          5    1    3    3  502    0 -0.76845568471E+02 -0.32752432645E+01 -0.45792192643E+01  0.77164825284E+02  0.41800000000E+01 0.  1.
         -5    1    3    3    0  502  0.40417349789E+02  0.66020916654E+01  0.41129598085E+02  0.58191631846E+02  0.41800000000E+01 0.  1.
        -11    1    1    2    0    0  0.40840511360E+01  0.40801697427E+02  0.49081858837E+02  0.63956914040E+02  0.00000000000E+00 0. -1.
         11    1    1    2    0    0  0.32344167546E+02 -0.44128545828E+02  0.35843677734E+02  0.65408279022E+02  0.00000000000E+00 0.  1.
</event>
<event>
 7    1  0.2733606E-009  0.2780983E+03  0.7561462E-02  0.1096732E+00
          1   -1    0    0  501    0  0.00000000000E+00  0.00000000000E+00  0.65752964779E+03  0.65752964779E+03  0.00000000000E+00 0. -1.
         -1   -1    0    0    0  501 -0.00000000000E+00 -0.00000000000E+00 -0.23612359862E+03  0.23612359862E+03  0.00000000000E+00 0.  1.
         25    2    1    2    0    0 -0.18540707587E+03 -0.20493804976E+03 -0.80252080890E+02  0.31378887279E+03  0.12509065583E+03 0.  0.
          5    1    3    3  502    0 -0.93895034053E+02 -0.84865879837E+02  0.25813809473E+02  0.12923745641E+03  0.41800000000E+01 0. -1.
         -5    1    3    3    0  502 -0.91512041819E+02 -0.12007216993E+03 -0.10606589036E+03  0.18455141638E+03  0.41800000000E+01 0. -1.
        -11    1    1    2    0    0  0.34500630605E+02  0.20133778549E+02  0.25829692062E+02  0.47569270993E+02  0.00000000000E+00 0.  1.
         11    1    1    2    0    0  0.15090644527E+03  0.18480427122E+03  0.47582843800E+03  0.53229510264E+03  0.00000000000E+00 0. -1.
</event>
<event>
 7    1  0.2733606E-009  0.1910019E+03  0.7561462E-02  0.1157561E+00
         -1   -1    0    0    0  501 -0.00000000000E+00  0.00000000000E+00  0.48919746788E+03  0.48919746788E+03  0.00000000000E+00 0.  1.
          1   -1    0    0  501    0  0.00000000000E+00 -0.00000000000E+00 -0.10203194754E+03  0.10203194754E+03  0.00000000000E+00 0. -1.
         25    2    1    2    0    0 -0.80446445919E+02  0.12438072944E+03  0.22526534610E+03  0.29721080633E+03  0.12509033029E+03 0.  0.
          5    1    3    3  502    0 -0.26027087310E+02  0.11402803296E+03  0.20863997645E+03  0.23922356436E+03  0.41800000000E+01 0.  1.
         -5    1    3    3    0  502 -0.54419358609E+02  0.10352696480E+02  0.16625369654E+02  0.57987241976E+02  0.41800000000E+01 0.  1.
        -11    1    1    2    0    0 -0.43646083600E+02 -0.41225969230E+02 -0.15595725649E+02  0.62030539343E+02  0.00000000000E+00 0. -1.
         11    1    1    2    0    0  0.12409252952E+03 -0.83154760205E+02  0.17749589989E+03  0.23198806974E+03  0.00000000000E+00 0.  1.
</event>
<event>
 7    1  0.2733606E-009  0.1100072E+03  0.7561462E-02  0.1260557E+00
         -2   -1    0    0    0  501 -0.00000000000E+00  0.00000000000E+00  0.70024095439E+02  0.70024095439E+02  0.00000000000E+00 0.  1.
          2   -1    0    0  501    0  0.00000000000E+00 -0.00000000000E+00 -0.21408363650E+03  0.21408363650E+03  0.00000000000E+00 0. -1.
         25    2    1    2    0    0  0.35854445729E+02  0.40831657175E+02 -0.10113688194E+03  0.16978279117E+03  0.12507902215E+03 0.  0.
          5    1    3    3  502    0  0.20941512936E+02 -0.34997665759E+02 -0.79454022585E+02  0.89408040341E+02  0.41800000000E+01 0. -1.
         -5    1    3    3    0  502  0.14912932793E+02  0.75829322934E+02 -0.21682859353E+02  0.80374750829E+02  0.41800000000E+01 0. -1.
        -11    1    1    2    0    0 -0.64330324115E+02 -0.24817653974E+02 -0.13295269767E+02  0.70221583204E+02  0.00000000000E+00 0.  1.
         11    1    1    2    0    0  0.28475878386E+02 -0.16014003201E+02 -0.29627389356E+02  0.44103357564E+02  0.00000000000E+00 0. -1.
</event>
<event>
 7    1  0.3047846E-009  0.1458649E+03  0.7561462E-02  0.1205648E+00
          2   -1    0    0  501    0  0.00000000000E+00  0.00000000000E+00  0.29593856598E+03  0.29593856598E+03  0.00000000000E+00 0. -1.
         -2   -1    0    0    0  501 -0.00000000000E+00 -0.00000000000E+00 -0.81025757470E+02  0.81025757470E+02  0.00000000000E+00 0.  1.
         25    2    1    2    0    0 -0.97358681593E+02  0.50099198835E+02  0.12781288265E+03  0.20969558016E+03  0.12508981079E+03 0.  0.
          5    1    3    3  502    0 -0.11624278659E+03  0.56107867638E+01  0.77985688774E+02  0.14015386693E+03  0.41800000000E+01 0. -1.
         -5    1    3    3    0  502  0.18884104997E+02  0.44488412071E+02  0.49827193873E+02  0.69541713233E+02  0.41800000000E+01 0. -1.
        -11    1    1    2    0    0  0.54441104192E+02 -0.61723267909E+02  0.90923878691E+02  0.12264072465E+03  0.00000000000E+00 0.  1.
         11    1    1    2    0    0  0.42917577401E+02  0.11624069074E+02 -0.38239528294E+01  0.44628018633E+02  0.00000000000E+00 0. -1.
</event>
<event>
 7    1  0.2733606E-009  0.2147712E+03  0.7561462E-02  0.1137842E+00
          2   -1    0    0  501    0  0.00000000000E+00  0.00000000000E+00  0.11871846499E+04  0.11871846499E+04  0.00000000000E+00 0.  1.
         -2   -1    0    0    0  501 -0.00000000000E+00 -0.00000000000E+00 -0.39639255119E+02  0.39639255119E+02  0.00000000000E+00 0. -1.
         25    2    1    2    0    0 -0.18378315006E+03  0.34592925247E+02  0.60353853567E+03  0.64411108777E+03  0.12508961839E+03 0.  0.
          5    1    3    3  502    0 -0.14673520465E+03 -0.26586711076E+02  0.46172565117E+03  0.48522790814E+03  0.41800000000E+01 0.  1.
         -5    1    3    3    0  502 -0.37047945408E+02  0.61179636323E+02  0.14181288449E+03  0.15888317962E+03  0.41800000000E+01 0.  1.
        -11    1    1    2    0    0  0.93062147128E+02  0.29513027184E+02  0.24475245423E+03  0.26350587442E+03  0.00000000000E+00 0.  1.
         11    1    1    2    0    0  0.90721002932E+02 -0.64105952431E+02  0.29925440493E+03  0.31920694288E+03  0.00000000000E+00 0. -1.
</event>
<event>
 7    1  0.2733606E-009  0.1389182E+03  0.7561462E-02  0.1214792E+00
         -1   -1    0    0    0  501 -0.00000000000E+00  0.00000000000E+00  0.72978158463E+03  0.72978158463E+03  0.00000000000E+00 0.  1.
          1   -1    0    0  501    0  0.00000000000E+00 -0.00000000000E+00 -0.37660768770E+02  0.37660768770E+02  0.00000000000E+00 0. -1.
         25    2    1    2    0    0 -0.12358563026E+03 -0.14726244822E+01  0.33298061107E+03  0.37656235198E+03  0.12509013130E+03 0.  0.
          5    1    3    3  502    0  0.15844384401E+01 -0.25800315592E+02  0.15718226108E+03  0.15934836783E+03  0.41800000000E+01 0.  1.
         -5    1    3    3    0  502 -0.12517006870E+03  0.24327691110E+02  0.17579834999E+03  0.21721398415E+03  0.41800000000E+01 0.  1.
        -11    1    1    2    0    0  0.83850194447E+02  0.60745280705E+01  0.33215161443E+03  0.34262581626E+03  0.00000000000E+00 0.  1.
         11    1    1    2    0    0  0.39735435811E+02 -0.46019035883E+01  0.26988590353E+02  0.48254185155E+02  0.00000000000E+00 0. -1.
</event>
<event>
 7    1  0.2733606E-009  0.7100759E+02  0.7561462E-02  0.1356700E+00
          1   -1    0    0  501    0  0.00000000000E+00  0.00000000000E+00  0.53526097524E+03  0.53526097524E+03  0.00000000000E+00 0. -1.
         -1   -1    0    0    0  501 -0.00000000000E+00 -0.00000000000E+00 -0.26882935226E+02  0.26882935226E+02  0.00000000000E+00 0.  1.
         25    2    1    2    0    0 -0.13540076335E+02  0.32881220938E+02  0.37269084428E+03  0.39472852549E+03  0.12509050752E+03 0.  0.
          5    1    3    3  502    0  0.60605158045E+01  0.28382789276E+02  0.93056486739E+01  0.30763291048E+02  0.41800000000E+01 0. -1.
         -5    1    3    3    0  502 -0.19600592139E+02  0.44984316622E+01  0.36338519561E+03  0.36396523445E+03  0.41800000000E+01 0. -1.
        -11    1    1    2    0    0  0.90068935926E+01 -0.62016561647E+02  0.62476992211E+02  0.88490409686E+02  0.00000000000E+00 0. -1.
         11    1    1    2    0    0  0.45331827421E+01  0.29135340709E+02  0.73210203526E+02  0.78924975288E+02  0.00000000000E+00 0.  1.
</event>
<event>
 7    1  0.2733606E-009  0.1222477E+03  0.7561462E-02  0.1239434E+00
         -2   -1    0    0    0  501 -0.00000000000E+00  0.00000000000E+00  0.31640552453E+02  0.31640552453E+02  0.00000000000E+00 0.  1.
          2   -1    0    0  501    0  0.00000000000E+00 -0.00000000000E+00 -0.63998981444E+03  0.63998981444E+03  0.00000000000E+00 0. -1.
         25    2    1    2    0    0  0.67052408482E+02 -0.36840042546E+02 -0.21086948479E+03  0.25683755671E+03  0.12508547759E+03 0.  0.
          5    1    3    3  502    0  0.16789043822E+02 -0.69161367495E+02 -0.55591353399E+02  0.90404854510E+02  0.41800000000E+01 0. -1.
         -5    1    3    3    0  502  0.50263364661E+02  0.32321324950E+02 -0.15527813139E+03  0.16643270220E+03  0.41800000000E+01 0. -1.
        -11    1    1    2    0    0 -0.27965524599E+02  0.61168743890E+02 -0.17245568399E+03  0.18510712773E+03  0.00000000000E+00 0.  1.
         11    1    1    2    0    0 -0.39086883883E+02 -0.24328701345E+02 -0.22502409320E+03  0.22968568245E+03  0.00000000000E+00 0. -1.
</event>
<event>
 7    1  0.2733606E-009  0.1068361E+03  0.7561462E-02  0.1266544E+00
         -1   -1    0    0    0  501 -0.00000000000E+00  0.00000000000E+00  0.29980229342E+03  0.29980229342E+03  0.00000000000E+00 0.  1.
          1   -1    0    0  501    0  0.00000000000E+00 -0.00000000000E+00 -0.50825742579E+02  0.50825742579E+02  0.00000000000E+00 0. -1.
         25    2    1    2    0    0 -0.10427206889E+02  0.49992516805E+02  0.18434479166E+03  0.22856048789E+03  0.12509562756E+03 0.  0.
          5    1    3    3  502    0 -0.63205619421E+02  0.48101616969E+02  0.13183081715E+03  0.15396607624E+03  0.41800000000E+01 0. -1.
         -5    1    3    3    0  502  0.52778412532E+02  0.18908998366E+01  0.52513974508E+02  0.74594411655E+02  0.41800000000E+01 0. -1.
        -11    1    1    2    0    0  0.29497815400E+02 -0.20590278559E+01  0.63972111488E+02  0.70475469188E+02  0.00000000000E+00 0.  1.
         11    1    1    2    0    0 -0.19070608511E+02 -0.47933488949E+02  0.65964769389E+00  0.51592078916E+02  0.00000000000E+00 0. -1.
</event>
<event>
 7    1  0.2733606E-009  0.1156171E+03  0.7561462E-02  0.1250508E+00
          1   -1    0    0  501    0  0.00000000000E+00  0.00000000000E+00  0.44936032210E+02  0.44936032210E+02  0.00000000000E+00 0. -1.
         -1   -1    0    0    0  501 -0.00000000000E+00 -0.00000000000E+00 -0.35372938275E+03  0.35372938275E+03  0.00000000000E+00 0.  1.
         25    2    1    2    0    0 -0.64593702881E+02  0.50263928421E+01 -0.16797364253E+03  0.21922786048E+03  0.12509236248E+03 0.  0.
          5    1    3    3  502    0  0.14417234230E+02 -0.35903063762E+02 -0.99598820471E+02  0.10693121186E+03  0.41800000000E+01 0. -1.
         -5    1    3    3    0  502 -0.79010937111E+02  0.40929456604E+02 -0.68374822057E+02  0.11229664863E+03  0.41800000000E+01 0. -1.
        -11    1    1    2    0    0  0.34335610790E+02  0.37629590319E+02 -0.10296522289E+03  0.11487714029E+03  0.00000000000E+00 0.  1.
         11    1    1    2    0    0  0.30258092092E+02 -0.42655983161E+02 -0.37854485125E+02  0.64560414191E+02  0.00000000000E+00 0. -1.
</event>
<event>
 7    1  0.2733606E-009  0.1034938E+03  0.7561462E-02  0.1273116E+00
         -2   -1    0    0    0  501 -0.00000000000E+00  0.00000000000E+00  0.11933375569E+02  0.11933375569E+02  0.00000000000E+00 0.  1.
          2   -1    0    0  501    0  0.00000000000E+00 -0.00000000000E+00 -0.12120631876E+04  0.12120631876E+04  0.00000000000E+00 0. -1.
         25    2    1    2    0    0  0.23989294498E+02  0.27898956412E+02 -0.86296312364E+03  0.87275823046E+03  0.12509091912E+03 0.  0.
          5    1    3    3  502    0  0.39079962818E+02  0.63186577187E+02 -0.74344258127E+03  0.74715736701E+03  0.41800000000E+01 0.  1.
         -5    1    3    3    0  502 -0.15090668320E+02 -0.35287620774E+02 -0.11952054237E+03  0.12560086345E+03  0.41800000000E+01 0.  1.
        -11    1    1    2    0    0  0.25451921730E+02  0.14100523674E+02 -0.15873631878E+03  0.16138105214E+03  0.00000000000E+00 0. -1.
         11    1    1    2    0    0 -0.49441216229E+02 -0.41999480086E+02 -0.17843036962E+03  0.18985728059E+03  0.00000000000E+00 0.  1.
</event>
<event>
 7    1  0.2733606E-009  0.9188101E+02  0.7561462E-02  0.1298359E+00
         -2   -1    0    0    0  501 -0.00000000000E+00  0.00000000000E+00  0.14711852669E+02  0.14711852669E+02  0.00000000000E+00 0.  1.
          2   -1    0    0  501    0  0.00000000000E+00 -0.00000000000E+00 -0.10165778516E+04  0.10165778516E+04  0.00000000000E+00 0. -1.
         25    2    1    2    0    0 -0.22279709884E+02  0.79317647917E+01 -0.76608237427E+03  0.77658809035E+03  0.12509020566E+03 0.  0.
          5    1    3    3  502    0 -0.47169339510E+02  0.44028803763E+02 -0.63542841704E+03  0.63870981496E+03  0.41800000000E+01 0. -1.
         -5    1    3    3    0  502  0.24889629626E+02 -0.36097038971E+02 -0.13065395723E+03  0.13787827539E+03  0.41800000000E+01 0. -1.
        -11    1    1    2    0    0  0.49045308024E+01 -0.39081880478E+02 -0.20120299370E+03  0.20502217558E+03  0.00000000000E+00 0. -1.
         11    1    1    2    0    0  0.17375179082E+02  0.31150115686E+02 -0.34580630953E+02  0.49679438327E+02  0.00000000000E+00 0.  1.
</event>
<event>
 7    1  0.2733606E-009  0.1244843E+03  0.7561462E-02  0.1235877E+00
         -2   -1    0    0    0  501 -0.00000000000E+00  0.00000000000E+00  0.58176035789E+02  0.58176035789E+02  0.00000000000E+00 0.  1.
          2   -1    0    0  501    0  0.00000000000E+00 -0.00000000000E+00 -0.46942950245E+03  0.46942950245E+03  0.00000000000E+00 0. -1.
         25    2    1    2    0    0 -0.29634058824E+02  0.83242608908E+02 -0.36139469190E+03  0.39250599082E+03  0.12508924861E+03 0.  0.
          5    1    3    3  502    0 -0.34823417952E+02  0.10437171710E+03 -0.18931782816E+03  0.21900876290E+03  0.41800000000E+01 0. -1.
         -5    1    3    3    0  502  0.51893591285E+01 -0.21129108194E+02 -0.17207686374E+03  0.17349722792E+03  0.41800000000E+01 0. -1.
        -11    1    1    2    0    0 -0.22397005702E+02 -0.50464751420E+02  0.11182867838E+01  0.55222889870E+02  0.00000000000E+00 0.  1.
         11    1    1    2    0    0  0.52031064525E+02 -0.32777857487E+02 -0.50977061543E+02  0.79876657545E+02  0.00000000000E+00 0. -1.
</event>
<event>
 7    1  0.2733606E-009  0.6937453E+02  0.7561462E-02  0.1362233E+00
         -2   -1    0    0    0  501 -0.00000000000E+00  0.00000000000E+00  0.10049282056E+03  0.10049282056E+03  0.00000000000E+00 0.  1.
          2   -1    0    0  501    0  0.00000000000E+00 -0.00000000000E+00 -0.15789526635E+03  0.15789526635E+03  0.00000000000E+00 0. -1.
         25    2    1    2    0    0  0.32635973777E+00  0.29269197355E+02  0.25974856551E+02  0.13106660504E+03  0.12508784657E+03 0.  0.
          5    1    3    3  502    0 -0.36677682231E+02  0.32836910303E+02 -0.34286342444E+02  0.60137681451E+02  0.41800000000E+01 0. -1.
         -5    1    3    3    0  502  0.37004041969E+02 -0.35677129482E+01  0.60261198995E+02  0.70928923593E+02  0.41800000000E+01 0. -1.
        -11    1    1    2    0    0 -0.20202596963E+02 -0.54793346320E+01 -0.92633204566E+02  0.94968829730E+02  0.00000000000E+00 0. -1.
         11    1    1    2    0    0  0.19876237225E+02 -0.23789862723E+02  0.92559022226E+01  0.32352652141E+02  0.00000000000E+00 0.  1.
</event>
<event>
 7    1  0.2733606E-009  0.1122195E+03  0.7561462E-02  0.1256514E+00
         -1   -1    0    0    0  501 -0.00000000000E+00  0.00000000000E+00  0.26007055162E+02  0.26007055162E+02  0.00000000000E+00 0.  1.
          1   -1    0    0  501    0  0.00000000000E+00 -0.00000000000E+00 -0.72763438788E+03  0.72763438788E+03  0.00000000000E+00 0. -1.
         25    2    1    2    0    0 -0.40832049521E+02  0.63001733330E+02 -0.28602237910E+03  0.32108088276E+03  0.12509059619E+03 0.  0.
          5    1    3    3  502    0 -0.44312978418E+02 -0.19754759507E+02 -0.18001882392E+03  0.18648898076E+03  0.41800000000E+01 0. -1.
         -5    1    3    3    0  502  0.34809288967E+01  0.82756492837E+02 -0.10600355518E+03  0.13459190200E+03  0.41800000000E+01 0. -1.
        -11    1    1    2    0    0  0.16495154657E+02 -0.66233580959E+02 -0.39396485220E+03  0.39983406826E+03  0.00000000000E+00 0. -1.
         11    1    1    2    0    0  0.24336894864E+02  0.32318476294E+01 -0.21640101418E+02  0.32726492023E+02  0.00000000000E+00 0.  1.
</event>
<event>
 7    1  0.2733606E-009  0.2360657E+03  0.7561462E-02  0.1122442E+00
         -2   -1    0    0    0  501 -0.00000000000E+00  0.00000000000E+00  0.94723722748E+03  0.94723722748E+03  0.00000000000E+00 0.  1.
          2   -1    0    0  501    0  0.00000000000E+00 -0.00000000000E+00 -0.73087133413E+02  0.73087133413E+02  0.00000000000E+00 0. -1.
         25    2    1    2    0    0 -0.17663604698E+03 -0.14658132769E+03  0.31509185741E+03  0.40941291072E+03  0.12509865761E+03 0.  0.
          5    1    3    3  502    0 -0.15612226670E+03 -0.12472377600E+03  0.32141740908E+03  0.37849280801E+03  0.41800000000E+01 0. -1.
         -5    1    3    3    0  502 -0.20513780283E+02 -0.21857551690E+02 -0.63255516672E+01  0.30920102705E+02  0.41800000000E+01 0. -1.
        -11    1    1    2    0    0  0.67594391104E+02  0.11779122795E+02  0.21419607874E+03  0.22491711716E+03  0.00000000000E+00 0. -1.
         11    1    1    2    0    0  0.10904165588E+03  0.13480220489E+03  0.34486215792E+03  0.38599433302E+03  0.00000000000E+00 0.  1.
</event>
<event>
 7    1  0.2733606E-009  0.1044029E+03  0.7561462E-02  0.1271300E+00
         -1   -1    0    0    0  501 -0.00000000000E+00  0.00000000000E+00  0.17437968534E+02  0.17437968534E+02  0.00000000000E+00 0.  1.
          1   -1    0    0  501    0  0.00000000000E+00 -0.00000000000E+00 -0.79362001476E+03  0.79362001476E+03  0.00000000000E+00 0. -1.
         25    2    1    2    0    0 -0.18487715258E+02 -0.42572515611E+02 -0.50531397958E+03  0.52263141663E+03  0.12508862853E+03 0.  0.
          5    1    3    3  502    0 -0.71864887034E+02 -0.18741969293E+02 -0.26160173503E+03  0.27197199041E+03  0.41800000000E+01 0. -1.
         -5    1    3    3    0  502  0.53377171775E+02 -0.23830546318E+02 -0.24371224455E+03  0.25065942621E+03  0.41800000000E+01 0. -1.
        -11    1    1    2    0    0 -0.19124782927E+02  0.31068065890E+02 -0.39624194874E+02  0.53861478438E+02  0.00000000000E+00 0.  1.
         11    1    1    2    0    0  0.37612498185E+02  0.11504449720E+02 -0.23124387177E+03  0.23456508823E+03  0.00000000000E+00 0. -1.
</event>
<event>
 7    1  0.2733606E-009  0.1044794E+03  0.7561462E-02  0.1271149E+00
         -1   -1    0    0    0  501 -0.00000000000E+00  0.00000000000E+00  0.12988376233E+03  0.12988376233E+03  0.00000000000E+00 0.  1.
          1   -1    0    0  501    0  0.00000000000E+00 -0.00000000000E+00 -0.15585329290E+03  0.15585329290E+03  0.00000000000E+00 0. -1.
         25    2    1    2    0    0  0.25374068989E+02  0.76779274701E+02  0.35890190241E+02  0.15321360086E+03  0.12508957323E+03 0.  0.
          5    1    3    3  502    0 -0.10544737364E+02  0.70409089799E+02  0.72264036372E+02  0.10152928033E+03  0.41800000000E+01 0.  1.
         -5    1    3    3    0  502  0.35918806354E+02  0.63701849016E+01 -0.36373846131E+02  0.51684320523E+02  0.41800000000E+01 0.  1.
        -11    1    1    2    0    0  0.72000008605E+00  0.10143391367E+02  0.11843859946E+02  0.15610374978E+02  0.00000000000E+00 0.  1.
         11    1    1    2    0    0 -0.26094069075E+02 -0.86922666067E+02 -0.73703580758E+02  0.11691307940E+03  0.00000000000E+00 0. -1.
</event>
<event>
 7    1  0.2733606E-009  0.1157644E+03  0.7561462E-02  0.1250253E+00
         -1   -1    0    0    0  501 -0.00000000000E+00  0.00000000000E+00  0.37200796571E+02  0.37200796571E+02  0.00000000000E+00 0.  1.
          1   -1    0    0  501    0  0.00000000000E+00 -0.00000000000E+00 -0.46131891533E+03  0.46131891533E+03  0.00000000000E+00 0. -1.
         25    2    1    2    0    0  0.60332855247E+02 -0.19935229108E+02 -0.17108378708E+03  0.22125711786E+03  0.12509030027E+03 0.  0.
          5    1    3    3  502    0  0.76660063900E+02 -0.50434679093E+02 -0.73518480410E+02  0.11765569096E+03  0.41800000000E+01 0.  1.
         -5    1    3    3    0  502 -0.16327208653E+02  0.30499449984E+02 -0.97565306670E+02  0.10360142691E+03  0.41800000000E+01 0.  1.
        -11    1    1    2    0    0 -0.33284474461E+02 -0.32060623256E+02 -0.61290943904E+02  0.76761446107E+02  0.00000000000E+00 0.  1.
         11    1    1    2    0    0 -0.27048380786E+02  0.51995852364E+02 -0.19174338777E+03  0.20050114793E+03  0.00000000000E+00 0. -1.
</event>
<event>
 7    1  0.2733606E-009  0.1683523E+03  0.7561462E-02  0.1179577E+00
         -1   -1    0    0    0  501 -0.00000000000E+00  0.00000000000E+00  0.89531135210E+02  0.89531135210E+02  0.00000000000E+00 0.  1.
          1   -1    0    0  501    0  0.00000000000E+00 -0.00000000000E+00 -0.41928308433E+03  0.41928308433E+03  0.00000000000E+00 0. -1.
         25    2    1    2    0    0 -0.15717094774E+03 -0.39582412896E+01 -0.21128535153E+03  0.29156043007E+03  0.12509040781E+03 0.  0.
          5    1    3    3  502    0 -0.71626169989E+02  0.48039839368E+01 -0.18959888257E+03  0.20277720572E+03  0.41800000000E+01 0.  1.
         -5    1    3    3    0  502 -0.85544777746E+02 -0.87622252264E+01 -0.21686468964E+02  0.88783224354E+02  0.41800000000E+01 0.  1.
        -11    1    1    2    0    0  0.13681200374E+03 -0.29104752281E+02 -0.74076208455E+02  0.15827790633E+03  0.00000000000E+00 0.  1.
         11    1    1    2    0    0  0.20358943994E+02  0.33062993570E+02 -0.44390389133E+02  0.58975883137E+02  0.00000000000E+00 0. -1.
</event>
<event>
 7    1  0.2733606E-009  0.1638768E+03  0.7561462E-02  0.1184388E+00
          3   -1    0    0  501    0  0.00000000000E+00  0.00000000000E+00  0.15077477074E+03  0.15077477074E+03  0.00000000000E+00 0. -1.
         -3   -1    0    0    0  501 -0.00000000000E+00 -0.00000000000E+00 -0.18468557011E+03  0.18468557011E+03  0.00000000000E+00 0.  1.
         25    2    1    2    0    0 -0.11691173592E+03 -0.48798211612E+02 -0.48035659522E+01  0.17810638221E+03  0.12509672133E+03 0.  0.
          5    1    3    3  502    0  0.21349210752E+01 -0.54140356773E+02  0.16893506590E+02  0.56908690764E+02  0.41800000000E+01 0.  1.
         -5    1    3    3    0  502 -0.11904665699E+03  0.53421451617E+01 -0.21697072542E+02  0.12119769145E+03  0.41800000000E+01 0.  1.
        -11    1    1    2    0    0  0.12741613576E+03  0.27394284373E+02 -0.28980496835E+02  0.13351100204E+03  0.00000000000E+00 0.  1.
         11    1    1    2    0    0 -0.10504399846E+02  0.21403927239E+02 -0.12673658230E+00  0.23842956602E+02  0.00000000000E+00 0. -1.
</event>
<event>
 7    1  0.2733606E-009  0.7944003E+02  0.7561462E-02  0.1330648E+00
         -2   -1    0    0    0  501 -0.00000000000E+00  0.00000000000E+00  0.27544328447E+02  0.27544328447E+02  0.00000000000E+00 0.  1.
          2   -1    0    0  501    0  0.00000000000E+00 -0.00000000000E+00 -0.45003766095E+03  0.45003766095E+03  0.00000000000E+00 0. -1.
         25    2    1    2    0    0  0.10965402293E+02 -0.18413389957E+02 -0.28656269663E+03  0.31340662702E+03  0.12508493826E+03 0.  0.
          5    1    3    3  502    0  0.38355467814E+02  0.18465457643E+02 -0.28839055790E+02  0.51587581607E+02  0.41800000000E+01 0. -1.
         -5    1    3    3    0  502 -0.27390065521E+02 -0.36878847600E+02 -0.25772364084E+03  0.26181904541E+03  0.41800000000E+01 0. -1.
        -11    1    1    2    0    0  0.23513369890E+02  0.25599432305E+02 -0.12104896238E+03  0.12594070347E+03  0.00000000000E+00 0. -1.
         11    1    1    2    0    0 -0.34478772183E+02 -0.71860423487E+01 -0.14881673490E+02  0.38234658907E+02  0.00000000000E+00 0.  1.
</event>
<event>
 7    1  0.2733606E-009  0.1508478E+03  0.7561462E-02  0.1199435E+00
          1   -1    0    0  501    0  0.00000000000E+00  0.00000000000E+00  0.42472518333E+03  0.42472518333E+03  0.00000000000E+00 0.  1.
         -1   -1    0    0    0  501 -0.00000000000E+00 -0.00000000000E+00 -0.64956977565E+02  0.64956977565E+02  0.00000000000E+00 0. -1.
         25    2    1    2    0    0 -0.11171450295E+03 -0.66536761296E+01  0.28371071238E+03  0.32964216010E+03  0.12509110208E+03 0.  0.
          5    1    3    3  502    0  0.13978396944E+02 -0.32233369561E+02  0.95469235765E+02  0.10181469969E+03  0.41800000000E+01 0. -1.
         -5    1    3    3    0  502 -0.12569289989E+03  0.25579693432E+02  0.18824147662E+03  0.22782746042E+03  0.41800000000E+01 0. -1.
        -11    1    1    2    0    0  0.37156995690E+02 -0.36287902081E+02  0.44506411853E+02  0.68397915627E+02  0.00000000000E+00 0.  1.
         11    1    1    2    0    0  0.74557507260E+02  0.42941578210E+02  0.31551081526E+02  0.91642085165E+02  0.00000000000E+00 0. -1.
</event>
<event>
 7    1  0.2733606E-009  0.8723827E+02  0.7561462E-02  0.1309681E+00
          2   -1    0    0  501    0  0.00000000000E+00  0.00000000000E+00  0.19846504059E+03  0.19846504059E+03  0.00000000000E+00 0. -1.
         -2   -1    0    0    0  501 -0.00000000000E+00 -0.00000000000E+00 -0.70235582565E+02  0.70235582565E+02  0.00000000000E+00 0.  1.
         25    2    1    2    0    0 -0.66699362176E+00  0.10485852649E+02  0.22065389566E+02  0.12744941387E+03  0.12508426637E+03 0.  0.
          5    1    3    3  502    0 -0.32552442042E+02  0.39455300908E+02  0.53362797438E+02  0.74036766562E+02  0.41800000000E+01 0.  1.
         -5    1    3    3    0  502  0.31885448420E+02 -0.28969448259E+02 -0.31297407872E+02  0.53412647312E+02  0.41800000000E+01 0.  1.
        -11    1    1    2    0    0  0.37852957674E+02 -0.18032679461E+02  0.18697308228E+02  0.45908749364E+02  0.00000000000E+00 0.  1.
         11    1    1    2    0    0 -0.37185964053E+02  0.75468268124E+01  0.87466760234E+02  0.95342459918E+02  0.00000000000E+00 0. -1.
</event>
<event>
 7    1  0.2733606E-009  0.1840047E+03  0.7561462E-02  0.1163983E+00
          1   -1    0    0  501    0  0.00000000000E+00  0.00000000000E+00  0.17106836563E+03  0.17106836563E+03  0.00000000000E+00 0. -1.
         -1   -1    0    0    0  501 -0.00000000000E+00 -0.00000000000E+00 -0.20253029881E+03  0.20253029881E+03  0.00000000000E+00 0.  1.
         25    2    1    2    0    0  0.65701740876E+02 -0.13291214978E+03 -0.44469927887E+02  0.19901814521E+03  0.12509312262E+03 0.  0.
          5    1    3    3  502    0  0.39751133157E+02  0.15772999304E+02 -0.11198935208E+02  0.44405277210E+02  0.41800000000E+01 0. -1.
         -5    1    3    3    0  502  0.25950607719E+02 -0.14868514908E+03 -0.33270992680E+02  0.15461286800E+03  0.41800000000E+01 0. -1.
        -11    1    1    2    0    0 -0.88411984209E+02  0.11537769955E+03  0.12357716725E+02  0.14588147816E+03  0.00000000000E+00 0. -1.
         11    1    1    2    0    0  0.22710243333E+02  0.17534450224E+02  0.65027798606E+00  0.28699041070E+02  0.00000000000E+00 0.  1.
</event>
<event>
 7    1  0.2733606E-009  0.1436373E+03  0.7561462E-02  0.1208517E+00
          1   -1    0    0  501    0  0.00000000000E+00  0.00000000000E+00  0.10405040396E+03  0.10405040396E+03  0.00000000000E+00 0. -1.
         -1   -1    0    0    0  501 -0.00000000000E+00 -0.00000000000E+00 -0.29812501423E+03  0.29812501423E+03  0.00000000000E+00 0.  1.
         25    2    1    2    0    0  0.52247020418E+02  0.10999056320E+03 -0.18200109253E+03  0.25218921670E+03  0.12508928093E+03 0.  0.
          5    1    3    3  502    0  0.39065798187E+02 -0.10780733475E+02 -0.92993381581E+02  0.10152636219E+03  0.41800000000E+01 0.  1.
         -5    1    3    3    0  502  0.13181222231E+02  0.12077129668E+03 -0.89007710948E+02  0.15066285451E+03  0.41800000000E+01 0.  1.
        -11    1    1    2    0    0 -0.18010359438E+02 -0.70235157567E+02 -0.47499060602E+02  0.86680512018E+02  0.00000000000E+00 0.  1.
         11    1    1    2    0    0 -0.34236660980E+02 -0.39755405636E+02  0.35425542866E+02  0.63305689473E+02  0.00000000000E+00 0. -1.
</event>
<event>
 7    1  0.4303812E-009  0.8353216E+02  0.7561462E-02  0.1319316E+00
          1   -1    0    0  501    0  0.00000000000E+00  0.00000000000E+00  0.17887218517E+03  0.17887218517E+03  0.00000000000E+00 0. -1.
         -1   -1    0    0    0  501 -0.00000000000E+00 -0.00000000000E+00 -0.11203212278E+03  0.11203212278E+03  0.00000000000E+00 0.  1.
         25    2    1    2    0    0  0.39817587570E+01  0.60648273893E+02 -0.32427767859E+02  0.14280738151E+03  0.12509324744E+03 0.  0.
          5    1    3    3  502    0  0.36692125948E+02  0.44184371271E+02 -0.69684999079E+02  0.90399348824E+02  0.41800000000E+01 0. -1.
         -5    1    3    3    0  502 -0.32710367191E+02  0.16463902622E+02  0.37257231220E+02  0.52408032681E+02  0.41800000000E+01 0. -1.
        -11    1    1    2    0    0 -0.19336292435E+02 -0.50861433310E+02  0.79610850250E+01  0.54992331086E+02  0.00000000000E+00 0.  1.
         11    1    1    2    0    0  0.15354533678E+02 -0.97868405826E+01  0.91306745230E+02  0.93104595362E+02  0.00000000000E+00 0. -1.
</event>
<event>
 7    1  0.2733606E-009  0.8290022E+02  0.7561462E-02  0.1321017E+00
          1   -1    0    0  501    0  0.00000000000E+00  0.00000000000E+00  0.16494375742E+03  0.16494375742E+03  0.00000000000E+00 0. -1.
         -1   -1    0    0    0  501 -0.00000000000E+00 -0.00000000000E+00 -0.73737911896E+02  0.73737911896E+02  0.00000000000E+00 0.  1.
         25    2    1    2    0    0  0.18252509493E+02  0.76217114175E+00  0.55524486954E+02  0.13807408361E+03  0.12509096252E+03 0.  0.
          5    1    3    3  502    0  0.42358309975E+02  0.12829888527E+02 -0.26416037185E+02  0.51711815711E+02  0.41800000000E+01 0.  1.
         -5    1    3    3    0  502 -0.24105800482E+02 -0.12067717386E+02  0.81940524139E+02  0.86362267895E+02  0.41800000000E+01 0.  1.
        -11    1    1    2    0    0  0.24941878338E+02 -0.32135535306E+02  0.15813183745E+02  0.43644549540E+02  0.00000000000E+00 0.  1.
         11    1    1    2    0    0 -0.43194387832E+02  0.31373364164E+02  0.19868174829E+02  0.56963036174E+02  0.00000000000E+00 0. -1.
</event>
<event>
 7    1  0.2733606E-009  0.1049564E+03  0.7561462E-02  0.1270206E+00
         -3   -1    0    0    0  501 -0.00000000000E+00  0.00000000000E+00  0.88222273813E+02  0.88222273813E+02  0.00000000000E+00 0.  1.
          3   -1    0    0  501    0  0.00000000000E+00 -0.00000000000E+00 -0.13814756540E+03  0.13814756540E+03  0.00000000000E+00 0. -1.
         25    2    1    2    0    0 -0.49983166336E+01 -0.20684765897E+02 -0.41694551862E+02  0.13355972693E+03  0.12508765844E+03 0.  0.
          5    1    3    3  502    0  0.11877280157E+02 -0.71552712520E+02 -0.18226808360E+02  0.74903600687E+02  0.41800000000E+01 0.  1.
         -5    1    3    3    0  502 -0.16875596791E+02  0.50867946623E+02 -0.23467743502E+02  0.58656126242E+02  0.41800000000E+01 0.  1.
        -11    1    1    2    0    0  0.33825175582E+02  0.37201696354E+02  0.14766503815E+02  0.52403800909E+02  0.00000000000E+00 0.  1.
         11    1    1    2    0    0 -0.28826858949E+02 -0.16516930457E+02 -0.22997243542E+02  0.40406311377E+02  0.00000000000E+00 0. -1.
</event>
<event>
 7    1  0.2733606E-009  0.9512027E+02  0.7561462E-02  0.1290905E+00
          2   -1    0    0  501    0  0.00000000000E+00  0.00000000000E+00  0.26634245139E+03  0.26634245139E+03  0.00000000000E+00 0. -1.
         -2   -1    0    0    0  501 -0.00000000000E+00 -0.00000000000E+00 -0.45533154197E+02  0.45533154197E+02  0.00000000000E+00 0.  1.
         25    2    1    2    0    0 -0.13290216997E+01  0.11146243732E+02  0.13583310373E+03  0.18499758344E+03  0.12508984276E+03 0.  0.
          5    1    3    3  502    0  0.32534886731E+02  0.58181083206E+02  0.82272096755E+02  0.10597040909E+03  0.41800000000E+01 0. -1.
         -5    1    3    3    0  502 -0.33863908431E+02 -0.47034839474E+02  0.53561006977E+02  0.79027174358E+02  0.41800000000E+01 0. -1.
        -11    1    1    2    0    0 -0.16020572153E+02  0.22420716723E+02 -0.61449923100E+01  0.28233104700E+02  0.00000000000E+00 0.  1.
         11    1    1    2    0    0  0.17349593853E+02 -0.33566960455E+02  0.91121185776E+02  0.98644917448E+02  0.00000000000E+00 0. -1.
</event>
<event>
 7    1  0.2733606E-009  0.2625619E+03  0.7561462E-02  0.1105614E+00
          1   -1    0    0  501    0  0.00000000000E+00  0.00000000000E+00  0.25390153507E+03  0.25390153507E+03  0.00000000000E+00 0. -1.
         -1   -1    0    0    0  501 -0.00000000000E+00 -0.00000000000E+00 -0.31317543985E+03  0.31317543985E+03  0.00000000000E+00 0.  1.
         25    2    1    2    0    0 -0.20457887051E+03 -0.16034798888E+03 -0.42571705772E+02  0.29158779207E+03  0.12508836300E+03 0.  0.
          5    1    3    3  502    0 -0.87620948685E+02 -0.59657008550E+02  0.43698951277E+02  0.11473212305E+03  0.41800000000E+01 0.  1.
         -5    1    3    3    0  502 -0.11695792182E+03 -0.10069098033E+03 -0.86270657049E+02  0.17685566902E+03  0.41800000000E+01 0.  1.
        -11    1    1    2    0    0  0.66437203176E+02  0.83053899471E+02  0.29892994594E+02  0.11047824813E+03  0.00000000000E+00 0. -1.
         11    1    1    2    0    0  0.13814166733E+03  0.77294089408E+02 -0.46595193599E+02  0.16501093472E+03  0.00000000000E+00 0.  1.
</event>
<event>
 7    1  0.2733606E-009  0.1077434E+03  0.7561462E-02  0.1264807E+00
         -1   -1    0    0    0  501 -0.00000000000E+00  0.00000000000E+00  0.29335479963E+02  0.29335479963E+02  0.00000000000E+00 0.  1.
          1   -1    0    0  501    0  0.00000000000E+00 -0.00000000000E+00 -0.54319770378E+03  0.54319770378E+03  0.00000000000E+00 0. -1.
         25    2    1    2    0    0 -0.40817133411E+02 -0.23482982996E+02 -0.18643751800E+03  0.22939628081E+03  0.12508483785E+03 0.  0.
          5    1    3    3  502    0 -0.50022832505E+02 -0.65580086403E+02 -0.15587459314E+03  0.17640122644E+03  0.41800000000E+01 0.  1.
         -5    1    3    3    0  502  0.92056990942E+01  0.42097103407E+02 -0.30562924859E+02  0.52995054364E+02  0.41800000000E+01 0.  1.
        -11    1    1    2    0    0  0.46416051319E+02 -0.16478690642E+02 -0.25947762122E+03  0.26411102397E+03  0.00000000000E+00 0. -1.
         11    1    1    2    0    0 -0.55989179085E+01  0.39961673637E+02 -0.67947084600E+02  0.79025878972E+02  0.00000000000E+00 0.  1.
</event>
<event>
 7    1  0.2733606E-009  0.1219267E+03  0.7561462E-02  0.1239952E+00
          1   -1    0    0  501    0  0.00000000000E+00  0.00000000000E+00  0.42572272242E+03  0.42572272242E+03  0.00000000000E+00 0.  1.
         -1   -1    0    0    0  501 -0.00000000000E+00 -0.00000000000E+00 -0.59232583452E+02  0.59232583452E+02  0.00000000000E+00 0. -1.
         25    2    1    2    0    0 -0.10823393354E+03 -0.35829135621E+02  0.22893369267E+03  0.28470400861E+03  0.12508967003E+03 0.  0.
          5    1    3    3  502    0 -0.55183353522E+02 -0.21058007012E-03  0.21093567832E+03  0.21807460946E+03  0.41800000000E+01 0.  1.
         -5    1    3    3    0  502 -0.53050580015E+02 -0.35828925041E+02  0.17998014357E+02  0.66629399144E+02  0.41800000000E+01 0.  1.
        -11    1    1    2    0    0  0.61961234398E+02 -0.56482519631E+01  0.16804002017E+02  0.64447434411E+02  0.00000000000E+00 0. -1.
         11    1    1    2    0    0  0.46272699140E+02  0.41477387584E+02  0.12075244428E+03  0.13580386285E+03  0.00000000000E+00 0.  1.
</event>
<event>
 7    1  0.2733606E-009  0.1541973E+03  0.7561462E-02  0.1195408E+00
          4   -1    0    0  501    0  0.00000000000E+00  0.00000000000E+00  0.76905488233E+03  0.76905488233E+03  0.00000000000E+00 0. -1.
         -4   -1    0    0    0  501 -0.00000000000E+00 -0.00000000000E+00 -0.36007118812E+02  0.36007118812E+02  0.00000000000E+00 0.  1.
         25    2    1    2    0    0  0.86127694801E+02  0.90609237615E+02  0.33729284232E+03  0.38084386452E+03  0.12509026304E+03 0.  0.
          5    1    3    3  502    0  0.94147720243E+02  0.11035356890E+03  0.32490881358E+03  0.35584394464E+03  0.41800000000E+01 0.  1.
         -5    1    3    3    0  502 -0.80200254420E+01 -0.19744331288E+02  0.12384028744E+02  0.24999919880E+02  0.41800000000E+01 0.  1.
        -11    1    1    2    0    0 -0.11160676080E+02 -0.59260167413E+02  0.25172960314E+03  0.25885154284E+03  0.00000000000E+00 0.  1.
         11    1    1    2    0    0 -0.74967018721E+02 -0.31349070202E+02  0.14402531806E+03  0.16536659378E+03  0.00000000000E+00 0. -1.
</event>
<event>
 7    1  0.2733606E-009  0.7299470E+02  0.7561462E-02  0.1350196E+00
          1   -1    0    0  501    0  0.00000000000E+00  0.00000000000E+00  0.18498680191E+03  0.18498680191E+03  0.00000000000E+00 0. -1.
         -1   -1    0    0    0  501 -0.00000000000E+00 -0.00000000000E+00 -0.66750206747E+02  0.66750206747E+02  0.00000000000E+00 0.  1.
         25    2    1    2    0    0  0.21201308640E+02 -0.92368779336E+01  0.62470622622E+02  0.14172124858E+03  0.12509004039E+03 0.  0.
          5    1    3    3  502    0  0.19657383154E+02  0.23459508231E+02 -0.30291590210E+02  0.43264466671E+02  0.41800000000E+01 0. -1.
         -5    1    3    3    0  502  0.15439254859E+01 -0.32696386165E+02  0.92762212831E+02  0.98456781907E+02  0.41800000000E+01 0. -1.
        -11    1    1    2    0    0 -0.50900851531E+02  0.11925232689E+02  0.68493379230E+01  0.52725907211E+02  0.00000000000E+00 0.  1.
         11    1    1    2    0    0  0.29699542891E+02 -0.26883547550E+01  0.48916634616E+02  0.57289852866E+02  0.00000000000E+00 0. -1.
</event>
<event>
 7    1  0.2733606E-009  0.3519934E+03  0.7561462E-02  0.1061800E+00
          1   -1    0    0  501    0  0.00000000000E+00  0.00000000000E+00  0.35986245334E+03  0.35986245334E+03  0.00000000000E+00 0. -1.
         -1   -1    0    0    0  501 -0.00000000000E+00 -0.00000000000E+00 -0.36787934514E+03  0.36787934514E+03  0.00000000000E+00 0.  1.
         25    2    1    2    0    0  0.32178405785E+03  0.11432830858E+03  0.56951487675E+02  0.36811600034E+03  0.12509986303E+03 0.  0.
          5    1    3    3  502    0  0.23168977711E+03  0.36991282401E+02 -0.37658477009E+01  0.23469163130E+03  0.41800000000E+01 0. -1.
         -5    1    3    3    0  502  0.90094280734E+02  0.77337026179E+02  0.60717335376E+02  0.13342436904E+03  0.41800000000E+01 0. -1.
        -11    1    1    2    0    0 -0.77173484411E+02  0.69608127730E+01 -0.34771834379E+02  0.84931031295E+02  0.00000000000E+00 0.  1.
         11    1    1    2    0    0 -0.24461057343E+03 -0.12128912135E+03 -0.30196545097E+02  0.27469476684E+03  0.00000000000E+00 0. -1.
</event>
<event>
 7    1  0.2733606E-009  0.1383217E+03  0.7561462E-02  0.1215605E+00
          1   -1    0    0  501    0  0.00000000000E+00  0.00000000000E+00  0.91387072797E+02  0.91387072797E+02  0.00000000000E+00 0. -1.
         -1   -1    0    0    0  501 -0.00000000000E+00 -0.00000000000E+00 -0.28275239491E+03  0.28275239491E+03  0.00000000000E+00 0.  1.
         25    2    1    2    0    0 -0.50538852666E+02 -0.70685467174E+02 -0.19148558069E+03  0.24467415800E+03  0.12509238619E+03 0.  0.
          5    1    3    3  502    0 -0.17322347575E+02 -0.10139070904E+03 -0.10536620961E+03  0.14730801110E+03  0.41800000000E+01 0. -1.
         -5    1    3    3    0  502 -0.33216505090E+02  0.30705241867E+02 -0.86119371075E+02  0.97366146903E+02  0.41800000000E+01 0. -1.
        -11    1    1    2    0    0  0.72198117088E+02  0.22795408816E+02 -0.85580005317E+01  0.76193425879E+02  0.00000000000E+00 0.  1.
         11    1    1    2    0    0 -0.21659264422E+02  0.47890058358E+02  0.86782591107E+01  0.53271883823E+02  0.00000000000E+00 0. -1.
</event>
<event>
 7    1  0.2733606E-009  0.9574431E+02  0.7561462E-02  0.1289508E+00
         -2   -1    0    0    0  501 -0.00000000000E+00  0.00000000000E+00  0.41243678253E+02  0.41243678253E+02  0.00000000000E+00 0. -1.
          2   -1    0    0  501    0  0.00000000000E+00 -0.00000000000E+00 -0.35529132917E+03  0.35529132917E+03  0.00000000000E+00 0.  1.
         25    2    1    2    0    0  0.36029716386E+02  0.15025391157E+02 -0.23118602104E+03  0.26574108928E+03  0.12508975723E+03 0.  0.
          5    1    3    3  502    0  0.19416552267E+02 -0.37840263592E+02 -0.19667786027E+02  0.47044471066E+02  0.41800000000E+01 0.  1.
         -5    1    3    3    0  502  0.16613164119E+02  0.52865654749E+02 -0.21151823501E+03  0.21869661821E+03  0.41800000000E+01 0.  1.
        -11    1    1    2    0    0 -0.62174093970E+02 -0.22284783322E+02 -0.79649229075E+02  0.10347091002E+03  0.00000000000E+00 0.  1.
         11    1    1    2    0    0  0.26144377584E+02  0.72593921653E+01 -0.32124007995E+01  0.27323008120E+02  0.00000000000E+00 0. -1.
</event>
<event>
 7    1  0.2733606E-009  0.1083283E+03  0.7561462E-02  0.1263697E+00
          1   -1    0    0  501    0  0.00000000000E+00  0.00000000000E+00  0.78240109925E+02  0.78240109925E+02  0.00000000000E+00 0. -1.
         -1   -1    0    0    0  501 -0.00000000000E+00 -0.00000000000E+00 -0.17861426090E+03  0.17861426090E+03  0.00000000000E+00 0.  1.
         25    2    1    2    0    0 -0.40567051749E+02 -0.30938966428E+01 -0.87535374780E+02  0.15800276974E+03  0.12508867065E+03 0.  0.
          5    1    3    3  502    0  0.29998717304E+02 -0.32022652259E+02 -0.64690633798E+02  0.78279778991E+02  0.41800000000E+01 0.  1.
         -5    1    3    3    0  502 -0.70565769053E+02  0.28928755617E+02 -0.22844740981E+02  0.79722990750E+02  0.41800000000E+01 0.  1.
        -11    1    1    2    0    0  0.22905961016E+02 -0.41961255077E+02 -0.15849552766E+02  0.50365050389E+02  0.00000000000E+00 0.  1.
         11    1    1    2    0    0  0.17661090733E+02  0.45055151720E+02  0.30107765754E+01  0.48486550692E+02  0.00000000000E+00 0. -1.
</event>
<event>
 7    1  0.2733606E-009  0.9148513E+02  0.7561462E-02  0.1299295E+00
          2   -1    0    0  501    0  0.00000000000E+00  0.00000000000E+00  0.24858953244E+02  0.24858953244E+02  0.00000000000E+00 0.  1.
         -2   -1    0    0    0  501 -0.00000000000E+00 -0.00000000000E+00 -0.49835643760E+03  0.49835643760E+03  0.00000000000E+00 0. -1.
         25    2    1    2    0    0 -0.22487849801E+01 -0.15208879487E+02 -0.31913950609E+03  0.34312407158E+03  0.12509091535E+03 0.  0.
          5    1    3    3  502    0  0.34576193009E+00 -0.62053702518E+02 -0.91331583697E+02  0.11049756616E+03  0.41800000000E+01 0. -1.
         -5    1    3    3    0  502 -0.25945469101E+01  0.46844823031E+02 -0.22780792239E+03  0.23262650542E+03  0.41800000000E+01 0. -1.
        -11    1    1    2    0    0  0.64241754323E+01  0.44057450259E+02 -0.33367891095E+02  0.55639420463E+02  0.00000000000E+00 0.  1.
         11    1    1    2    0    0 -0.41753904522E+01 -0.28848570772E+02 -0.12099008717E+03  0.12445189880E+03  0.00000000000E+00 0. -1.
</event>
<event>
 7    1  0.2733606E-009  0.1197048E+03  0.7561462E-02  0.1243585E+00
          4   -1    0    0  501    0  0.00000000000E+00  0.00000000000E+00  0.23172767736E+03  0.23172767736E+03  0.00000000000E+00 0. -1.
         -4   -1    0    0    0  501 -0.00000000000E+00 -0.00000000000E+00 -0.80718226593E+02  0.80718226593E+02  0.00000000000E+00 0.  1.
         25    2    1    2    0    0  0.74017671841E+02  0.29251215686E+02  0.11210353912E+03  0.18587481832E+03  0.12509194714E+03 0.  0.
          5    1    3    3  502    0  0.41536704419E+02 -0.48441475184E+02  0.47733802633E+02  0.79798888750E+02  0.41800000000E+01 0.  1.
         -5    1    3    3    0  502  0.32480967422E+02  0.77692690869E+02  0.64369736491E+02  0.10607592957E+03  0.41800000000E+01 0.  1.
        -11    1    1    2    0    0 -0.74869502622E+02 -0.14361179537E+02  0.62553237405E+02  0.98613353104E+02  0.00000000000E+00 0. -1.
         11    1    1    2    0    0  0.85183078029E+00 -0.14890036149E+02 -0.23647325762E+02  0.27957732524E+02  0.00000000000E+00 0.  1.
</event>
<event>
 7    1  0.2733606E-009  0.1424198E+03  0.7561462E-02  0.1210110E+00
         -1   -1    0    0    0  501 -0.00000000000E+00  0.00000000000E+00  0.80858049790E+02  0.80858049790E+02  0.00000000000E+00 0.  1.
          1   -1    0    0  501    0  0.00000000000E+00 -0.00000000000E+00 -0.48166262387E+03  0.48166262387E+03  0.00000000000E+00 0. -1.
         25    2    1    2    0    0 -0.95469379867E+02  0.53687183824E+02 -0.34754488968E+02  0.16985769109E+03  0.12508814701E+03 0.  0.
          5    1    3    3  502    0 -0.88730127498E+02  0.91261853086E+02 -0.32244739982E+02  0.13137334970E+03  0.41800000000E+01 0. -1.
         -5    1    3    3    0  502 -0.67392523689E+01 -0.37574669262E+02 -0.25097489861E+01  0.38484341395E+02  0.41800000000E+01 0. -1.
        -11    1    1    2    0    0  0.73835774673E+02 -0.15881393858E+02 -0.32190587661E+03  0.33064684134E+03  0.00000000000E+00 0. -1.
         11    1    1    2    0    0  0.21633605194E+02 -0.37805789965E+02 -0.44144208508E+02  0.62016141232E+02  0.00000000000E+00 0.  1.
</event>
<event>
 7    1  0.2733606E-009  0.9352314E+02  0.7561462E-02  0.1294537E+00
         -3   -1    0    0    0  501 -0.00000000000E+00  0.00000000000E+00  0.35912690411E+03  0.35912690411E+03  0.00000000000E+00 0.  1.
          3   -1    0    0  501    0  0.00000000000E+00 -0.00000000000E+00 -0.38902616141E+02  0.38902616141E+02  0.00000000000E+00 0. -1.
         25    2    1    2    0    0  0.15937995251E+02  0.34037347960E+02  0.22680273723E+03  0.26172433656E+03  0.12509031130E+03 0.  0.
          5    1    3    3  502    0  0.41566179993E+02 -0.37824439248E+01  0.20792848774E+03  0.21211737933E+03  0.41800000000E+01 0.  1.
         -5    1    3    3    0  502 -0.25628184742E+02  0.37819791884E+02  0.18874249495E+02  0.49606957227E+02  0.41800000000E+01 0.  1.
        -11    1    1    2    0    0 -0.35624285467E+02  0.20597386283E+02  0.37062554299E+02  0.55380275983E+02  0.00000000000E+00 0.  1.
         11    1    1    2    0    0  0.19686290216E+02 -0.54634734243E+02  0.56358996433E+02  0.80924907706E+02  0.00000000000E+00 0. -1.
</event>
<event>
 7    1  0.2733606E-009  0.1113456E+03  0.7561462E-02  0.1258098E+00
          1   -1    0    0  501    0  0.00000000000E+00  0.00000000000E+00  0.20794020826E+03  0.20794020826E+03  0.00000000000E+00 0. -1.
         -1   -1    0    0    0  501 -0.00000000000E+00 -0.00000000000E+00 -0.18307212767E+03  0.18307212767E+03  0.00000000000E+00 0.  1.
         25    2    1    2    0    0 -0.89063899456E+02 -0.19186959155E+02 -0.11987539486E+03  0.19575131002E+03  0.12509175630E+03 0.  0.
          5    1    3    3  502    0 -0.23467775971E+02 -0.52208327113E+02 -0.10651056424E+03  0.12098933268E+03  0.41800000000E+01 0. -1.
         -5    1    3    3    0  502 -0.65596123485E+02  0.33021367958E+02 -0.13364830624E+02  0.74761977339E+02  0.41800000000E+01 0. -1.
        -11    1    1    2    0    0  0.40851868346E+02  0.14297271917E+02  0.70272659233E+00  0.43287191597E+02  0.00000000000E+00 0.  1.
         11    1    1    2    0    0  0.48212031109E+02  0.48896872382E+01  0.14404074885E+03  0.15197383431E+03  0.00000000000E+00 0. -1.
</event>
<event>
 7    1  0.2733606E-009  0.7393785E+02  0.7561462E-02  0.1347192E+00
         -2   -1    0    0    0  501 -0.00000000000E+00  0.00000000000E+00  0.20343047716E+02  0.20343047716E+02  0.00000000000E+00 0. -1.
          2   -1    0    0  501    0  0.00000000000E+00 -0.00000000000E+00 -0.60556676762E+03  0.60556676762E+03  0.00000000000E+00 0.  1.
         25    2    1    2    0    0 -0.53284356317E+01  0.51879610830E+01 -0.37746127270E+03  0.39771771221E+03  0.12508820510E+03 0.  0.
          5    1    3    3  502    0 -0.36077812111E+02 -0.87675288270E+01 -0.28218409833E+02  0.46821246694E+02  0.41800000000E+01 0. -1.
         -5    1    3    3    0  502  0.30749376479E+02  0.13955489910E+02 -0.34924286286E+03  0.35089646552E+03  0.41800000000E+01 0. -1.
        -11    1    1    2    0    0  0.39755395994E+02 -0.11718709121E+02 -0.42915526280E+02  0.59662065418E+02  0.00000000000E+00 0.  1.
         11    1    1    2    0    0 -0.34426960362E+02  0.65307480381E+01 -0.16484692092E+03  0.16853003770E+03  0.00000000000E+00 0. -1.
</event>
<event>
 7    1  0.2733606E-009  0.1454272E+03  0.7561462E-02  0.1206207E+00
         -2   -1    0    0    0  501 -0.00000000000E+00  0.00000000000E+00  0.25671066274E+02  0.25671066274E+02  0.00000000000E+00 0.  1.
          2   -1    0    0  501    0  0.00000000000E+00 -0.00000000000E+00 -0.12812416461E+04  0.12812416461E+04  0.00000000000E+00 0. -1.
         25    2    1    2    0    0  0.41513138763E+02  0.10875995646E+03 -0.98043802882E+03  0.99521789048E+03  0.12509137603E+03 0.  0.
          5    1    3    3  502    0 -0.13376618176E+01  0.10761670726E+03 -0.87060671636E+03  0.87724379279E+03  0.41800000000E+01 0. -1.
         -5    1    3    3    0  502  0.42850800580E+02  0.11432492056E+01 -0.10983131246E+03  0.11797409769E+03  0.41800000000E+01 0. -1.
        -11    1    1    2    0    0  0.21397811121E+02 -0.48288912453E+02 -0.62348056993E+02  0.81712701567E+02  0.00000000000E+00 0.  1.
         11    1    1    2    0    0 -0.62910949884E+02 -0.60471044010E+02 -0.21278449406E+03  0.22998212037E+03  0.00000000000E+00 0. -1.
</event>
<event>
 7    1  0.2733606E-009  0.1211863E+03  0.7561462E-02  0.1241153E+00
         -2   -1    0    0    0  501 -0.00000000000E+00  0.00000000000E+00  0.63086309068E+02  0.63086309068E+02  0.00000000000E+00 0.  1.
          2   -1    0    0  501    0  0.00000000000E+00 -0.00000000000E+00 -0.35544810189E+03  0.35544810189E+03  0.00000000000E+00 0. -1.
         25    2    1    2    0    0  0.35769997179E+02  0.98679767203E+02 -0.16262651095E+03  0.23046074179E+03  0.12509029654E+03 0.  0.
          5    1    3    3  502    0 -0.16688467044E+02  0.64689524406E+02 -0.12918398885E+02  0.68173286043E+02  0.41800000000E+01 0.  1.
         -5    1    3    3    0  502  0.52458464224E+02  0.33990242797E+02 -0.14970811207E+03  0.16228745575E+03  0.41800000000E+01 0.  1.
        -11    1    1    2    0    0  0.71194008826E+01 -0.36890970738E+02 -0.10064414566E+03  0.10742845827E+03  0.00000000000E+00 0. -1.
         11    1    1    2    0    0 -0.42889398062E+02 -0.61788796465E+02 -0.29091136210E+02  0.80645210897E+02  0.00000000000E+00 0.  1.
</event>
<event>
 7    1  0.2733606E-009  0.1555867E+03  0.7561462E-02  0.1193771E+00
         -2   -1    0    0    0  501 -0.00000000000E+00  0.00000000000E+00  0.29924814369E+02  0.29924814369E+02  0.00000000000E+00 0. -1.
          2   -1    0    0  501    0  0.00000000000E+00 -0.00000000000E+00 -0.17630818825E+04  0.17630818825E+04  0.00000000000E+00 0.  1.
         25    2    1    2    0    0  0.34888995419E+02  0.11227306599E+03 -0.15409243170E+04  0.15504573955E+04  0.12509157195E+03 0.  0.
          5    1    3    3  502    0  0.44284751501E+01 -0.27546927764E+02 -0.22161275551E+03  0.22340127669E+03  0.41800000000E+01 0. -1.
         -5    1    3    3    0  502  0.30460520269E+02  0.13981999376E+03 -0.13193115615E+04  0.13270561189E+04  0.41800000000E+01 0. -1.
        -11    1    1    2    0    0  0.50819604179E+01 -0.96809748864E+02 -0.92479985621E+02  0.13397948178E+03  0.00000000000E+00 0. -1.
         11    1    1    2    0    0 -0.39970955837E+02 -0.15463317127E+02 -0.99752765552E+02  0.10856981957E+03  0.00000000000E+00 0.  1.
</event>
<event>
 7    1  0.2733606E-009  0.8177367E+02  0.7561462E-02  0.1324092E+00
         -1   -1    0    0    0  501 -0.00000000000E+00  0.00000000000E+00  0.89980965788E+01  0.89980965788E+01  0.00000000000E+00 0.  1.
          1   -1    0    0  501    0  0.00000000000E+00 -0.00000000000E+00 -0.18371794575E+04  0.18371794575E+04  0.00000000000E+00 0. -1.
         25    2    1    2    0    0 -0.36880722949E+02  0.14070928003E+02 -0.14346888285E+04  0.14406739115E+04  0.12510438040E+03 0.  0.
          5    1    3    3  502    0 -0.28594226707E+02  0.34252917481E+02 -0.17054113415E+03  0.17633106077E+03  0.41800000000E+01 0. -1.
         -5    1    3    3    0  502 -0.82864962419E+01 -0.20181989477E+02 -0.12641476944E+04  0.12643428508E+04  0.41800000000E+01 0. -1.
        -11    1    1    2    0    0  0.49103318998E+02 -0.42901186568E+02 -0.23125818281E+03  0.24027483193E+03  0.00000000000E+00 0.  1.
         11    1    1    2    0    0 -0.12222596048E+02  0.28830258564E+02 -0.16223434958E+03  0.16522881059E+03  0.00000000000E+00 0. -1.
</event>
<event>
 7    1  0.2733606E-009  0.1529812E+03  0.7561462E-02  0.1196857E+00
          2   -1    0    0  501    0  0.00000000000E+00  0.00000000000E+00  0.11304941895E+04  0.11304941895E+04  0.00000000000E+00 0. -1.
         -2   -1    0    0    0  501 -0.00000000000E+00 -0.00000000000E+00 -0.25222758939E+02  0.25222758939E+02  0.00000000000E+00 0.  1.
         25    2    1    2    0    0  0.75455058817E+02  0.10427108981E+03  0.71218565319E+03  0.73445298231E+03  0.12508737964E+03 0.  0.
          5    1    3    3  502    0 -0.15274942576E+00  0.10072207084E+03  0.46961047179E+03  0.48030867835E+03  0.41800000000E+01 0. -1.
         -5    1    3    3    0  502  0.75607808243E+02  0.35490189726E+01  0.24257518140E+03  0.25414430396E+03  0.41800000000E+01 0. -1.
        -11    1    1    2    0    0 -0.37942682311E+01 -0.11577322089E+02  0.12043226054E+01  0.12242599851E+02  0.00000000000E+00 0.  1.
         11    1    1    2    0    0 -0.71660790586E+02 -0.92693767725E+02  0.39188145481E+03  0.40902136632E+03  0.00000000000E+00 0. -1.
</event>
<event>
 7    1  0.2733606E-009  0.9840863E+02  0.7561462E-02  0.1283678E+00
         -1   -1    0    0    0  501 -0.00000000000E+00  0.00000000000E+00  0.25511477469E+03  0.25511477469E+03  0.00000000000E+00 0.  1.
          1   -1    0    0  501    0  0.00000000000E+00 -0.00000000000E+00 -0.52562370195E+02  0.52562370195E+02  0.00000000000E+00 0. -1.
         25    2    1    2    0    0  0.29380474322E+02 -0.96397951546E+01  0.15820822561E+03  0.20404399387E+03  0.12509184970E+03 0.  0.
          5    1    3    3  502    0 -0.42671983793E+02 -0.19464041049E+02  0.27824584506E+02  0.54693939315E+02  0.41800000000E+01 0. -1.
         -5    1    3    3    0  502  0.72052458115E+02  0.98242458948E+01  0.13038364111E+03  0.14935005456E+03  0.41800000000E+01 0. -1.
        -11    1    1    2    0    0 -0.73663443659E+01  0.39282759325E+02 -0.68118500207E+01  0.40543797432E+02  0.00000000000E+00 0. -1.
         11    1    1    2    0    0 -0.22014129956E+02 -0.29642964170E+02  0.51156028907E+02  0.63089353587E+02  0.00000000000E+00 0.  1.
</event>
<event>
 7    1  0.2733606E-009  0.1084469E+03  0.7561462E-02  0.1263473E+00
         -1   -1    0    0    0  501 -0.00000000000E+00  0.00000000000E+00  0.10599121265E+03  0.10599121265E+03  0.00000000000E+00 0.  1.
          1   -1    0    0  501    0  0.00000000000E+00 -0.00000000000E+00 -0.12767820255E+03  0.12767820255E+03  0.00000000000E+00 0. -1.
         25    2    1    2    0    0  0.36690871177E+01 -0.31264472510E+01  0.26432968628E+02  0.12793099209E+03  0.12507757606E+03 0.  0.
          5    1    3    3  502    0 -0.30924587508E+02  0.50428558747E+02  0.24048025390E+02  0.63993355710E+02  0.41800000000E+01 0. -1.
         -5    1    3    3    0  502  0.34593674626E+02 -0.53555005998E+02  0.23849432380E+01  0.63937636379E+02  0.41800000000E+01 0. -1.
        -11    1    1    2    0    0 -0.10732113968E+02 -0.44385016926E+02 -0.28657934218E+02  0.53911827936E+02  0.00000000000E+00 0. -1.
         11    1    1    2    0    0  0.70630268507E+01  0.47511464177E+02 -0.19462024317E+02  0.51826595171E+02  0.00000000000E+00 0.  1.
</event>
<event>
 7    1  0.2733606E-009  0.1548358E+03  0.7561462E-02  0.1194654E+00
          2   -1    0    0  501    0  0.00000000000E+00  0.00000000000E+00  0.81980464964E+03  0.81980464964E+03  0.00000000000E+00 0. -1.
         -2   -1    0    0    0  501 -0.00000000000E+00 -0.00000000000E+00 -0.36595779721E+02  0.36595779721E+02  0.00000000000E+00 0.  1.
         25    2    1    2    0    0 -0.11675439467E+03  0.27032076940E+02  0.26723100536E+03  0.31846847945E+03  0.12508972906E+03 0.  0.
          5    1    3    3  502    0 -0.12029382482E+03 -0.22169700647E+02  0.17148942141E+03  0.21068505873E+03  0.41800000000E+01 0.  1.
         -5    1    3    3    0  502  0.35394301523E+01  0.49201777587E+02  0.95741583951E+02  0.10778342071E+03  0.41800000000E+01 0.  1.
        -11    1    1    2    0    0  0.73311645770E+02  0.17701204002E+02  0.16448752481E+03  0.18095324215E+03  0.00000000000E+00 0.  1.
         11    1    1    2    0    0  0.43442748901E+02 -0.44733280942E+02  0.35149033975E+03  0.35697870776E+03  0.00000000000E+00 0. -1.
</event>
<event>
 7    1  0.2733606E-009  0.6621658E+02  0.7561462E-02  0.1373453E+00
          2   -1    0    0  501    0  0.00000000000E+00  0.00000000000E+00  0.10339787697E+03  0.10339787697E+03  0.00000000000E+00 0. -1.
         -2   -1    0    0    0  501 -0.00000000000E+00 -0.00000000000E+00 -0.12993473019E+03  0.12993473019E+03  0.00000000000E+00 0.  1.
         25    2    1    2    0    0 -0.85326990319E+01  0.43935573230E+01 -0.54723032395E+02  0.13686833614E+03  0.12508485466E+03 0.  0.
          5    1    3    3  502    0  0.81133430278E+01  0.16919834593E+02  0.37547545659E+02  0.42182907945E+02  0.41800000000E+01 0.  1.
         -5    1    3    3    0  502 -0.16646042060E+02 -0.12526277270E+02 -0.92270578053E+02  0.94685428197E+02  0.41800000000E+01 0.  1.
        -11    1    1    2    0    0  0.19005763308E+01  0.43534579170E+02  0.95208444725E+01  0.44604016112E+02  0.00000000000E+00 0.  1.
         11    1    1    2    0    0  0.66321227011E+01 -0.47928136493E+02  0.18665334707E+02  0.51860254906E+02  0.00000000000E+00 0. -1.
</event>
<event>
 7    1  0.2733606E-009  0.1032469E+03  0.7561462E-02  0.1273613E+00
          2   -1    0    0  501    0  0.00000000000E+00  0.00000000000E+00  0.36628317627E+02  0.36628317627E+02  0.00000000000E+00 0. -1.
         -2   -1    0    0    0  501 -0.00000000000E+00 -0.00000000000E+00 -0.34401636635E+03  0.34401636635E+03  0.00000000000E+00 0.  1.
         25    2    1    2    0    0 -0.25151601669E+02  0.79099253834E+00 -0.19779566787E+03  0.23537951227E+03  0.12508860792E+03 0.  0.
          5    1    3    3  502    0  0.32691861050E+02  0.43841910010E+02 -0.95992089349E+02  0.11055688341E+03  0.41800000000E+01 0.  1.
         -5    1    3    3    0  502 -0.57843462719E+02 -0.43050917472E+02 -0.10180357852E+03  0.12482262886E+03  0.41800000000E+01 0.  1.
        -11    1    1    2    0    0 -0.24100117646E+02  0.14154199673E+02 -0.82489884405E+02  0.87096142670E+02  0.00000000000E+00 0.  1.
         11    1    1    2    0    0  0.49251719315E+02 -0.14945192211E+02 -0.27102496447E+02  0.58169029040E+02  0.00000000000E+00 0. -1.
</event>
<event>
 7    1  0.2733606E-009  0.1397321E+03  0.7561462E-02  0.1213690E+00
         -1   -1    0    0    0  501 -0.00000000000E+00  0.00000000000E+00  0.13416605110E+03  0.13416605110E+03  0.00000000000E+00 0.  1.
          1   -1    0    0  501    0  0.00000000000E+00 -0.00000000000E+00 -0.15120254495E+03  0.15120254495E+03  0.00000000000E+00 0. -1.
         25    2    1    2    0    0  0.22149317816E+02 -0.86520328364E+02 -0.33737567367E+02  0.15735763153E+03  0.12508733448E+03 0.  0.
          5    1    3    3  502    0 -0.49324144331E+02 -0.58200676115E+02 -0.11884737672E+02  0.77323407218E+02  0.41800000000E+01 0. -1.
         -5    1    3    3    0  502  0.71473462147E+02 -0.28319652249E+02 -0.21852829695E+02  0.80034224308E+02  0.41800000000E+01 0. -1.
        -11    1    1    2    0    0 -0.35582259337E+02 -0.28463015134E+01  0.11452528318E+02  0.37488118341E+02  0.00000000000E+00 0.  1.
         11    1    1    2    0    0  0.13432941521E+02  0.89366629878E+02  0.52485451998E+01  0.90522846179E+02  0.00000000000E+00 0. -1.
</event>
<event>
 7    1  0.2733606E-009  0.1425935E+03  0.7561462E-02  0.1209881E+00
          2   -1    0    0  501    0  0.00000000000E+00  0.00000000000E+00  0.20896552532E+03  0.20896552532E+03  0.00000000000E+00 0. -1.
         -2   -1    0    0    0  501 -0.00000000000E+00 -0.00000000000E+00 -0.14447326195E+03  0.14447326195E+03  0.00000000000E+00 0.  1.
         25    2    1    2    0    0 -0.24067186363E+02  0.12366974959E+03 -0.14752947670E+02  0.17815414889E+03  0.12509122623E+03 0.  0.
          5    1    3    3  502    0 -0.32555790506E+02 -0.87289788861E+00  0.30980405533E+02  0.45143098843E+02  0.41800000000E+01 0.  1.
         -5    1    3    3    0  502  0.84886041438E+01  0.12454264747E+03 -0.45733353202E+02  0.13301105005E+03  0.41800000000E+01 0.  1.
        -11    1    1    2    0    0 -0.25857800213E+01 -0.28567743327E+02 -0.20234057175E+02  0.35102981168E+02  0.00000000000E+00 0.  1.
         11    1    1    2    0    0  0.26652966384E+02 -0.95102006259E+02  0.99479268214E+02  0.14018165720E+03  0.00000000000E+00 0. -1.
</event>
<event>
 7    1  0.2733606E-009  0.9287950E+02  0.7561462E-02  0.1296025E+00
         -2   -1    0    0    0  501 -0.00000000000E+00  0.00000000000E+00  0.15767330014E+02  0.15767330014E+02  0.00000000000E+00 0.  1.
          2   -1    0    0  501    0  0.00000000000E+00 -0.00000000000E+00 -0.11534838200E+04  0.11534838200E+04  0.00000000000E+00 0. -1.
         25    2    1    2    0    0  0.66017535747E+02  0.16614771116E+02 -0.80753733442E+03  0.81999905705E+03  0.12509013322E+03 0.  0.
          5    1    3    3  502    0 -0.23136725400E+02 -0.47514875557E+00 -0.35191284300E+02  0.42325320073E+02  0.41800000000E+01 0. -1.
         -5    1    3    3    0  502  0.89154261147E+02  0.17089919872E+02 -0.77234605012E+03  0.77767373698E+03  0.41800000000E+01 0. -1.
        -11    1    1    2    0    0 -0.76414058046E+01 -0.10050083715E+02  0.12224989769E+01  0.12684233091E+02  0.00000000000E+00 0.  1.
         11    1    1    2    0    0 -0.58376129942E+02 -0.65646874013E+01 -0.33140165451E+03  0.33656785984E+03  0.00000000000E+00 0. -1.
</event>
<event>
 7    1  0.2733606E-009  0.1033264E+03  0.7561462E-02  0.1273453E+00
         -3   -1    0    0    0  501 -0.00000000000E+00  0.00000000000E+00  0.15002648955E+02  0.15002648955E+02  0.00000000000E+00 0.  1.
          3   -1    0    0  501    0  0.00000000000E+00 -0.00000000000E+00 -0.98890269899E+03  0.98890269899E+03  0.00000000000E+00 0. -1.
         25    2    1    2    0    0 -0.48838314493E+02 -0.13113554565E+02 -0.60572416205E+03  0.62056927731E+03  0.12508925280E+03 0.  0.
          5    1    3    3  502    0 -0.57683659161E+02 -0.40678653951E+02 -0.17347787474E+03  0.18733446785E+03  0.41800000000E+01 0. -1.
         -5    1    3    3    0  502  0.88453446680E+01  0.27565099386E+02 -0.43224628731E+03  0.43323480945E+03  0.41800000000E+01 0. -1.
        -11    1    1    2    0    0  0.12322570744E+02 -0.40216200783E+02 -0.13984250748E+03  0.14603121397E+03  0.00000000000E+00 0.  1.
         11    1    1    2    0    0  0.36515743749E+02  0.53329755347E+02 -0.22833338051E+03  0.23730485667E+03  0.00000000000E+00 0. -1.
</event>
<event>
 7    1  0.2733606E-009  0.1250876E+03  0.7561462E-02  0.1234932E+00
         -1   -1    0    0    0  501 -0.00000000000E+00  0.00000000000E+00  0.13788916513E+03  0.13788916513E+03  0.00000000000E+00 0.  1.
          1   -1    0    0  501    0  0.00000000000E+00 -0.00000000000E+00 -0.13281638306E+03  0.13281638306E+03  0.00000000000E+00 0. -1.
         25    2    1    2    0    0 -0.68385439178E+02 -0.12506727629E+02 -0.23283400309E+02  0.14498090925E+03  0.12507741918E+03 0.  0.
          5    1    3    3  502    0 -0.10500711200E+03 -0.44982642171E+01 -0.13802569056E+02  0.10608822397E+03  0.41800000000E+01 0.  1.
         -5    1    3    3    0  502  0.36621672826E+02 -0.80084634118E+01 -0.94808312536E+01  0.38892685277E+02  0.41800000000E+01 0.  1.
        -11    1    1    2    0    0  0.49305764256E+02  0.46829181350E+02  0.46588982410E+02  0.82429144705E+02  0.00000000000E+00 0.  1.
         11    1    1    2    0    0  0.19079674922E+02 -0.34322453721E+02 -0.18232800034E+02  0.43295494242E+02  0.00000000000E+00 0. -1.
</event>
<event>
 7    1  0.2733606E-009  0.9429331E+02  0.7561462E-02  0.1292776E+00
          1   -1    0    0  501    0  0.00000000000E+00  0.00000000000E+00  0.13256122011E+03  0.13256122011E+03  0.00000000000E+00 0. -1.
         -1   -1    0    0    0  501 -0.00000000000E+00 -0.00000000000E+00 -0.98072892281E+02  0.98072892281E+02  0.00000000000E+00 0.  1.
         25    2    1    2    0    0 -0.33168963538E+02  0.11729948268E+02  0.21501231072E+02  0.13170987535E+03  0.12508963386E+03 0.  0.
          5    1    3    3  502    0  0.34605362127E+02  0.23629117256E+02  0.42315132559E+02  0.59698485020E+02  0.41800000000E+01 0.  1.
         -5    1    3    3    0  502 -0.67774325666E+02 -0.11899168988E+02 -0.20813901487E+02  0.72011390329E+02  0.41800000000E+01 0.  1.
        -11    1    1    2    0    0  0.40059373300E+02 -0.35045504983E+02  0.36945042968E+02  0.64791025680E+02  0.00000000000E+00 0. -1.
         11    1    1    2    0    0 -0.68904097619E+01  0.23315556715E+02 -0.23957946207E+02  0.34133211364E+02  0.00000000000E+00 0.  1.
</event>
<event>
 7    1  0.2733606E-009  0.1343719E+03  0.7561462E-02  0.1221109E+00
         -1   -1    0    0    0  501 -0.00000000000E+00  0.00000000000E+00  0.15181914614E+03  0.15181914614E+03  0.00000000000E+00 0.  1.
          1   -1    0    0  501    0  0.00000000000E+00 -0.00000000000E+00 -0.15368508781E+03  0.15368508781E+03  0.00000000000E+00 0. -1.
         25    2    1    2    0    0 -0.63000447001E+02 -0.86401812836E+02 -0.14232658180E+02  0.16517635575E+03  0.12508529232E+03 0.  0.
          5    1    3    3  502    0  0.31350763053E+02 -0.49409156776E+02 -0.23771935397E+02  0.63298597377E+02  0.41800000000E+01 0. -1.
         -5    1    3    3    0  502 -0.94351210054E+02 -0.36992656059E+02  0.95392772176E+01  0.10187775837E+03  0.41800000000E+01 0. -1.
        -11    1    1    2    0    0  0.20043737180E+02  0.13953813188E+02  0.44027741353E+02  0.50347813372E+02  0.00000000000E+00 0.  1.
         11    1    1    2    0    0  0.42956709821E+02  0.72447999648E+02 -0.31661024842E+02  0.89980064824E+02  0.00000000000E+00 0. -1.
</event>
<event>
 7    1  0.2733606E-009  0.1219155E+03  0.7561462E-02  0.1239970E+00
         -4   -1    0    0    0  501 -0.00000000000E+00  0.00000000000E+00  0.43723264797E+02  0.43723264797E+02  0.00000000000E+00 0.  1.
          4   -1    0    0  501    0  0.00000000000E+00 -0.00000000000E+00 -0.48317528046E+03  0.48317528046E+03  0.00000000000E+00 0. -1.
         25    2    1    2    0    0 -0.28190226618E+01  0.52434508535E+02 -0.25970358147E+03  0.29300323122E+03  0.12509044210E+03 0.  0.
          5    1    3    3  502    0  0.15074793046E+02 -0.31934500608E+02 -0.26562112783E+02  0.44385582681E+02  0.41800000000E+01 0.  1.
         -5    1    3    3    0  502 -0.17893815708E+02  0.84369009143E+02 -0.23314146868E+03  0.24861764854E+03  0.41800000000E+01 0.  1.
        -11    1    1    2    0    0  0.24803084280E+02  0.28659938346E+02 -0.27925360028E+01  0.38005043259E+02  0.00000000000E+00 0.  1.
         11    1    1    2    0    0 -0.21984061618E+02 -0.81094446882E+02 -0.17695589820E+03  0.19589027078E+03  0.00000000000E+00 0. -1.
</event>
<event>
 7    1  0.2733606E-009  0.1909695E+03  0.7561462E-02  0.1157590E+00
         -1   -1    0    0    0  501 -0.00000000000E+00  0.00000000000E+00  0.35533133499E+02  0.35533133499E+02  0.00000000000E+00 0.  1.
          1   -1    0    0  501    0  0.00000000000E+00 -0.00000000000E+00 -0.10856983035E+04  0.10856983035E+04  0.00000000000E+00 0. -1.
         25    2    1    2    0    0  0.15969853607E+03  0.25507894361E+02 -0.46254364178E+03  0.50571536070E+03  0.12508849031E+03 0.  0.
          5    1    3    3  502    0  0.15364241947E+03 -0.19661882158E+02 -0.39320903806E+03  0.42263861948E+03  0.41800000000E+01 0.  1.
         -5    1    3    3    0  502  0.60561166062E+01  0.45169776520E+02 -0.69334603718E+02  0.83076741221E+02  0.41800000000E+01 0.  1.
        -11    1    1    2    0    0 -0.12047707265E+03 -0.54715684172E+02 -0.46627566452E+03  0.48468703970E+03  0.00000000000E+00 0. -1.
         11    1    1    2    0    0 -0.39221463421E+02  0.29207789811E+02 -0.12134586374E+03  0.13082903663E+03  0.00000000000E+00 0.  1.
</event>
<event>
 7    1  0.2733606E-009  0.1852330E+03  0.7561462E-02  0.1162833E+00
         -2   -1    0    0    0  501 -0.00000000000E+00  0.00000000000E+00  0.18859679588E+03  0.18859679588E+03  0.00000000000E+00 0.  1.
          2   -1    0    0  501    0  0.00000000000E+00 -0.00000000000E+00 -0.27763480134E+03  0.27763480134E+03  0.00000000000E+00 0. -1.
         25    2    1    2    0    0 -0.11727877005E+03  0.10520839108E+03 -0.17326807052E+03  0.26550379315E+03  0.12508926595E+03 0.  0.
          5    1    3    3  502    0 -0.12044000716E+03  0.12242808172E+03 -0.12073709490E+03  0.20997463895E+03  0.41800000000E+01 0.  1.
         -5    1    3    3    0  502  0.31612371157E+01 -0.17219690636E+02 -0.52530975620E+02  0.55529154192E+02  0.41800000000E+01 0.  1.
        -11    1    1    2    0    0  0.68840197358E+02 -0.45752885811E+01  0.19735301481E+02  0.71759237471E+02  0.00000000000E+00 0. -1.
         11    1    1    2    0    0  0.48438572690E+02 -0.10063310250E+03  0.64494763576E+02  0.12896856660E+03  0.00000000000E+00 0.  1.
</event>
<event>
 7    1  0.2733606E-009  0.1498382E+03  0.7561462E-02  0.1200672E+00
          2   -1    0    0  501    0  0.00000000000E+00  0.00000000000E+00  0.35546793686E+03  0.35546793686E+03  0.00000000000E+00 0. -1.
         -2   -1    0    0    0  501 -0.00000000000E+00 -0.00000000000E+00 -0.80581290963E+02  0.80581290963E+02  0.00000000000E+00 0.  1.
         25    2    1    2    0    0 -0.29790922487E+02 -0.11395308596E+03  0.21917826316E+03  0.27849382872E+03  0.12508755626E+03 0.  0.
          5    1    3    3  502    0  0.11419113935E+02  0.22353849920E+02  0.58260845829E+02  0.63575854898E+02  0.41800000000E+01 0.  1.
         -5    1    3    3    0  502 -0.41210036422E+02 -0.13630693588E+03  0.16091741733E+03  0.21491797382E+03  0.41800000000E+01 0.  1.
        -11    1    1    2    0    0 -0.11360306340E+02  0.82824772663E+00  0.33190037097E+02  0.35090185478E+02  0.00000000000E+00 0. -1.
         11    1    1    2    0    0  0.41151228827E+02  0.11312483823E+03  0.22518345637E+02  0.12246521363E+03  0.00000000000E+00 0.  1.
</event>
<event>
 7    1  0.2733606E-009  0.7532247E+02  0.7561462E-02  0.1342875E+00
          1   -1    0    0  501    0  0.00000000000E+00  0.00000000000E+00  0.14789782070E+03  0.14789782070E+03  0.00000000000E+00 0. -1.
         -1   -1    0    0    0  501 -0.00000000000E+00 -0.00000000000E+00 -0.97200833221E+02  0.97200833221E+02  0.00000000000E+00 0.  1.
         25    2    1    2    0    0  0.48203981878E+02  0.24392938570E+01  0.46334626662E+02  0.14185964645E+03  0.12509071764E+03 0.  0.
          5    1    3    3  502    0  0.20474856895E+02  0.24055702468E+02  0.84194819922E+02  0.90022978665E+02  0.41800000000E+01 0. -1.
         -5    1    3    3    0  502  0.27729124984E+02 -0.21616408611E+02 -0.37860193259E+02  0.51836667786E+02  0.41800000000E+01 0. -1.
        -11    1    1    2    0    0 -0.55745980815E+02  0.20368673651E+02  0.31339095158E+02  0.67116586092E+02  0.00000000000E+00 0. -1.
         11    1    1    2    0    0  0.75419989368E+01 -0.22807967508E+02 -0.26976734346E+02  0.36122421372E+02  0.00000000000E+00 0.  1.
</event>
<event>
 7    1  0.2733606E-009  0.1039057E+03  0.7561462E-02  0.1272291E+00
          3   -1    0    0  501    0  0.00000000000E+00  0.00000000000E+00  0.42876643168E+03  0.42876643168E+03  0.00000000000E+00 0. -1.
         -3   -1    0    0    0  501 -0.00000000000E+00 -0.00000000000E+00 -0.31397317258E+02  0.31397317258E+02  0.00000000000E+00 0.  1.
         25    2    1    2    0    0 -0.17701115231E+01  0.26254734789E+02  0.24174995367E+03  0.27346547835E+03  0.12509149994E+03 0.  0.
          5    1    3    3  502    0  0.46938885755E+02 -0.10792733758E+02  0.40474595688E+02  0.63050831826E+02  0.41800000000E+01 0. -1.
         -5    1    3    3    0  502 -0.48708997278E+02  0.37047468548E+02  0.20127535798E+03  0.21041464653E+03  0.41800000000E+01 0. -1.
        -11    1    1    2    0    0  0.36264847916E+02 -0.45847601197E+02  0.11957259127E+03  0.13309675545E+03  0.00000000000E+00 0. -1.
         11    1    1    2    0    0 -0.34494736393E+02  0.19592866408E+02  0.36046569482E+02  0.53601515131E+02  0.00000000000E+00 0.  1.
</event>
<event>
 7    1  0.4889583E-009  0.8188443E+02  0.7561462E-02  0.1323787E+00
          4   -1    0    0  501    0  0.00000000000E+00  0.00000000000E+00  0.14767422231E+03  0.14767422231E+03  0.00000000000E+00 0. -1.
         -4   -1    0    0    0  501 -0.00000000000E+00 -0.00000000000E+00 -0.10889537857E+03  0.10889537857E+03  0.00000000000E+00 0.  1.
         25    2    1    2    0    0  0.11585490404E+02  0.51143543036E+02 -0.17725097914E+02  0.13679163568E+03  0.12509151415E+03 0.  0.
          5    1    3    3  502    0  0.31112079359E+02 -0.15888322324E+02 -0.48878357600E+02  0.60224301656E+02  0.41800000000E+01 0. -1.
         -5    1    3    3    0  502 -0.19526588955E+02  0.67031865360E+02  0.31153259686E+02  0.76567334020E+02  0.41800000000E+01 0. -1.
        -11    1    1    2    0    0  0.81733387163E+01 -0.93851717098E+01 -0.23957687567E+02  0.26997327782E+02  0.00000000000E+00 0.  1.
         11    1    1    2    0    0 -0.19758829120E+02 -0.41758371326E+02  0.80461629214E+02  0.92780637419E+02  0.00000000000E+00 0. -1.
</event>
<event>
 7    1  0.2733606E-009  0.7447355E+02  0.7561462E-02  0.1345509E+00
         -2   -1    0    0    0  501 -0.00000000000E+00  0.00000000000E+00  0.49871222173E+02  0.49871222173E+02  0.00000000000E+00 0.  1.
          2   -1    0    0  501    0  0.00000000000E+00 -0.00000000000E+00 -0.25026175667E+03  0.25026175667E+03  0.00000000000E+00 0. -1.
         25    2    1    2    0    0  0.15232007326E+02 -0.19119416109E+02 -0.11734023125E+03  0.17324719570E+03  0.12509314461E+03 0.  0.
          5    1    3    3  502    0  0.37785039974E+02  0.10953683241E+02 -0.12798143951E+03  0.13395676049E+03  0.41800000000E+01 0. -1.
         -5    1    3    3    0  502 -0.22553032648E+02 -0.30073099350E+02  0.10641208254E+02  0.39290435214E+02  0.41800000000E+01 0. -1.
        -11    1    1    2    0    0 -0.42016866875E+02  0.92913410690E+01 -0.87972592207E+02  0.97933258398E+02  0.00000000000E+00 0. -1.
         11    1    1    2    0    0  0.26784859550E+02  0.98280750403E+01  0.49222889670E+01  0.28952524739E+02  0.00000000000E+00 0.  1.
</event>
<event>
 7    1  0.2733606E-009  0.1815731E+03  0.7561462E-02  0.1166289E+00
          1   -1    0    0  501    0  0.00000000000E+00  0.00000000000E+00  0.92080459050E+03  0.92080459050E+03  0.00000000000E+00 0. -1.
         -1   -1    0    0    0  501 -0.00000000000E+00 -0.00000000000E+00 -0.43549391228E+02  0.43549391228E+02  0.00000000000E+00 0.  1.
         25    2    1    2    0    0 -0.10939352986E+03 -0.12510041423E+03  0.51366495822E+03  0.55418027797E+03  0.12508810163E+03 0.  0.
          5    1    3    3  502    0 -0.95596983503E+02 -0.12794695847E+03  0.51520107101E+03  0.53940599126E+03  0.41800000000E+01 0. -1.
         -5    1    3    3    0  502 -0.13796546353E+02  0.28465442381E+01 -0.15361127852E+01  0.14774286712E+02  0.41800000000E+01 0. -1.
        -11    1    1    2    0    0  0.12446034750E+03  0.11968776866E+03  0.31802324784E+03  0.36187612001E+03  0.00000000000E+00 0. -1.
         11    1    1    2    0    0 -0.15066817644E+02  0.54126455705E+01  0.45566993208E+02  0.48297583749E+02  0.00000000000E+00 0.  1.
</event>
<event>
 7    1  0.2733606E-009  0.1170035E+03  0.7561462E-02  0.1248124E+00
          1   -1    0    0  501    0  0.00000000000E+00  0.00000000000E+00  0.76393445390E+03  0.76393445390E+03  0.00000000000E+00 0. -1.
         -1   -1    0    0    0  501 -0.00000000000E+00 -0.00000000000E+00 -0.22271892281E+02  0.22271892281E+02  0.00000000000E+00 0.  1.
         25    2    1    2    0    0 -0.18339410973E+02  0.69172639046E+02  0.39056851164E+03  0.41630952148E+03  0.12509463380E+03 0.  0.
          5    1    3    3  502    0 -0.47569288703E+02  0.90851523194E+02  0.23411602096E+03  0.25562593798E+03  0.41800000000E+01 0. -1.
         -5    1    3    3    0  502  0.29229877731E+02 -0.21678884148E+02  0.15645249067E+03  0.16068358351E+03  0.41800000000E+01 0. -1.
        -11    1    1    2    0    0 -0.20518162806E+02 -0.43698447293E+02  0.70270520670E+02  0.85255471238E+02  0.00000000000E+00 0.  1.
         11    1    1    2    0    0  0.38857573779E+02 -0.25474191753E+02  0.28082352931E+03  0.28464135346E+03  0.00000000000E+00 0. -1.
</event>
<event>
 7    1  0.2733606E-009  0.1062977E+03  0.7561462E-02  0.1267584E+00
         -1   -1    0    0    0  501 -0.00000000000E+00  0.00000000000E+00  0.52865613077E+03  0.52865613077E+03  0.00000000000E+00 0.  1.
          1   -1    0    0  501    0  0.00000000000E+00 -0.00000000000E+00 -0.42142418924E+02  0.42142418924E+02  0.00000000000E+00 0. -1.
         25    2    1    2    0    0  0.67831704577E+02 -0.72879254775E+02  0.30231593039E+03  0.34198725205E+03  0.12509129816E+03 0.  0.
          5    1    3    3  502    0  0.54212077646E+01 -0.41080104988E+02  0.25255244063E+03  0.25596322428E+03  0.41800000000E+01 0. -1.
         -5    1    3    3    0  502  0.62410496812E+02 -0.31799149787E+02  0.49763489760E+02  0.86024027763E+02  0.41800000000E+01 0. -1.
        -11    1    1    2    0    0 -0.40953386930E+02  0.54694163498E+02  0.18408751482E+03  0.19635896856E+03  0.00000000000E+00 0.  1.
         11    1    1    2    0    0 -0.26878317647E+02  0.18185091277E+02  0.11026663897E+00  0.32452329084E+02  0.00000000000E+00 0. -1.
</event>
<event>
 7    1  0.2733606E-009  0.8888804E+02  0.7561462E-02  0.1305567E+00
          1   -1    0    0  501    0  0.00000000000E+00  0.00000000000E+00  0.63440169605E+02  0.63440169605E+02  0.00000000000E+00 0. -1.
         -1   -1    0    0    0  501 -0.00000000000E+00 -0.00000000000E+00 -0.22058978925E+03  0.22058978925E+03  0.00000000000E+00 0.  1.
         25    2    1    2    0    0  0.14653470030E+02  0.20452107118E+00 -0.14242979382E+03  0.19012616929E+03  0.12508776146E+03 0.  0.
          5    1    3    3  502    0 -0.22192666628E+02 -0.45042570276E+02 -0.11491728683E+03  0.12547829614E+03  0.41800000000E+01 0. -1.
         -5    1    3    3    0  502  0.36846136658E+02  0.45247091347E+02 -0.27512506987E+02  0.64647873149E+02  0.41800000000E+01 0. -1.
        -11    1    1    2    0    0  0.26201387842E+02  0.76278736807E+01 -0.37575689038E+02  0.46439526143E+02  0.00000000000E+00 0.  1.
         11    1    1    2    0    0 -0.40854857872E+02 -0.78323947519E+01  0.22855863211E+02  0.47464263424E+02  0.00000000000E+00 0. -1.
</event>
<event>
 7    1  0.2733606E-009  0.9591050E+02  0.7561462E-02  0.1289138E+00
          2   -1    0    0  501    0  0.00000000000E+00  0.00000000000E+00  0.19790357195E+03  0.19790357195E+03  0.00000000000E+00 0.  1.
         -2   -1    0    0    0  501 -0.00000000000E+00 -0.00000000000E+00 -0.74814518666E+02  0.74814518666E+02  0.00000000000E+00 0. -1.
         25    2    1    2    0    0 -0.35107613483E+02  0.38921761964E+02  0.49932098775E+02  0.14452367891E+03  0.12508569542E+03 0.  0.
          5    1    3    3  502    0 -0.47292528538E+02 -0.17798962491E+01  0.79484598615E+02  0.92601431431E+02  0.41800000000E+01 0.  1.
         -5    1    3    3    0  502  0.12184915054E+02  0.40701658214E+02 -0.29552499840E+02  0.51922247476E+02  0.41800000000E+01 0.  1.
        -11    1    1    2    0    0  0.22852085925E+01  0.27465944249E+02  0.35996284154E+02  0.45335777755E+02  0.00000000000E+00 0.  1.
         11    1    1    2    0    0  0.32822404891E+02 -0.66387706213E+02  0.37160670352E+02  0.82858633950E+02  0.00000000000E+00 0. -1.
</event>
<event>
 7    1  0.2733606E-009  0.1000738E+03  0.7561462E-02  0.1280141E+00
          2   -1    0    0  501    0  0.00000000000E+00  0.00000000000E+00  0.59042134390E+02  0.59042134390E+02  0.00000000000E+00 0. -1.
         -2   -1    0    0    0  501 -0.00000000000E+00 -0.00000000000E+00 -0.22113764964E+03  0.22113764964E+03  0.00000000000E+00 0.  1.
         25    2    1    2    0    0  0.37344249261E+02 -0.12827904220E+02 -0.10080158645E+03  0.16543143068E+03  0.12508976915E+03 0.  0.
          5    1    3    3  502    0  0.30980771687E+02  0.46303926047E+02 -0.99253899370E+01  0.56743700506E+02  0.41800000000E+01 0. -1.
         -5    1    3    3    0  502  0.63634775733E+01 -0.59131830267E+02 -0.90876196512E+02  0.10868773017E+03  0.41800000000E+01 0. -1.
        -11    1    1    2    0    0 -0.57589105239E+02  0.22987749706E+02 -0.15895101645E+02  0.64012467029E+02  0.00000000000E+00 0. -1.
         11    1    1    2    0    0  0.20244855979E+02 -0.10159845486E+02 -0.45398827160E+02  0.50735886328E+02  0.00000000000E+00 0.  1.
</event>
<event>
 7    1  0.4362037E-009  0.1929221E+03  0.7561462E-02  0.1155852E+00
          2   -1    0    0  501    0  0.00000000000E+00  0.00000000000E+00  0.11681199080E+04  0.11681199080E+04  0.00000000000E+00 0.  1.
         -2   -1    0    0    0  501 -0.00000000000E+00 -0.00000000000E+00 -0.37531745547E+02  0.37531745547E+02  0.00000000000E+00 0. -1.
         25    2    1    2    0    0 -0.16069811220E+03  0.48796169755E+02  0.41284644545E+03  0.46291971879E+03  0.12509008383E+03 0.  0.
          5    1    3    3  502    0 -0.11387218240E+03  0.85602664758E+02  0.23005525361E+03  0.27062443025E+03  0.41800000000E+01 0.  1.
         -5    1    3    3    0  502 -0.46825929800E+02 -0.36806495003E+02  0.18279119185E+03  0.19229528854E+03  0.41800000000E+01 0.  1.
        -11    1    1    2    0    0  0.11961549024E+03  0.27909288606E+00  0.36118608841E+03  0.38047777051E+03  0.00000000000E+00 0. -1.
         11    1    1    2    0    0  0.41082621965E+02 -0.49075262641E+02  0.35655562859E+03  0.36225416424E+03  0.00000000000E+00 0.  1.
</event>
<event>
 7    1  0.2733606E-009  0.2663784E+03  0.7561462E-02  0.1103370E+00
          1   -1    0    0  501    0  0.00000000000E+00  0.00000000000E+00  0.70297410981E+02  0.70297410981E+02  0.00000000000E+00 0. -1.
         -1   -1    0    0    0  501 -0.00000000000E+00 -0.00000000000E+00 -0.12032357794E+04  0.12032357794E+04  0.00000000000E+00 0.  1.
         25    2    1    2    0    0 -0.34148795347E+02  0.25310452651E+03 -0.76827269094E+03  0.81921840592E+03  0.12509127622E+03 0.  0.
          5    1    3    3  502    0 -0.43479953960E+02  0.25539521546E+03 -0.63915986036E+03  0.68968110165E+03  0.41800000000E+01 0.  1.
         -5    1    3    3    0  502  0.93311586128E+01 -0.22906889501E+01 -0.12911283058E+03  0.12953730427E+03  0.41800000000E+01 0.  1.
        -11    1    1    2    0    0 -0.18139616091E+02 -0.92867727262E+02 -0.81997139959E+02  0.12520779289E+03  0.00000000000E+00 0.  1.
         11    1    1    2    0    0  0.52288411438E+02 -0.16023679924E+03 -0.28266853756E+03  0.32910699161E+03  0.00000000000E+00 0. -1.
</event>
<event>
 7    1  0.2733606E-009  0.8696445E+02  0.7561462E-02  0.1310374E+00
          1   -1    0    0  501    0  0.00000000000E+00  0.00000000000E+00  0.64311201863E+02  0.64311201863E+02  0.00000000000E+00 0. -1.
         -1   -1    0    0    0  501 -0.00000000000E+00 -0.00000000000E+00 -0.19512407894E+03  0.19512407894E+03  0.00000000000E+00 0.  1.
         25    2    1    2    0    0 -0.63014599378E+01 -0.48227135848E+01 -0.43476818586E+02  0.13266870075E+03  0.12509110056E+03 0.  0.
          5    1    3    3  502    0  0.50652815857E+02  0.29442149470E+02 -0.19661062093E+02  0.61940113677E+02  0.41800000000E+01 0.  1.
         -5    1    3    3    0  502 -0.56954275794E+02 -0.34264863055E+02 -0.23815756493E+02  0.70728587069E+02  0.41800000000E+01 0.  1.
        -11    1    1    2    0    0 -0.16385549805E+02 -0.12033886140E+02 -0.95266248140E+02  0.97411286270E+02  0.00000000000E+00 0.  1.
         11    1    1    2    0    0  0.22687009742E+02  0.16856599724E+02  0.79301896513E+01  0.29355293785E+02  0.00000000000E+00 0. -1.
</event>
<event>
 7    1  0.3033301E-009  0.1037652E+03  0.7561462E-02  0.1272572E+00
          1   -1    0    0  501    0  0.00000000000E+00  0.00000000000E+00  0.23184915186E+03  0.23184915186E+03  0.00000000000E+00 0. -1.
         -1   -1    0    0    0  501 -0.00000000000E+00 -0.00000000000E+00 -0.92183276234E+02  0.92183276234E+02  0.00000000000E+00 0.  1.
         25    2    1    2    0    0 -0.88996014273E+01  0.90750901402E+02  0.36695108579E+02  0.15909405137E+03  0.12509779046E+03 0.  0.
          5    1    3    3  502    0 -0.76494016363E+01  0.19212348651E+02  0.74942671144E+02  0.77855661607E+02  0.41800000000E+01 0. -1.
         -5    1    3    3    0  502 -0.12501997910E+01  0.71538552752E+02 -0.38247562565E+02  0.81238389764E+02  0.41800000000E+01 0. -1.
        -11    1    1    2    0    0 -0.28725709789E+02 -0.58634653637E+02  0.19907630457E+02  0.68260550543E+02  0.00000000000E+00 0.  1.
         11    1    1    2    0    0  0.37625311217E+02 -0.32116247765E+02  0.83063136595E+02  0.96677826184E+02  0.00000000000E+00 0. -1.
</event>
<event>
 7    1  0.2733606E-009  0.1026820E+03  0.7561462E-02  0.1274755E+00
         -2   -1    0    0    0  501 -0.00000000000E+00  0.00000000000E+00  0.55237970490E+02  0.55237970490E+02  0.00000000000E+00 0.  1.
          2   -1    0    0  501    0  0.00000000000E+00 -0.00000000000E+00 -0.36067781204E+03  0.36067781204E+03  0.00000000000E+00 0. -1.
         25    2    1    2    0    0  0.15861428489E+02  0.99099746527E+02 -0.17666677042E+03  0.23859782053E+03  0.12508168339E+03 0.  0.
          5    1    3    3  502    0  0.15746478280E+02  0.20265168564E+02  0.15899177974E+02  0.30477613020E+02  0.41800000000E+01 0. -1.
         -5    1    3    3    0  502  0.11495020879E+00  0.78834577963E+02 -0.19256594839E+03  0.20812020751E+03  0.41800000000E+01 0. -1.
        -11    1    1    2    0    0 -0.13112631101E+02 -0.72602417718E+02 -0.13124918266E+03  0.15056360816E+03  0.00000000000E+00 0. -1.
         11    1    1    2    0    0 -0.27487973877E+01 -0.26497328809E+02  0.24761115247E+01  0.26754353840E+02  0.00000000000E+00 0.  1.
</event>
<event>
 7    1  0.2733606E-009  0.1006372E+03  0.7561462E-02  0.1278962E+00
          2   -1    0    0  501    0  0.00000000000E+00  0.00000000000E+00  0.50268539558E+03  0.50268539558E+03  0.00000000000E+00 0. -1.
         -2   -1    0    0    0  501 -0.00000000000E+00 -0.00000000000E+00 -0.26903735551E+02  0.26903735551E+02  0.00000000000E+00 0.  1.
         25    2    1    2    0    0 -0.27689558387E+01 -0.44968555108E+02  0.27270107671E+03  0.30338582248E+03  0.12508893627E+03 0.  0.
          5    1    3    3  502    0 -0.21706855199E+02  0.38391994759E+02  0.64194267390E+02  0.77996853718E+02  0.41800000000E+01 0. -1.
         -5    1    3    3    0  502  0.18937899360E+02 -0.83360549867E+02  0.20850680932E+03  0.22538896876E+03  0.41800000000E+01 0. -1.
        -11    1    1    2    0    0 -0.24132685974E+02  0.35380300043E+02  0.33875499609E+02  0.54604959823E+02  0.00000000000E+00 0.  1.
         11    1    1    2    0    0  0.26901641813E+02  0.95882550650E+01  0.16920508371E+03  0.17159834883E+03  0.00000000000E+00 0. -1.
</event>
<event>
 7    1  0.2733606E-009  0.1049324E+03  0.7561462E-02  0.1270253E+00
          2   -1    0    0  501    0  0.00000000000E+00  0.00000000000E+00  0.17719402574E+03  0.17719402574E+03  0.00000000000E+00 0. -1.
         -2   -1    0    0    0  501 -0.00000000000E+00 -0.00000000000E+00 -0.68926182381E+02  0.68926182381E+02  0.00000000000E+00 0.  1.
         25    2    1    2    0    0  0.12042213749E+02 -0.20276064797E+02  0.61651156050E+02  0.14143733210E+03  0.12509004818E+03 0.  0.
          5    1    3    3  502    0  0.68123846086E+02 -0.16210416200E+02  0.41805344753E+02  0.81662691903E+02  0.41800000000E+01 0.  1.
         -5    1    3    3    0  502 -0.56081632337E+02 -0.40656485964E+01  0.19845811296E+02  0.59774640192E+02  0.41800000000E+01 0.  1.
        -11    1    1    2    0    0 -0.74842798598E+01 -0.30980393149E+02 -0.44561385126E+01  0.32181615484E+02  0.00000000000E+00 0.  1.
         11    1    1    2    0    0 -0.45579338894E+01  0.51256457946E+02  0.51072825821E+02  0.72501260539E+02  0.00000000000E+00 0. -1.
</event>
<event>
 7    1  0.2787619E-009  0.9898563E+02  0.7561462E-02  0.1282444E+00
         -2   -1    0    0    0  501 -0.00000000000E+00  0.00000000000E+00  0.40957187891E+03  0.40957187891E+03  0.00000000000E+00 0.  1.
          2   -1    0    0  501    0  0.00000000000E+00 -0.00000000000E+00 -0.31080861228E+02  0.31080861228E+02  0.00000000000E+00 0. -1.
         25    2    1    2    0    0 -0.16843432307E+02 -0.42502563510E+01  0.26669932207E+03  0.29508920990E+03  0.12508935812E+03 0.  0.
          5    1    3    3  502    0  0.19892257681E+02  0.53296457590E+02  0.13843987102E+03  0.14973070692E+03  0.41800000000E+01 0.  1.
         -5    1    3    3    0  502 -0.36735689988E+02 -0.57546713941E+02  0.12825945104E+03  0.14535850297E+03  0.41800000000E+01 0.  1.
        -11    1    1    2    0    0  0.74718335845E+01 -0.33145713434E+02  0.99434052027E+02  0.10507900513E+03  0.00000000000E+00 0.  1.
         11    1    1    2    0    0  0.93715987221E+01  0.37395969785E+02  0.12357643591E+02  0.40484525116E+02  0.00000000000E+00 0. -1.
</event>
<event>
 7    1  0.2733606E-009  0.1026349E+03  0.7561462E-02  0.1274851E+00
          1   -1    0    0  501    0  0.00000000000E+00  0.00000000000E+00  0.40952231023E+03  0.40952231023E+03  0.00000000000E+00 0. -1.
         -1   -1    0    0    0  501 -0.00000000000E+00 -0.00000000000E+00 -0.72884444155E+02  0.72884444155E+02  0.00000000000E+00 0.  1.
         25    2    1    2    0    0  0.20139520054E+02 -0.63863660420E+02  0.16599091140E+02  0.14285305621E+03  0.12508916201E+03 0.  0.
          5    1    3    3  502    0  0.18274561289E+01 -0.71920543231E+02 -0.40178656460E+02  0.82508793286E+02  0.41800000000E+01 0.  1.
         -5    1    3    3    0  502  0.18312063925E+02  0.80568828114E+01  0.56777747600E+02  0.60344262928E+02  0.41800000000E+01 0.  1.
        -11    1    1    2    0    0 -0.41432153468E+02 -0.40153882547E+01  0.10062066184E+03  0.10889106608E+03  0.00000000000E+00 0.  1.
         11    1    1    2    0    0  0.21292633414E+02  0.67879048675E+02  0.21941811310E+03  0.23066263209E+03  0.00000000000E+00 0. -1.
</event>
<event>
 7    1  0.5003893E-009  0.1190714E+03  0.7561462E-02  0.1244637E+00
         -2   -1    0    0    0  501 -0.00000000000E+00  0.00000000000E+00  0.22329914525E+02  0.22329914525E+02  0.00000000000E+00 0.  1.
          2   -1    0    0  501    0  0.00000000000E+00 -0.00000000000E+00 -0.99198491318E+03  0.99198491318E+03  0.00000000000E+00 0. -1.
         25    2    1    2    0    0 -0.62343622484E+02 -0.79068384573E+02 -0.48132428974E+03  0.50740443243E+03  0.12509056501E+03 0.  0.
          5    1    3    3  502    0 -0.35251203926E+02 -0.65191235570E+02 -0.98444012517E+02  0.12329331115E+03  0.41800000000E+01 0. -1.
         -5    1    3    3    0  502 -0.27092418558E+02 -0.13877149003E+02 -0.38288027722E+03  0.38411112128E+03  0.41800000000E+01 0. -1.
        -11    1    1    2    0    0  0.12961248283E+02  0.82664861704E+02 -0.25476323973E+03  0.26815253427E+03  0.00000000000E+00 0.  1.
         11    1    1    2    0    0  0.49382374202E+02 -0.35964771310E+01 -0.23356746918E+03  0.23875786100E+03  0.00000000000E+00 0. -1.
</event>
<event>
 7    1  0.2733606E-009  0.1143126E+03  0.7561462E-02  0.1252786E+00
          1   -1    0    0  501    0  0.00000000000E+00  0.00000000000E+00  0.21418485550E+03  0.21418485550E+03  0.00000000000E+00 0. -1.
         -1   -1    0    0    0  501 -0.00000000000E+00 -0.00000000000E+00 -0.65638891717E+02  0.65638891717E+02  0.00000000000E+00 0.  1.
         25    2    1    2    0    0  0.43281553803E+02  0.22987002912E+02  0.10872189223E+03  0.17282824269E+03  0.12508979343E+03 0.  0.
          5    1    3    3  502    0  0.25905703625E+02 -0.50708218655E+02  0.34450235146E+02  0.66683731307E+02  0.41800000000E+01 0. -1.
         -5    1    3    3    0  502  0.17375850178E+02  0.73695221567E+02  0.74271657086E+02  0.10614451139E+03  0.41800000000E+01 0. -1.
        -11    1    1    2    0    0  0.24473457243E+02 -0.11245587665E+02 -0.11333057219E+01  0.26957331715E+02  0.00000000000E+00 0.  1.
         11    1    1    2    0    0 -0.67755011046E+02 -0.11741415247E+02  0.40957377277E+02  0.80038172813E+02  0.00000000000E+00 0. -1.
</event>
<event>
 7    1  0.2733606E-009  0.9996525E+02  0.7561462E-02  0.1280369E+00
          3   -1    0    0  501    0  0.00000000000E+00  0.00000000000E+00  0.81941939029E+02  0.81941939029E+02  0.00000000000E+00 0. -1.
         -3   -1    0    0    0  501 -0.00000000000E+00 -0.00000000000E+00 -0.16434162729E+03  0.16434162729E+03  0.00000000000E+00 0.  1.
         25    2    1    2    0    0  0.24933725058E+02  0.25695828547E+02 -0.25696129674E+02  0.13262777911E+03  0.12509144839E+03 0.  0.
          5    1    3    3  502    0 -0.36627856491E+02 -0.27726305501E+02  0.27140727093E+01  0.46208078065E+02  0.41800000000E+01 0.  1.
         -5    1    3    3    0  502  0.61561581549E+02  0.53422134048E+02 -0.28410202384E+02  0.86419701044E+02  0.41800000000E+01 0.  1.
        -11    1    1    2    0    0  0.21109925906E+02 -0.49401551620E+01 -0.59243999008E+02  0.63086333887E+02  0.00000000000E+00 0.  1.
         11    1    1    2    0    0 -0.46043650964E+02 -0.20755673385E+02  0.25404404234E+01  0.50569453322E+02  0.00000000000E+00 0. -1.
</event>
<event>
 7    1  0.2733606E-009  0.1245931E+03  0.7561462E-02  0.1235707E+00
         -2   -1    0    0    0  501 -0.00000000000E+00  0.00000000000E+00  0.43152709595E+02  0.43152709595E+02  0.00000000000E+00 0.  1.
          2   -1    0    0  501    0  0.00000000000E+00 -0.00000000000E+00 -0.41893650147E+03  0.41893650147E+03  0.00000000000E+00 0. -1.
         25    2    1    2    0    0  0.70385635730E+02 -0.35421533823E+02 -0.21823300183E+03  0.26359673574E+03  0.12509505678E+03 0.  0.
          5    1    3    3  502    0  0.95966740620E+02 -0.19043784713E+02 -0.94379861445E+02  0.13600482230E+03  0.41800000000E+01 0.  1.
         -5    1    3    3    0  502 -0.25581104890E+02 -0.16377749110E+02 -0.12385314039E+03  0.12759191345E+03  0.41800000000E+01 0.  1.
        -11    1    1    2    0    0  0.31676883275E+01  0.46156815140E+02 -0.55881333746E+02  0.72547979259E+02  0.00000000000E+00 0.  1.
         11    1    1    2    0    0 -0.73553324057E+02 -0.10735281317E+02 -0.10166945630E+03  0.12594449607E+03  0.00000000000E+00 0. -1.
</event>
<event>
 7    1  0.2733606E-009  0.1208181E+03  0.7561462E-02  0.1241753E+00
          1   -1    0    0  501    0  0.00000000000E+00  0.00000000000E+00  0.89475059988E+03  0.89475059988E+03  0.00000000000E+00 0. -1.
         -1   -1    0    0    0  501 -0.00000000000E+00 -0.00000000000E+00 -0.20856930882E+02  0.20856930882E+02  0.00000000000E+00 0.  1.
         25    2    1    2    0    0 -0.64151463890E+02  0.28603937444E+02  0.56211556750E+03  0.58013388708E+03  0.12509124733E+03 0.  0.
          5    1    3    3  502    0  0.26031753992E+02 -0.20422010883E+02  0.23250254683E+03  0.23488213518E+03  0.41800000000E+01 0.  1.
         -5    1    3    3    0  502 -0.90183217882E+02  0.49025948327E+02  0.32961302067E+03  0.34525175191E+03  0.41800000000E+01 0.  1.
        -11    1    1    2    0    0 -0.46968127765E+01  0.20472730166E+02  0.12413626618E+02  0.24398583084E+02  0.00000000000E+00 0.  1.
         11    1    1    2    0    0  0.68848276667E+02 -0.49076667610E+02  0.29936447488E+03  0.31107506060E+03  0.00000000000E+00 0. -1.
</event>
<event>
 7    1  0.2733606E-009  0.9607107E+02  0.7561462E-02  0.1288782E+00
         -1   -1    0    0    0  501 -0.00000000000E+00  0.00000000000E+00  0.78509195394E+02  0.78509195394E+02  0.00000000000E+00 0.  1.
          1   -1    0    0  501    0  0.00000000000E+00 -0.00000000000E+00 -0.18886140109E+03  0.18886140109E+03  0.00000000000E+00 0. -1.
         25    2    1    2    0    0 -0.20625477094E+02 -0.41162253412E+02 -0.95646727126E+02  0.16406064704E+03  0.12509139893E+03 0.  0.
          5    1    3    3  502    0 -0.52842210680E+02 -0.22702397113E+02  0.38365196196E+01  0.57791775773E+02  0.41800000000E+01 0. -1.
         -5    1    3    3    0  502  0.32216733586E+02 -0.18459856299E+02 -0.99483246745E+02  0.10626887127E+03  0.41800000000E+01 0. -1.
        -11    1    1    2    0    0  0.50178292038E+02  0.50238881312E+01  0.85596086052E+01  0.51150438349E+02  0.00000000000E+00 0.  1.
         11    1    1    2    0    0 -0.29552814944E+02  0.36138365281E+02 -0.23265087177E+02  0.52159511095E+02  0.00000000000E+00 0. -1.
</event>
<event>
 7    1  0.2733606E-009  0.1091631E+03  0.7561462E-02  0.1262127E+00
          2   -1    0    0  501    0  0.00000000000E+00  0.00000000000E+00  0.35493770514E+03  0.35493770514E+03  0.00000000000E+00 0. -1.
         -2   -1    0    0    0  501 -0.00000000000E+00 -0.00000000000E+00 -0.46203426427E+02  0.46203426427E+02  0.00000000000E+00 0.  1.
         25    2    1    2    0    0  0.18760201321E+00 -0.51680396050E+02  0.23723379609E+03  0.27312764444E+03  0.12509171684E+03 0.  0.
          5    1    3    3  502    0 -0.25009026756E+02 -0.87010908843E+02  0.17594436555E+03  0.19791473377E+03  0.41800000000E+01 0. -1.
         -5    1    3    3    0  502  0.25196628769E+02  0.35330512793E+02  0.61289430540E+02  0.75212910670E+02  0.41800000000E+01 0. -1.
        -11    1    1    2    0    0  0.32836023785E+02  0.20676690175E+02  0.73021349071E+02  0.82691277622E+02  0.00000000000E+00 0. -1.
         11    1    1    2    0    0 -0.33023625798E+02  0.31003705875E+02 -0.15208664501E+01  0.45322209496E+02  0.00000000000E+00 0.  1.
</event>
<event>
 7    1  0.2733606E-009  0.7349449E+02  0.7561462E-02  0.1348598E+00
         -3   -1    0    0    0  501 -0.00000000000E+00  0.00000000000E+00  0.14514354354E+03  0.14514354354E+03  0.00000000000E+00 0.  1.
          3   -1    0    0  501    0  0.00000000000E+00 -0.00000000000E+00 -0.83539817099E+02  0.83539817099E+02  0.00000000000E+00 0. -1.
         25    2    1    2    0    0  0.86807156344E+01 -0.12041048398E+02  0.22281618719E+02  0.12792512884E+03  0.12509207163E+03 0.  0.
          5    1    3    3  502    0  0.45459659925E+02  0.80647948125E+01  0.56905105710E+02  0.73398127032E+02  0.41800000000E+01 0. -1.
         -5    1    3    3    0  502 -0.36778944291E+02 -0.20105843211E+02 -0.34623486991E+02  0.54527001804E+02  0.41800000000E+01 0. -1.
        -11    1    1    2    0    0  0.13223421863E+02  0.28293966318E+02  0.59250765214E+02  0.66978060544E+02  0.00000000000E+00 0.  1.
         11    1    1    2    0    0 -0.21904137497E+02 -0.16252917920E+02 -0.19928657497E+02  0.33780171255E+02  0.00000000000E+00 0. -1.
</event>
<event>
 7    1  0.2733606E-009  0.1294811E+03  0.7561462E-02  0.1228228E+00
          2   -1    0    0  501    0  0.00000000000E+00  0.00000000000E+00  0.33769046092E+03  0.33769046092E+03  0.00000000000E+00 0. -1.
         -2   -1    0    0    0  501 -0.00000000000E+00 -0.00000000000E+00 -0.53354534385E+02  0.53354534385E+02  0.00000000000E+00 0.  1.
         25    2    1    2    0    0 -0.42516312774E+02 -0.67739817192E+02  0.17119778211E+03  0.22661119969E+03  0.12509050940E+03 0.  0.
          5    1    3    3  502    0  0.39486185898E+02 -0.26663134324E+02  0.24979789904E+02  0.53958724155E+02  0.41800000000E+01 0.  1.
         -5    1    3    3    0  502 -0.82002498672E+02 -0.41076682868E+02  0.14621799221E+03  0.17265247554E+03  0.41800000000E+01 0.  1.
        -11    1    1    2    0    0 -0.27003329427E+02  0.29452060486E+02  0.37615403682E+02  0.54877338321E+02  0.00000000000E+00 0.  1.
         11    1    1    2    0    0  0.69519642201E+02  0.38287756706E+02  0.75522740741E+02  0.10955645729E+03  0.00000000000E+00 0. -1.
</event>
<event>
 7    1  0.2733606E-009  0.4351003E+02  0.7561462E-02  0.1483863E+00
          1   -1    0    0  501    0  0.00000000000E+00  0.00000000000E+00  0.73334290044E+02  0.73334290044E+02  0.00000000000E+00 0. -1.
         -1   -1    0    0    0  501 -0.00000000000E+00 -0.00000000000E+00 -0.15720912245E+03  0.15720912245E+03  0.00000000000E+00 0.  1.
         25    2    1    2    0    0  0.45610325203E+00 -0.21406133475E+02 -0.42608403701E+02  0.13387223867E+03  0.12509144511E+03 0.  0.
          5    1    3    3  502    0  0.12799573865E+02 -0.14737266363E+02  0.42795749627E+02  0.47222502021E+02  0.41800000000E+01 0. -1.
         -5    1    3    3    0  502 -0.12343470613E+02 -0.66688671118E+01 -0.85404153328E+02  0.86649736647E+02  0.41800000000E+01 0. -1.
        -11    1    1    2    0    0  0.23695258655E+02  0.10361347359E+02  0.18146478108E+02  0.31592997160E+02  0.00000000000E+00 0. -1.
         11    1    1    2    0    0 -0.24151361907E+02  0.11044786117E+02 -0.59412906818E+02  0.65078176671E+02  0.00000000000E+00 0.  1.
</event>
<event>
 7    1  0.2733606E-009  0.9702427E+02  0.7561462E-02  0.1286681E+00
          2   -1    0    0  501    0  0.00000000000E+00  0.00000000000E+00  0.45152689590E+03  0.45152689590E+03  0.00000000000E+00 0. -1.
         -2   -1    0    0    0  501 -0.00000000000E+00 -0.00000000000E+00 -0.27919996113E+02  0.27919996113E+02  0.00000000000E+00 0.  1.
         25    2    1    2    0    0 -0.22395373484E+02  0.41769163503E+01  0.28640067374E+03  0.31335911420E+03  0.12509831795E+03 0.  0.
          5    1    3    3  502    0  0.20353353021E+02 -0.52224946364E+02  0.13121115777E+03  0.14274293091E+03  0.41800000000E+01 0. -1.
         -5    1    3    3    0  502 -0.42748726505E+02  0.56401862714E+02  0.15518951597E+03  0.17061618329E+03  0.41800000000E+01 0. -1.
        -11    1    1    2    0    0 -0.15543243047E+02  0.17376191006E+02  0.13009953557E+01  0.23349882382E+02  0.00000000000E+00 0.  1.
         11    1    1    2    0    0  0.37938616531E+02 -0.21553107357E+02  0.13590523069E+03  0.14273789542E+03  0.00000000000E+00 0. -1.
</event>
<event>
 7    1  0.2733606E-009  0.1454942E+03  0.7561462E-02  0.1206122E+00
         -2   -1    0    0    0  501 -0.00000000000E+00  0.00000000000E+00  0.24116419478E+02  0.24116419478E+02  0.00000000000E+00 0.  1.
          2   -1    0    0  501    0  0.00000000000E+00 -0.00000000000E+00 -0.11753991655E+04  0.11753991655E+04  0.00000000000E+00 0. -1.
         25    2    1    2    0    0 -0.59172985010E+02  0.77396020849E+02 -0.91279922690E+03  0.92646732075E+03  0.12509069346E+03 0.  0.
          5    1    3    3  502    0  0.30347855229E+02 -0.10754780334E+02 -0.16272157019E+03  0.16592901923E+03  0.41800000000E+01 0. -1.
         -5    1    3    3    0  502 -0.89520840239E+02  0.88150801182E+02 -0.75007765671E+03  0.76053830152E+03  0.41800000000E+01 0. -1.
        -11    1    1    2    0    0  0.15457659568E+01 -0.75127208559E+02 -0.12836191262E+03  0.14873892385E+03  0.00000000000E+00 0. -1.
         11    1    1    2    0    0  0.57627219053E+02 -0.22688122895E+01 -0.11012160650E+03  0.12430934037E+03  0.00000000000E+00 0.  1.
</event>
<event>
 7    1  0.2733606E-009  0.1382516E+03  0.7561462E-02  0.1215701E+00
         -2   -1    0    0    0  501 -0.00000000000E+00  0.00000000000E+00  0.54625371631E+02  0.54625371631E+02  0.00000000000E+00 0.  1.
          2   -1    0    0  501    0  0.00000000000E+00 -0.00000000000E+00 -0.45495537555E+03  0.45495537555E+03  0.00000000000E+00 0. -1.
         25    2    1    2    0    0  0.89886750617E+02 -0.48283702749E+02 -0.28945135266E+03  0.33142147662E+03  0.12508863147E+03 0.  0.
          5    1    3    3  502    0  0.70301938239E+02  0.15350441913E+02 -0.23343937307E+03  0.24431416637E+03  0.41800000000E+01 0. -1.
         -5    1    3    3    0  502  0.19584812378E+02 -0.63634144663E+02 -0.56011979592E+02  0.87107310260E+02  0.41800000000E+01 0. -1.
        -11    1    1    2    0    0 -0.45628957613E+02 -0.25054370402E+02 -0.55856484809E+02  0.76352276615E+02  0.00000000000E+00 0. -1.
         11    1    1    2    0    0 -0.44257793004E+02  0.73338073151E+02 -0.55022166451E+02  0.10180699395E+03  0.00000000000E+00 0.  1.
</event>
<event>
 7    1  0.2733606E-009  0.1240363E+03  0.7561462E-02  0.1236583E+00
         -1   -1    0    0    0  501 -0.00000000000E+00  0.00000000000E+00  0.50310994742E+02  0.50310994742E+02  0.00000000000E+00 0.  1.
          1   -1    0    0  501    0  0.00000000000E+00 -0.00000000000E+00 -0.41770777881E+03  0.41770777881E+03  0.00000000000E+00 0. -1.
         25    2    1    2    0    0  0.53040603887E+02  0.69058301735E+02 -0.13271474672E+03  0.20209525515E+03  0.12508770307E+03 0.  0.
          5    1    3    3  502    0  0.84539103005E+02  0.10379650489E+02 -0.67097300291E+02  0.10850860421E+03  0.41800000000E+01 0. -1.
         -5    1    3    3    0  502 -0.31498499118E+02  0.58678651246E+02 -0.65617446430E+02  0.93586650943E+02  0.41800000000E+01 0. -1.
        -11    1    1    2    0    0 -0.25518294664E+02 -0.62878428621E+02 -0.65185479441E+02  0.94095838794E+02  0.00000000000E+00 0. -1.
         11    1    1    2    0    0 -0.27522309223E+02 -0.61798731139E+01 -0.16949655791E+03  0.17182767961E+03  0.00000000000E+00 0.  1.
</event>
<event>
 7    1  0.2733606E-009  0.1624787E+03  0.7561462E-02  0.1185926E+00
          1   -1    0    0  501    0  0.00000000000E+00  0.00000000000E+00  0.13224063799E+03  0.13224063799E+03  0.00000000000E+00 0. -1.
         -1   -1    0    0    0  501 -0.00000000000E+00 -0.00000000000E+00 -0.45252763611E+03  0.45252763611E+03  0.00000000000E+00 0.  1.
         25    2    1    2    0    0  0.15723574807E+03 -0.29837327824E+02 -0.34121605046E+03  0.39710180809E+03  0.12509239103E+03 0.  0.
          5    1    3    3  502    0  0.42316804527E+02  0.50774603912E+01 -0.89233683324E+01  0.43744616260E+02  0.41800000000E+01 0. -1.
         -5    1    3    3    0  502  0.11491894354E+03 -0.34914788216E+02 -0.33229268213E+03  0.35335719183E+03  0.41800000000E+01 0. -1.
        -11    1    1    2    0    0 -0.77297245581E+02  0.20526527846E+01 -0.36383343077E+02  0.85456569153E+02  0.00000000000E+00 0.  1.
         11    1    1    2    0    0 -0.79938502487E+02  0.27784675040E+02  0.57312395413E+02  0.10220989685E+03  0.00000000000E+00 0. -1.
</event>
<event>
 7    1  0.2733606E-009  0.6336748E+02  0.7561462E-02  0.1384220E+00
         -2   -1    0    0    0  501 -0.00000000000E+00  0.00000000000E+00  0.60661412552E+02  0.60661412552E+02  0.00000000000E+00 0.  1.
          2   -1    0    0  501    0  0.00000000000E+00 -0.00000000000E+00 -0.23338240067E+03  0.23338240067E+03  0.00000000000E+00 0. -1.
         25    2    1    2    0    0 -0.20542577088E+01 -0.27513706092E+02 -0.13109414429E+03  0.18329130827E+03  0.12509518385E+03 0.  0.
          5    1    3    3  502    0  0.16448624393E+02 -0.24440533660E+02  0.16788977856E+02  0.34164881200E+02  0.41800000000E+01 0.  1.
         -5    1    3    3    0  502 -0.18502882102E+02 -0.30731724318E+01 -0.14788312214E+03  0.14912642707E+03  0.41800000000E+01 0.  1.
        -11    1    1    2    0    0 -0.25702069510E+02 -0.12882909243E+02 -0.53127754809E+02  0.60407980091E+02  0.00000000000E+00 0. -1.
         11    1    1    2    0    0  0.27756327219E+02  0.40396615335E+02  0.11500910972E+02  0.50344524870E+02  0.00000000000E+00 0.  1.
</event>
<event>
 7    1  0.2733606E-009  0.1162002E+03  0.7561462E-02  0.1249501E+00
          2   -1    0    0  501    0  0.00000000000E+00  0.00000000000E+00  0.18010174954E+03  0.18010174954E+03  0.00000000000E+00 0. -1.
         -2   -1    0    0    0  501 -0.00000000000E+00 -0.00000000000E+00 -0.84415421561E+02  0.84415421561E+02  0.00000000000E+00 0.  1.
         25    2    1    2    0    0  0.59803464830E+02 -0.73357193417E+01  0.54608324339E+02  0.14919433422E+03  0.12508642249E+03 0.  0.
          5    1    3    3  502    0 -0.19368884723E+02 -0.42457012847E+02  0.25463211764E+00  0.46853909899E+02  0.41800000000E+01 0. -1.
         -5    1    3    3    0  502  0.79172349553E+02  0.35121293505E+02  0.54353692221E+02  0.10234042432E+03  0.41800000000E+01 0. -1.
        -11    1    1    2    0    0 -0.11765080227E+02 -0.33674713762E+02  0.37949889725E+02  0.52082603524E+02  0.00000000000E+00 0. -1.
         11    1    1    2    0    0 -0.48038384603E+02  0.41010433104E+02  0.31281139142E+01  0.63240233359E+02  0.00000000000E+00 0.  1.
</event>
<event>
 7    1  0.2733606E-009  0.1097142E+03  0.7561462E-02  0.1261100E+00
         -3   -1    0    0    0  501 -0.00000000000E+00  0.00000000000E+00  0.10075700885E+04  0.10075700885E+04  0.00000000000E+00 0.  1.
          3   -1    0    0  501    0  0.00000000000E+00 -0.00000000000E+00 -0.13937659883E+02  0.13937659883E+02  0.00000000000E+00 0. -1.
         25    2    1    2    0    0  0.22793136566E+01 -0.34038546387E+02  0.68680994191E+03  0.69894172145E+03  0.12509122979E+03 0.  0.
          5    1    3    3  502    0 -0.44378017824E+02  0.22248605486E+02  0.39291906373E+03  0.39606473203E+03  0.41800000000E+01 0.  1.
         -5    1    3    3    0  502  0.46657331481E+02 -0.56287151873E+02  0.29389087818E+03  0.30287698943E+03  0.41800000000E+01 0.  1.
        -11    1    1    2    0    0 -0.15594943898E+02  0.62788498419E+02  0.16462095124E+03  0.17687751524E+03  0.00000000000E+00 0. -1.
         11    1    1    2    0    0  0.13315630241E+02 -0.28749952032E+02  0.14220153544E+03  0.14568851167E+03  0.00000000000E+00 0.  1.
</event>
<event>
 7    1  0.2733606E-009  0.7398173E+02  0.7561462E-02  0.1347054E+00
          1   -1    0    0  501    0  0.00000000000E+00  0.00000000000E+00  0.42769664123E+03  0.42769664123E+03  0.00000000000E+00 0. -1.
         -1   -1    0    0    0  501 -0.00000000000E+00 -0.00000000000E+00 -0.31620285708E+02  0.31620285708E+02  0.00000000000E+00 0.  1.
         25    2    1    2    0    0 -0.11638902261E+02  0.32188828889E+02  0.13476605821E+03  0.18703090609E+03  0.12508830735E+03 0.  0.
          5    1    3    3  502    0 -0.44610836531E+01 -0.19222642534E+02 -0.17124769685E+02  0.26460184997E+02  0.41800000000E+01 0. -1.
         -5    1    3    3    0  502 -0.71778186077E+01  0.51411471422E+02  0.15189082790E+03  0.16057072110E+03  0.41800000000E+01 0. -1.
        -11    1    1    2    0    0  0.39998204615E+02 -0.21472980587E+02  0.13670741879E+03  0.14404812953E+03  0.00000000000E+00 0.  1.
         11    1    1    2    0    0 -0.28359302354E+02 -0.10715848302E+02  0.12460287852E+03  0.12823789132E+03  0.00000000000E+00 0. -1.
</event>
<event>
 7    1  0.2733606E-009  0.1181788E+03  0.7561462E-02  0.1246132E+00
          1   -1    0    0  501    0  0.00000000000E+00  0.00000000000E+00  0.42117184990E+03  0.42117184990E+03  0.00000000000E+00 0. -1.
         -1   -1    0    0    0  501 -0.00000000000E+00 -0.00000000000E+00 -0.55923238489E+02  0.55923238489E+02  0.00000000000E+00 0.  1.
         25    2    1    2    0    0 -0.60894335721E+02 -0.87987110483E+02  0.18256988047E+03  0.24582503247E+03  0.12509329957E+03 0.  0.
          5    1    3    3  502    0  0.62379487480E+01 -0.49363791605E+02  0.27694814353E+01  0.50008382834E+02  0.41800000000E+01 0.  1.
         -5    1    3    3    0  502 -0.67132284469E+02 -0.38623318878E+02  0.17980039904E+03  0.19581664963E+03  0.41800000000E+01 0.  1.
        -11    1    1    2    0    0  0.59874071168E+02  0.75617073154E+02  0.19258621805E+03  0.21538871264E+03  0.00000000000E+00 0. -1.
         11    1    1    2    0    0  0.10202645533E+01  0.12370037329E+02 -0.99074871168E+01  0.15881343276E+02  0.00000000000E+00 0.  1.
</event>
<event>
 7    1  0.2733606E-009  0.1092192E+03  0.7561462E-02  0.1262023E+00
         -2   -1    0    0    0  501 -0.00000000000E+00  0.00000000000E+00  0.18740667886E+03  0.18740667886E+03  0.00000000000E+00 0.  1.
          2   -1    0    0  501    0  0.00000000000E+00 -0.00000000000E+00 -0.10865221254E+03  0.10865221254E+03  0.00000000000E+00 0. -1.
         25    2    1    2    0    0 -0.68711976189E+02 -0.58780867513E+02  0.21723378532E+02  0.15587553076E+03  0.12509496336E+03 0.  0.
          5    1    3    3  502    0 -0.52863275667E+02 -0.45719783078E+02 -0.46801002538E+02  0.84217757732E+02  0.41800000000E+01 0. -1.
         -5    1    3    3    0  502 -0.15848700523E+02 -0.13061084436E+02  0.68524381070E+02  0.71657773032E+02  0.41800000000E+01 0. -1.
        -11    1    1    2    0    0  0.78242309998E+02  0.11321738797E+02  0.41857072922E+02  0.89454208380E+02  0.00000000000E+00 0.  1.
         11    1    1    2    0    0 -0.95303338090E+01  0.47459128716E+02  0.15174014873E+02  0.50729152254E+02  0.00000000000E+00 0. -1.
</event>
<event>
 7    1  0.2733606E-009  0.1645508E+03  0.7561462E-02  0.1183653E+00
          1   -1    0    0  501    0  0.00000000000E+00  0.00000000000E+00  0.10417002484E+03  0.10417002484E+03  0.00000000000E+00 0. -1.
         -1   -1    0    0    0  501 -0.00000000000E+00 -0.00000000000E+00 -0.29137221649E+03  0.29137221649E+03  0.00000000000E+00 0.  1.
         25    2    1    2    0    0  0.13037336025E+03  0.81138007065E+00 -0.55910268016E+02  0.18913252493E+03  0.12508909830E+03 0.  0.
          5    1    3    3  502    0  0.98357788773E+02  0.50681835650E+02 -0.65952057756E+02  0.12887998060E+03  0.41800000000E+01 0.  1.
         -5    1    3    3    0  502  0.32015571480E+02 -0.49870455579E+02  0.10041789739E+02  0.60252544328E+02  0.41800000000E+01 0.  1.
        -11    1    1    2    0    0  0.26770627055E+01  0.23550964358E+02 -0.24319902892E+02  0.33959862538E+02  0.00000000000E+00 0.  1.
         11    1    1    2    0    0 -0.13305042296E+03 -0.24362344429E+02 -0.10697202074E+03  0.17244985386E+03  0.00000000000E+00 0. -1.
</event>
<event>
 7    1  0.2733606E-009  0.1012104E+03  0.7561462E-02  0.1277771E+00
          2   -1    0    0  501    0  0.00000000000E+00  0.00000000000E+00  0.63763799723E+03  0.63763799723E+03  0.00000000000E+00 0. -1.
         -2   -1    0    0    0  501 -0.00000000000E+00 -0.00000000000E+00 -0.19019630420E+02  0.19019630420E+02  0.00000000000E+00 0.  1.
         25    2    1    2    0    0 -0.11267715090E+02 -0.12018311049E+01  0.29944947481E+03  0.32472411081E+03  0.12508938557E+03 0.  0.
          5    1    3    3  502    0 -0.10522629965E+02  0.56033937240E+02  0.82910214735E+02  0.10070801344E+03  0.41800000000E+01 0. -1.
         -5    1    3    3    0  502 -0.74508512516E+00 -0.57235768345E+02  0.21653926007E+03  0.22401609737E+03  0.41800000000E+01 0. -1.
        -11    1    1    2    0    0  0.51176855130E+01 -0.42964788855E+02  0.11307973517E+03  0.12107514316E+03  0.00000000000E+00 0.  1.
         11    1    1    2    0    0  0.61500295771E+01  0.44166619960E+02  0.20608915684E+03  0.21085837367E+03  0.00000000000E+00 0. -1.
</event>
<event>
 7    1  0.2733606E-009  0.1218786E+03  0.7561462E-02  0.1240030E+00
         -1   -1    0    0    0  501 -0.00000000000E+00  0.00000000000E+00  0.56009944392E+03  0.56009944392E+03  0.00000000000E+00 0.  1.
          1   -1    0    0  501    0  0.00000000000E+00 -0.00000000000E+00 -0.35813247916E+02  0.35813247916E+02  0.00000000000E+00 0. -1.
         25    2    1    2    0    0  0.67650855020E+02  0.48216376298E+02  0.36554924867E+03  0.39519086148E+03  0.12509239252E+03 0.  0.
          5    1    3    3  502    0 -0.12529523373E+02  0.63267317528E+02  0.11840004985E+03  0.13489175893E+03  0.41800000000E+01 0. -1.
         -5    1    3    3    0  502  0.80180378392E+02 -0.15050941230E+02  0.24714919883E+03  0.26029910255E+03  0.41800000000E+01 0. -1.
        -11    1    1    2    0    0  0.60685184921E+01 -0.15763964073E+02  0.99026822044E+02  0.10045715984E+03  0.00000000000E+00 0.  1.
         11    1    1    2    0    0 -0.73719373512E+02 -0.32452412225E+02  0.59710125293E+02  0.10026467051E+03  0.00000000000E+00 0. -1.
</event>
<event>
 7    1  0.2733606E-009  0.1406413E+03  0.7561462E-02  0.1212469E+00
          2   -1    0    0  501    0  0.00000000000E+00  0.00000000000E+00  0.31822527770E+03  0.31822527770E+03  0.00000000000E+00 0. -1.
         -2   -1    0    0    0  501 -0.00000000000E+00 -0.00000000000E+00 -0.10904841237E+03  0.10904841237E+03  0.00000000000E+00 0.  1.
         25    2    1    2    0    0 -0.12498841916E+03  0.27320912111E+02  0.20170718368E+03  0.26963147824E+03  0.12508720537E+03 0.  0.
          5    1    3    3  502    0 -0.12543346436E+03  0.26941647584E+02  0.87504772005E+02  0.15535109874E+03  0.41800000000E+01 0.  1.
         -5    1    3    3    0  502  0.44504519403E+00  0.37926452694E+00  0.11420241168E+03  0.11428037951E+03  0.41800000000E+01 0.  1.
        -11    1    1    2    0    0  0.30249535025E+01 -0.26562007769E+02  0.22253386945E+02  0.34783671901E+02  0.00000000000E+00 0. -1.
         11    1    1    2    0    0  0.12196346566E+03 -0.75890434175E+00 -0.14783705300E+02  0.12285853993E+03  0.00000000000E+00 0.  1.
</event>
<event>
 7    1  0.2733606E-009  0.1100628E+03  0.7561462E-02  0.1260454E+00
         -2   -1    0    0    0  501 -0.00000000000E+00  0.00000000000E+00  0.17450881169E+02  0.17450881169E+02  0.00000000000E+00 0.  1.
          2   -1    0    0  501    0  0.00000000000E+00 -0.00000000000E+00 -0.11313432300E+04  0.11313432300E+04  0.00000000000E+00 0. -1.
         25    2    1    2    0    0 -0.21981597940E+02  0.63859755163E+02 -0.84298065383E+03  0.85488310988E+03  0.12508992707E+03 0.  0.
          5    1    3    3  502    0 -0.29665792738E+02  0.10012680856E+03 -0.64622448812E+03  0.65462126341E+03  0.41800000000E+01 0.  1.
         -5    1    3    3    0  502  0.76841947981E+01 -0.36267053395E+02 -0.19675616571E+03  0.20026184648E+03  0.41800000000E+01 0.  1.
        -11    1    1    2    0    0  0.32312835910E+02 -0.34916815381E+02 -0.25481695363E+03  0.25921995143E+03  0.00000000000E+00 0. -1.
         11    1    1    2    0    0 -0.10331237969E+02 -0.28942939782E+02 -0.16094741392E+02  0.34691049879E+02  0.00000000000E+00 0.  1.
</event>
<event>
 7    1  0.2733606E-009  0.2159728E+03  0.7561462E-02  0.1136922E+00
          1   -1    0    0  501    0  0.00000000000E+00  0.00000000000E+00  0.14202305561E+04  0.14202305561E+04  0.00000000000E+00 0. -1.
         -1   -1    0    0    0  501 -0.00000000000E+00 -0.00000000000E+00 -0.41480864460E+02  0.41480864460E+02  0.00000000000E+00 0.  1.
         25    2    1    2    0    0  0.11391277882E+03 -0.18202005087E+03  0.77012455795E+03  0.80922653614E+03  0.12509329291E+03 0.  0.
          5    1    3    3  502    0  0.96413471598E+02 -0.12841442241E+03  0.34743806230E+03  0.38277473914E+03  0.41800000000E+01 0. -1.
         -5    1    3    3    0  502  0.17499307219E+02 -0.53605628461E+02  0.42268649565E+03  0.42645179700E+03  0.41800000000E+01 0. -1.
        -11    1    1    2    0    0 -0.35279148842E+02  0.52771826735E+02  0.32389980948E+03  0.33006146491E+03  0.00000000000E+00 0. -1.
         11    1    1    2    0    0 -0.78633629975E+02  0.12924822414E+03  0.28472532424E+03  0.32242341954E+03  0.00000000000E+00 0.  1.
</event>
<event>
 7    1  0.2733606E-009  0.2253614E+03  0.7561462E-02  0.1129948E+00
         -2   -1    0    0    0  501 -0.00000000000E+00  0.00000000000E+00  0.98891049562E+03  0.98891049562E+03  0.00000000000E+00 0.  1.
          2   -1    0    0  501    0  0.00000000000E+00 -0.00000000000E+00 -0.62765686960E+02  0.62765686960E+02  0.00000000000E+00 0. -1.
         25    2    1    2    0    0  0.98655666766E+02 -0.18673863992E+03  0.32501396272E+03  0.40729123592E+03  0.12509122540E+03 0.  0.
          5    1    3    3  502    0 -0.13130565598E+02 -0.66286480816E+02  0.41043273549E+02  0.79172798331E+02  0.41800000000E+01 0. -1.
         -5    1    3    3    0  502  0.11178623236E+03 -0.12045215910E+03  0.28397068917E+03  0.32811843759E+03  0.41800000000E+01 0. -1.
        -11    1    1    2    0    0 -0.51614871889E+01  0.64666908353E+02  0.29206641569E+03  0.29918429297E+03  0.00000000000E+00 0.  1.
         11    1    1    2    0    0 -0.93494179577E+02  0.12207173157E+03  0.30906443025E+03  0.34520065369E+03  0.00000000000E+00 0. -1.
</event>
<event>
 7    1  0.2733606E-009  0.8899878E+02  0.7561462E-02  0.1305295E+00
         -2   -1    0    0    0  501 -0.00000000000E+00  0.00000000000E+00  0.39128794582E+02  0.39128794582E+02  0.00000000000E+00 0.  1.
          2   -1    0    0  501    0  0.00000000000E+00 -0.00000000000E+00 -0.51226302831E+03  0.51226302831E+03  0.00000000000E+00 0. -1.
         25    2    1    2    0    0  0.46810707015E+02 -0.27843932783E+02 -0.39855909161E+03  0.42126479832E+03  0.12509258140E+03 0.  0.
          5    1    3    3  502    0  0.22504560829E+02 -0.39372520529E+02 -0.39011004824E+03  0.39275943371E+03  0.41800000000E+01 0. -1.
         -5    1    3    3    0  502  0.24306146186E+02  0.11528587746E+02 -0.84490433625E+01  0.28505364610E+02  0.41800000000E+01 0. -1.
        -11    1    1    2    0    0  0.21354818654E+02  0.30243387924E+02 -0.36601237325E+02  0.52060938971E+02  0.00000000000E+00 0. -1.
         11    1    1    2    0    0 -0.68165525669E+02 -0.23994551410E+01 -0.37973904795E+02  0.78066085595E+02  0.00000000000E+00 0.  1.
</event>
<event>
 7    1  0.2733606E-009  0.1169360E+03  0.7561462E-02  0.1248239E+00
          1   -1    0    0  501    0  0.00000000000E+00  0.00000000000E+00  0.50656243574E+03  0.50656243574E+03  0.00000000000E+00 0. -1.
         -1   -1    0    0    0  501 -0.00000000000E+00 -0.00000000000E+00 -0.91281778234E+02  0.91281778234E+02  0.00000000000E+00 0.  1.
         25    2    1    2    0    0 -0.63564294359E+01 -0.82256576761E+02 -0.14540069535E+02  0.15055070314E+03  0.12509017539E+03 0.  0.
          5    1    3    3  502    0  0.59090791966E+01  0.14915210017E+02  0.36455462500E+02  0.40048144188E+02  0.41800000000E+01 0.  1.
         -5    1    3    3    0  502 -0.12265508632E+02 -0.97171786778E+02 -0.50995532036E+02  0.11050255895E+03  0.41800000000E+01 0.  1.
        -11    1    1    2    0    0 -0.37841989917E+02  0.19690649069E+02  0.10045881514E+03  0.10914078707E+03  0.00000000000E+00 0.  1.
         11    1    1    2    0    0  0.44198419353E+02  0.62565927692E+02  0.32936191190E+03  0.33815272377E+03  0.00000000000E+00 0. -1.
</event>
<event>
 7    1  0.2733606E-009  0.1140352E+03  0.7561462E-02  0.1253275E+00
          1   -1    0    0  501    0  0.00000000000E+00  0.00000000000E+00  0.55611957607E+02  0.55611957607E+02  0.00000000000E+00 0. -1.
         -1   -1    0    0    0  501 -0.00000000000E+00 -0.00000000000E+00 -0.24369574670E+03  0.24369574670E+03  0.00000000000E+00 0.  1.
         25    2    1    2    0    0 -0.13708549572E+02  0.40148033533E+02 -0.12358308635E+03  0.18088800868E+03  0.12509158055E+03 0.  0.
          5    1    3    3  502    0  0.55014072668E+02  0.12351001132E+02 -0.41033412572E+02  0.69859206751E+02  0.41800000000E+01 0. -1.
         -5    1    3    3    0  502 -0.68722622240E+02  0.27797032401E+02 -0.82549673773E+02  0.11102880193E+03  0.41800000000E+01 0. -1.
        -11    1    1    2    0    0  0.46652144451E+02 -0.17434932083E+01 -0.42903722114E+02  0.63404981836E+02  0.00000000000E+00 0.  1.
         11    1    1    2    0    0 -0.32943594879E+02 -0.38404540325E+02 -0.21596980636E+02  0.55014713793E+02  0.00000000000E+00 0. -1.
</event>
<event>
 7    1  0.2733606E-009  0.1423792E+03  0.7561462E-02  0.1210163E+00
         -1   -1    0    0    0  501 -0.00000000000E+00  0.00000000000E+00  0.40128154778E+02  0.40128154778E+02  0.00000000000E+00 0.  1.
          1   -1    0    0  501    0  0.00000000000E+00 -0.00000000000E+00 -0.56932300431E+03  0.56932300431E+03  0.00000000000E+00 0. -1.
         25    2    1    2    0    0 -0.66159495950E+02 -0.73179317607E+02 -0.36365484800E+03  0.39701919201E+03  0.12508836444E+03 0.  0.
          5    1    3    3  502    0  0.22221392980E+02 -0.66873734755E+02 -0.16358946178E+03  0.17817090422E+03  0.41800000000E+01 0.  1.
         -5    1    3    3    0  502 -0.88380888930E+02 -0.63055828517E+01 -0.20006538622E+03  0.21884828779E+03  0.41800000000E+01 0.  1.
        -11    1    1    2    0    0  0.15305774326E+02  0.73020488931E+02 -0.61726446502E+02  0.96831878683E+02  0.00000000000E+00 0.  1.
         11    1    1    2    0    0  0.50853721624E+02  0.15882867559E+00 -0.10381355504E+03  0.11560008840E+03  0.00000000000E+00 0. -1.
</event>
<event>
 7    1  0.3944612E-009  0.9149062E+02  0.7561462E-02  0.1299282E+00
         -1   -1    0    0    0  501 -0.00000000000E+00  0.00000000000E+00  0.13355782397E+03  0.13355782397E+03  0.00000000000E+00 0.  1.
          1   -1    0    0  501    0  0.00000000000E+00 -0.00000000000E+00 -0.14017395725E+03  0.14017395725E+03  0.00000000000E+00 0. -1.
         25    2    1    2    0    0 -0.68822637846E+02 -0.11801131169E+02  0.41859242667E+02  0.14925098465E+03  0.12509131882E+03 0.  0.
          5    1    3    3  502    0 -0.40264047587E+02 -0.35562583742E+02  0.79603703825E+02  0.96125506257E+02  0.41800000000E+01 0.  1.
         -5    1    3    3    0  502 -0.28558590259E+02  0.23761452573E+02 -0.37744461158E+02  0.53125478389E+02  0.41800000000E+01 0.  1.
        -11    1    1    2    0    0  0.42428994900E+01 -0.19493671259E+02  0.17844124936E+02  0.26765989800E+02  0.00000000000E+00 0.  1.
         11    1    1    2    0    0  0.64579738356E+02  0.31294802428E+02 -0.66319500888E+02  0.97714806775E+02  0.00000000000E+00 0. -1.
</event>
<event>
 7    1  0.2733606E-009  0.8530237E+02  0.7561462E-02  0.1314644E+00
         -1   -1    0    0    0  501 -0.00000000000E+00  0.00000000000E+00  0.40852415782E+03  0.40852415782E+03  0.00000000000E+00 0.  1.
          1   -1    0    0  501    0  0.00000000000E+00 -0.00000000000E+00 -0.41229526130E+02  0.41229526130E+02  0.00000000000E+00 0. -1.
         25    2    1    2    0    0 -0.39288103899E+02 -0.56613438094E+02  0.17927008068E+03  0.22920985176E+03  0.12510298891E+03 0.  0.
          5    1    3    3  502    0 -0.16158107956E+02 -0.68099856110E+02  0.27683755178E+02  0.75382607780E+02  0.41800000000E+01 0. -1.
         -5    1    3    3    0  502 -0.23129995943E+02  0.11486418016E+02  0.15158632550E+03  0.15382724398E+03  0.41800000000E+01 0. -1.
        -11    1    1    2    0    0  0.35327476695E+02  0.27032880969E+02  0.18111256739E+02  0.48029416859E+02  0.00000000000E+00 0. -1.
         11    1    1    2    0    0  0.39606272038E+01  0.29580557125E+02  0.16991329427E+03  0.17251441534E+03  0.00000000000E+00 0.  1.
</event>
<event>
 7    1  0.2733606E-009  0.1487815E+03  0.7561462E-02  0.1201978E+00
          2   -1    0    0  501    0  0.00000000000E+00  0.00000000000E+00  0.28943236648E+02  0.28943236648E+02  0.00000000000E+00 0. -1.
         -2   -1    0    0    0  501 -0.00000000000E+00 -0.00000000000E+00 -0.95480297848E+03  0.95480297848E+03  0.00000000000E+00 0.  1.
         25    2    1    2    0    0  0.10586744789E+03  0.59411315156E+02 -0.39693937171E+03  0.43352729121E+03  0.12508967390E+03 0.  0.
          5    1    3    3  502    0 -0.25952767239E+02  0.27301759995E+02 -0.10326578515E+03  0.11000103185E+03  0.41800000000E+01 0. -1.
         -5    1    3    3    0  502  0.13182021513E+03  0.32109555161E+02 -0.29367358656E+03  0.32352625935E+03  0.41800000000E+01 0. -1.
        -11    1    1    2    0    0 -0.15375404915E+02 -0.19987792542E+02 -0.21058731631E+02  0.32853996788E+02  0.00000000000E+00 0. -1.
         11    1    1    2    0    0 -0.90492042973E+02 -0.39423522615E+02 -0.50786163849E+03  0.51736492713E+03  0.00000000000E+00 0.  1.
</event>
<event>
 7    1  0.2733606E-009  0.1010014E+03  0.7561462E-02  0.1278204E+00
         -1   -1    0    0    0  501 -0.00000000000E+00  0.00000000000E+00  0.97945369109E+02  0.97945369109E+02  0.00000000000E+00 0.  1.
          1   -1    0    0  501    0  0.00000000000E+00 -0.00000000000E+00 -0.12675608605E+03  0.12675608605E+03  0.00000000000E+00 0. -1.
         25    2    1    2    0    0  0.74293155814E+00  0.84387213112E+01 -0.31604936019E+02  0.12929941000E+03  0.12509077297E+03 0.  0.
          5    1    3    3  502    0 -0.28341652534E+02  0.57221900018E+02  0.35831624636E+00  0.63993717665E+02  0.41800000000E+01 0.  1.
         -5    1    3    3    0  502  0.29084584092E+02 -0.48783178707E+02 -0.31963252265E+02  0.65305692339E+02  0.41800000000E+01 0.  1.
        -11    1    1    2    0    0  0.96605764652E+01  0.35043985466E+02 -0.23734996195E+02  0.43413796187E+02  0.00000000000E+00 0. -1.
         11    1    1    2    0    0 -0.10403508023E+02 -0.43482706778E+02  0.26529215272E+02  0.51988248969E+02  0.00000000000E+00 0.  1.
</event>
<event>
 7    1  0.2733606E-009  0.1073279E+03  0.7561462E-02  0.1265600E+00
          1   -1    0    0  501    0  0.00000000000E+00  0.00000000000E+00  0.18054166003E+02  0.18054166003E+02  0.00000000000E+00 0. -1.
         -1   -1    0    0    0  501 -0.00000000000E+00 -0.00000000000E+00 -0.80895497816E+03  0.80895497816E+03  0.00000000000E+00 0.  1.
         25    2    1    2    0    0 -0.26265845771E+02  0.39580739202E+02 -0.34600442317E+03  0.37097536687E+03  0.12508849825E+03 0.  0.
          5    1    3    3  502    0  0.41400957538E+02  0.29045953501E+02 -0.23549125928E+03  0.24089689142E+03  0.41800000000E+01 0.  1.
         -5    1    3    3    0  502 -0.67666803309E+02  0.10534785702E+02 -0.11051316390E+03  0.13007847545E+03  0.41800000000E+01 0.  1.
        -11    1    1    2    0    0 -0.99064236218E+01 -0.55067938420E+02 -0.32678597250E+03  0.33154138037E+03  0.00000000000E+00 0.  1.
         11    1    1    2    0    0  0.36172269393E+02  0.15487199218E+02 -0.11811041648E+03  0.12449239693E+03  0.00000000000E+00 0. -1.
</event>
<event>
 7    1  0.2733606E-009  0.1247775E+03  0.7561462E-02  0.1235417E+00
         -2   -1    0    0    0  501 -0.00000000000E+00  0.00000000000E+00  0.36405493219E+02  0.36405493219E+02  0.00000000000E+00 0.  1.
          2   -1    0    0  501    0  0.00000000000E+00 -0.00000000000E+00 -0.51559958892E+03  0.51559958892E+03  0.00000000000E+00 0. -1.
         25    2    1    2    0    0  0.60235100954E+02 -0.46271233263E+02 -0.20396748130E+03  0.25103593419E+03  0.12508801865E+03 0.  0.
          5    1    3    3  502    0  0.97055322691E+02 -0.16588691025E+02 -0.12981437863E+03  0.16298516997E+03  0.41800000000E+01 0. -1.
         -5    1    3    3    0  502 -0.36820221737E+02 -0.29682542237E+02 -0.74153102675E+02  0.88050764214E+02  0.41800000000E+01 0. -1.
        -11    1    1    2    0    0  0.10588561332E+02  0.28646440302E+02 -0.17114543675E+03  0.17384906297E+03  0.00000000000E+00 0. -1.
         11    1    1    2    0    0 -0.70823662286E+02  0.17624792960E+02 -0.10408117765E+03  0.12712008499E+03  0.00000000000E+00 0.  1.
</event>
<event>
 7    1  0.2733606E-009  0.7392754E+02  0.7561462E-02  0.1347225E+00
         -1   -1    0    0    0  501 -0.00000000000E+00  0.00000000000E+00  0.26426546479E+02  0.26426546479E+02  0.00000000000E+00 0.  1.
          1   -1    0    0  501    0  0.00000000000E+00 -0.00000000000E+00 -0.69474242443E+03  0.69474242443E+03  0.00000000000E+00 0. -1.
         25    2    1    2    0    0  0.46624239845E+02  0.10643799871E+02 -0.52771057301E+03  0.54443840296E+03  0.12509042940E+03 0.  0.
          5    1    3    3  502    0  0.11951135046E+02 -0.25590202582E+02 -0.21521423982E+02  0.35753771651E+02  0.41800000000E+01 0. -1.
         -5    1    3    3    0  502  0.34673104799E+02  0.36234002453E+02 -0.50618914903E+03  0.50868463130E+03  0.41800000000E+01 0. -1.
        -11    1    1    2    0    0 -0.25088947410E+02  0.19609944340E+02 -0.13556463984E+03  0.13925435998E+03  0.00000000000E+00 0. -1.
         11    1    1    2    0    0 -0.21535292435E+02 -0.30253744211E+02 -0.50406650982E+01  0.37476207968E+02  0.00000000000E+00 0.  1.
</event>
<event>
 7    1  0.2733606E-009  0.1717431E+03  0.7561462E-02  0.1176042E+00
         -1   -1    0    0    0  501 -0.00000000000E+00  0.00000000000E+00  0.49512768951E+02  0.49512768951E+02  0.00000000000E+00 0.  1.
          1   -1    0    0  501    0  0.00000000000E+00 -0.00000000000E+00 -0.76030189828E+03  0.76030189828E+03  0.00000000000E+00 0. -1.
         25    2    1    2    0    0  0.77073503360E+02  0.13410613586E+03 -0.45374208174E+03  0.49543357556E+03  0.12509104866E+03 0.  0.
          5    1    3    3  502    0  0.25869432513E+02  0.13413606044E+03 -0.39183159925E+03  0.41498335487E+03  0.41800000000E+01 0. -1.
         -5    1    3    3    0  502  0.51204070847E+02 -0.29924576514E-01 -0.61910482488E+02  0.80450220687E+02  0.41800000000E+01 0. -1.
        -11    1    1    2    0    0 -0.43545386732E+02 -0.90527549671E+02 -0.78295515958E+02  0.12736414635E+03  0.00000000000E+00 0.  1.
         11    1    1    2    0    0 -0.33528116628E+02 -0.43578586190E+02 -0.17875153163E+03  0.18701694533E+03  0.00000000000E+00 0. -1.
</event>
<event>
 7    1  0.2733606E-009  0.9093098E+02  0.7561462E-02  0.1300613E+00
          4   -1    0    0  501    0  0.00000000000E+00  0.00000000000E+00  0.98883954797E+02  0.98883954797E+02  0.00000000000E+00 0. -1.
         -4   -1    0    0    0  501 -0.00000000000E+00 -0.00000000000E+00 -0.12171047106E+03  0.12171047106E+03  0.00000000000E+00 0.  1.
         25    2    1    2    0    0  0.43184774439E+01 -0.14048082722E+02 -0.27069629262E+02  0.12882366237E+03  0.12508706281E+03 0.  0.
          5    1    3    3  502    0 -0.50466154184E+02 -0.16051476398E+02  0.19684339447E+02  0.56651815789E+02  0.41800000000E+01 0.  1.
         -5    1    3    3    0  502  0.54784631628E+02  0.20033936760E+01 -0.46753968708E+02  0.72171846580E+02  0.41800000000E+01 0.  1.
        -11    1    1    2    0    0 -0.25111231775E+02 -0.21181429395E+02 -0.25170757840E+02  0.41385915028E+02  0.00000000000E+00 0.  1.
         11    1    1    2    0    0  0.20792754332E+02  0.35229512117E+02  0.29413870838E+02  0.50384848460E+02  0.00000000000E+00 0. -1.
</event>
<event>
 7    1  0.2733606E-009  0.1187788E+03  0.7561462E-02  0.1245125E+00
          2   -1    0    0  501    0  0.00000000000E+00  0.00000000000E+00  0.62531613952E+03  0.62531613952E+03  0.00000000000E+00 0. -1.
         -2   -1    0    0    0  501 -0.00000000000E+00 -0.00000000000E+00 -0.28937858023E+02  0.28937858023E+02  0.00000000000E+00 0.  1.
         25    2    1    2    0    0 -0.70227688649E+02  0.34372438247E+02  0.30246293251E+03  0.33651858671E+03  0.12509013110E+03 0.  0.
          5    1    3    3  502    0  0.18737951814E+02  0.29770131126E+02  0.18854405637E+03  0.19184291787E+03  0.41800000000E+01 0.  1.
         -5    1    3    3    0  502 -0.88965640464E+02  0.46023071211E+01  0.11391887614E+03  0.14467566884E+03  0.41800000000E+01 0.  1.
        -11    1    1    2    0    0  0.87367514852E+02 -0.17906671296E+02  0.26856559036E+03  0.28298623262E+03  0.00000000000E+00 0. -1.
         11    1    1    2    0    0 -0.17139826203E+02 -0.16465766951E+02  0.25349758632E+02  0.34749178210E+02  0.00000000000E+00 0.  1.
</event>
<event>
 7    1  0.2733606E-009  0.1484929E+03  0.7561462E-02  0.1202337E+00
         -1   -1    0    0    0  501 -0.00000000000E+00  0.00000000000E+00  0.40473509450E+02  0.40473509450E+02  0.00000000000E+00 0.  1.
          1   -1    0    0  501    0  0.00000000000E+00 -0.00000000000E+00 -0.83086050562E+03  0.83086050562E+03  0.00000000000E+00 0. -1.
         25    2    1    2    0    0  0.10804994086E+03  0.93503783858E+01 -0.62897387429E+03  0.65040058977E+03  0.12510225153E+03 0.  0.
          5    1    3    3  502    0  0.78278745379E+02  0.65274004645E+02 -0.39664683783E+03  0.40955395740E+03  0.41800000000E+01 0.  1.
         -5    1    3    3    0  502  0.29771195483E+02 -0.55923626260E+02 -0.23232703646E+03  0.24084663237E+03  0.41800000000E+01 0.  1.
        -11    1    1    2    0    0 -0.39117593223E+02 -0.40087312867E+02 -0.17929787441E+02  0.58810339483E+02  0.00000000000E+00 0.  1.
         11    1    1    2    0    0 -0.68932347640E+02  0.30736934481E+02 -0.14348333443E+03  0.16212308581E+03  0.00000000000E+00 0. -1.
</event>
<event>
 7    1  0.2733606E-009  0.1539195E+03  0.7561462E-02  0.1195738E+00
         -2   -1    0    0    0  501 -0.00000000000E+00  0.00000000000E+00  0.19089979795E+03  0.19089979795E+03  0.00000000000E+00 0.  1.
          2   -1    0    0  501    0  0.00000000000E+00 -0.00000000000E+00 -0.20220896071E+03  0.20220896071E+03  0.00000000000E+00 0. -1.
         25    2    1    2    0    0 -0.91189536293E+02 -0.86858684931E+02  0.10052729550E+03  0.20399042918E+03  0.12508555224E+03 0.  0.
          5    1    3    3  502    0 -0.73802100975E+02  0.63059998895E+01  0.13810878260E+02  0.75463424924E+02  0.41800000000E+01 0. -1.
         -5    1    3    3    0  502 -0.17387435317E+02 -0.93164684820E+02  0.86716417242E+02  0.12852700426E+03  0.41800000000E+01 0. -1.
        -11    1    1    2    0    0  0.80721463374E+02  0.38732186938E+02 -0.31550512198E+02  0.94929298819E+02  0.00000000000E+00 0.  1.
         11    1    1    2    0    0  0.10468072918E+02  0.48126497992E+02 -0.80285946069E+02  0.94189030656E+02  0.00000000000E+00 0. -1.
</event>
<event>
 7    1  0.2733606E-009  0.1599724E+03  0.7561462E-02  0.1188728E+00
          2   -1    0    0  501    0  0.00000000000E+00  0.00000000000E+00  0.36927690306E+02  0.36927690306E+02  0.00000000000E+00 0. -1.
         -2   -1    0    0    0  501 -0.00000000000E+00 -0.00000000000E+00 -0.93588860328E+03  0.93588860328E+03  0.00000000000E+00 0.  1.
         25    2    1    2    0    0 -0.13109114128E+03  0.32002723769E+02 -0.64690338903E+03  0.67256347501E+03  0.12509425055E+03 0.  0.
          5    1    3    3  502    0 -0.12857790542E+03  0.52759128815E+02 -0.37707631399E+03  0.40189528786E+03  0.41800000000E+01 0. -1.
         -5    1    3    3    0  502 -0.25132358615E+01 -0.20756405046E+02 -0.26982707504E+03  0.27066818714E+03  0.41800000000E+01 0. -1.
        -11    1    1    2    0    0  0.50799855628E+02  0.29224576794E+02 -0.12419645348E+03  0.13732975016E+03  0.00000000000E+00 0.  1.
         11    1    1    2    0    0  0.80291285651E+02 -0.61227300563E+02 -0.12786107046E+03  0.16292306843E+03  0.00000000000E+00 0. -1.
</event>
<event>
 7    1  0.2733606E-009  0.1370507E+03  0.7561462E-02  0.1217353E+00
         -2   -1    0    0    0  501 -0.00000000000E+00  0.00000000000E+00  0.16709775564E+03  0.16709775564E+03  0.00000000000E+00 0.  1.
          2   -1    0    0  501    0  0.00000000000E+00 -0.00000000000E+00 -0.11426654995E+03  0.11426654995E+03  0.00000000000E+00 0. -1.
         25    2    1    2    0    0 -0.80057752175E+02  0.28217176113E+02  0.31525145578E+02  0.15442408340E+03  0.12509000767E+03 0.  0.
          5    1    3    3  502    0  0.25941659706E+02  0.36223608608E+02  0.10921126043E+02  0.46063683341E+02  0.41800000000E+01 0. -1.
         -5    1    3    3    0  502 -0.10599941188E+03 -0.80064324947E+01  0.20604019535E+02  0.10836040006E+03  0.41800000000E+01 0. -1.
        -11    1    1    2    0    0  0.35267415728E+01  0.27865204462E+02 -0.48905538229E+01  0.28510086681E+02  0.00000000000E+00 0. -1.
         11    1    1    2    0    0  0.76531010602E+02 -0.56082380576E+02  0.26196613936E+02  0.98430135510E+02  0.00000000000E+00 0.  1.
</event>
<event>
 7    1  0.2733606E-009  0.1143571E+03  0.7561462E-02  0.1252708E+00
          1   -1    0    0  501    0  0.00000000000E+00  0.00000000000E+00  0.10749663393E+03  0.10749663393E+03  0.00000000000E+00 0. -1.
         -1   -1    0    0    0  501 -0.00000000000E+00 -0.00000000000E+00 -0.16555537953E+03  0.16555537953E+03  0.00000000000E+00 0.  1.
         25    2    1    2    0    0 -0.77622056372E+02 -0.75516148742E+01 -0.40120499019E+02  0.15276185502E+03  0.12507725366E+03 0.  0.
          5    1    3    3  502    0  0.26946247154E+02 -0.26323248172E+02  0.30195626187E+01  0.38021096623E+02  0.41800000000E+01 0.  1.
         -5    1    3    3    0  502 -0.10456830353E+03  0.18771633297E+02 -0.43140061638E+02  0.11474075840E+03  0.41800000000E+01 0.  1.
        -11    1    1    2    0    0  0.59007192792E+02 -0.88674685200E+01  0.29640446194E+02  0.66626097362E+02  0.00000000000E+00 0. -1.
         11    1    1    2    0    0  0.18614863580E+02  0.16419083394E+02 -0.47578692773E+02  0.53664061080E+02  0.00000000000E+00 0.  1.
</event>
<event>
 7    1  0.2733606E-009  0.1173038E+03  0.7561462E-02  0.1247612E+00
          2   -1    0    0  501    0  0.00000000000E+00  0.00000000000E+00  0.73557411328E+03  0.73557411328E+03  0.00000000000E+00 0. -1.
         -2   -1    0    0    0  501 -0.00000000000E+00 -0.00000000000E+00 -0.25836749250E+02  0.25836749250E+02  0.00000000000E+00 0.  1.
         25    2    1    2    0    0  0.52630464307E+02 -0.11749759821E+02  0.56747981572E+03  0.58360019414E+03  0.12509125758E+03 0.  0.
          5    1    3    3  502    0 -0.25722184097E+02 -0.37225627143E+02  0.11482632914E+03  0.12349063258E+03  0.41800000000E+01 0. -1.
         -5    1    3    3    0  502  0.78352648403E+02  0.25475867321E+02  0.45265348658E+03  0.46010956156E+03  0.41800000000E+01 0. -1.
        -11    1    1    2    0    0 -0.44560921663E+02  0.50349485502E+02  0.88953030665E+02  0.11150510344E+03  0.00000000000E+00 0. -1.
         11    1    1    2    0    0 -0.80695426442E+01 -0.38599725681E+02  0.53304517642E+02  0.66305564941E+02  0.00000000000E+00 0.  1.
</event>
<event>
 7    1  0.2733606E-009  0.1265995E+03  0.7561462E-02  0.1232590E+00
          3   -1    0    0  501    0  0.00000000000E+00  0.00000000000E+00  0.76007681207E+03  0.76007681207E+03  0.00000000000E+00 0. -1.
         -3   -1    0    0    0  501 -0.00000000000E+00 -0.00000000000E+00 -0.29016528895E+02  0.29016528895E+02  0.00000000000E+00 0.  1.
         25    2    1    2    0    0  0.36638100825E+02 -0.89464485659E+02  0.47391926535E+03  0.49959348636E+03  0.12509171404E+03 0.  0.
          5    1    3    3  502    0  0.34913164415E+02 -0.11126836976E+03  0.26581178426E+03  0.29029804720E+03  0.41800000000E+01 0. -1.
         -5    1    3    3    0  502  0.17249364101E+01  0.21803884101E+02  0.20810748109E+03  0.20929543916E+03  0.41800000000E+01 0. -1.
        -11    1    1    2    0    0 -0.50528887235E+02  0.45023641546E+02  0.21928548065E+03  0.22949165294E+03  0.00000000000E+00 0.  1.
         11    1    1    2    0    0  0.13890786410E+02  0.44440844114E+02  0.37855537178E+02  0.60008201670E+02  0.00000000000E+00 0. -1.
</event>
<event>
 7    1  0.2733606E-009  0.1108277E+03  0.7561462E-02  0.1259045E+00
          2   -1    0    0  501    0  0.00000000000E+00  0.00000000000E+00  0.25313131870E+03  0.25313131870E+03  0.00000000000E+00 0. -1.
         -2   -1    0    0    0  501 -0.00000000000E+00 -0.00000000000E+00 -0.78970740700E+02  0.78970740700E+02  0.00000000000E+00 0.  1.
         25    2    1    2    0    0 -0.29575601671E+02  0.47809651026E+02  0.17731140342E+03  0.22415949717E+03  0.12509063691E+03 0.  0.
          5    1    3    3  502    0 -0.71064395189E+02  0.24138196406E+01  0.66965579869E+02  0.97764186060E+02  0.41800000000E+01 0. -1.
         -5    1    3    3    0  502  0.41488793518E+02  0.45395831385E+02  0.11034582355E+03  0.12639531111E+03  0.41800000000E+01 0. -1.
        -11    1    1    2    0    0  0.48973597317E+02 -0.15985476297E+02  0.28651741330E+02  0.58948036166E+02  0.00000000000E+00 0. -1.
         11    1    1    2    0    0 -0.19397995647E+02 -0.31824174729E+02 -0.31802566752E+02  0.48994526065E+02  0.00000000000E+00 0.  1.
</event>
<event>
 7    1  0.2733606E-009  0.1337370E+03  0.7561462E-02  0.1222014E+00
          2   -1    0    0  501    0  0.00000000000E+00  0.00000000000E+00  0.21438995667E+03  0.21438995667E+03  0.00000000000E+00 0. -1.
         -2   -1    0    0    0  501 -0.00000000000E+00 -0.00000000000E+00 -0.10700039208E+03  0.10700039208E+03  0.00000000000E+00 0.  1.
         25    2    1    2    0    0  0.88927406765E+02  0.39192079695E+02  0.94990720952E+02  0.18469276735E+03  0.12507629056E+03 0.  0.
          5    1    3    3  502    0 -0.18561761629E+02  0.44134774147E+02  0.14339469876E+02  0.50154860982E+02  0.41800000000E+01 0. -1.
         -5    1    3    3    0  502  0.10748916839E+03 -0.49426944526E+01  0.80651251076E+02  0.13453790637E+03  0.41800000000E+01 0. -1.
        -11    1    1    2    0    0 -0.42603718080E+02  0.10412397650E+02  0.43738788690E+02  0.61940103770E+02  0.00000000000E+00 0. -1.
         11    1    1    2    0    0 -0.46323688686E+02 -0.49604477345E+02 -0.31339945052E+02  0.74757477632E+02  0.00000000000E+00 0.  1.
</event>
<event>
 7    1  0.2733606E-009  0.1216588E+03  0.7561462E-02  0.1240385E+00
         -3   -1    0    0    0  501 -0.00000000000E+00  0.00000000000E+00  0.27851252281E+03  0.27851252281E+03  0.00000000000E+00 0.  1.
          3   -1    0    0  501    0  0.00000000000E+00 -0.00000000000E+00 -0.73111123627E+02  0.73111123627E+02  0.00000000000E+00 0. -1.
         25    2    1    2    0    0 -0.51190184187E+02  0.68685808772E+02  0.15582506722E+03  0.21741001534E+03  0.12508991931E+03 0.  0.
          5    1    3    3  502    0 -0.27559396191E+02 -0.29544416808E+02  0.84226449664E+02  0.93509144505E+02  0.41800000000E+01 0. -1.
         -5    1    3    3    0  502 -0.23630787996E+02  0.98230225580E+02  0.71598617552E+02  0.12390087084E+03  0.41800000000E+01 0. -1.
        -11    1    1    2    0    0  0.52430757749E+02 -0.25369739283E+02  0.65860049577E+02  0.87921295257E+02  0.00000000000E+00 0.  1.
         11    1    1    2    0    0 -0.12405735615E+01 -0.43316069489E+02 -0.16283717606E+02  0.46292335843E+02  0.00000000000E+00 0. -1.
</event>
<event>
 7    1  0.2733606E-009  0.9241984E+02  0.7561462E-02  0.1297095E+00
          2   -1    0    0  501    0  0.00000000000E+00  0.00000000000E+00  0.31779377571E+04  0.31779377571E+04  0.00000000000E+00 0. -1.
         -2   -1    0    0    0  501 -0.00000000000E+00 -0.00000000000E+00 -0.12223807168E+02  0.12223807168E+02  0.00000000000E+00 0.  1.
         25    2    1    2    0    0  0.28219418065E+02 -0.33852571056E+02  0.29402050671E+04  0.29431948945E+04  0.12509204083E+03 0.  0.
          5    1    3    3  502    0  0.51745864145E+02  0.51167846456E+01  0.25147809666E+04  0.25153219671E+04  0.41800000000E+01 0.  1.
         -5    1    3    3    0  502 -0.23526446080E+02 -0.38969355702E+02  0.42542410047E+03  0.42787292741E+03  0.41800000000E+01 0.  1.
        -11    1    1    2    0    0 -0.13864821443E+02  0.57582410850E+02  0.84094426417E+02  0.10285834855E+03  0.00000000000E+00 0.  1.
         11    1    1    2    0    0 -0.14354596622E+02 -0.23729839794E+02  0.14141445642E+03  0.14410832115E+03  0.00000000000E+00 0. -1.
</event>
<event>
 7    1  0.2733606E-009  0.3206342E+03  0.7561462E-02  0.1075358E+00
         -2   -1    0    0    0  501 -0.00000000000E+00  0.00000000000E+00  0.55398797702E+03  0.55398797702E+03  0.00000000000E+00 0.  1.
          2   -1    0    0  501    0  0.00000000000E+00 -0.00000000000E+00 -0.20958185065E+03  0.20958185065E+03  0.00000000000E+00 0. -1.
         25    2    1    2    0    0  0.22406143470E+03 -0.21458671911E+03  0.27532590733E+03  0.43324570014E+03  0.12508595007E+03 0.  0.
          5    1    3    3  502    0  0.40511720404E+02 -0.96725050510E+02  0.39919082469E+02  0.11228508553E+03  0.41800000000E+01 0. -1.
         -5    1    3    3    0  502  0.18354971429E+03 -0.11786166860E+03  0.23540682486E+03  0.32096061462E+03  0.41800000000E+01 0. -1.
        -11    1    1    2    0    0 -0.47478512184E+02  0.90904759658E+02  0.49412016672E+02  0.11383950035E+03  0.00000000000E+00 0. -1.
         11    1    1    2    0    0 -0.17658292251E+03  0.12368195946E+03  0.19668202366E+02  0.21648462717E+03  0.00000000000E+00 0.  1.
</event>
<event>
 7    1  0.2733606E-009  0.2146227E+03  0.7561462E-02  0.1137957E+00
          1   -1    0    0  501    0  0.00000000000E+00  0.00000000000E+00  0.44709633003E+02  0.44709633003E+02  0.00000000000E+00 0. -1.
         -1   -1    0    0    0  501 -0.00000000000E+00 -0.00000000000E+00 -0.14348796150E+04  0.14348796150E+04  0.00000000000E+00 0.  1.
         25    2    1    2    0    0  0.90631269649E+02 -0.17408676805E+03 -0.10555258596E+04  0.10808804095E+04  0.12508952536E+03 0.  0.
          5    1    3    3  502    0  0.12064300444E+03 -0.11737014868E+03 -0.77529560599E+03  0.79336702439E+03  0.41800000000E+01 0.  1.
         -5    1    3    3    0  502 -0.30011734794E+02 -0.56716619373E+02 -0.28023025365E+03  0.28751338508E+03  0.41800000000E+01 0.  1.
        -11    1    1    2    0    0 -0.39638521200E+02  0.88037095189E+02 -0.24887672985E+03  0.26694825182E+03  0.00000000000E+00 0.  1.
         11    1    1    2    0    0 -0.50992748449E+02  0.86049672863E+02 -0.85767392528E+02  0.13176058673E+03  0.00000000000E+00 0. -1.
</event>
<event>
 7    1  0.2733606E-009  0.1196628E+03  0.7561462E-02  0.1243654E+00
         -1   -1    0    0    0  501 -0.00000000000E+00  0.00000000000E+00  0.61344895381E+02  0.61344895381E+02  0.00000000000E+00 0.  1.
          1   -1    0    0  501    0  0.00000000000E+00 -0.00000000000E+00 -0.57272185409E+03  0.57272185409E+03  0.00000000000E+00 0. -1.
         25    2    1    2    0    0 -0.20168448109E+02 -0.66543283617E+02 -0.49773566447E+03  0.51790338387E+03  0.12509335891E+03 0.  0.
          5    1    3    3  502    0  0.41373235455E+02 -0.17120695590E+02 -0.71981422178E+02  0.84874379928E+02  0.41800000000E+01 0. -1.
         -5    1    3    3    0  502 -0.61541683565E+02 -0.49422588027E+02 -0.42575424230E+03  0.43302900394E+03  0.41800000000E+01 0. -1.
        -11    1    1    2    0    0  0.38213465535E+02  0.82694607104E+02 -0.12096413450E+02  0.91896627853E+02  0.00000000000E+00 0.  1.
         11    1    1    2    0    0 -0.18045017426E+02 -0.16151323488E+02 -0.15448807884E+01  0.24266737748E+02  0.00000000000E+00 0. -1.
</event>
<event>
 7    1  0.2733606E-009  0.1192937E+03  0.7561462E-02  0.1244267E+00
         -1   -1    0    0    0  501 -0.00000000000E+00  0.00000000000E+00  0.35601235585E+03  0.35601235585E+03  0.00000000000E+00 0.  1.
          1   -1    0    0  501    0  0.00000000000E+00 -0.00000000000E+00 -0.51837684852E+02  0.51837684852E+02  0.00000000000E+00 0. -1.
         25    2    1    2    0    0 -0.57930168142E+02  0.22616625170E+02  0.24539195485E+03  0.28236663972E+03  0.12508513744E+03 0.  0.
          5    1    3    3  502    0 -0.88581002064E+01 -0.46668032911E+02  0.13409064381E+03  0.14231705588E+03  0.41800000000E+01 0. -1.
         -5    1    3    3    0  502 -0.49072067936E+02  0.69284658081E+02  0.11130131104E+03  0.14004958384E+03  0.41800000000E+01 0. -1.
        -11    1    1    2    0    0  0.27722299847E+02 -0.55012416791E+02  0.52114860710E+02  0.80689842092E+02  0.00000000000E+00 0.  1.
         11    1    1    2    0    0  0.30207868295E+02  0.32395791620E+02  0.66678554381E+01  0.44793558887E+02  0.00000000000E+00 0. -1.
</event>
<event>
 7    1  0.2733606E-009  0.1012801E+03  0.7561462E-02  0.1277627E+00
          2   -1    0    0  501    0  0.00000000000E+00  0.00000000000E+00  0.33949260326E+03  0.33949260326E+03  0.00000000000E+00 0.  1.
         -2   -1    0    0    0  501 -0.00000000000E+00 -0.00000000000E+00 -0.59343282799E+02  0.59343282799E+02  0.00000000000E+00 0. -1.
         25    2    1    2    0    0 -0.45057433790E+02 -0.84121924547E+01  0.26137826009E+03  0.29337253721E+03  0.12509162009E+03 0.  0.
          5    1    3    3  502    0  0.47995849011E+01  0.47596777694E+02  0.51274909705E+02  0.70250110515E+02  0.41800000000E+01 0. -1.
         -5    1    3    3    0  502 -0.49857018691E+02 -0.56008970149E+02  0.21010335038E+03  0.22312242669E+03  0.41800000000E+01 0. -1.
        -11    1    1    2    0    0  0.78112938479E+01  0.33586449613E+02  0.42419524769E+02  0.54667010078E+02  0.00000000000E+00 0.  1.
         11    1    1    2    0    0  0.37246139942E+02 -0.25174257158E+02 -0.23648464401E+02  0.50796338771E+02  0.00000000000E+00 0. -1.
</event>
<event>
 7    1  0.2733606E-009  0.1989059E+03  0.7561462E-02  0.1150665E+00
          1   -1    0    0  501    0  0.00000000000E+00  0.00000000000E+00  0.95029918273E+02  0.95029918273E+02  0.00000000000E+00 0. -1.
         -1   -1    0    0    0  501 -0.00000000000E+00 -0.00000000000E+00 -0.44884608065E+03  0.44884608065E+03  0.00000000000E+00 0.  1.
         25    2    1    2    0    0  0.61178180755E+02  0.16509227707E+03 -0.21374778723E+03  0.30386427185E+03  0.12508856627E+03 0.  0.
          5    1    3    3  502    0 -0.27861238872E+02  0.65300934132E+02 -0.31529137242E+02  0.77794726847E+02  0.41800000000E+01 0.  1.
         -5    1    3    3    0  502  0.89039419627E+02  0.99791342934E+02 -0.18221864999E+03  0.22606954500E+03  0.41800000000E+01 0.  1.
        -11    1    1    2    0    0 -0.74761100434E+02 -0.92010994785E+02 -0.69003614201E+02  0.13717413777E+03  0.00000000000E+00 0. -1.
         11    1    1    2    0    0  0.13582919679E+02 -0.73081282281E+02 -0.71064760942E+02  0.10283758931E+03  0.00000000000E+00 0.  1.
</event>
<event>
 7    1  0.2733606E-009  0.7045857E+02  0.7561462E-02  0.1358541E+00
         -2   -1    0    0    0  501 -0.00000000000E+00  0.00000000000E+00  0.20900719788E+02  0.20900719788E+02  0.00000000000E+00 0.  1.
          2   -1    0    0  501    0  0.00000000000E+00 -0.00000000000E+00 -0.88883336686E+03  0.88883336686E+03  0.00000000000E+00 0. -1.
         25    2    1    2    0    0  0.52317154766E+02 -0.87416865241E+01 -0.68528024276E+03  0.69862036126E+03  0.12509155164E+03 0.  0.
          5    1    3    3  502    0  0.52748316899E+02  0.59013658860E+01 -0.10128199369E+03  0.11442344909E+03  0.41800000000E+01 0.  1.
         -5    1    3    3    0  502 -0.43116213297E+00 -0.14643052410E+02 -0.58399824906E+03  0.58419691217E+03  0.41800000000E+01 0.  1.
        -11    1    1    2    0    0 -0.29557412495E+02 -0.20067913404E+02 -0.16771228743E+03  0.17147528433E+03  0.00000000000E+00 0. -1.
         11    1    1    2    0    0 -0.22759742271E+02  0.28809599928E+02 -0.14940116879E+02  0.39638441047E+02  0.00000000000E+00 0.  1.
</event>
<event>
 7    1  0.2733606E-009  0.1272866E+03  0.7561462E-02  0.1231538E+00
         -1   -1    0    0    0  501 -0.00000000000E+00  0.00000000000E+00  0.61336855554E+02  0.61336855554E+02  0.00000000000E+00 0.  1.
          1   -1    0    0  501    0  0.00000000000E+00 -0.00000000000E+00 -0.34674489405E+03  0.34674489405E+03  0.00000000000E+00 0. -1.
         25    2    1    2    0    0  0.73749347229E+02 -0.19053795835E+02 -0.23818209819E+03  0.27960608773E+03  0.12508732567E+03 0.  0.
          5    1    3    3  502    0  0.66967668645E+02 -0.68388157859E+02 -0.16890799006E+03  0.19418802817E+03  0.41800000000E+01 0.  1.
         -5    1    3    3    0  502  0.67816785839E+01  0.49334362024E+02 -0.69274108138E+02  0.85418059561E+02  0.41800000000E+01 0.  1.
        -11    1    1    2    0    0  0.11975828355E+02  0.19711834377E+02  0.10274905806E+02  0.25249763734E+02  0.00000000000E+00 0.  1.
         11    1    1    2    0    0 -0.85725175584E+02 -0.65803854269E+00 -0.57500846105E+02  0.10322589814E+03  0.00000000000E+00 0. -1.
</event>
<event>
 7    1  0.2733606E-009  0.4455671E+03  0.7561462E-02  0.1029052E+00
          1   -1    0    0  501    0  0.00000000000E+00  0.00000000000E+00  0.91397644614E+03  0.91397644614E+03  0.00000000000E+00 0. -1.
         -1   -1    0    0    0  501 -0.00000000000E+00 -0.00000000000E+00 -0.34661609446E+03  0.34661609446E+03  0.00000000000E+00 0.  1.
         25    2    1    2    0    0  0.43203154672E+03 -0.86424629466E+02 -0.87387791086E+02  0.46626588536E+03  0.12508707319E+03 0.  0.
          5    1    3    3  502    0  0.91714502594E+02 -0.26724752414E+01  0.30016730550E+02  0.96629025778E+02  0.41800000000E+01 0. -1.
         -5    1    3    3    0  502  0.34031704413E+03 -0.83752154225E+02 -0.11740452164E+03  0.36963685958E+03  0.41800000000E+01 0. -1.
        -11    1    1    2    0    0 -0.41711505518E+03  0.64205433129E+02  0.62676193555E+03  0.75560428186E+03  0.00000000000E+00 0.  1.
         11    1    1    2    0    0 -0.14916491542E+02  0.22219196337E+02  0.27986207218E+02  0.38722373381E+02  0.00000000000E+00 0. -1.
</event>
<event>
 7    1  0.2733606E-009  0.1566367E+03  0.7561462E-02  0.1192547E+00
          2   -1    0    0  501    0  0.00000000000E+00  0.00000000000E+00  0.18168974880E+03  0.18168974880E+03  0.00000000000E+00 0. -1.
         -2   -1    0    0    0  501 -0.00000000000E+00 -0.00000000000E+00 -0.16685989339E+03  0.16685989339E+03  0.00000000000E+00 0.  1.
         25    2    1    2    0    0 -0.35506164687E+02  0.12298289800E+03 -0.37663382571E+02  0.18289416041E+03  0.12508502146E+03 0.  0.
          5    1    3    3  502    0  0.35138888261E+02  0.78893288700E+02  0.96888612555E+01  0.87007119839E+02  0.41800000000E+01 0.  1.
         -5    1    3    3    0  502 -0.70645052948E+02  0.44089609302E+02 -0.47352243826E+02  0.95887040573E+02  0.41800000000E+01 0.  1.
        -11    1    1    2    0    0  0.39404846526E+02 -0.27939151130E+02 -0.13171729342E+02  0.50068278874E+02  0.00000000000E+00 0.  1.
         11    1    1    2    0    0 -0.38986818392E+01 -0.95043746873E+02  0.65664967323E+02  0.11558720290E+03  0.00000000000E+00 0. -1.
</event>
<event>
 7    1  0.2733606E-009  0.1288699E+03  0.7561462E-02  0.1229142E+00
          2   -1    0    0  501    0  0.00000000000E+00  0.00000000000E+00  0.25945650862E+02  0.25945650862E+02  0.00000000000E+00 0. -1.
         -2   -1    0    0    0  501 -0.00000000000E+00 -0.00000000000E+00 -0.74867904201E+03  0.74867904201E+03  0.00000000000E+00 0.  1.
         25    2    1    2    0    0  0.82065049504E+02 -0.56050056823E+01 -0.47482522876E+03  0.49786848969E+03  0.12509175319E+03 0.  0.
          5    1    3    3  502    0  0.10381738513E+03 -0.25721134978E+02 -0.43546084770E+03  0.44842306868E+03  0.41800000000E+01 0. -1.
         -5    1    3    3    0  502 -0.21752335622E+02  0.20116129295E+02 -0.39364381060E+02  0.49445421013E+02  0.41800000000E+01 0. -1.
        -11    1    1    2    0    0 -0.67426189710E+02 -0.36169800742E+02 -0.13045261683E+03  0.15123634081E+03  0.00000000000E+00 0. -1.
         11    1    1    2    0    0 -0.14638859794E+02  0.41774806424E+02 -0.11745554555E+03  0.12551986237E+03  0.00000000000E+00 0.  1.
</event>
<event>
 7    1  0.2733606E-009  0.1245853E+03  0.7561462E-02  0.1235719E+00
         -1   -1    0    0    0  501 -0.00000000000E+00  0.00000000000E+00  0.12947348514E+02  0.12947348514E+02  0.00000000000E+00 0.  1.
          1   -1    0    0  501    0  0.00000000000E+00 -0.00000000000E+00 -0.14997114241E+04  0.14997114241E+04  0.00000000000E+00 0. -1.
         25    2    1    2    0    0  0.57640417859E+02  0.21754049965E+02 -0.11454777774E+04  0.11539331046E+04  0.12508642948E+03 0.  0.
          5    1    3    3  502    0  0.84241548511E+02  0.51609284444E+02 -0.77615605571E+03  0.78242945494E+03  0.41800000000E+01 0.  1.
         -5    1    3    3    0  502 -0.26601130652E+02 -0.29855234478E+02 -0.36932172169E+03  0.37150364963E+03  0.41800000000E+01 0.  1.
        -11    1    1    2    0    0 -0.44973454088E+02  0.31781770751E+02 -0.18607088405E+03  0.19404913403E+03  0.00000000000E+00 0. -1.
         11    1    1    2    0    0 -0.12666963772E+02 -0.53535820716E+02 -0.15521541409E+03  0.16467653398E+03  0.00000000000E+00 0.  1.
</event>
<event>
 7    1  0.2733606E-009  0.9126943E+02  0.7561462E-02  0.1299806E+00
         -1   -1    0    0    0  501 -0.00000000000E+00  0.00000000000E+00  0.85674273827E+02  0.85674273827E+02  0.00000000000E+00 0.  1.
          1   -1    0    0  501    0  0.00000000000E+00 -0.00000000000E+00 -0.18125947973E+03  0.18125947973E+03  0.00000000000E+00 0. -1.
         25    2    1    2    0    0 -0.90070268659E+01 -0.24408933750E+02  0.10726387153E+02  0.12821740236E+03  0.12509086420E+03 0.  0.
          5    1    3    3  502    0  0.54698686102E+02 -0.11362367911E+02  0.25260329735E+02  0.61454099327E+02  0.41800000000E+01 0. -1.
         -5    1    3    3    0  502 -0.63705712968E+02 -0.13046565840E+02 -0.14533942582E+02  0.66763303034E+02  0.41800000000E+01 0. -1.
        -11    1    1    2    0    0 -0.61024333347E+01 -0.16580924145E+02 -0.90575491942E+02  0.92282644515E+02  0.00000000000E+00 0. -1.
         11    1    1    2    0    0  0.15109460201E+02  0.40989857895E+02 -0.15736101113E+02  0.46433706680E+02  0.00000000000E+00 0.  1.
</event>
<event>
 7    1  0.2733606E-009  0.9425882E+02  0.7561462E-02  0.1292854E+00
          1   -1    0    0  501    0  0.00000000000E+00  0.00000000000E+00  0.17106039657E+03  0.17106039657E+03  0.00000000000E+00 0. -1.
         -1   -1    0    0    0  501 -0.00000000000E+00 -0.00000000000E+00 -0.61538628882E+02  0.61538628882E+02  0.00000000000E+00 0.  1.
         25    2    1    2    0    0 -0.10389655712E+02 -0.13421657367E+02  0.48985245084E+02  0.13539807022E+03  0.12507996382E+03 0.  0.
          5    1    3    3  502    0  0.41641898688E+02  0.31141210410E+02  0.40903182317E+02  0.66290010076E+02  0.41800000000E+01 0. -1.
         -5    1    3    3    0  502 -0.52031554401E+02 -0.44562867777E+02  0.80820627673E+01  0.69108060141E+02  0.41800000000E+01 0. -1.
        -11    1    1    2    0    0  0.26147046504E+02 -0.18560211611E+02  0.69046250816E+01  0.32799746088E+02  0.00000000000E+00 0.  1.
         11    1    1    2    0    0 -0.15757390792E+02  0.31981868978E+02  0.53631897525E+02  0.64401209150E+02  0.00000000000E+00 0. -1.
</event>
<event>
 7    1  0.2733606E-009  0.1498551E+03  0.7561462E-02  0.1200651E+00
         -1   -1    0    0    0  501 -0.00000000000E+00  0.00000000000E+00  0.27102571222E+02  0.27102571222E+02  0.00000000000E+00 0.  1.
          1   -1    0    0  501    0  0.00000000000E+00 -0.00000000000E+00 -0.84577712764E+03  0.84577712764E+03  0.00000000000E+00 0. -1.
         25    2    1    2    0    0  0.25740009002E+01  0.10207851920E+03 -0.42785467093E+03  0.45731000000E+03  0.12508463975E+03 0.  0.
          5    1    3    3  502    0 -0.36542740683E+02 -0.13124446675E+02 -0.86793468502E+02  0.95174584694E+02  0.41800000000E+01 0. -1.
         -5    1    3    3    0  502  0.39116741583E+02  0.11520296588E+03 -0.34106120243E+03  0.36213541531E+03  0.41800000000E+01 0. -1.
        -11    1    1    2    0    0  0.45645608630E+02 -0.43533546912E+02 -0.14045636565E+03  0.15396974360E+03  0.00000000000E+00 0. -1.
         11    1    1    2    0    0 -0.48219609530E+02 -0.58544972290E+02 -0.25036351984E+03  0.26159995526E+03  0.00000000000E+00 0.  1.
</event>
<event>
 7    1  0.2733606E-009  0.1106673E+03  0.7561462E-02  0.1259339E+00
         -2   -1    0    0    0  501 -0.00000000000E+00  0.00000000000E+00  0.30514060208E+02  0.30514060208E+02  0.00000000000E+00 0.  1.
          2   -1    0    0  501    0  0.00000000000E+00 -0.00000000000E+00 -0.43767380453E+03  0.43767380453E+03  0.00000000000E+00 0. -1.
         25    2    1    2    0    0  0.37272290955E+02  0.20600918695E+02 -0.22970988713E+03  0.26500623806E+03  0.12509217577E+03 0.  0.
          5    1    3    3  502    0  0.56585844245E+02  0.62544574958E+02 -0.12966164869E+03  0.15473654115E+03  0.41800000000E+01 0.  1.
         -5    1    3    3    0  502 -0.19313553289E+02 -0.41943656264E+02 -0.10004823844E+03  0.11026969691E+03  0.41800000000E+01 0.  1.
        -11    1    1    2    0    0  0.21602812829E+02  0.10409208295E+02 -0.90892198662E+02  0.94002260170E+02  0.00000000000E+00 0. -1.
         11    1    1    2    0    0 -0.58875103784E+02 -0.31010126990E+02 -0.86557658531E+02  0.10917936651E+03  0.00000000000E+00 0.  1.
</event>
<event>
 7    1  0.2733606E-009  0.2251215E+03  0.7561462E-02  0.1130121E+00
          1   -1    0    0  501    0  0.00000000000E+00  0.00000000000E+00  0.13886470863E+04  0.13886470863E+04  0.00000000000E+00 0. -1.
         -1   -1    0    0    0  501 -0.00000000000E+00 -0.00000000000E+00 -0.56630229114E+02  0.56630229114E+02  0.00000000000E+00 0.  1.
         25    2    1    2    0    0  0.18082920996E+02 -0.20083334286E+03  0.10957834873E+04  0.11211825800E+04  0.12509157863E+03 0.  0.
          5    1    3    3  502    0  0.19279824809E+02 -0.21586547249E+03  0.94265962389E+03  0.96726121228E+03  0.41800000000E+01 0. -1.
         -5    1    3    3    0  502 -0.11969038127E+01  0.15032129630E+02  0.15312386343E+03  0.15392136776E+03  0.41800000000E+01 0. -1.
        -11    1    1    2    0    0  0.29137712275E+02  0.35720738065E+02  0.27049603668E+02  0.53447717099E+02  0.00000000000E+00 0.  1.
         11    1    1    2    0    0 -0.47220633271E+02  0.16511260480E+03  0.20918376622E+03  0.27064701831E+03  0.00000000000E+00 0. -1.
</event>
<event>
 7    1  0.2798112E-009  0.1101115E+03  0.7561462E-02  0.1260363E+00
         -3   -1    0    0    0  501 -0.00000000000E+00  0.00000000000E+00  0.20289269037E+03  0.20289269037E+03  0.00000000000E+00 0.  1.
          3   -1    0    0  501    0  0.00000000000E+00 -0.00000000000E+00 -0.10674016748E+03  0.10674016748E+03  0.00000000000E+00 0. -1.
         25    2    1    2    0    0  0.28035580566E+02  0.65792691364E+02  0.12527860933E+03  0.19093730161E+03  0.12509057190E+03 0.  0.
          5    1    3    3  502    0 -0.39730926237E+02 -0.11131164927E+02  0.34701587801E+02  0.54075150746E+02  0.41800000000E+01 0. -1.
         -5    1    3    3    0  502  0.67766506803E+02  0.76923856291E+02  0.90577021528E+02  0.13686215087E+03  0.41800000000E+01 0. -1.
        -11    1    1    2    0    0 -0.17543259472E+02 -0.11789410506E+02  0.30794908393E+02  0.37350803685E+02  0.00000000000E+00 0.  1.
         11    1    1    2    0    0 -0.10492321094E+02 -0.54003280858E+02 -0.59920994839E+02  0.81344752553E+02  0.00000000000E+00 0. -1.
</event>
<event>
 7    1  0.2733606E-009  0.2675926E+03  0.7561462E-02  0.1102665E+00
          2   -1    0    0  501    0  0.00000000000E+00  0.00000000000E+00  0.72962318766E+03  0.72962318766E+03  0.00000000000E+00 0. -1.
         -2   -1    0    0    0  501 -0.00000000000E+00 -0.00000000000E+00 -0.10162624716E+03  0.10162624716E+03  0.00000000000E+00 0.  1.
         25    2    1    2    0    0  0.14304064206E+03 -0.20414407545E+03  0.31320362031E+03  0.41937971623E+03  0.12508960703E+03 0.  0.
          5    1    3    3  502    0 -0.25671338030E+01  0.96942760738E+01 -0.25464627621E+01  0.11159123494E+02  0.41800000000E+01 0.  1.
         -5    1    3    3    0  502  0.14560777587E+03 -0.21383835152E+03  0.31575008307E+03  0.40822059273E+03  0.41800000000E+01 0.  1.
        -11    1    1    2    0    0 -0.21914929722E+02  0.11002666119E+03  0.13520012327E+03  0.17568495567E+03  0.00000000000E+00 0.  1.
         11    1    1    2    0    0 -0.12112571234E+03  0.94117414253E+02  0.17959319693E+03  0.23618476293E+03  0.00000000000E+00 0. -1.
</event>
<event>
 7    1  0.2733606E-009  0.8573523E+02  0.7561462E-02  0.1313521E+00
         -2   -1    0    0    0  501 -0.00000000000E+00  0.00000000000E+00  0.27472817692E+03  0.27472817692E+03  0.00000000000E+00 0.  1.
          2   -1    0    0  501    0  0.00000000000E+00 -0.00000000000E+00 -0.64590864587E+02  0.64590864587E+02  0.00000000000E+00 0. -1.
         25    2    1    2    0    0  0.45974113940E+02  0.58518463299E+01  0.19547726189E+03  0.23665691292E+03  0.12508905332E+03 0.  0.
          5    1    3    3  502    0 -0.37132337299E+02  0.47587391783E+01  0.20470194085E+02  0.42871404429E+02  0.41800000000E+01 0. -1.
         -5    1    3    3    0  502  0.83106451239E+02  0.10931071516E+01  0.17500706780E+03  0.19378550849E+03  0.41800000000E+01 0. -1.
        -11    1    1    2    0    0 -0.10825517671E+02 -0.10557073656E+02  0.50216904050E+02  0.52444075828E+02  0.00000000000E+00 0.  1.
         11    1    1    2    0    0 -0.35148596269E+02  0.47052273262E+01 -0.35556853609E+02  0.50218052754E+02  0.00000000000E+00 0. -1.
</event>
<event>
 7    1  0.2733606E-009  0.9864424E+02  0.7561462E-02  0.1283173E+00
          1   -1    0    0  501    0  0.00000000000E+00  0.00000000000E+00  0.25562849883E+02  0.25562849883E+02  0.00000000000E+00 0. -1.
         -1   -1    0    0    0  501 -0.00000000000E+00 -0.00000000000E+00 -0.48065891349E+03  0.48065891349E+03  0.00000000000E+00 0.  1.
         25    2    1    2    0    0 -0.47200085961E+00  0.13612151987E+02 -0.21730353075E+03  0.25110532996E+03  0.12509016265E+03 0.  0.
          5    1    3    3  502    0  0.55075098127E+02 -0.21854794970E+02 -0.11283570769E+03  0.12751575521E+03  0.41800000000E+01 0.  1.
         -5    1    3    3    0  502 -0.55547098986E+02  0.35466946957E+02 -0.10446782307E+03  0.12358957476E+03  0.41800000000E+01 0.  1.
        -11    1    1    2    0    0 -0.28921780451E+02 -0.26987722559E+02 -0.20612572276E+03  0.20988716048E+03  0.00000000000E+00 0.  1.
         11    1    1    2    0    0  0.29393781310E+02  0.13375570572E+02 -0.31666810100E+02  0.45229272930E+02  0.00000000000E+00 0. -1.
</event>
<event>
 7    1  0.2733606E-009  0.1286168E+03  0.7561462E-02  0.1229523E+00
         -1   -1    0    0    0  501 -0.00000000000E+00  0.00000000000E+00  0.45409689048E+02  0.45409689048E+02  0.00000000000E+00 0.  1.
          1   -1    0    0  501    0  0.00000000000E+00 -0.00000000000E+00 -0.41671884559E+03  0.41671884559E+03  0.00000000000E+00 0. -1.
         25    2    1    2    0    0 -0.46020355226E+02 -0.67140080131E+02 -0.21844010266E+03  0.26455283135E+03  0.12508580524E+03 0.  0.
          5    1    3    3  502    0 -0.56241426417E+02 -0.99796198327E+02 -0.17260193902E+03  0.20719865105E+03  0.41800000000E+01 0. -1.
         -5    1    3    3    0  502  0.10221071191E+02  0.32656118196E+02 -0.45838163641E+02  0.57354180300E+02  0.41800000000E+01 0. -1.
        -11    1    1    2    0    0 -0.16133780550E+02  0.34139833152E+02 -0.11191375927E+02  0.39383676538E+02  0.00000000000E+00 0.  1.
         11    1    1    2    0    0  0.62154135776E+02  0.33000246979E+02 -0.14167767796E+03  0.15819202675E+03  0.00000000000E+00 0. -1.
</event>
<event>
 7    1  0.2733606E-009  0.1393994E+03  0.7561462E-02  0.1214139E+00
          2   -1    0    0  501    0  0.00000000000E+00  0.00000000000E+00  0.68489548958E+03  0.68489548958E+03  0.00000000000E+00 0. -1.
         -2   -1    0    0    0  501 -0.00000000000E+00 -0.00000000000E+00 -0.61517288475E+02  0.61517288475E+02  0.00000000000E+00 0.  1.
         25    2    1    2    0    0  0.11107221820E+03 -0.51714647763E+02  0.55388618425E+03  0.58090350787E+03  0.12509011909E+03 0.  0.
          5    1    3    3  502    0  0.22745428530E+02  0.67482292767E+01  0.35249667870E+03  0.35331894091E+03  0.41800000000E+01 0.  1.
         -5    1    3    3    0  502  0.88326789670E+02 -0.58462877040E+02  0.20138950556E+03  0.22758456695E+03  0.41800000000E+01 0.  1.
        -11    1    1    2    0    0 -0.66993788530E+02 -0.15085258540E+02  0.43817242495E+02  0.81459704558E+02  0.00000000000E+00 0. -1.
         11    1    1    2    0    0 -0.44078429669E+02  0.66799906303E+02  0.25674774353E+02  0.84049565628E+02  0.00000000000E+00 0.  1.
</event>
<event>
 7    1  0.2733606E-009  0.9649657E+02  0.7561462E-02  0.1287841E+00
          2   -1    0    0  501    0  0.00000000000E+00  0.00000000000E+00  0.52072150635E+03  0.52072150635E+03  0.00000000000E+00 0. -1.
         -2   -1    0    0    0  501 -0.00000000000E+00 -0.00000000000E+00 -0.27286586452E+02  0.27286586452E+02  0.00000000000E+00 0.  1.
         25    2    1    2    0    0 -0.14701877086E+02 -0.16480799259E+02  0.37920917914E+03  0.39991895341E+03  0.12509119001E+03 0.  0.
          5    1    3    3  502    0  0.37382791640E+02  0.36383903149E+02  0.17173931086E+03  0.17953585941E+03  0.41800000000E+01 0. -1.
         -5    1    3    3    0  502 -0.52084668726E+02 -0.52864702408E+02  0.20746986828E+03  0.22038309400E+03  0.41800000000E+01 0. -1.
        -11    1    1    2    0    0  0.35282247926E+02  0.25829010513E+02  0.11738579913E+03  0.12526532098E+03  0.00000000000E+00 0. -1.
         11    1    1    2    0    0 -0.20580370840E+02 -0.93482112535E+01 -0.31600583802E+01  0.22823818404E+02  0.00000000000E+00 0.  1.
</event>
<event>
 7    1  0.2733606E-009  0.1003137E+03  0.7561462E-02  0.1279638E+00
          1   -1    0    0  501    0  0.00000000000E+00  0.00000000000E+00  0.10836111024E+03  0.10836111024E+03  0.00000000000E+00 0. -1.
         -1   -1    0    0    0  501 -0.00000000000E+00 -0.00000000000E+00 -0.11927538485E+03  0.11927538485E+03  0.00000000000E+00 0.  1.
         25    2    1    2    0    0 -0.58532298019E+01 -0.20263542189E+02 -0.32313567060E+02  0.13090849195E+03  0.12509194702E+03 0.  0.
          5    1    3    3  502    0 -0.47691919010E+02 -0.53262656873E+02 -0.75896625064E+01  0.72017394656E+02  0.41800000000E+01 0. -1.
         -5    1    3    3    0  502  0.41838689208E+02  0.32999114684E+02 -0.24723904554E+02  0.58891097298E+02  0.41800000000E+01 0. -1.
        -11    1    1    2    0    0 -0.28577189727E+02 -0.94323675852E+01  0.37868215599E+02  0.48369691787E+02  0.00000000000E+00 0. -1.
         11    1    1    2    0    0  0.34430419529E+02  0.29695909774E+02 -0.16468923147E+02  0.48358311342E+02  0.00000000000E+00 0.  1.
</event>
<event>
 7    1  0.2733606E-009  0.1131770E+03  0.7561462E-02  0.1254797E+00
         -2   -1    0    0    0  501 -0.00000000000E+00  0.00000000000E+00  0.50674227351E+02  0.50674227351E+02  0.00000000000E+00 0.  1.
          2   -1    0    0  501    0  0.00000000000E+00 -0.00000000000E+00 -0.28497040530E+03  0.28497040530E+03  0.00000000000E+00 0. -1.
         25    2    1    2    0    0  0.49008510295E+02 -0.10515884075E+02 -0.14676302027E+03  0.19924624296E+03  0.12508902156E+03 0.  0.
          5    1    3    3  502    0  0.88364079386E+02 -0.24590530805E+02 -0.89428613466E+02  0.12817119036E+03  0.41800000000E+01 0.  1.
         -5    1    3    3    0  502 -0.39355569090E+02  0.14074646730E+02 -0.57334406807E+02  0.71075052605E+02  0.41800000000E+01 0.  1.
        -11    1    1    2    0    0  0.12949648509E+02 -0.19718358958E+02  0.16813150866E+01  0.23650240948E+02  0.00000000000E+00 0.  1.
         11    1    1    2    0    0 -0.61958158804E+02  0.30234243033E+02 -0.89214472765E+02  0.11274814874E+03  0.00000000000E+00 0. -1.
</event>
<event>
 7    1  0.2733606E-009  0.1160475E+03  0.7561462E-02  0.1249764E+00
         -1   -1    0    0    0  501 -0.00000000000E+00  0.00000000000E+00  0.76504054855E+02  0.76504054855E+02  0.00000000000E+00 0.  1.
          1   -1    0    0  501    0  0.00000000000E+00 -0.00000000000E+00 -0.20368934216E+03  0.20368934216E+03  0.00000000000E+00 0. -1.
         25    2    1    2    0    0  0.55529146894E+02  0.24368253404E+01 -0.99752307345E+02  0.16938215770E+03  0.12510143186E+03 0.  0.
          5    1    3    3  502    0 -0.11949540884E+02  0.48452789786E+02 -0.60882557588E+02  0.78832877557E+02  0.41800000000E+01 0. -1.
         -5    1    3    3    0  502  0.67478687779E+02 -0.46015964446E+02 -0.38869749757E+02  0.90549280143E+02  0.41800000000E+01 0. -1.
        -11    1    1    2    0    0  0.17893034346E+02 -0.17780776284E+02 -0.25367182966E+02  0.35774441366E+02  0.00000000000E+00 0.  1.
         11    1    1    2    0    0 -0.73422181240E+02  0.15343950943E+02 -0.20657969880E+01  0.75036797945E+02  0.00000000000E+00 0. -1.
</event>
<event>
 7    1  0.2733606E-009  0.8871078E+02  0.7561462E-02  0.1306004E+00
          1   -1    0    0  501    0  0.00000000000E+00  0.00000000000E+00  0.30202879526E+03  0.30202879526E+03  0.00000000000E+00 0. -1.
         -1   -1    0    0    0  501 -0.00000000000E+00 -0.00000000000E+00 -0.65198927381E+02  0.65198927381E+02  0.00000000000E+00 0.  1.
         25    2    1    2    0    0 -0.69513657046E+02  0.43889997716E+02  0.15570786224E+03  0.21598644949E+03  0.12508688014E+03 0.  0.
          5    1    3    3  502    0  0.49940778313E+01  0.16639193464E+01  0.12458987908E+03  0.12477106961E+03  0.41800000000E+01 0. -1.
         -5    1    3    3    0  502 -0.74507734877E+02  0.42226078369E+02  0.31117983158E+02  0.91215379881E+02  0.41800000000E+01 0. -1.
        -11    1    1    2    0    0  0.21621091072E+02 -0.26039065766E+02 -0.19010266056E+02  0.38818742131E+02  0.00000000000E+00 0.  1.
         11    1    1    2    0    0  0.47892565974E+02 -0.17850931950E+02  0.10013227170E+03  0.11242253103E+03  0.00000000000E+00 0. -1.
</event>
<event>
 7    1  0.2733606E-009  0.9076721E+02  0.7561462E-02  0.1301004E+00
          2   -1    0    0  501    0  0.00000000000E+00  0.00000000000E+00  0.16938792874E+02  0.16938792874E+02  0.00000000000E+00 0. -1.
         -2   -1    0    0    0  501 -0.00000000000E+00 -0.00000000000E+00 -0.10720130923E+04  0.10720130923E+04  0.00000000000E+00 0.  1.
         25    2    1    2    0    0 -0.50564470911E+02 -0.12194944777E+02 -0.83044802408E+03  0.84142536380E+03  0.12508892737E+03 0.  0.
          5    1    3    3  502    0  0.67145302340E+01  0.15692269212E+02 -0.13954400741E+02  0.22439472572E+02  0.41800000000E+01 0.  1.
         -5    1    3    3    0  502 -0.57279001145E+02 -0.27887213989E+02 -0.81649362334E+03  0.81898589123E+03  0.41800000000E+01 0.  1.
        -11    1    1    2    0    0  0.22498926010E+01  0.42843119141E+02 -0.64316117866E+02  0.77312081150E+02  0.00000000000E+00 0. -1.
         11    1    1    2    0    0  0.48314578310E+02 -0.30648174364E+02 -0.16031015748E+03  0.17021444022E+03  0.00000000000E+00 0.  1.
</event>
<event>
 7    1  0.2733606E-009  0.1052220E+03  0.7561462E-02  0.1269683E+00
          2   -1    0    0  501    0  0.00000000000E+00  0.00000000000E+00  0.24369401439E+03  0.24369401439E+03  0.00000000000E+00 0. -1.
         -2   -1    0    0    0  501 -0.00000000000E+00 -0.00000000000E+00 -0.58882076446E+02  0.58882076446E+02  0.00000000000E+00 0.  1.
         25    2    1    2    0    0 -0.23397313218E+01 -0.64530210716E+02  0.11116706185E+03  0.17937517486E+03  0.12509082811E+03 0.  0.
          5    1    3    3  502    0 -0.39670563326E+02  0.15028613912E+02  0.72900127434E+01  0.43246150308E+02  0.41800000000E+01 0.  1.
         -5    1    3    3    0  502  0.37330832004E+02 -0.79558824628E+02  0.10387704911E+03  0.13612902455E+03  0.41800000000E+01 0.  1.
        -11    1    1    2    0    0 -0.78942435815E+01  0.68429979317E+02  0.83653521313E+02  0.10836462882E+03  0.00000000000E+00 0. -1.
         11    1    1    2    0    0  0.10233974903E+02 -0.38997686006E+01 -0.10008645219E+02  0.14836287157E+02  0.00000000000E+00 0.  1.
</event>
<event>
 7    1  0.2733606E-009  0.9120358E+02  0.7561462E-02  0.1299963E+00
          2   -1    0    0  501    0  0.00000000000E+00  0.00000000000E+00  0.21788255775E+03  0.21788255775E+03  0.00000000000E+00 0. -1.
         -2   -1    0    0    0  501 -0.00000000000E+00 -0.00000000000E+00 -0.93689665735E+02  0.93689665735E+02  0.00000000000E+00 0.  1.
         25    2    1    2    0    0  0.18615170572E+02  0.72697728293E+02  0.81281377829E+01  0.14609847355E+03  0.12508882074E+03 0.  0.
          5    1    3    3  502    0  0.12635159053E+01 -0.31424314769E+01  0.54941434356E+02  0.55204211408E+02  0.41800000000E+01 0. -1.
         -5    1    3    3    0  502  0.17351654667E+02  0.75840159770E+02 -0.46813296573E+02  0.90894262138E+02  0.41800000000E+01 0. -1.
        -11    1    1    2    0    0  0.50317690723E+01  0.11023990548E+02 -0.75774139659E+01  0.14292105164E+02  0.00000000000E+00 0.  1.
         11    1    1    2    0    0 -0.23646939645E+02 -0.83721718841E+02  0.12364216819E+03  0.15118164477E+03  0.00000000000E+00 0. -1.
</event>
<event>
 7    1  0.2733606E-009  0.9981907E+02  0.7561462E-02  0.1280677E+00
         -1   -1    0    0    0  501 -0.00000000000E+00  0.00000000000E+00  0.58678597199E+02  0.58678597199E+02  0.00000000000E+00 0.  1.
          1   -1    0    0  501    0  0.00000000000E+00 -0.00000000000E+00 -0.27555111738E+03  0.27555111738E+03  0.00000000000E+00 0. -1.
         25    2    1    2    0    0  0.50575126487E+02  0.48065142699E+02 -0.12539917718E+03  0.19036873523E+03  0.12508876989E+03 0.  0.
          5    1    3    3  502    0  0.73336197412E+02  0.30748995925E+02 -0.13761203426E+03  0.15899132987E+03  0.41800000000E+01 0.  1.
         -5    1    3    3    0  502 -0.22761070925E+02  0.17316146773E+02  0.12212857079E+02  0.31377405354E+02  0.41800000000E+01 0.  1.
        -11    1    1    2    0    0 -0.63065084713E+02 -0.46833522109E+02 -0.10110943292E+03  0.12803788943E+03  0.00000000000E+00 0. -1.
         11    1    1    2    0    0  0.12489958226E+02 -0.12316205901E+01  0.96360899242E+01  0.15823089925E+02  0.00000000000E+00 0.  1.
</event>
<event>
 7    1  0.2733606E-009  0.1191105E+03  0.7561462E-02  0.1244572E+00
          1   -1    0    0  501    0  0.00000000000E+00  0.00000000000E+00  0.19534002593E+03  0.19534002593E+03  0.00000000000E+00 0. -1.
         -1   -1    0    0    0  501 -0.00000000000E+00 -0.00000000000E+00 -0.85312153571E+02  0.85312153571E+02  0.00000000000E+00 0.  1.
         25    2    1    2    0    0  0.51761484230E+01 -0.63921415614E+02  0.29639261519E+02  0.14366228229E+03  0.12509046983E+03 0.  0.
          5    1    3    3  502    0  0.31315530499E+02 -0.92068488579E+02  0.42560452484E+01  0.97431285329E+02  0.41800000000E+01 0.  1.
         -5    1    3    3    0  502 -0.26139382076E+02  0.28147072965E+02  0.25383216271E+02  0.46230996962E+02  0.41800000000E+01 0.  1.
        -11    1    1    2    0    0 -0.29546630197E+00  0.82771368907E+02  0.39525804982E+02  0.91725002428E+02  0.00000000000E+00 0.  1.
         11    1    1    2    0    0 -0.48806821210E+01 -0.18849953293E+02  0.40862805857E+02  0.45264894782E+02  0.00000000000E+00 0. -1.
</event>
<event>
 7    1  0.2733606E-009  0.9449522E+02  0.7561462E-02  0.1292317E+00
         -2   -1    0    0    0  501 -0.00000000000E+00  0.00000000000E+00  0.28182193008E+02  0.28182193008E+02  0.00000000000E+00 0.  1.
          2   -1    0    0  501    0  0.00000000000E+00 -0.00000000000E+00 -0.55454019247E+03  0.55454019247E+03  0.00000000000E+00 0. -1.
         25    2    1    2    0    0 -0.73731607057E+01 -0.61659190773E+02 -0.27924175653E+03  0.31221899404E+03  0.12509405399E+03 0.  0.
          5    1    3    3  502    0  0.20243909776E+02 -0.68335110181E+02 -0.66561102984E+02  0.97608175871E+02  0.41800000000E+01 0. -1.
         -5    1    3    3    0  502 -0.27617070482E+02  0.66759194082E+01 -0.21268065354E+03  0.21461081817E+03  0.41800000000E+01 0. -1.
        -11    1    1    2    0    0 -0.26328840746E+02  0.42825483571E+02 -0.21341463709E+03  0.21925564353E+03  0.00000000000E+00 0. -1.
         11    1    1    2    0    0  0.33702001451E+02  0.18833707202E+02 -0.33701605843E+02  0.51247747904E+02  0.00000000000E+00 0.  1.
</event>
<event>
 7    1  0.2733606E-009  0.1409147E+03  0.7561462E-02  0.1212104E+00
          1   -1    0    0  501    0  0.00000000000E+00  0.00000000000E+00  0.20132876858E+03  0.20132876858E+03  0.00000000000E+00 0. -1.
         -1   -1    0    0    0  501 -0.00000000000E+00 -0.00000000000E+00 -0.10598210430E+03  0.10598210430E+03  0.00000000000E+00 0.  1.
         25    2    1    2    0    0  0.91616003610E+02  0.25873022703E+02  0.28332369091E+02  0.15972679394E+03  0.12508804956E+03 0.  0.
          5    1    3    3  502    0 -0.19971208380E+02  0.34785241092E+02 -0.96062050590E+01  0.41456166461E+02  0.41800000000E+01 0. -1.
         -5    1    3    3    0  502  0.11158721199E+03 -0.89122183894E+01  0.37938574150E+02  0.11827062748E+03  0.41800000000E+01 0. -1.
        -11    1    1    2    0    0 -0.74371044999E+02  0.22845084714E+02  0.27461134620E+02  0.82504934061E+02  0.00000000000E+00 0.  1.
         11    1    1    2    0    0 -0.17244958611E+02 -0.48718107417E+02  0.39553160562E+02  0.65079144879E+02  0.00000000000E+00 0. -1.
</event>
<event>
 7    1  0.2733606E-009  0.1847462E+03  0.7561462E-02  0.1163287E+00
         -1   -1    0    0    0  501 -0.00000000000E+00  0.00000000000E+00  0.18325608089E+04  0.18325608089E+04  0.00000000000E+00 0.  1.
          1   -1    0    0  501    0  0.00000000000E+00 -0.00000000000E+00 -0.35983061906E+02  0.35983061906E+02  0.00000000000E+00 0. -1.
         25    2    1    2    0    0  0.14704078754E+03 -0.10492065679E+03  0.14641024285E+04  0.14804972125E+04  0.12508692046E+03 0.  0.
          5    1    3    3  502    0  0.10353522168E+03 -0.88425264770E+02  0.60588906354E+03  0.62101336483E+03  0.41800000000E+01 0.  1.
         -5    1    3    3    0  502  0.43505565859E+02 -0.16495392020E+02  0.85821336492E+03  0.85948384764E+03  0.41800000000E+01 0.  1.
        -11    1    1    2    0    0 -0.54688502562E+02  0.67592188728E+02  0.86399398941E+02  0.12257402835E+03  0.00000000000E+00 0.  1.
         11    1    1    2    0    0 -0.92352284982E+02  0.37328468062E+02  0.24607591959E+03  0.26547262998E+03  0.00000000000E+00 0. -1.
</event>
<event>
 7    1  0.2733606E-009  0.8460729E+02  0.7561462E-02  0.1316463E+00
         -2   -1    0    0    0  501 -0.00000000000E+00  0.00000000000E+00  0.21254151600E+03  0.21254151600E+03  0.00000000000E+00 0.  1.
          2   -1    0    0  501    0  0.00000000000E+00 -0.00000000000E+00 -0.61879406587E+02  0.61879406587E+02  0.00000000000E+00 0. -1.
         25    2    1    2    0    0  0.10319461670E+02 -0.12682054534E+02  0.44213580437E+02  0.13367272631E+03  0.12508489624E+03 0.  0.
          5    1    3    3  502    0  0.56459948845E+02 -0.39906963252E+02  0.39482162214E+02  0.79728320393E+02  0.41800000000E+01 0. -1.
         -5    1    3    3    0  502 -0.46140487175E+02  0.27224908718E+02  0.47314182226E+01  0.53944405918E+02  0.41800000000E+01 0. -1.
        -11    1    1    2    0    0 -0.27166831884E+01  0.28517285337E+02  0.11686595422E+03  0.12032567135E+03  0.00000000000E+00 0.  1.
         11    1    1    2    0    0 -0.76027784818E+01 -0.15835230803E+02 -0.10417425249E+02  0.20422524919E+02  0.00000000000E+00 0. -1.
</event>
<event>
 7    1  0.2733606E-009  0.1469530E+03  0.7561462E-02  0.1204268E+00
          1   -1    0    0  501    0  0.00000000000E+00  0.00000000000E+00  0.56756404381E+03  0.56756404381E+03  0.00000000000E+00 0. -1.
         -1   -1    0    0    0  501 -0.00000000000E+00 -0.00000000000E+00 -0.55726067687E+02  0.55726067687E+02  0.00000000000E+00 0.  1.
         25    2    1    2    0    0  0.11507678727E+03  0.79439101311E+02  0.30643530907E+03  0.35931157817E+03  0.12509585836E+03 0.  0.
          5    1    3    3  502    0  0.11453255196E+03  0.86889913260E+02  0.31556614939E+03  0.34679537126E+03  0.41800000000E+01 0. -1.
         -5    1    3    3    0  502  0.54423530265E+00 -0.74508119486E+01 -0.91308403148E+01  0.12516206918E+02  0.41800000000E+01 0. -1.
        -11    1    1    2    0    0 -0.50845802944E+02 -0.22173417559E+02  0.15413349850E+03  0.16381114579E+03  0.00000000000E+00 0. -1.
         11    1    1    2    0    0 -0.64230984322E+02 -0.57265683752E+02  0.51269168552E+02  0.10016738754E+03  0.00000000000E+00 0.  1.
</event>
<event>
 7    1  0.2733606E-009  0.1277021E+03  0.7561462E-02  0.1230906E+00
          2   -1    0    0  501    0  0.00000000000E+00  0.00000000000E+00  0.21931048246E+03  0.21931048246E+03  0.00000000000E+00 0. -1.
         -2   -1    0    0    0  501 -0.00000000000E+00 -0.00000000000E+00 -0.10539810024E+03  0.10539810024E+03  0.00000000000E+00 0.  1.
         25    2    1    2    0    0 -0.43223057643E+02 -0.86011143435E+02  0.11070184795E+03  0.19278896591E+03  0.12508611725E+03 0.  0.
          5    1    3    3  502    0  0.31525679714E+02 -0.71752289105E+02  0.75268744003E+02  0.10874334783E+03  0.41800000000E+01 0. -1.
         -5    1    3    3    0  502 -0.74748737357E+02 -0.14258854330E+02  0.35433103948E+02  0.84045618081E+02  0.41800000000E+01 0. -1.
        -11    1    1    2    0    0  0.56847073758E+00  0.31442100260E+02 -0.39544613700E+02  0.50524304056E+02  0.00000000000E+00 0.  1.
         11    1    1    2    0    0  0.42654586905E+02  0.54569043175E+02  0.42755147967E+02  0.81395312732E+02  0.00000000000E+00 0. -1.
</event>
<event>
 7    1  0.2733606E-009  0.1034687E+03  0.7561462E-02  0.1273166E+00
          1   -1    0    0  501    0  0.00000000000E+00  0.00000000000E+00  0.13456987482E+04  0.13456987482E+04  0.00000000000E+00 0. -1.
         -1   -1    0    0    0  501 -0.00000000000E+00 -0.00000000000E+00 -0.10051893798E+02  0.10051893798E+02  0.00000000000E+00 0.  1.
         25    2    1    2    0    0  0.18623066733E+02  0.13991362394E+02  0.96361015574E+03  0.97197485289E+03  0.12509198842E+03 0.  0.
          5    1    3    3  502    0  0.65326646608E+02  0.15328704543E+02  0.33879785512E+03  0.34540410966E+03  0.41800000000E+01 0.  1.
         -5    1    3    3    0  502 -0.46703579874E+02 -0.13373421486E+01  0.62481230063E+03  0.62657074323E+03  0.41800000000E+01 0.  1.
        -11    1    1    2    0    0 -0.53593069284E+02  0.34792780103E+01  0.18192391002E+03  0.18968561223E+03  0.00000000000E+00 0.  1.
         11    1    1    2    0    0  0.34970002551E+02 -0.17470640405E+02  0.19011278860E+03  0.19409017684E+03  0.00000000000E+00 0. -1.
</event>
<event>
 7    1  0.2733606E-009  0.8173231E+02  0.7561462E-02  0.1324206E+00
          2   -1    0    0  501    0  0.00000000000E+00  0.00000000000E+00  0.36736503366E+02  0.36736503366E+02  0.00000000000E+00 0. -1.
         -2   -1    0    0    0  501 -0.00000000000E+00 -0.00000000000E+00 -0.31949896266E+03  0.31949896266E+03  0.00000000000E+00 0.  1.
         25    2    1    2    0    0 -0.45597037143E+01  0.73061736800E+00 -0.17457274376E+03  0.21481170360E+03  0.12508837053E+03 0.  0.
          5    1    3    3  502    0 -0.32143426816E+02  0.29778934584E+02 -0.16840996045E+03  0.17406714800E+03  0.41800000000E+01 0.  1.
         -5    1    3    3    0  502  0.27583723102E+02 -0.29048317216E+02 -0.61627833034E+01  0.40744555603E+02  0.41800000000E+01 0.  1.
        -11    1    1    2    0    0  0.34473884897E+02 -0.23377164192E+02 -0.91149919777E+02  0.10021600881E+03  0.00000000000E+00 0.  1.
         11    1    1    2    0    0 -0.29914181183E+02  0.22646546824E+02 -0.17039795761E+02  0.41207753621E+02  0.00000000000E+00 0. -1.
</event>
<event>
 7    1  0.2733606E-009  0.1342224E+03  0.7561462E-02  0.1221322E+00
          3   -1    0    0  501    0  0.00000000000E+00  0.00000000000E+00  0.89993871684E+02  0.89993871684E+02  0.00000000000E+00 0. -1.
         -3   -1    0    0    0  501 -0.00000000000E+00 -0.00000000000E+00 -0.30201387959E+03  0.30201387959E+03  0.00000000000E+00 0.  1.
         25    2    1    2    0    0  0.10391744004E+03  0.41315681204E+02 -0.49069505528E+02  0.17482496525E+03  0.12510048859E+03 0.  0.
          5    1    3    3  502    0  0.67658604238E+02  0.78422189385E+02 -0.62536812709E+02  0.12106218179E+03  0.41800000000E+01 0. -1.
         -5    1    3    3    0  502  0.36258835804E+02 -0.37106508181E+02  0.13467307181E+02  0.53762783466E+02  0.41800000000E+01 0. -1.
        -11    1    1    2    0    0 -0.24671304572E+02 -0.34579724601E+01  0.70033552560E+01  0.25878134161E+02  0.00000000000E+00 0. -1.
         11    1    1    2    0    0 -0.79246135470E+02 -0.37857708744E+02 -0.16995385763E+03  0.19130465186E+03  0.00000000000E+00 0.  1.
</event>
<event>
 7    1  0.2733606E-009  0.8656301E+02  0.7561462E-02  0.1311395E+00
         -1   -1    0    0    0  501 -0.00000000000E+00  0.00000000000E+00  0.61227028309E+02  0.61227028309E+02  0.00000000000E+00 0.  1.
          1   -1    0    0  501    0  0.00000000000E+00 -0.00000000000E+00 -0.26054576109E+03  0.26054576109E+03  0.00000000000E+00 0. -1.
         25    2    1    2    0    0  0.15222712764E+02 -0.38102151306E+02 -0.15909190346E+03  0.20649707783E+03  0.12508918615E+03 0.  0.
          5    1    3    3  502    0 -0.24962022260E+02 -0.34344982132E+02 -0.36379047282E+00  0.42664799267E+02  0.41800000000E+01 0. -1.
         -5    1    3    3    0  502  0.40184735024E+02 -0.37571691740E+01 -0.15872811298E+03  0.16383227857E+03  0.41800000000E+01 0. -1.
        -11    1    1    2    0    0 -0.35701847699E+02 -0.10443880917E+02  0.13926721558E+02  0.39719644398E+02  0.00000000000E+00 0.  1.
         11    1    1    2    0    0  0.20479134935E+02  0.48546032223E+02 -0.54153550877E+02  0.75556067162E+02  0.00000000000E+00 0. -1.
</event>
<event>
 7    1  0.2733606E-009  0.1263594E+03  0.7561462E-02  0.1232960E+00
         -3   -1    0    0    0  501 -0.00000000000E+00  0.00000000000E+00  0.60386491055E+03  0.60386491055E+03  0.00000000000E+00 0.  1.
          3   -1    0    0  501    0  0.00000000000E+00 -0.00000000000E+00 -0.31312456817E+02  0.31312456817E+02  0.00000000000E+00 0. -1.
         25    2    1    2    0    0  0.74463585962E+02  0.13683627088E+02  0.22218243233E+03  0.26598130044E+03  0.12509576996E+03 0.  0.
          5    1    3    3  502    0  0.10635072469E+03  0.11714253244E+02  0.20001319557E+03  0.22687100118E+03  0.41800000000E+01 0.  1.
         -5    1    3    3    0  502 -0.31887138732E+02  0.19693738443E+01  0.22169236758E+02  0.39110299261E+02  0.41800000000E+01 0.  1.
        -11    1    1    2    0    0 -0.56021529264E+02  0.31747236576E+02  0.23876618735E+03  0.24729656487E+03  0.00000000000E+00 0. -1.
         11    1    1    2    0    0 -0.18442056699E+02 -0.45430863664E+02  0.11160383404E+03  0.12189950206E+03  0.00000000000E+00 0.  1.
</event>
<event>
 7    1  0.2733606E-009  0.1598519E+03  0.7561462E-02  0.1188864E+00
          2   -1    0    0  501    0  0.00000000000E+00  0.00000000000E+00  0.39524405442E+03  0.39524405442E+03  0.00000000000E+00 0. -1.
         -2   -1    0    0    0  501 -0.00000000000E+00 -0.00000000000E+00 -0.82287398744E+02  0.82287398744E+02  0.00000000000E+00 0.  1.
         25    2    1    2    0    0  0.10998161147E+03 -0.80449509910E+02  0.10604476467E+03  0.21321518115E+03  0.12508854006E+03 0.  0.
          5    1    3    3  502    0  0.32072694226E+01 -0.63306712514E+02  0.79539738656E+02  0.10179424764E+03  0.41800000000E+01 0.  1.
         -5    1    3    3    0  502  0.10677434205E+03 -0.17142797396E+02  0.26505026009E+02  0.11142093352E+03  0.41800000000E+01 0.  1.
        -11    1    1    2    0    0 -0.35303036745E+02  0.61497143676E+02  0.42305333395E+02  0.82570844233E+02  0.00000000000E+00 0.  1.
         11    1    1    2    0    0 -0.74678574722E+02  0.18952366234E+02  0.16460655762E+03  0.18174542778E+03  0.00000000000E+00 0. -1.
</event>
<event>
 7    1  0.2733606E-009  0.1179355E+03  0.7561462E-02  0.1246542E+00
         -2   -1    0    0    0  501 -0.00000000000E+00  0.00000000000E+00  0.64208744386E+02  0.64208744386E+02  0.00000000000E+00 0.  1.
          2   -1    0    0  501    0  0.00000000000E+00 -0.00000000000E+00 -0.26206671084E+03  0.26206671084E+03  0.00000000000E+00 0. -1.
         25    2    1    2    0    0  0.37503537440E+02  0.26760460923E+01 -0.11764602795E+03  0.17578811440E+03  0.12508875541E+03 0.  0.
          5    1    3    3  502    0 -0.18993644568E+02  0.43877107166E+02 -0.86932839292E+02  0.99301309229E+02  0.41800000000E+01 0.  1.
         -5    1    3    3    0  502  0.56497182008E+02 -0.41201061074E+02 -0.30713188656E+02  0.76486805175E+02  0.41800000000E+01 0.  1.
        -11    1    1    2    0    0  0.22308213388E+02 -0.41081027647E+02 -0.50192578336E+01  0.47015956507E+02  0.00000000000E+00 0.  1.
         11    1    1    2    0    0 -0.59811750828E+02  0.38404981554E+02 -0.75192680674E+02  0.10347138432E+03  0.00000000000E+00 0. -1.
</event>
<event>
 7    1  0.2733606E-009  0.1202447E+03  0.7561462E-02  0.1242694E+00
         -3   -1    0    0    0  501 -0.00000000000E+00  0.00000000000E+00  0.26922695481E+03  0.26922695481E+03  0.00000000000E+00 0.  1.
          3   -1    0    0  501    0  0.00000000000E+00 -0.00000000000E+00 -0.68259282988E+02  0.68259282988E+02  0.00000000000E+00 0. -1.
         25    2    1    2    0    0  0.23783709253E+02 -0.62456337023E+02  0.16222563675E+03  0.21548130559E+03  0.12509427238E+03 0.  0.
          5    1    3    3  502    0  0.70635589056E+02 -0.51006197332E+02  0.72064115125E+02  0.11314472014E+03  0.41800000000E+01 0. -1.
         -5    1    3    3    0  502 -0.46851879803E+02 -0.11450139691E+02  0.90161521622E+02  0.10233658545E+03  0.41800000000E+01 0. -1.
        -11    1    1    2    0    0 -0.19540071212E+02 -0.16625328222E+02  0.34100106627E+02  0.42673565511E+02  0.00000000000E+00 0.  1.
         11    1    1    2    0    0 -0.42436380414E+01  0.79081665245E+02  0.46419284464E+01  0.79331366693E+02  0.00000000000E+00 0. -1.
</event>
<event>
 7    1  0.2733606E-009  0.1033103E+03  0.7561462E-02  0.1273485E+00
         -1   -1    0    0    0  501 -0.00000000000E+00  0.00000000000E+00  0.46113611825E+02  0.46113611825E+02  0.00000000000E+00 0.  1.
          1   -1    0    0  501    0  0.00000000000E+00 -0.00000000000E+00 -0.37082182513E+03  0.37082182513E+03  0.00000000000E+00 0. -1.
         25    2    1    2    0    0  0.68047721004E+02  0.16347432801E+02 -0.21653420377E+03  0.25967530727E+03  0.12508586215E+03 0.  0.
          5    1    3    3  502    0  0.11460957027E+02 -0.21487700862E+02  0.72331107847E+01  0.25746167014E+02  0.41800000000E+01 0.  1.
         -5    1    3    3    0  502  0.56586763977E+02  0.37835133663E+02 -0.22376731456E+03  0.23392914026E+03  0.41800000000E+01 0.  1.
        -11    1    1    2    0    0 -0.50340728575E+02 -0.52944678349E+02 -0.75938191173E+02  0.10537521909E+03  0.00000000000E+00 0. -1.
         11    1    1    2    0    0 -0.17706992429E+02  0.36597245548E+02 -0.32235818359E+02  0.51884910599E+02  0.00000000000E+00 0.  1.
</event>
<event>
 7    1  0.2733606E-009  0.1057505E+03  0.7561462E-02  0.1268648E+00
         -2   -1    0    0    0  501 -0.00000000000E+00  0.00000000000E+00  0.44791140870E+02  0.44791140870E+02  0.00000000000E+00 0.  1.
          2   -1    0    0  501    0  0.00000000000E+00 -0.00000000000E+00 -0.38875848599E+03  0.38875848599E+03  0.00000000000E+00 0. -1.
         25    2    1    2    0    0 -0.47333640505E+02  0.54059292335E+02 -0.21387599207E+03  0.25798399264E+03  0.12509963975E+03 0.  0.
          5    1    3    3  502    0 -0.51509704650E+02 -0.26140538599E+02 -0.54773965844E+02  0.79713469161E+02  0.41800000000E+01 0. -1.
         -5    1    3    3    0  502  0.41760641449E+01  0.80199830934E+02 -0.15910202622E+03  0.17827052348E+03  0.41800000000E+01 0. -1.
        -11    1    1    2    0    0  0.21835675084E+02 -0.14879133887E+02  0.97138657252E+01  0.28152167215E+02  0.00000000000E+00 0.  1.
         11    1    1    2    0    0  0.25497965421E+02 -0.39180158449E+02 -0.13980521878E+03  0.14741346700E+03  0.00000000000E+00 0. -1.
</event>
<event>
 7    1  0.2733606E-009  0.1157328E+03  0.7561462E-02  0.1250307E+00
          1   -1    0    0  501    0  0.00000000000E+00  0.00000000000E+00  0.82695293014E+03  0.82695293014E+03  0.00000000000E+00 0. -1.
         -1   -1    0    0    0  501 -0.00000000000E+00 -0.00000000000E+00 -0.34531666030E+02  0.34531666030E+02  0.00000000000E+00 0.  1.
         25    2    1    2    0    0 -0.77229798214E+02 -0.63640209827E+02  0.62733695092E+03  0.64746777967E+03  0.12509339583E+03 0.  0.
          5    1    3    3  502    0 -0.77296450020E+02 -0.19924278172E+02  0.56827145661E+03  0.57386552331E+03  0.41800000000E+01 0.  1.
         -5    1    3    3    0  502  0.66651805773E-01 -0.43715931655E+02  0.59065494305E+02  0.73602256354E+02  0.41800000000E+01 0.  1.
        -11    1    1    2    0    0  0.51583986165E+02  0.16860656177E+02  0.14856914709E+03  0.15817073314E+03  0.00000000000E+00 0. -1.
         11    1    1    2    0    0  0.25645812049E+02  0.46779553651E+02  0.16515166101E+02  0.55846083361E+02  0.00000000000E+00 0.  1.
</event>
<event>
 7    1  0.2733606E-009  0.1188964E+03  0.7561462E-02  0.1244929E+00
         -1   -1    0    0    0  501 -0.00000000000E+00  0.00000000000E+00  0.15915035345E+02  0.15915035345E+02  0.00000000000E+00 0.  1.
          1   -1    0    0  501    0  0.00000000000E+00 -0.00000000000E+00 -0.11322487989E+04  0.11322487989E+04  0.00000000000E+00 0. -1.
         25    2    1    2    0    0  0.64616046769E+02 -0.16307155172E+02 -0.85484506818E+03  0.86651548659E+03  0.12509133099E+03 0.  0.
          5    1    3    3  502    0  0.32263147524E+02 -0.70955448166E+02 -0.46155756219E+03  0.46811156995E+03  0.41800000000E+01 0. -1.
         -5    1    3    3    0  502  0.32352899246E+02  0.54648292994E+02 -0.39328750600E+03  0.39840391663E+03  0.41800000000E+01 0. -1.
        -11    1    1    2    0    0  0.42954606853E+01 -0.18426240555E+02 -0.17595003004E+02  0.25837210651E+02  0.00000000000E+00 0.  1.
         11    1    1    2    0    0 -0.68911507455E+02  0.34733395727E+02 -0.24389369232E+03  0.25581113696E+03  0.00000000000E+00 0. -1.
</event>
<event>
 7    1  0.2733606E-009  0.1582847E+03  0.7561462E-02  0.1190647E+00
         -1   -1    0    0    0  501 -0.00000000000E+00  0.00000000000E+00  0.87407135295E+02  0.87407135295E+02  0.00000000000E+00 0.  1.
          1   -1    0    0  501    0  0.00000000000E+00 -0.00000000000E+00 -0.39365106069E+03  0.39365106069E+03  0.00000000000E+00 0. -1.
         25    2    1    2    0    0  0.11640188258E+03 -0.43856036717E+02 -0.52149967165E+02  0.18395909745E+03  0.12509428538E+03 0.  0.
          5    1    3    3  502    0  0.13629557275E+03 -0.14207724668E+02 -0.26088302342E+02  0.13955792529E+03  0.41800000000E+01 0.  1.
         -5    1    3    3    0  502 -0.19893690172E+02 -0.29648312049E+02 -0.26061664823E+02  0.44401172162E+02  0.41800000000E+01 0.  1.
        -11    1    1    2    0    0 -0.88457519619E+02  0.63909036904E+02 -0.13752990625E+03  0.17556643440E+03  0.00000000000E+00 0.  1.
         11    1    1    2    0    0 -0.27944362958E+02 -0.20053000187E+02 -0.11656405198E+03  0.12153266413E+03  0.00000000000E+00 0. -1.
</event>
<event>
 7    1  0.2733606E-009  0.7784890E+02  0.7561462E-02  0.1335269E+00
         -1   -1    0    0    0  501 -0.00000000000E+00  0.00000000000E+00  0.83042973474E+02  0.83042973474E+02  0.00000000000E+00 0.  1.
          1   -1    0    0  501    0  0.00000000000E+00 -0.00000000000E+00 -0.17719596549E+03  0.17719596549E+03  0.00000000000E+00 0. -1.
         25    2    1    2    0    0 -0.43536218935E+02  0.11651684812E+01 -0.42673014439E+02  0.13915887856E+03  0.12508975715E+03 0.  0.
          5    1    3    3  502    0 -0.69729627744E+01 -0.14475476364E+02 -0.81648458815E+02  0.83319294601E+02  0.41800000000E+01 0. -1.
         -5    1    3    3    0  502 -0.36563256161E+02  0.15640644845E+02  0.38975444376E+02  0.55839583958E+02  0.41800000000E+01 0. -1.
        -11    1    1    2    0    0  0.19101766069E+02 -0.45020633581E+02  0.37209800044E+00  0.48906782473E+02  0.00000000000E+00 0.  1.
         11    1    1    2    0    0  0.24434452866E+02  0.43855465100E+02 -0.51852075579E+02  0.72173277934E+02  0.00000000000E+00 0. -1.
</event>
<event>
 7    1  0.2733606E-009  0.1299372E+03  0.7561462E-02  0.1227549E+00
          1   -1    0    0  501    0  0.00000000000E+00  0.00000000000E+00  0.11519723962E+04  0.11519723962E+04  0.00000000000E+00 0. -1.
         -1   -1    0    0    0  501 -0.00000000000E+00 -0.00000000000E+00 -0.20490832421E+02  0.20490832421E+02  0.00000000000E+00 0.  1.
         25    2    1    2    0    0 -0.33827899669E+02 -0.86659296226E+02  0.83066930132E+03  0.84516963562E+03  0.12508422926E+03 0.  0.
          5    1    3    3  502    0  0.19577303534E+02 -0.80198890910E+02  0.68239463805E+03  0.68738275172E+03  0.41800000000E+01 0. -1.
         -5    1    3    3    0  502 -0.53405203203E+02 -0.64604053163E+01  0.14827466326E+03  0.15778688390E+03  0.41800000000E+01 0. -1.
        -11    1    1    2    0    0  0.58565469706E+02  0.76907311946E+02  0.18808281306E+03  0.21147054982E+03  0.00000000000E+00 0. -1.
         11    1    1    2    0    0 -0.24737570037E+02  0.97519842799E+01  0.11272944943E+03  0.11582304321E+03  0.00000000000E+00 0.  1.
</event>
<event>
 7    1  0.2733606E-009  0.1022036E+03  0.7561462E-02  0.1275729E+00
          2   -1    0    0  501    0  0.00000000000E+00  0.00000000000E+00  0.24712832283E+03  0.24712832283E+03  0.00000000000E+00 0. -1.
         -2   -1    0    0    0  501 -0.00000000000E+00 -0.00000000000E+00 -0.59915834331E+02  0.59915834331E+02  0.00000000000E+00 0.  1.
         25    2    1    2    0    0  0.79411249865E+01 -0.45282201085E+02  0.14644241712E+03  0.19800769224E+03  0.12509246762E+03 0.  0.
          5    1    3    3  502    0 -0.14066483189E+02 -0.73074768433E+02  0.37639006148E+02  0.83498233003E+02  0.41800000000E+01 0.  1.
         -5    1    3    3    0  502  0.22007608176E+02  0.27792567348E+02  0.10880341097E+03  0.11450945924E+03  0.41800000000E+01 0.  1.
        -11    1    1    2    0    0 -0.13247361873E+02  0.68802229114E+02  0.46704916016E+02  0.84205632280E+02  0.00000000000E+00 0. -1.
         11    1    1    2    0    0  0.53062368861E+01 -0.23520028029E+02 -0.59348446366E+01  0.24830832633E+02  0.00000000000E+00 0.  1.
</event>
<event>
 7    1  0.2733606E-009  0.8886024E+02  0.7561462E-02  0.1305635E+00
          2   -1    0    0  501    0  0.00000000000E+00  0.00000000000E+00  0.10351184403E+04  0.10351184403E+04  0.00000000000E+00 0. -1.
         -2   -1    0    0    0  501 -0.00000000000E+00 -0.00000000000E+00 -0.19215168173E+02  0.19215168173E+02  0.00000000000E+00 0.  1.
         25    2    1    2    0    0  0.42254633740E+02  0.47285030452E+02  0.80383143488E+03  0.81597575200E+03  0.12510045551E+03 0.  0.
          5    1    3    3  502    0  0.60753528036E+02  0.57197410755E+02  0.29252669226E+03  0.30422339334E+03  0.41800000000E+01 0. -1.
         -5    1    3    3    0  502 -0.18498894296E+02 -0.99123803038E+01  0.51130474262E+03  0.51175235866E+03  0.41800000000E+01 0. -1.
        -11    1    1    2    0    0 -0.15209205067E+02  0.31626400102E+01 -0.29807081922E+01  0.15817927548E+02  0.00000000000E+00 0.  1.
         11    1    1    2    0    0 -0.27045428673E+02 -0.50447670462E+02  0.21505254545E+03  0.22253992894E+03  0.00000000000E+00 0. -1.
</event>
<event>
 7    1  0.2733606E-009  0.1985155E+03  0.7561462E-02  0.1150998E+00
          2   -1    0    0  501    0  0.00000000000E+00  0.00000000000E+00  0.11716655887E+04  0.11716655887E+04  0.00000000000E+00 0. -1.
         -2   -1    0    0    0  501 -0.00000000000E+00 -0.00000000000E+00 -0.43527293251E+02  0.43527293251E+02  0.00000000000E+00 0.  1.
         25    2    1    2    0    0 -0.64236837808E+02  0.16509478070E+03  0.34965879609E+03  0.41145092103E+03  0.12509168152E+03 0.  0.
          5    1    3    3  502    0 -0.64083947695E+02  0.15409759709E+02  0.88781660707E+02  0.11065201636E+03  0.41800000000E+01 0.  1.
         -5    1    3    3    0  502 -0.15289011271E+00  0.14968502099E+03  0.26087713539E+03  0.30079890467E+03  0.41800000000E+01 0.  1.
        -11    1    1    2    0    0  0.10082120250E+02 -0.78259964794E+02  0.17942720934E+03  0.19601121062E+03  0.00000000000E+00 0.  1.
         11    1    1    2    0    0  0.54154717558E+02 -0.86834815903E+02  0.59905229003E+03  0.60773075031E+03  0.00000000000E+00 0. -1.
</event>
<event>
 7    1  0.2733606E-009  0.2608497E+03  0.7561462E-02  0.1106634E+00
         -2   -1    0    0    0  501 -0.00000000000E+00  0.00000000000E+00  0.59237612177E+02  0.59237612177E+02  0.00000000000E+00 0.  1.
          2   -1    0    0  501    0  0.00000000000E+00 -0.00000000000E+00 -0.15276779918E+04  0.15276779918E+04  0.00000000000E+00 0. -1.
         25    2    1    2    0    0  0.35523323823E+00  0.25778300037E+03 -0.10385513014E+04  0.10773517447E+04  0.12508307079E+03 0.  0.
          5    1    3    3  502    0  0.13372329052E+02  0.38411326229E+02 -0.39890987647E+03  0.40099976448E+03  0.41800000000E+01 0. -1.
         -5    1    3    3    0  502 -0.13017095814E+02  0.21937167415E+03 -0.63964142495E+03  0.67635198019E+03  0.41800000000E+01 0. -1.
        -11    1    1    2    0    0 -0.13064006678E+02 -0.28178922510E+02 -0.13438051024E+02  0.33842298380E+02  0.00000000000E+00 0.  1.
         11    1    1    2    0    0  0.12708773440E+02 -0.22960407786E+03 -0.41645102723E+03  0.47572156097E+03  0.00000000000E+00 0. -1.
</event>
<event>
 7    1  0.2733606E-009  0.1026551E+03  0.7561462E-02  0.1274810E+00
         -2   -1    0    0    0  501 -0.00000000000E+00  0.00000000000E+00  0.15837057272E+02  0.15837057272E+02  0.00000000000E+00 0.  1.
          2   -1    0    0  501    0  0.00000000000E+00 -0.00000000000E+00 -0.10699146885E+04  0.10699146885E+04  0.00000000000E+00 0. -1.
         25    2    1    2    0    0 -0.27788429319E+02  0.63335870009E+02 -0.66346021339E+03  0.67868288729E+03  0.12508947802E+03 0.  0.
          5    1    3    3  502    0 -0.36597661619E+02 -0.82042128224E+01 -0.48067695065E+03  0.48215609633E+03  0.41800000000E+01 0. -1.
         -5    1    3    3    0  502  0.88092322999E+01  0.71540082831E+02 -0.18278326275E+03  0.19652679096E+03  0.41800000000E+01 0. -1.
        -11    1    1    2    0    0  0.20632054810E+02  0.91229809039E+01 -0.22653082429E+02  0.31969870344E+02  0.00000000000E+00 0.  1.
         11    1    1    2    0    0  0.71563745090E+01 -0.72458850912E+02 -0.36796433540E+03  0.37509898813E+03  0.00000000000E+00 0. -1.
</event>
<event>
 7    1  0.2733606E-009  0.1124714E+03  0.7561462E-02  0.1256061E+00
         -1   -1    0    0    0  501 -0.00000000000E+00  0.00000000000E+00  0.73625277228E+02  0.73625277228E+02  0.00000000000E+00 0.  1.
          1   -1    0    0  501    0  0.00000000000E+00 -0.00000000000E+00 -0.35029059521E+03  0.35029059521E+03  0.00000000000E+00 0. -1.
         25    2    1    2    0    0 -0.52451325347E+02  0.88948148177E+02 -0.20932551118E+03  0.26481500441E+03  0.12508757867E+03 0.  0.
          5    1    3    3  502    0 -0.38499476427E+02  0.48510876435E+02 -0.21282525996E+03  0.22169253144E+03  0.41800000000E+01 0. -1.
         -5    1    3    3    0  502 -0.13951848920E+02  0.40437271742E+02  0.34997487773E+01  0.43122472978E+02  0.41800000000E+01 0. -1.
        -11    1    1    2    0    0  0.15179493403E+02  0.71779157148E+01  0.18471665544E+02  0.24962810778E+02  0.00000000000E+00 0.  1.
         11    1    1    2    0    0  0.37271831944E+02 -0.96126063892E+02 -0.85811472341E+02  0.13413805724E+03  0.00000000000E+00 0. -1.
</event>
<event>
 7    1  0.2733606E-009  0.1300150E+03  0.7561462E-02  0.1227433E+00
         -2   -1    0    0    0  501 -0.00000000000E+00  0.00000000000E+00  0.10018098292E+04  0.10018098292E+04  0.00000000000E+00 0.  1.
          2   -1    0    0  501    0  0.00000000000E+00 -0.00000000000E+00 -0.19254880902E+02  0.19254880902E+02  0.00000000000E+00 0. -1.
         25    2    1    2    0    0 -0.66043005301E+02 -0.55029256299E+02  0.50167312352E+03  0.52413069283E+03  0.12508861941E+03 0.  0.
          5    1    3    3  502    0 -0.16918522296E+02  0.31168928044E+02  0.26607176084E+03  0.26845743198E+03  0.41800000000E+01 0.  1.
         -5    1    3    3    0  502 -0.49124483005E+02 -0.86198184342E+02  0.23560136268E+03  0.25567326085E+03  0.41800000000E+01 0.  1.
        -11    1    1    2    0    0  0.70735068629E+02  0.75827189939E+02  0.38601542606E+03  0.39970129075E+03  0.00000000000E+00 0. -1.
         11    1    1    2    0    0 -0.46920633284E+01 -0.20797933640E+02  0.94866398763E+02  0.97232726570E+02  0.00000000000E+00 0.  1.
</event>
<event>
 7    1  0.2733606E-009  0.9389500E+02  0.7561462E-02  0.1293684E+00
          2   -1    0    0  501    0  0.00000000000E+00  0.00000000000E+00  0.25768995748E+03  0.25768995748E+03  0.00000000000E+00 0. -1.
         -2   -1    0    0    0  501 -0.00000000000E+00 -0.00000000000E+00 -0.51542014626E+02  0.51542014626E+02  0.00000000000E+00 0.  1.
         25    2    1    2    0    0  0.23230705442E+02 -0.72737321858E+01  0.76282883370E+02  0.14852770387E+03  0.12509527436E+03 0.  0.
          5    1    3    3  502    0 -0.38214562859E+02  0.16693947625E+02  0.70721704851E+02  0.82207497462E+02  0.41800000000E+01 0.  1.
         -5    1    3    3    0  502  0.61445268300E+02 -0.23967679810E+02  0.55611785186E+01  0.66320206412E+02  0.41800000000E+01 0.  1.
        -11    1    1    2    0    0  0.12018578429E+02  0.33673021131E+02  0.17075236476E+02  0.39621739995E+02  0.00000000000E+00 0.  1.
         11    1    1    2    0    0 -0.35249283870E+02 -0.26399288945E+02  0.11278982301E+03  0.12108252824E+03  0.00000000000E+00 0. -1.
</event>
<event>
 7    1  0.2733606E-009  0.1462421E+03  0.7561462E-02  0.1205168E+00
          1   -1    0    0  501    0  0.00000000000E+00  0.00000000000E+00  0.67530238705E+02  0.67530238705E+02  0.00000000000E+00 0. -1.
         -1   -1    0    0    0  501 -0.00000000000E+00 -0.00000000000E+00 -0.42440519798E+03  0.42440519798E+03  0.00000000000E+00 0.  1.
         25    2    1    2    0    0  0.11189498284E+03  0.37184127194E+02 -0.27243772296E+03  0.32213820799E+03  0.12509023006E+03 0.  0.
          5    1    3    3  502    0  0.12127751842E+03  0.67875856909E+02 -0.21092322834E+03  0.25262907410E+03  0.41800000000E+01 0. -1.
         -5    1    3    3    0  502 -0.93825355760E+01 -0.30691729715E+02 -0.61514494621E+02  0.69509133897E+02  0.41800000000E+01 0. -1.
        -11    1    1    2    0    0 -0.33185439259E+02  0.18154067469E+01 -0.74272567730E+02  0.81369425448E+02  0.00000000000E+00 0.  1.
         11    1    1    2    0    0 -0.78709543582E+02 -0.38999533941E+02 -0.10164668579E+02  0.88427803240E+02  0.00000000000E+00 0. -1.
</event>
<event>
 7    1  0.2733606E-009  0.2493577E+03  0.7561462E-02  0.1113711E+00
         -2   -1    0    0    0  501 -0.00000000000E+00  0.00000000000E+00  0.80015994421E+02  0.80015994421E+02  0.00000000000E+00 0. -1.
          2   -1    0    0  501    0  0.00000000000E+00 -0.00000000000E+00 -0.83173198098E+03  0.83173198098E+03  0.00000000000E+00 0.  1.
         25    2    1    2    0    0 -0.58426670727E+02  0.22617735650E+03 -0.36014810533E+03  0.44712841795E+03  0.12508913590E+03 0.  0.
          5    1    3    3  502    0  0.34863457018E+02  0.33918240362E+02 -0.92657404401E+02  0.10473191803E+03  0.41800000000E+01 0.  1.
         -5    1    3    3    0  502 -0.93290127745E+02  0.19225911614E+03 -0.26749070093E+03  0.34239649992E+03  0.41800000000E+01 0.  1.
        -11    1    1    2    0    0  0.13426791930E+02 -0.12120008575E+03 -0.27792056957E+03  0.30349560543E+03  0.00000000000E+00 0.  1.
         11    1    1    2    0    0  0.44999878798E+02 -0.10497727075E+03 -0.11364731166E+03  0.16112395202E+03  0.00000000000E+00 0. -1.
</event>
<event>
 7    1  0.2733606E-009  0.8053739E+02  0.7561462E-02  0.1327533E+00
         -2   -1    0    0    0  501 -0.00000000000E+00  0.00000000000E+00  0.73513633715E+02  0.73513633715E+02  0.00000000000E+00 0.  1.
          2   -1    0    0  501    0  0.00000000000E+00 -0.00000000000E+00 -0.17939935025E+03  0.17939935025E+03  0.00000000000E+00 0. -1.
         25    2    1    2    0    0  0.47283436193E+02  0.75017007531E+01 -0.70926017800E+02  0.15156547939E+03  0.12509834407E+03 0.  0.
          5    1    3    3  502    0 -0.27997309082E+02  0.20588371752E+02  0.13593924319E+02  0.37549934029E+02  0.41800000000E+01 0.  1.
         -5    1    3    3    0  502  0.75280745275E+02 -0.13086670998E+02 -0.84519942120E+02  0.11401554536E+03  0.41800000000E+01 0.  1.
        -11    1    1    2    0    0 -0.14312419514E+02  0.35995862357E+01 -0.57849910129E+02  0.59702717487E+02  0.00000000000E+00 0. -1.
         11    1    1    2    0    0 -0.32971016680E+02 -0.11101286989E+02  0.22890211399E+02  0.41644787088E+02  0.00000000000E+00 0.  1.
</event>
<event>
 7    1  0.2733606E-009  0.1949317E+03  0.7561462E-02  0.1154087E+00
          2   -1    0    0  501    0  0.00000000000E+00  0.00000000000E+00  0.14436016209E+04  0.14436016209E+04  0.00000000000E+00 0. -1.
         -2   -1    0    0    0  501 -0.00000000000E+00 -0.00000000000E+00 -0.37923967664E+02  0.37923967664E+02  0.00000000000E+00 0.  1.
         25    2    1    2    0    0  0.18741664277E+03 -0.40452874391E+02  0.48477299161E+03  0.53611052331E+03  0.12509279265E+03 0.  0.
          5    1    3    3  502    0  0.59686356083E+02  0.13841786763E+01  0.30929849269E+03  0.31503556472E+03  0.41800000000E+01 0. -1.
         -5    1    3    3    0  502  0.12773028669E+03 -0.41837053068E+02  0.17547449892E+03  0.22107495859E+03  0.41800000000E+01 0. -1.
        -11    1    1    2    0    0 -0.37704356798E+02 -0.72884775484E+01  0.67463298919E+02  0.77627553920E+02  0.00000000000E+00 0.  1.
         11    1    1    2    0    0 -0.14971228597E+03  0.47741351940E+02  0.85344136274E+03  0.86778751137E+03  0.00000000000E+00 0. -1.
</event>
<event>
 7    1  0.2733606E-009  0.8519434E+02  0.7561462E-02  0.1314925E+00
         -1   -1    0    0    0  501 -0.00000000000E+00  0.00000000000E+00  0.37915282550E+02  0.37915282550E+02  0.00000000000E+00 0.  1.
          1   -1    0    0  501    0  0.00000000000E+00 -0.00000000000E+00 -0.47806950165E+03  0.47806950165E+03  0.00000000000E+00 0. -1.
         25    2    1    2    0    0  0.36280041983E+02 -0.61045098659E+01 -0.10588177231E+03  0.16796278377E+03  0.12508813108E+03 0.  0.
          5    1    3    3  502    0 -0.17614406883E+02 -0.31202405181E+02  0.10188897034E+02  0.37485242986E+02  0.41800000000E+01 0. -1.
         -5    1    3    3    0  502  0.53894448866E+02  0.25097895315E+02 -0.11607066934E+03  0.13047754078E+03  0.41800000000E+01 0. -1.
        -11    1    1    2    0    0 -0.54114440841E+02  0.12900348778E+02 -0.31832915984E+03  0.32315359461E+03  0.00000000000E+00 0. -1.
         11    1    1    2    0    0  0.17834398858E+02 -0.67958389120E+01 -0.15943286953E+02  0.24868405820E+02  0.00000000000E+00 0.  1.
</event>
<event>
 7    1  0.2839686E-009  0.1277635E+03  0.7561462E-02  0.1230813E+00
          1   -1    0    0  501    0  0.00000000000E+00  0.00000000000E+00  0.92385646746E+03  0.92385646746E+03  0.00000000000E+00 0. -1.
         -1   -1    0    0    0  501 -0.00000000000E+00 -0.00000000000E+00 -0.19548236049E+02  0.19548236049E+02  0.00000000000E+00 0.  1.
         25    2    1    2    0    0 -0.69317214580E+02  0.30005515940E+02  0.57090607252E+03  0.58931038063E+03  0.12509106226E+03 0.  0.
          5    1    3    3  502    0  0.26030351416E+02  0.42311864606E+02  0.18802522406E+03  0.19452205625E+03  0.41800000000E+01 0. -1.
         -5    1    3    3    0  502 -0.95347565997E+02 -0.12306348666E+02  0.38288084845E+03  0.39478832439E+03  0.41800000000E+01 0. -1.
        -11    1    1    2    0    0  0.72163168804E+02  0.68423814442E+01  0.14508679245E+03  0.16218667781E+03  0.00000000000E+00 0.  1.
         11    1    1    2    0    0 -0.28459542241E+01 -0.36847897384E+02  0.18831536644E+03  0.19190764507E+03  0.00000000000E+00 0. -1.
</event>
<event>
 7    1  0.2733606E-009  0.1123018E+03  0.7561462E-02  0.1256366E+00
          2   -1    0    0  501    0  0.00000000000E+00  0.00000000000E+00  0.74483764011E+03  0.74483764011E+03  0.00000000000E+00 0. -1.
         -2   -1    0    0    0  501 -0.00000000000E+00 -0.00000000000E+00 -0.17315318372E+02  0.17315318372E+02  0.00000000000E+00 0.  1.
         25    2    1    2    0    0 -0.19710942735E+01 -0.33794207955E+02  0.41373896370E+03  0.43355889117E+03  0.12508976108E+03 0.  0.
          5    1    3    3  502    0  0.20488242417E+02  0.43205698473E+02  0.12644213491E+03  0.13524639122E+03  0.41800000000E+01 0. -1.
         -5    1    3    3    0  502 -0.22459336691E+02 -0.76999906428E+02  0.28729682879E+03  0.29831249995E+03  0.41800000000E+01 0. -1.
        -11    1    1    2    0    0 -0.57242884186E+00  0.64987301568E+02  0.18574984182E+03  0.19679095705E+03  0.00000000000E+00 0. -1.
         11    1    1    2    0    0  0.25435231153E+01 -0.31193093613E+02  0.12803351621E+03  0.13180311025E+03  0.00000000000E+00 0.  1.
</event>
<event>
 7    1  0.2733606E-009  0.9849353E+02  0.7561462E-02  0.1283496E+00
         -2   -1    0    0    0  501 -0.00000000000E+00  0.00000000000E+00  0.12767331761E+03  0.12767331761E+03  0.00000000000E+00 0.  1.
          2   -1    0    0  501    0  0.00000000000E+00 -0.00000000000E+00 -0.11488910012E+03  0.11488910012E+03  0.00000000000E+00 0. -1.
         25    2    1    2    0    0  0.13828036774E+02 -0.84350297949E+01 -0.21503716284E+02  0.12795437327E+03  0.12509015747E+03 0.  0.
          5    1    3    3  502    0  0.55497967876E+02  0.34389559668E+02 -0.18467048755E+02  0.67979191980E+02  0.41800000000E+01 0. -1.
         -5    1    3    3    0  502 -0.41669931102E+02 -0.42824589463E+02 -0.30366675287E+01  0.59975181287E+02  0.41800000000E+01 0. -1.
        -11    1    1    2    0    0 -0.30145428829E+02 -0.21872883999E+02  0.60703794580E+02  0.71218822021E+02  0.00000000000E+00 0.  1.
         11    1    1    2    0    0  0.16317392055E+02  0.30307913794E+02 -0.26415860806E+02  0.43389222442E+02  0.00000000000E+00 0. -1.
</event>
<event>
 7    1  0.2733606E-009  0.1012403E+03  0.7561462E-02  0.1277709E+00
         -1   -1    0    0    0  501 -0.00000000000E+00  0.00000000000E+00  0.51194810551E+02  0.51194810551E+02  0.00000000000E+00 0. -1.
          1   -1    0    0  501    0  0.00000000000E+00 -0.00000000000E+00 -0.28321982949E+03  0.28321982949E+03  0.00000000000E+00 0.  1.
         25    2    1    2    0    0  0.20882202704E+02 -0.39409332009E+02 -0.94594725310E+02  0.16305449446E+03  0.12509773886E+03 0.  0.
          5    1    3    3  502    0 -0.19855466002E+02 -0.62594886953E+02 -0.10424622645E+02  0.66622102640E+02  0.41800000000E+01 0. -1.
         -5    1    3    3    0  502  0.40737668707E+02  0.23185554944E+02 -0.84170102665E+02  0.96432391822E+02  0.41800000000E+01 0. -1.
        -11    1    1    2    0    0 -0.47138508399E+02  0.66009079393E+01 -0.11332629704E+03  0.12291647798E+03  0.00000000000E+00 0.  1.
         11    1    1    2    0    0  0.26256305695E+02  0.32808424069E+02 -0.24103996595E+02  0.48443667600E+02  0.00000000000E+00 0. -1.
</event>
<event>
 7    1  0.3589763E-009  0.8766301E+02  0.7561462E-02  0.1308612E+00
          1   -1    0    0  501    0  0.00000000000E+00  0.00000000000E+00  0.14882526244E+03  0.14882526244E+03  0.00000000000E+00 0. -1.
         -1   -1    0    0    0  501 -0.00000000000E+00 -0.00000000000E+00 -0.12027141956E+03  0.12027141956E+03  0.00000000000E+00 0.  1.
         25    2    1    2    0    0  0.27031887274E+02  0.53938837405E+02  0.65306386359E+02  0.15346811484E+03  0.12508963611E+03 0.  0.
          5    1    3    3  502    0  0.11866550074E+02  0.70609642327E+02  0.93048467269E+02  0.11748202527E+03  0.41800000000E+01 0.  1.
         -5    1    3    3    0  502  0.15165337200E+02 -0.16670804922E+02 -0.27742080910E+02  0.35986089567E+02  0.41800000000E+01 0.  1.
        -11    1    1    2    0    0 -0.19476977531E+02  0.59142973031E+01 -0.49893462541E+02  0.53885890274E+02  0.00000000000E+00 0. -1.
         11    1    1    2    0    0 -0.75549097433E+01 -0.59853134708E+02  0.13140919055E+02  0.61742676887E+02  0.00000000000E+00 0.  1.
</event>
<event>
 7    1  0.2733606E-009  0.1001697E+03  0.7561462E-02  0.1279939E+00
         -1   -1    0    0    0  501 -0.00000000000E+00  0.00000000000E+00  0.36793585724E+02  0.36793585724E+02  0.00000000000E+00 0.  1.
          1   -1    0    0  501    0  0.00000000000E+00 -0.00000000000E+00 -0.53730740482E+03  0.53730740482E+03  0.00000000000E+00 0. -1.
         25    2    1    2    0    0  0.29924234398E+02 -0.57082668088E+02 -0.39986892549E+03  0.42390675495E+03  0.12509152058E+03 0.  0.
          5    1    3    3  502    0  0.35640076339E+02 -0.68472111909E+02 -0.40282320686E+03  0.41017393084E+03  0.41800000000E+01 0.  1.
         -5    1    3    3    0  502 -0.57158419413E+01  0.11389443821E+02  0.29542813754E+01  0.13732824112E+02  0.41800000000E+01 0.  1.
        -11    1    1    2    0    0 -0.60421006074E+02  0.25089463575E+02 -0.73160871203E+02  0.98146279770E+02  0.00000000000E+00 0.  1.
         11    1    1    2    0    0  0.30496771676E+02  0.31993204513E+02 -0.27484022400E+02  0.52047955820E+02  0.00000000000E+00 0. -1.
</event>
<event>
 7    1  0.2733606E-009  0.9661644E+02  0.7561462E-02  0.1287576E+00
          1   -1    0    0  501    0  0.00000000000E+00  0.00000000000E+00  0.69116175088E+02  0.69116175088E+02  0.00000000000E+00 0. -1.
         -1   -1    0    0    0  501 -0.00000000000E+00 -0.00000000000E+00 -0.28898973577E+03  0.28898973577E+03  0.00000000000E+00 0.  1.
         25    2    1    2    0    0  0.55771712411E+02 -0.66025308662E+02 -0.12817782434E+03  0.19887119648E+03  0.12510145023E+03 0.  0.
          5    1    3    3  502    0  0.43799016483E+02 -0.76349191313E+02 -0.21177332609E+02  0.90628387801E+02  0.41800000000E+01 0.  1.
         -5    1    3    3    0  502  0.11972695929E+02  0.10323882651E+02 -0.10700049173E+03  0.10824280868E+03  0.41800000000E+01 0.  1.
        -11    1    1    2    0    0 -0.32789244465E+02  0.23226994458E+02 -0.10195225786E+03  0.10958508432E+03  0.00000000000E+00 0.  1.
         11    1    1    2    0    0 -0.22982467946E+02  0.42798314204E+02  0.10256521508E+02  0.49649630059E+02  0.00000000000E+00 0. -1.
</event>
<event>
 7    1  0.2733606E-009  0.7291548E+02  0.7561462E-02  0.1350450E+00
         -2   -1    0    0    0  501 -0.00000000000E+00  0.00000000000E+00  0.68712823458E+02  0.68712823458E+02  0.00000000000E+00 0.  1.
          2   -1    0    0  501    0  0.00000000000E+00 -0.00000000000E+00 -0.22480701083E+03  0.22480701083E+03  0.00000000000E+00 0. -1.
         25    2    1    2    0    0  0.35573503872E+02 -0.10778613034E+02 -0.45065639817E+02  0.13805785786E+03  0.12508959809E+03 0.  0.
          5    1    3    3  502    0  0.46587622786E+02  0.26287144339E+02  0.24012450462E+02  0.58783422251E+02  0.41800000000E+01 0.  1.
         -5    1    3    3    0  502 -0.11014118915E+02 -0.37065757373E+02 -0.69078090279E+02  0.79274435613E+02  0.41800000000E+01 0.  1.
        -11    1    1    2    0    0 -0.13673733557E+02  0.24057344026E+02  0.11733653133E+02  0.30056703193E+02  0.00000000000E+00 0.  1.
         11    1    1    2    0    0 -0.21899770315E+02 -0.13278730991E+02 -0.12276220069E+03  0.12540527323E+03  0.00000000000E+00 0. -1.
</event>
<event>
 7    1  0.2733606E-009  0.1264011E+03  0.7561462E-02  0.1232896E+00
         -2   -1    0    0    0  501 -0.00000000000E+00  0.00000000000E+00  0.36985209254E+03  0.36985209254E+03  0.00000000000E+00 0. -1.
          2   -1    0    0  501    0  0.00000000000E+00 -0.00000000000E+00 -0.51707132545E+02  0.51707132545E+02  0.00000000000E+00 0.  1.
         25    2    1    2    0    0 -0.47664448010E+02 -0.76288428332E+02  0.21444471651E+03  0.26405801919E+03  0.12509307397E+03 0.  0.
          5    1    3    3  502    0 -0.76186638123E+02 -0.72941054171E+01  0.13290611546E+03  0.15342462556E+03  0.41800000000E+01 0. -1.
         -5    1    3    3    0  502  0.28522190113E+02 -0.68994322915E+02  0.81538601059E+02  0.11063339363E+03  0.41800000000E+01 0. -1.
        -11    1    1    2    0    0  0.33721796882E+02  0.12309425119E+02  0.80310574407E+02  0.87968573327E+02  0.00000000000E+00 0. -1.
         11    1    1    2    0    0  0.13942651128E+02  0.63979003213E+02  0.23389669074E+02  0.69532632569E+02  0.00000000000E+00 0.  1.
</event>
<event>
 7    1  0.2733606E-009  0.9164598E+02  0.7561462E-02  0.1298914E+00
         -1   -1    0    0    0  501 -0.00000000000E+00  0.00000000000E+00  0.65858286469E+03  0.65858286469E+03  0.00000000000E+00 0.  1.
          1   -1    0    0  501    0  0.00000000000E+00 -0.00000000000E+00 -0.20043922313E+02  0.20043922313E+02  0.00000000000E+00 0. -1.
         25    2    1    2    0    0  0.19952318316E+02  0.30830732412E+02  0.38620445229E+03  0.40761481884E+03  0.12508929811E+03 0.  0.
          5    1    3    3  502    0  0.37241290965E+02 -0.18046507370E+02  0.32342208655E+03  0.32608573818E+03  0.41800000000E+01 0. -1.
         -5    1    3    3    0  502 -0.17288972649E+02  0.48877239782E+02  0.62782365743E+02  0.81529080653E+02  0.41800000000E+01 0. -1.
        -11    1    1    2    0    0 -0.35929503191E+02 -0.51973780535E+02  0.22159103125E+03  0.23042306350E+03  0.00000000000E+00 0.  1.
         11    1    1    2    0    0  0.15977184875E+02  0.21143048124E+02  0.30743458836E+02  0.40588904663E+02  0.00000000000E+00 0. -1.
</event>
<event>
 7    1  0.2733606E-009  0.7362683E+02  0.7561462E-02  0.1348177E+00
         -2   -1    0    0    0  501 -0.00000000000E+00  0.00000000000E+00  0.19708176902E+03  0.19708176902E+03  0.00000000000E+00 0. -1.
          2   -1    0    0  501    0  0.00000000000E+00 -0.00000000000E+00 -0.74651361941E+02  0.74651361941E+02  0.00000000000E+00 0.  1.
         25    2    1    2    0    0  0.21582265094E+02 -0.34960430924E+02  0.29179886794E+02  0.13486062429E+03  0.12509155165E+03 0.  0.
          5    1    3    3  502    0  0.27213001694E+02 -0.13189893715E+02 -0.46597072188E+02  0.55707093749E+02  0.41800000000E+01 0.  1.
         -5    1    3    3    0  502 -0.56307366006E+01 -0.21770537209E+02  0.75776958983E+02  0.79153530545E+02  0.41800000000E+01 0.  1.
        -11    1    1    2    0    0  0.10940227545E+02 -0.24079375461E+02  0.50634502201E+02  0.57125806030E+02  0.00000000000E+00 0. -1.
         11    1    1    2    0    0 -0.32522492639E+02  0.59039806385E+02  0.42616018083E+02  0.79746700639E+02  0.00000000000E+00 0.  1.
</event>
<event>
 7    1  0.2733606E-009  0.1067910E+03  0.7561462E-02  0.1266630E+00
         -3   -1    0    0    0  501 -0.00000000000E+00  0.00000000000E+00  0.71980431263E+03  0.71980431263E+03  0.00000000000E+00 0.  1.
          3   -1    0    0  501    0  0.00000000000E+00 -0.00000000000E+00 -0.23172049931E+02  0.23172049931E+02  0.00000000000E+00 0. -1.
         25    2    1    2    0    0 -0.42181305368E+02 -0.48091616666E+02  0.47076494583E+03  0.49128121430E+03  0.12508209779E+03 0.  0.
          5    1    3    3  502    0  0.19876544714E+02 -0.43518512062E+02  0.65358787967E+02  0.81105989214E+02  0.41800000000E+01 0.  1.
         -5    1    3    3    0  502 -0.62057850082E+02 -0.45731046036E+01  0.40540615786E+03  0.41017522509E+03  0.41800000000E+01 0.  1.
        -11    1    1    2    0    0 -0.24553228295E+02  0.13654360227E+02  0.11068316537E+03  0.11419310693E+03  0.00000000000E+00 0. -1.
         11    1    1    2    0    0  0.66734533664E+02  0.34437256439E+02  0.11518415150E+03  0.13750204133E+03  0.00000000000E+00 0.  1.
</event>
<event>
 7    1  0.2971332E-009  0.1468483E+03  0.7561462E-02  0.1204400E+00
         -2   -1    0    0    0  501 -0.00000000000E+00  0.00000000000E+00  0.69567343214E+02  0.69567343214E+02  0.00000000000E+00 0.  1.
          2   -1    0    0  501    0  0.00000000000E+00 -0.00000000000E+00 -0.41340043003E+03  0.41340043003E+03  0.00000000000E+00 0. -1.
         25    2    1    2    0    0  0.12528683053E+03 -0.34827834094E+02 -0.17627271267E+03  0.25224793065E+03  0.12508869395E+03 0.  0.
          5    1    3    3  502    0  0.23287440105E+02  0.10112718612E+02  0.15759386948E+02  0.30172878904E+02  0.41800000000E+01 0.  1.
         -5    1    3    3    0  502  0.10199939042E+03 -0.44940552707E+02 -0.19203209962E+03  0.22207505175E+03  0.41800000000E+01 0.  1.
        -11    1    1    2    0    0 -0.78229174506E+02 -0.23312825833E+02 -0.10636785895E+03  0.13407987549E+03  0.00000000000E+00 0.  1.
         11    1    1    2    0    0 -0.47057656020E+02  0.58140659927E+02 -0.61192515188E+02  0.96639967104E+02  0.00000000000E+00 0. -1.
</event>
